<event>
 5    1  0.1626333E-003  0.9118800E+02  0.7818608E-02  0.1130116E+00
         25   -1    0    0    0    0  0.00000000000E+00  0.00000000000E+00  0.99999998245E-14  0.12500000000E+03  0.12500000000E+03 0.  0.
        -11    1    3    3    0    0 -0.25860482887E+02  0.14359170197E+01 -0.16301445443E+02  0.30603325908E+02  0.51100000000E-03 0. -1.
         23    2    1    0    0    0  0.19204365945E+02 -0.11773511020E+02  0.23708072263E+02  0.92296851474E+02  0.86308822657E+02 0.  0.
         11    1    3    3    0    0  0.45064848832E+02 -0.13209428040E+02  0.40009517706E+02  0.61693525566E+02  0.51100000000E-03 0.  1.
         22    1    1    0    0    0 -0.19204365945E+02  0.11773511020E+02 -0.23708072263E+02  0.32703148526E+02  0.00000000000E+00 0.  1.
</event>
<event>
 5    1  0.1626333E-003  0.9118800E+02  0.7818608E-02  0.1130116E+00
         25   -1    0    0    0    0  0.00000000000E+00  0.00000000000E+00  0.99999998245E-14  0.12500000000E+03  0.12500000000E+03 0.  0.
        -11    1    3    3    0    0  0.15166958033E+02 -0.32107496685E+02  0.25696626216E+01  0.35602403369E+02  0.51100000000E-03 0. -1.
         23    2    1    0    0    0 -0.54301969333E+01  0.18113751091E+02  0.24418376939E+02  0.94115503086E+02  0.88903744417E+02 0.  0.
         11    1    3    3    0    0 -0.20597154966E+02  0.50221247777E+02  0.21848714317E+02  0.58513099717E+02  0.51100000000E-03 0.  1.
         22    1    1    0    0    0  0.54301969333E+01 -0.18113751091E+02 -0.24418376939E+02  0.30884496914E+02  0.00000000000E+00 0.  1.
</event>
<event>
 5    1  0.1626333E-003  0.9118800E+02  0.7818608E-02  0.1130116E+00
         25   -1    0    0    0    0  0.00000000000E+00  0.00000000000E+00  0.99999998245E-14  0.12500000000E+03  0.12500000000E+03 0.  0.
        -11    1    3    3    0    0 -0.38287452184E+02  0.78764401267E+01 -0.24992836743E+02  0.46396219594E+02  0.51100000000E-03 0.  1.
         23    2    1    0    0    0 -0.26504469100E+02 -0.76642647030E+01  0.16927237771E+02  0.92630891049E+02  0.86791259711E+02 0.  0.
         11    1    3    3    0    0  0.11782983084E+02 -0.15540704830E+02  0.41920074515E+02  0.46234671455E+02  0.51100000000E-03 0. -1.
         22    1    1    0    0    0  0.26504469100E+02  0.76642647030E+01 -0.16927237771E+02  0.32369108951E+02  0.00000000000E+00 0. -1.
</event>
<event>
 5    1  0.1626333E-003  0.9118800E+02  0.7818608E-02  0.1130116E+00
         25   -1    0    0    0    0  0.00000000000E+00  0.00000000000E+00  0.99999998245E-14  0.12500000000E+03  0.12500000000E+03 0.  0.
        -11    1    3    3    0    0  0.19518694672E+01  0.25424268946E+02  0.29831123911E+02  0.39244097645E+02  0.51100000000E-03 0.  1.
         23    2    1    0    0    0  0.25062909587E+02 -0.13058729676E+02 -0.53000500079E+01  0.96246384788E+02  0.91850945542E+02 0.  0.
         11    1    3    3    0    0  0.23111040120E+02 -0.38482998622E+02 -0.35131173919E+02  0.57002287143E+02  0.51100000000E-03 0. -1.
         22    1    1    0    0    0 -0.25062909587E+02  0.13058729676E+02  0.53000500079E+01  0.28753615212E+02  0.00000000000E+00 0. -1.
</event>
<event>
 5    1  0.1626333E-003  0.9118800E+02  0.7818608E-02  0.1130116E+00
         25   -1    0    0    0    0  0.00000000000E+00  0.00000000000E+00  0.99999998245E-14  0.12500000000E+03  0.12500000000E+03 0.  0.
        -11    1    3    3    0    0 -0.30091556793E+02  0.36038324277E+02  0.52972007903E+01  0.47247464942E+02  0.51100000000E-03 0.  1.
         23    2    1    0    0    0 -0.25192927508E+02 -0.12958341845E+02  0.17748191591E+01  0.96614225344E+02  0.92350183194E+02 0.  0.
         11    1    3    3    0    0  0.48986292850E+01 -0.48996666122E+02 -0.35223816312E+01  0.49366760402E+02  0.51100000000E-03 0. -1.
         22    1    1    0    0    0  0.25192927508E+02  0.12958341845E+02 -0.17748191591E+01  0.28385774656E+02  0.00000000000E+00 0.  1.
</event>
<event>
 5    1  0.1626333E-003  0.9118800E+02  0.7818608E-02  0.1130116E+00
         25   -1    0    0    0    0  0.00000000000E+00  0.00000000000E+00  0.99999998245E-14  0.12500000000E+03  0.12500000000E+03 0.  0.
        -11    1    3    3    0    0 -0.59143734554E+02 -0.54414718152E+01  0.85164709154E+01  0.60001010238E+02  0.51100000000E-03 0.  1.
         23    2    1    0    0    0 -0.26555221323E+02 -0.14451985744E+02  0.43898886909E+00  0.94763724060E+02  0.89810528420E+02 0.  0.
         11    1    3    3    0    0  0.32588513230E+02 -0.90105139288E+01 -0.80774820463E+01  0.34762713822E+02  0.51100000000E-03 0. -1.
         22    1    1    0    0    0  0.26555221323E+02  0.14451985744E+02 -0.43898886909E+00  0.30236275940E+02  0.00000000000E+00 0.  1.
</event>
<event>
 5    1  0.1626333E-003  0.9118800E+02  0.7818608E-02  0.1130116E+00
         25   -1    0    0    0    0  0.00000000000E+00  0.00000000000E+00  0.99999998245E-14  0.12500000000E+03  0.12500000000E+03 0.  0.
        -11    1    3    3    0    0  0.10442136423E+02  0.71927730309E+01 -0.31949895605E+02  0.34373973096E+02  0.51100000000E-03 0. -1.
         23    2    1    0    0    0  0.95869212262E+01  0.62853590279E+01  0.28211526968E+02  0.94548316129E+02  0.89510217475E+02 0.  0.
         11    1    3    3    0    0 -0.85521519663E+00 -0.90741400295E+00  0.60161422573E+02  0.60174343033E+02  0.51100000000E-03 0.  1.
         22    1    1    0    0    0 -0.95869212262E+01 -0.62853590279E+01 -0.28211526968E+02  0.30451683871E+02  0.00000000000E+00 0.  1.
</event>
<event>
 5    1  0.1626333E-003  0.9118800E+02  0.7818608E-02  0.1130116E+00
         25   -1    0    0    0    0  0.00000000000E+00  0.00000000000E+00  0.99999998245E-14  0.12500000000E+03  0.12500000000E+03 0.  0.
        -11    1    3    3    0    0  0.44613844959E+01  0.53576392308E+02  0.28331639205E+02  0.60770186314E+02  0.51100000000E-03 0. -1.
         23    2    1    0    0    0  0.84481415609E+01  0.28827451169E+02  0.59485569418E+01  0.94376832847E+02  0.89270421820E+02 0.  0.
         11    1    3    3    0    0  0.39867570650E+01 -0.24748941138E+02 -0.22383082263E+02  0.33606646533E+02  0.51100000000E-03 0.  1.
         22    1    1    0    0    0 -0.84481415609E+01 -0.28827451169E+02 -0.59485569418E+01  0.30623167153E+02  0.00000000000E+00 0. -1.
</event>
<event>
 5    1  0.1626333E-003  0.9118800E+02  0.7818608E-02  0.1130116E+00
         25   -1    0    0    0    0  0.00000000000E+00  0.00000000000E+00  0.99999998245E-14  0.12500000000E+03  0.12500000000E+03 0.  0.
        -11    1    3    3    0    0  0.34611345978E+02  0.44293277002E+02 -0.24933491127E+02  0.61494053680E+02  0.51100000000E-03 0. -1.
         23    2    1    0    0    0  0.99685271255E+01  0.25004250720E+02 -0.89562743384E+01  0.96631021570E+02  0.92372914821E+02 0.  0.
         11    1    3    3    0    0 -0.24642818853E+02 -0.19289026282E+02  0.15977216789E+02  0.35136967890E+02  0.51100000000E-03 0.  1.
         22    1    1    0    0    0 -0.99685271255E+01 -0.25004250720E+02  0.89562743384E+01  0.28368978430E+02  0.00000000000E+00 0. -1.
</event>
<event>
 5    1  0.1626333E-003  0.9118800E+02  0.7818608E-02  0.1130116E+00
         25   -1    0    0    0    0  0.00000000000E+00  0.00000000000E+00  0.99999998245E-14  0.12500000000E+03  0.12500000000E+03 0.  0.
        -11    1    3    3    0    0 -0.25769492404E+02  0.23127194033E+02  0.12322505078E+02  0.36752931506E+02  0.51100000000E-03 0. -1.
         23    2    1    0    0    0 -0.47157362590E+01 -0.26525380598E+02 -0.11493859608E+02  0.95709339491E+02  0.91117149169E+02 0.  0.
         11    1    3    3    0    0  0.21053756145E+02 -0.49652574631E+02 -0.23816364687E+02  0.58956407985E+02  0.51100000000E-03 0.  1.
         22    1    1    0    0    0  0.47157362590E+01  0.26525380598E+02  0.11493859608E+02  0.29290660509E+02  0.00000000000E+00 0.  1.
</event>
<event>
 5    1  0.1626333E-003  0.9118800E+02  0.7818608E-02  0.1130116E+00
         25   -1    0    0    0    0  0.00000000000E+00  0.00000000000E+00  0.99999998245E-14  0.12500000000E+03  0.12500000000E+03 0.  0.
        -11    1    3    3    0    0  0.20603343621E+02 -0.27795179583E+02 -0.11043384970E+02  0.36318399308E+02  0.51100000000E-03 0. -1.
         23    2    1    0    0    0 -0.21483192866E+02 -0.17252730633E+01  0.20691137143E+02  0.95123131035E+02  0.90309372486E+02 0.  0.
         11    1    3    3    0    0 -0.42086536488E+02  0.26069906520E+02  0.31734522113E+02  0.58804731727E+02  0.51100000000E-03 0.  1.
         22    1    1    0    0    0  0.21483192866E+02  0.17252730633E+01 -0.20691137143E+02  0.29876868965E+02  0.00000000000E+00 0.  1.
</event>
<event>
 5    1  0.1626333E-003  0.9118800E+02  0.7818608E-02  0.1130116E+00
         25   -1    0    0    0    0  0.00000000000E+00  0.00000000000E+00  0.99999998245E-14  0.12500000000E+03  0.12500000000E+03 0.  0.
        -11    1    3    3    0    0  0.22831767963E+02 -0.11220725356E+02 -0.43820597803E+02  0.50669903275E+02  0.51100000000E-03 0. -1.
         23    2    1    0    0    0 -0.10428841166E+02 -0.22566746679E+02 -0.16879151376E+02  0.94951297284E+02  0.90071218050E+02 0.  0.
         11    1    3    3    0    0 -0.33260609129E+02 -0.11346021323E+02  0.26941446427E+02  0.44281394008E+02  0.51100000000E-03 0.  1.
         22    1    1    0    0    0  0.10428841166E+02  0.22566746679E+02  0.16879151376E+02  0.30048702716E+02  0.00000000000E+00 0. -1.
</event>
<event>
 5    1  0.1626333E-003  0.9118800E+02  0.7818608E-02  0.1130116E+00
         25   -1    0    0    0    0  0.00000000000E+00  0.00000000000E+00  0.99999998245E-14  0.12500000000E+03  0.12500000000E+03 0.  0.
        -11    1    3    3    0    0  0.21617449622E+02 -0.17788193424E+02 -0.26077737673E+02  0.38259408724E+02  0.51100000000E-03 0.  1.
         23    2    1    0    0    0 -0.26530821250E+02  0.79479448248E+01 -0.46111635130E+01  0.96923014191E+02  0.92767200819E+02 0.  0.
         11    1    3    3    0    0 -0.48148270873E+02  0.25736138249E+02  0.21466574160E+02  0.58663605468E+02  0.51100000000E-03 0. -1.
         22    1    1    0    0    0  0.26530821250E+02 -0.79479448248E+01  0.46111635130E+01  0.28076985809E+02  0.00000000000E+00 0. -1.
</event>
<event>
 5    1  0.1626333E-003  0.9118800E+02  0.7818608E-02  0.1130116E+00
         25   -1    0    0    0    0  0.00000000000E+00  0.00000000000E+00  0.99999998245E-14  0.12500000000E+03  0.12500000000E+03 0.  0.
        -11    1    3    3    0    0  0.35804494571E+02 -0.34376246822E+01 -0.54156171727E+00  0.35973217597E+02  0.51100000000E-03 0.  1.
         23    2    1    0    0    0 -0.21434327788E+02  0.10489352514E+02 -0.15236684980E+02  0.96687220322E+02  0.92448932285E+02 0.  0.
         11    1    3    3    0    0 -0.57238822359E+02  0.13926977196E+02 -0.14695123263E+02  0.60714002725E+02  0.51100000000E-03 0. -1.
         22    1    1    0    0    0  0.21434327788E+02 -0.10489352514E+02  0.15236684980E+02  0.28312779678E+02  0.00000000000E+00 0. -1.
</event>
<event>
 5    1  0.1626333E-003  0.9118800E+02  0.7818608E-02  0.1130116E+00
         25   -1    0    0    0    0  0.00000000000E+00  0.00000000000E+00  0.99999998245E-14  0.12500000000E+03  0.12500000000E+03 0.  0.
        -11    1    3    3    0    0  0.19961979300E+02 -0.24262000673E+02  0.23945216481E+02  0.39503147809E+02  0.51100000000E-03 0. -1.
         23    2    1    0    0    0 -0.57913115013E+01 -0.13214795224E+02 -0.25134098964E+02  0.96019091932E+02  0.91541099966E+02 0.  0.
         11    1    3    3    0    0 -0.25753290801E+02  0.11047205449E+02 -0.49079315445E+02  0.56515944123E+02  0.51100000000E-03 0.  1.
         22    1    1    0    0    0  0.57913115013E+01  0.13214795224E+02  0.25134098964E+02  0.28980908068E+02  0.00000000000E+00 0.  1.
</event>
<event>
 5    1  0.1626333E-003  0.9118800E+02  0.7818608E-02  0.1130116E+00
         25   -1    0    0    0    0  0.00000000000E+00  0.00000000000E+00  0.99999998245E-14  0.12500000000E+03  0.12500000000E+03 0.  0.
        -11    1    3    3    0    0 -0.51502721500E+02  0.71950564125E+00  0.23604570937E+02  0.56658836730E+02  0.51100000000E-03 0.  1.
         23    2    1    0    0    0 -0.13266091947E+02  0.46787259702E+01  0.26279043916E+02  0.95192822653E+02  0.90405783351E+02 0.  0.
         11    1    3    3    0    0  0.38236629553E+02  0.39592203289E+01  0.26744729790E+01  0.38533985923E+02  0.51100000000E-03 0. -1.
         22    1    1    0    0    0  0.13266091947E+02 -0.46787259702E+01 -0.26279043916E+02  0.29807177347E+02  0.00000000000E+00 0.  1.
</event>
<event>
 5    1  0.1626333E-003  0.9118800E+02  0.7818608E-02  0.1130116E+00
         25   -1    0    0    0    0  0.00000000000E+00  0.00000000000E+00  0.99999998245E-14  0.12500000000E+03  0.12500000000E+03 0.  0.
        -11    1    3    3    0    0  0.10471383963E+02  0.77612299434E+01  0.36901648876E+02  0.39135894808E+02  0.51100000000E-03 0.  1.
         23    2    1    0    0    0  0.21906787914E+02  0.89249580663E+01 -0.18029860455E+02  0.95257133607E+02  0.90494659521E+02 0.  0.
         11    1    3    3    0    0  0.11435403951E+02  0.11637281229E+01 -0.54931509332E+02  0.56121238800E+02  0.51100000000E-03 0. -1.
         22    1    1    0    0    0 -0.21906787914E+02 -0.89249580663E+01  0.18029860455E+02  0.29742866393E+02  0.00000000000E+00 0. -1.
</event>
<event>
 5    1  0.1626333E-003  0.9118800E+02  0.7818608E-02  0.1130116E+00
         25   -1    0    0    0    0  0.00000000000E+00  0.00000000000E+00  0.99999998245E-14  0.12500000000E+03  0.12500000000E+03 0.  0.
        -11    1    3    3    0    0 -0.11353834671E+02  0.25956693302E+02  0.52333567502E+02  0.59510182126E+02  0.51100000000E-03 0.  1.
         23    2    1    0    0    0 -0.12477037980E+02  0.83595954721E+00  0.27200284707E+02  0.95062886023E+02  0.90225946965E+02 0.  0.
         11    1    3    3    0    0 -0.11232033089E+01 -0.25120733755E+02 -0.25133282795E+02  0.35552703897E+02  0.51100000000E-03 0. -1.
         22    1    1    0    0    0  0.12477037980E+02 -0.83595954721E+00 -0.27200284707E+02  0.29937113977E+02  0.00000000000E+00 0.  1.
</event>
<event>
 5    1  0.1626333E-003  0.9118800E+02  0.7818608E-02  0.1130116E+00
         25   -1    0    0    0    0  0.00000000000E+00  0.00000000000E+00  0.99999998245E-14  0.12500000000E+03  0.12500000000E+03 0.  0.
        -11    1    3    3    0    0 -0.33788702271E+02  0.29399514859E+02  0.24604099028E+02  0.51101561271E+02  0.51100000000E-03 0.  1.
         23    2    1    0    0    0 -0.38808963673E+01 -0.15284600654E+02  0.75922356835E+01  0.10749793108E+03  0.10606357891E+03 0.  0.
         11    1    3    3    0    0  0.29907805904E+02 -0.44684115513E+02 -0.17011863344E+02  0.56396369811E+02  0.51100000000E-03 0. -1.
         22    1    1    0    0    0  0.38808963673E+01  0.15284600654E+02 -0.75922356835E+01  0.17502068919E+02  0.00000000000E+00 0. -1.
</event>
<event>
 5    1  0.1626333E-003  0.9118800E+02  0.7818608E-02  0.1130116E+00
         25   -1    0    0    0    0  0.00000000000E+00  0.00000000000E+00  0.99999998245E-14  0.12500000000E+03  0.12500000000E+03 0.  0.
        -11    1    3    3    0    0  0.27943431177E+02  0.37074663609E+02  0.58377119160E+01  0.46791504660E+02  0.51100000000E-03 0. -1.
         23    2    1    0    0    0  0.26767988431E+02 -0.64216637973E+01  0.18168682903E+02  0.92017216476E+02  0.85902876081E+02 0.  0.
         11    1    3    3    0    0 -0.11754427459E+01 -0.43496327407E+02  0.12330970987E+02  0.45225711816E+02  0.51100000000E-03 0.  1.
         22    1    1    0    0    0 -0.26767988431E+02  0.64216637973E+01 -0.18168682903E+02  0.32982783524E+02  0.00000000000E+00 0. -1.
</event>
<event>
 5    1  0.1626333E-003  0.9118800E+02  0.7818608E-02  0.1130116E+00
         25   -1    0    0    0    0  0.00000000000E+00  0.00000000000E+00  0.99999998245E-14  0.12500000000E+03  0.12500000000E+03 0.  0.
        -11    1    3    3    0    0  0.24579626697E+02 -0.21032816663E+02  0.17669022709E+02  0.36860979221E+02  0.51100000000E-03 0. -1.
         23    2    1    0    0    0 -0.20006700080E+02 -0.23424146345E+01 -0.18821490040E+02  0.97431840073E+02  0.93450307749E+02 0.  0.
         11    1    3    3    0    0 -0.44586326777E+02  0.18690402029E+02 -0.36490512749E+02  0.60570860853E+02  0.51100000000E-03 0.  1.
         22    1    1    0    0    0  0.20006700080E+02  0.23424146345E+01  0.18821490040E+02  0.27568159927E+02  0.00000000000E+00 0.  1.
</event>
<event>
 5    1  0.1626333E-003  0.9118800E+02  0.7818608E-02  0.1130116E+00
         25   -1    0    0    0    0  0.00000000000E+00  0.00000000000E+00  0.99999998245E-14  0.12500000000E+03  0.12500000000E+03 0.  0.
        -11    1    3    3    0    0  0.30543300747E+01 -0.15826180469E+02 -0.28550906078E+02  0.32786447789E+02  0.51100000000E-03 0.  1.
         23    2    1    0    0    0  0.61780882463E+01  0.34085913140E+02 -0.27400376445E-01  0.90358709611E+02  0.83454642788E+02 0.  0.
         11    1    3    3    0    0  0.31237581716E+01  0.49912093610E+02  0.28523505702E+02  0.57572261823E+02  0.51100000000E-03 0. -1.
         22    1    1    0    0    0 -0.61780882463E+01 -0.34085913140E+02  0.27400376445E-01  0.34641290389E+02  0.00000000000E+00 0. -1.
</event>
<event>
 5    1  0.1626333E-003  0.9118800E+02  0.7818608E-02  0.1130116E+00
         25   -1    0    0    0    0  0.00000000000E+00  0.00000000000E+00  0.99999998245E-14  0.12500000000E+03  0.12500000000E+03 0.  0.
        -11    1    3    3    0    0 -0.13184321487E+01  0.45093840541E+02 -0.35294293977E+02  0.57278965647E+02  0.51100000000E-03 0.  1.
         23    2    1    0    0    0 -0.12900255551E+02  0.88578096952E+01 -0.22851297290E+02  0.97304166853E+02  0.93279374533E+02 0.  0.
         11    1    3    3    0    0 -0.11581823402E+02 -0.36236030845E+02  0.12442996687E+02  0.40025201206E+02  0.51100000000E-03 0. -1.
         22    1    1    0    0    0  0.12900255551E+02 -0.88578096952E+01  0.22851297290E+02  0.27695833147E+02  0.00000000000E+00 0.  1.
</event>
<event>
 5    1  0.1626333E-003  0.9118800E+02  0.7818608E-02  0.1130116E+00
         25   -1    0    0    0    0  0.00000000000E+00  0.00000000000E+00  0.99999998245E-14  0.12500000000E+03  0.12500000000E+03 0.  0.
        -11    1    3    3    0    0 -0.14420675800E+01 -0.41247475611E+02  0.84797764555E+00  0.41281386478E+02  0.51100000000E-03 0. -1.
         23    2    1    0    0    0 -0.10581067469E+02  0.28707702140E+01  0.28718616364E+02  0.94259810732E+02  0.89106412131E+02 0.  0.
         11    1    3    3    0    0 -0.91389998892E+01  0.44118245825E+02  0.27870638718E+02  0.52978424254E+02  0.51100000000E-03 0.  1.
         22    1    1    0    0    0  0.10581067469E+02 -0.28707702140E+01 -0.28718616364E+02  0.30740189268E+02  0.00000000000E+00 0.  1.
</event>
<event>
 5    1  0.1626333E-003  0.9118800E+02  0.7818608E-02  0.1130116E+00
         25   -1    0    0    0    0  0.00000000000E+00  0.00000000000E+00  0.99999998245E-14  0.12500000000E+03  0.12500000000E+03 0.  0.
        -11    1    3    3    0    0 -0.39940352477E+02  0.27511495931E+02 -0.20591643706E+02  0.52688992732E+02  0.51100000000E-03 0. -1.
         23    2    1    0    0    0 -0.23232609223E+02  0.11030972292E+02  0.14929365759E+02  0.95262440534E+02  0.90501989666E+02 0.  0.
         11    1    3    3    0    0  0.16707743254E+02 -0.16480523638E+02  0.35521009465E+02  0.42573447802E+02  0.51100000000E-03 0.  1.
         22    1    1    0    0    0  0.23232609223E+02 -0.11030972292E+02 -0.14929365759E+02  0.29737559466E+02  0.00000000000E+00 0. -1.
</event>
<event>
 5    1  0.1626333E-003  0.9118800E+02  0.7818608E-02  0.1130116E+00
         25   -1    0    0    0    0  0.00000000000E+00  0.00000000000E+00  0.99999998245E-14  0.12500000000E+03  0.12500000000E+03 0.  0.
        -11    1    3    3    0    0 -0.28033924037E+02  0.26108210460E+02  0.48909107476E+02  0.62126003772E+02  0.51100000000E-03 0.  1.
         23    2    1    0    0    0 -0.13889771792E+02  0.16111147631E+02  0.20141425579E+02  0.95705429466E+02  0.91111785004E+02 0.  0.
         11    1    3    3    0    0  0.14144152244E+02 -0.99970628291E+01 -0.28767681898E+02  0.33579425694E+02  0.51100000000E-03 0. -1.
         22    1    1    0    0    0  0.13889771792E+02 -0.16111147631E+02 -0.20141425579E+02  0.29294570534E+02  0.00000000000E+00 0.  1.
</event>
<event>
 5    1  0.1626333E-003  0.9118800E+02  0.7818608E-02  0.1130116E+00
         25   -1    0    0    0    0  0.00000000000E+00  0.00000000000E+00  0.99999998245E-14  0.12500000000E+03  0.12500000000E+03 0.  0.
        -11    1    3    3    0    0 -0.97358737161E+01  0.22187049308E+02 -0.25162616203E+02  0.34931499373E+02  0.51100000000E-03 0.  1.
         23    2    1    0    0    0  0.15275959242E+02 -0.25675251919E+02  0.13527600667E+01  0.95093421264E+02  0.90268240905E+02 0.  0.
         11    1    3    3    0    0  0.25011832958E+02 -0.47862301227E+02  0.26515376270E+02  0.60161921891E+02  0.51100000000E-03 0. -1.
         22    1    1    0    0    0 -0.15275959242E+02  0.25675251919E+02 -0.13527600667E+01  0.29906578736E+02  0.00000000000E+00 0. -1.
</event>
<event>
 5    1  0.1626333E-003  0.9118800E+02  0.7818608E-02  0.1130116E+00
         25   -1    0    0    0    0  0.00000000000E+00  0.00000000000E+00  0.99999998245E-14  0.12500000000E+03  0.12500000000E+03 0.  0.
        -11    1    3    3    0    0 -0.26317951736E+02  0.16729860929E+02 -0.28143450337E+02  0.42006864051E+02  0.51100000000E-03 0.  1.
         23    2    1    0    0    0 -0.66305390162E+01  0.18511069495E+02  0.21753559056E+02  0.95676953209E+02  0.91072708878E+02 0.  0.
         11    1    3    3    0    0  0.19687412720E+02  0.17812085666E+01  0.49897009393E+02  0.53670089158E+02  0.51100000000E-03 0. -1.
         22    1    1    0    0    0  0.66305390162E+01 -0.18511069495E+02 -0.21753559056E+02  0.29323046791E+02  0.00000000000E+00 0.  1.
</event>
<event>
 5    1  0.1626333E-003  0.9118800E+02  0.7818608E-02  0.1130116E+00
         25   -1    0    0    0    0  0.00000000000E+00  0.00000000000E+00  0.99999998245E-14  0.12500000000E+03  0.12500000000E+03 0.  0.
        -11    1    3    3    0    0  0.25022875642E+02  0.44303982385E+02 -0.19991187113E+01  0.50921347551E+02  0.51100000000E-03 0.  1.
         23    2    1    0    0    0  0.30494196518E+02  0.14758315390E+01  0.26919574836E+01  0.94351660158E+02  0.89235167056E+02 0.  0.
         11    1    3    3    0    0  0.54713208758E+01 -0.42828150846E+02  0.46910761948E+01  0.43430312607E+02  0.51100000000E-03 0. -1.
         22    1    1    0    0    0 -0.30494196518E+02 -0.14758315390E+01 -0.26919574836E+01  0.30648339842E+02  0.00000000000E+00 0. -1.
</event>
<event>
 5    1  0.1626333E-003  0.9118800E+02  0.7818608E-02  0.1130116E+00
         25   -1    0    0    0    0  0.00000000000E+00  0.00000000000E+00  0.99999998245E-14  0.12500000000E+03  0.12500000000E+03 0.  0.
        -11    1    3    3    0    0  0.58617657574E+02 -0.11373834865E+02 -0.15978316631E+02  0.61811815227E+02  0.51100000000E-03 0. -1.
         23    2    1    0    0    0  0.29069296643E+02 -0.52808383457E+00 -0.33230214378E+01  0.95736620986E+02  0.91154567886E+02 0.  0.
         11    1    3    3    0    0 -0.29548360931E+02  0.10845751030E+02  0.12655295193E+02  0.33924805759E+02  0.51100000000E-03 0.  1.
         22    1    1    0    0    0 -0.29069296643E+02  0.52808383457E+00  0.33230214378E+01  0.29263379014E+02  0.00000000000E+00 0. -1.
</event>
<event>
 5    1  0.1626333E-003  0.9118800E+02  0.7818608E-02  0.1130116E+00
         25   -1    0    0    0    0  0.00000000000E+00  0.00000000000E+00  0.99999998245E-14  0.12500000000E+03  0.12500000000E+03 0.  0.
        -11    1    3    3    0    0  0.37293422938E+02 -0.12907631621E+02 -0.32476589852E+02  0.51109052399E+02  0.51100000000E-03 0. -1.
         23    2    1    0    0    0 -0.57897225158E+01 -0.19381600998E+02 -0.20292895147E+02  0.96347444486E+02  0.91988374926E+02 0.  0.
         11    1    3    3    0    0 -0.43083145453E+02 -0.64739693766E+01  0.12183694705E+02  0.45238392087E+02  0.51100000000E-03 0.  1.
         22    1    1    0    0    0  0.57897225158E+01  0.19381600998E+02  0.20292895147E+02  0.28652555514E+02  0.00000000000E+00 0. -1.
</event>
<event>
 5    1  0.1626333E-003  0.9118800E+02  0.7818608E-02  0.1130116E+00
         25   -1    0    0    0    0  0.00000000000E+00  0.00000000000E+00  0.99999998245E-14  0.12500000000E+03  0.12500000000E+03 0.  0.
        -11    1    3    3    0    0  0.19074931646E+02  0.27694846027E+02  0.32645029466E+02  0.46867424325E+02  0.51100000000E-03 0. -1.
         23    2    1    0    0    0  0.14610471964E+02  0.22835739666E+02 -0.14352133385E+02  0.94325570424E+02  0.89198613252E+02 0.  0.
         11    1    3    3    0    0 -0.44644596820E+01 -0.48591063614E+01 -0.46997162851E+02  0.47458146100E+02  0.51100000000E-03 0.  1.
         22    1    1    0    0    0 -0.14610471964E+02 -0.22835739666E+02  0.14352133385E+02  0.30674429576E+02  0.00000000000E+00 0.  1.
</event>
<event>
 5    1  0.1626333E-003  0.9118800E+02  0.7818608E-02  0.1130116E+00
         25   -1    0    0    0    0  0.00000000000E+00  0.00000000000E+00  0.99999998245E-14  0.12500000000E+03  0.12500000000E+03 0.  0.
        -11    1    3    3    0    0  0.32592605600E+02 -0.34138441797E+02 -0.23679300450E+02  0.52805496098E+02  0.51100000000E-03 0.  1.
         23    2    1    0    0    0  0.21483776142E+02  0.70849891234E+01 -0.18430005374E+02  0.95820986887E+02  0.91270185283E+02 0.  0.
         11    1    3    3    0    0 -0.11108829458E+02  0.41223430920E+02  0.52492950763E+01  0.43015490789E+02  0.51100000000E-03 0. -1.
         22    1    1    0    0    0 -0.21483776142E+02 -0.70849891234E+01  0.18430005374E+02  0.29179013113E+02  0.00000000000E+00 0.  1.
</event>
<event>
 5    1  0.1626333E-003  0.9118800E+02  0.7818608E-02  0.1130116E+00
         25   -1    0    0    0    0  0.00000000000E+00  0.00000000000E+00  0.99999998245E-14  0.12500000000E+03  0.12500000000E+03 0.  0.
        -11    1    3    3    0    0 -0.95181567327E+01 -0.43767357993E+02 -0.30713276403E+02  0.54309136257E+02  0.51100000000E-03 0. -1.
         23    2    1    0    0    0 -0.51744968968E+01 -0.31096301130E+01 -0.29153533380E+02  0.95227970743E+02  0.90454367974E+02 0.  0.
         11    1    3    3    0    0  0.43436598359E+01  0.40657727880E+02  0.15597430235E+01  0.40918834486E+02  0.51100000000E-03 0.  1.
         22    1    1    0    0    0  0.51744968968E+01  0.31096301130E+01  0.29153533380E+02  0.29772029257E+02  0.00000000000E+00 0.  1.
</event>
<event>
 5    1  0.1626333E-003  0.9118800E+02  0.7818608E-02  0.1130116E+00
         25   -1    0    0    0    0  0.00000000000E+00  0.00000000000E+00  0.99999998245E-14  0.12500000000E+03  0.12500000000E+03 0.  0.
        -11    1    3    3    0    0  0.23355088075E+02 -0.19760312229E+02 -0.11217407043E+02  0.32584663562E+02  0.51100000000E-03 0. -1.
         23    2    1    0    0    0 -0.18913733348E+02  0.23992582457E+02  0.16773404138E-01  0.94448836299E+02  0.89371187050E+02 0.  0.
         11    1    3    3    0    0 -0.42268821423E+02  0.43752894686E+02  0.11234180448E+02  0.61864172738E+02  0.51100000000E-03 0.  1.
         22    1    1    0    0    0  0.18913733348E+02 -0.23992582457E+02 -0.16773404138E-01  0.30551163701E+02  0.00000000000E+00 0.  1.
</event>
<event>
 5    1  0.1626333E-003  0.9118800E+02  0.7818608E-02  0.1130116E+00
         25   -1    0    0    0    0  0.00000000000E+00  0.00000000000E+00  0.99999998245E-14  0.12500000000E+03  0.12500000000E+03 0.  0.
        -11    1    3    3    0    0  0.59283640147E-01  0.40298128866E+02  0.44482320842E+02  0.60021825800E+02  0.51100000000E-03 0.  1.
         23    2    1    0    0    0 -0.11326605272E+02  0.11778042238E+02  0.11969100512E+02  0.10474478751E+03  0.10276768401E+03 0.  0.
         11    1    3    3    0    0 -0.11385888912E+02 -0.28520086628E+02 -0.32513220330E+02  0.44722961710E+02  0.51100000000E-03 0. -1.
         22    1    1    0    0    0  0.11326605272E+02 -0.11778042238E+02 -0.11969100512E+02  0.20255212490E+02  0.00000000000E+00 0.  1.
</event>
<event>
 5    1  0.1626333E-003  0.9118800E+02  0.7818608E-02  0.1130116E+00
         25   -1    0    0    0    0  0.00000000000E+00  0.00000000000E+00  0.99999998245E-14  0.12500000000E+03  0.12500000000E+03 0.  0.
        -11    1    3    3    0    0  0.33106882367E+00 -0.23403570826E+02 -0.41566178564E+02  0.47703080977E+02  0.51100000000E-03 0. -1.
         23    2    1    0    0    0  0.10159970933E+02 -0.26806260995E+02  0.54185553115E+01  0.95825329830E+02  0.91276133011E+02 0.  0.
         11    1    3    3    0    0  0.98289021088E+01 -0.34026901688E+01  0.46984733875E+02  0.48122248853E+02  0.51100000000E-03 0.  1.
         22    1    1    0    0    0 -0.10159970933E+02  0.26806260995E+02 -0.54185553115E+01  0.29174670170E+02  0.00000000000E+00 0.  1.
</event>
<event>
 5    1  0.1626333E-003  0.9118800E+02  0.7818608E-02  0.1130116E+00
         25   -1    0    0    0    0  0.00000000000E+00  0.00000000000E+00  0.99999998245E-14  0.12500000000E+03  0.12500000000E+03 0.  0.
        -11    1    3    3    0    0  0.38665946023E+02 -0.69848067192E+01 -0.20374025196E+02  0.44259957182E+02  0.51100000000E-03 0. -1.
         23    2    1    0    0    0  0.64606964930E+00 -0.27475112717E+02  0.85238138882E+01  0.96225799264E+02  0.91822926419E+02 0.  0.
         11    1    3    3    0    0 -0.38019876374E+02 -0.20490305997E+02  0.28897839084E+02  0.51965842083E+02  0.51100000000E-03 0.  1.
         22    1    1    0    0    0 -0.64606964930E+00  0.27475112717E+02 -0.85238138882E+01  0.28774200736E+02  0.00000000000E+00 0.  1.
</event>
<event>
 5    1  0.1626333E-003  0.9118800E+02  0.7818608E-02  0.1130116E+00
         25   -1    0    0    0    0  0.00000000000E+00  0.00000000000E+00  0.99999998245E-14  0.12500000000E+03  0.12500000000E+03 0.  0.
        -11    1    3    3    0    0 -0.95873814656E+01  0.15921484716E+02  0.13061316466E+02  0.22715843525E+02  0.51100000000E-03 0.  1.
         23    2    1    0    0    0  0.24749789425E+01 -0.21291749002E+02 -0.34552392964E+02  0.84338815120E+02  0.73889808364E+02 0.  0.
         11    1    3    3    0    0  0.12062360408E+02 -0.37213233718E+02 -0.47613709430E+02  0.61622971596E+02  0.51100000000E-03 0. -1.
         22    1    1    0    0    0 -0.24749789425E+01  0.21291749002E+02  0.34552392964E+02  0.40661184880E+02  0.00000000000E+00 0. -1.
</event>
<event>
 5    1  0.1626333E-003  0.9118800E+02  0.7818608E-02  0.1130116E+00
         25   -1    0    0    0    0  0.00000000000E+00  0.00000000000E+00  0.99999998245E-14  0.12500000000E+03  0.12500000000E+03 0.  0.
        -11    1    3    3    0    0  0.24765933873E+02  0.43073985249E+02 -0.25561728174E+02  0.55875948613E+02  0.51100000000E-03 0.  1.
         23    2    1    0    0    0  0.18329195543E+02  0.89812696888E+01 -0.27648200429E+02  0.90633655978E+02  0.83865451734E+02 0.  0.
         11    1    3    3    0    0 -0.64367383304E+01 -0.34092715560E+02 -0.20864722546E+01  0.34757707366E+02  0.51100000000E-03 0. -1.
         22    1    1    0    0    0 -0.18329195543E+02 -0.89812696888E+01  0.27648200429E+02  0.34366344022E+02  0.00000000000E+00 0.  1.
</event>
<event>
 5    1  0.1626333E-003  0.9118800E+02  0.7818608E-02  0.1130116E+00
         25   -1    0    0    0    0  0.00000000000E+00  0.00000000000E+00  0.99999998245E-14  0.12500000000E+03  0.12500000000E+03 0.  0.
        -11    1    3    3    0    0 -0.33760926163E+02 -0.17182234927E+02  0.85132437744E+01  0.38826597228E+02  0.51100000000E-03 0.  1.
         23    2    1    0    0    0  0.21190665886E+02 -0.18726996206E+02 -0.68423645123E+01  0.95904250143E+02  0.91384148165E+02 0.  0.
         11    1    3    3    0    0  0.54951592049E+02 -0.15447612793E+01 -0.15355608287E+02  0.57077652915E+02  0.51100000000E-03 0. -1.
         22    1    1    0    0    0 -0.21190665886E+02  0.18726996206E+02  0.68423645123E+01  0.29095749857E+02  0.00000000000E+00 0. -1.
</event>
<event>
 5    1  0.1626333E-003  0.9118800E+02  0.7818608E-02  0.1130116E+00
         25   -1    0    0    0    0  0.00000000000E+00  0.00000000000E+00  0.99999998245E-14  0.12500000000E+03  0.12500000000E+03 0.  0.
        -11    1    3    3    0    0 -0.79933653959E+01 -0.30212612126E+02  0.80484280394E+01  0.32271861055E+02  0.51100000000E-03 0. -1.
         23    2    1    0    0    0 -0.29568421316E+01  0.30097776089E+02 -0.54270055871E+01  0.94274254597E+02  0.89126671930E+02 0.  0.
         11    1    3    3    0    0  0.50365232644E+01  0.60310388215E+02 -0.13475433626E+02  0.62002393542E+02  0.51100000000E-03 0.  1.
         22    1    1    0    0    0  0.29568421316E+01 -0.30097776089E+02  0.54270055871E+01  0.30725745403E+02  0.00000000000E+00 0.  1.
</event>
<event>
 5    1  0.1626333E-003  0.9118800E+02  0.7818608E-02  0.1130116E+00
         25   -1    0    0    0    0  0.00000000000E+00  0.00000000000E+00  0.99999998245E-14  0.12500000000E+03  0.12500000000E+03 0.  0.
        -11    1    3    3    0    0 -0.20787308360E+02 -0.15147963394E+02  0.47578331817E+02  0.54085771165E+02  0.51100000000E-03 0. -1.
         23    2    1    0    0    0 -0.14578789227E+02  0.15507405716E+02  0.20287759729E+02  0.95595681913E+02  0.90961093211E+02 0.  0.
         11    1    3    3    0    0  0.62085191329E+01  0.30655369110E+02 -0.27290572088E+02  0.41509910747E+02  0.51100000000E-03 0.  1.
         22    1    1    0    0    0  0.14578789227E+02 -0.15507405716E+02 -0.20287759729E+02  0.29404318087E+02  0.00000000000E+00 0.  1.
</event>
<event>
 5    1  0.1626333E-003  0.9118800E+02  0.7818608E-02  0.1130116E+00
         25   -1    0    0    0    0  0.00000000000E+00  0.00000000000E+00  0.99999998245E-14  0.12500000000E+03  0.12500000000E+03 0.  0.
        -11    1    3    3    0    0  0.12101325100E+02 -0.31156504515E+02 -0.10304428548E+02  0.34976436221E+02  0.51100000000E-03 0.  1.
         23    2    1    0    0    0 -0.15509078622E+02  0.22275028461E+02 -0.12405910323E+02  0.95156826181E+02  0.90355998945E+02 0.  0.
         11    1    3    3    0    0 -0.27610403722E+02  0.53431532976E+02 -0.21014817744E+01  0.60180389960E+02  0.51100000000E-03 0. -1.
         22    1    1    0    0    0  0.15509078622E+02 -0.22275028461E+02  0.12405910323E+02  0.29843173819E+02  0.00000000000E+00 0. -1.
</event>
<event>
 5    1  0.1626333E-003  0.9118800E+02  0.7818608E-02  0.1130116E+00
         25   -1    0    0    0    0  0.00000000000E+00  0.00000000000E+00  0.99999998245E-14  0.12500000000E+03  0.12500000000E+03 0.  0.
        -11    1    3    3    0    0 -0.98319318419E+01  0.60734156311E+01  0.34265265674E+02  0.36161605235E+02  0.51100000000E-03 0.  1.
         23    2    1    0    0    0 -0.98925494147E+01  0.85374348461E+01 -0.25695375302E+02  0.96172883606E+02  0.91750863219E+02 0.  0.
         11    1    3    3    0    0 -0.60617572862E-01  0.24640192150E+01 -0.59960640976E+02  0.60011278371E+02  0.51100000000E-03 0. -1.
         22    1    1    0    0    0  0.98925494147E+01 -0.85374348461E+01  0.25695375302E+02  0.28827116394E+02  0.00000000000E+00 0. -1.
</event>
<event>
 5    1  0.1626333E-003  0.9118800E+02  0.7818608E-02  0.1130116E+00
         25   -1    0    0    0    0  0.00000000000E+00  0.00000000000E+00  0.99999998245E-14  0.12500000000E+03  0.12500000000E+03 0.  0.
        -11    1    3    3    0    0  0.22377893155E+02 -0.14976140636E+02  0.35460904750E+02  0.44525617978E+02  0.51100000000E-03 0. -1.
         23    2    1    0    0    0 -0.17893547474E+02  0.12374231254E+02  0.19578681519E+02  0.95731836232E+02  0.91148006330E+02 0.  0.
         11    1    3    3    0    0 -0.40271440629E+02  0.27350371891E+02 -0.15882223230E+02  0.51206218254E+02  0.51100000000E-03 0.  1.
         22    1    1    0    0    0  0.17893547474E+02 -0.12374231254E+02 -0.19578681519E+02  0.29268163768E+02  0.00000000000E+00 0.  1.
</event>
<event>
 5    1  0.1626333E-003  0.9118800E+02  0.7818608E-02  0.1130116E+00
         25   -1    0    0    0    0  0.00000000000E+00  0.00000000000E+00  0.99999998245E-14  0.12500000000E+03  0.12500000000E+03 0.  0.
        -11    1    3    3    0    0  0.41891988324E+02  0.16382920992E+02 -0.51734677311E+01  0.45278069246E+02  0.51100000000E-03 0. -1.
         23    2    1    0    0    0 -0.79395104346E+01  0.26387979455E+02  0.46759276748E+01  0.97049587029E+02  0.92937596037E+02 0.  0.
         11    1    3    3    0    0 -0.49831498759E+02  0.10005058463E+02  0.98493954059E+01  0.51771517783E+02  0.51100000000E-03 0.  1.
         22    1    1    0    0    0  0.79395104346E+01 -0.26387979455E+02 -0.46759276748E+01  0.27950412971E+02  0.00000000000E+00 0. -1.
</event>
<event>
 5    1  0.1626333E-003  0.9118800E+02  0.7818608E-02  0.1130116E+00
         25   -1    0    0    0    0  0.00000000000E+00  0.00000000000E+00  0.99999998245E-14  0.12500000000E+03  0.12500000000E+03 0.  0.
        -11    1    3    3    0    0  0.26184316604E+02  0.23135402366E+02 -0.51027821034E+02  0.61844189690E+02  0.51100000000E-03 0.  1.
         23    2    1    0    0    0  0.70878400541E+01  0.80785547800E+01 -0.26590457311E+02  0.96319816179E+02  0.91950824058E+02 0.  0.
         11    1    3    3    0    0 -0.19096476550E+02 -0.15056847587E+02  0.24437363723E+02  0.34475626490E+02  0.51100000000E-03 0. -1.
         22    1    1    0    0    0 -0.70878400541E+01 -0.80785547800E+01  0.26590457311E+02  0.28680183821E+02  0.00000000000E+00 0.  1.
</event>
<event>
 5    1  0.1626333E-003  0.9118800E+02  0.7818608E-02  0.1130116E+00
         25   -1    0    0    0    0  0.00000000000E+00  0.00000000000E+00  0.99999998245E-14  0.12500000000E+03  0.12500000000E+03 0.  0.
        -11    1    3    3    0    0  0.14648393322E+02 -0.18563820361E+02 -0.38464802869E+02  0.45152319024E+02  0.51100000000E-03 0. -1.
         23    2    1    0    0    0  0.28911253986E+02 -0.15577327335E+02  0.57082126370E+01  0.91666871952E+02  0.85391556889E+02 0.  0.
         11    1    3    3    0    0  0.14262860664E+02  0.29864930253E+01  0.44173015506E+02  0.46514552927E+02  0.51100000000E-03 0.  1.
         22    1    1    0    0    0 -0.28911253986E+02  0.15577327335E+02 -0.57082126370E+01  0.33333128048E+02  0.00000000000E+00 0.  1.
</event>
<event>
 5    1  0.1626333E-003  0.9118800E+02  0.7818608E-02  0.1130116E+00
         25   -1    0    0    0    0  0.00000000000E+00  0.00000000000E+00  0.99999998245E-14  0.12500000000E+03  0.12500000000E+03 0.  0.
        -11    1    3    3    0    0  0.33993395577E+02 -0.15013235522E+02  0.31136256545E+01  0.37291324040E+02  0.51100000000E-03 0.  1.
         23    2    1    0    0    0 -0.24776663839E+02 -0.13813724853E+02 -0.33837890462E+01  0.96431624239E+02  0.92102693010E+02 0.  0.
         11    1    3    3    0    0 -0.58770059416E+02  0.11995106694E+01 -0.64974147007E+01  0.59140300199E+02  0.51100000000E-03 0. -1.
         22    1    1    0    0    0  0.24776663839E+02  0.13813724853E+02  0.33837890462E+01  0.28568375761E+02  0.00000000000E+00 0. -1.
</event>
<event>
 5    1  0.1626333E-003  0.9118800E+02  0.7818608E-02  0.1130116E+00
         25   -1    0    0    0    0  0.00000000000E+00  0.00000000000E+00  0.99999998245E-14  0.12500000000E+03  0.12500000000E+03 0.  0.
        -11    1    3    3    0    0 -0.69395753704E+01 -0.33476171119E+02  0.31655137220E+02  0.46592482782E+02  0.51100000000E-03 0.  1.
         23    2    1    0    0    0 -0.19322699477E+01 -0.25657887805E+02 -0.15705760804E+02  0.94854821344E+02  0.89937229977E+02 0.  0.
         11    1    3    3    0    0  0.50073054227E+01  0.78182833143E+01 -0.47360898024E+02  0.48262338562E+02  0.51100000000E-03 0. -1.
         22    1    1    0    0    0  0.19322699477E+01  0.25657887805E+02  0.15705760804E+02  0.30145178656E+02  0.00000000000E+00 0. -1.
</event>
<event>
 5    1  0.1626333E-003  0.9118800E+02  0.7818608E-02  0.1130116E+00
         25   -1    0    0    0    0  0.00000000000E+00  0.00000000000E+00  0.99999998245E-14  0.12500000000E+03  0.12500000000E+03 0.  0.
        -11    1    3    3    0    0 -0.14827959059E+02 -0.44739016037E+02 -0.35366667416E+02  0.58925793081E+02  0.51100000000E-03 0.  1.
         23    2    1    0    0    0 -0.16588470143E+02 -0.10379577675E+02 -0.21246832755E+02  0.96115040653E+02  0.91672024976E+02 0.  0.
         11    1    3    3    0    0 -0.17605110841E+01  0.34359438362E+02  0.14119834661E+02  0.37189247572E+02  0.51100000000E-03 0. -1.
         22    1    1    0    0    0  0.16588470143E+02  0.10379577675E+02  0.21246832755E+02  0.28884959347E+02  0.00000000000E+00 0.  1.
</event>
<event>
 5    1  0.1626333E-003  0.9118800E+02  0.7818608E-02  0.1130116E+00
         25   -1    0    0    0    0  0.00000000000E+00  0.00000000000E+00  0.99999998245E-14  0.12500000000E+03  0.12500000000E+03 0.  0.
        -11    1    3    3    0    0 -0.34686095028E+02  0.29809840949E+01 -0.28081347136E+02  0.44727771146E+02  0.51100000000E-03 0.  1.
         23    2    1    0    0    0  0.12244111232E+02  0.20846552936E+02 -0.14736082944E+02  0.96686590284E+02  0.92448080408E+02 0.  0.
         11    1    3    3    0    0  0.46930206260E+02  0.17865568842E+02  0.13345264192E+02  0.51958819138E+02  0.51100000000E-03 0. -1.
         22    1    1    0    0    0 -0.12244111232E+02 -0.20846552936E+02  0.14736082944E+02  0.28313409716E+02  0.00000000000E+00 0.  1.
</event>
<event>
 5    1  0.1626333E-003  0.9118800E+02  0.7818608E-02  0.1130116E+00
         25   -1    0    0    0    0  0.00000000000E+00  0.00000000000E+00  0.99999998245E-14  0.12500000000E+03  0.12500000000E+03 0.  0.
        -11    1    3    3    0    0  0.30595611449E+02  0.23331476828E+02  0.18300539223E+02  0.42607029784E+02  0.51100000000E-03 0.  1.
         23    2    1    0    0    0  0.11852042818E+02  0.18885634268E+02 -0.25901074060E+02  0.90823930330E+02  0.84148574453E+02 0.  0.
         11    1    3    3    0    0 -0.18743568632E+02 -0.44458425606E+01 -0.44201613283E+02  0.48216900545E+02  0.51100000000E-03 0. -1.
         22    1    1    0    0    0 -0.11852042818E+02 -0.18885634268E+02  0.25901074060E+02  0.34176069670E+02  0.00000000000E+00 0. -1.
</event>
<event>
 5    1  0.1626333E-003  0.9118800E+02  0.7818608E-02  0.1130116E+00
         25   -1    0    0    0    0  0.00000000000E+00  0.00000000000E+00  0.99999998245E-14  0.12500000000E+03  0.12500000000E+03 0.  0.
        -11    1    3    3    0    0 -0.26523213179E+02 -0.22251235613E+02 -0.41900376410E+02  0.54352919583E+02  0.51100000000E-03 0.  1.
         23    2    1    0    0    0 -0.26539435940E+02 -0.11133906572E+02 -0.15816756696E+01  0.96176273081E+02  0.91755480873E+02 0.  0.
         11    1    3    3    0    0 -0.16222761617E-01  0.11117329041E+02  0.40318700740E+02  0.41823353498E+02  0.51100000000E-03 0. -1.
         22    1    1    0    0    0  0.26539435940E+02  0.11133906572E+02  0.15816756696E+01  0.28823726919E+02  0.00000000000E+00 0.  1.
</event>
<event>
 5    1  0.1626333E-003  0.9118800E+02  0.7818608E-02  0.1130116E+00
         25   -1    0    0    0    0  0.00000000000E+00  0.00000000000E+00  0.99999998245E-14  0.12500000000E+03  0.12500000000E+03 0.  0.
        -11    1    3    3    0    0  0.32723374182E+02 -0.19578321653E+02  0.13926525298E+02  0.40596526991E+02  0.51100000000E-03 0. -1.
         23    2    1    0    0    0 -0.34105698962E+01 -0.11862167802E+02 -0.26744361016E+02  0.95544884007E+02  0.90891259216E+02 0.  0.
         11    1    3    3    0    0 -0.36133944078E+02  0.77161538510E+01 -0.40670886314E+02  0.54948357016E+02  0.51100000000E-03 0.  1.
         22    1    1    0    0    0  0.34105698962E+01  0.11862167802E+02  0.26744361016E+02  0.29455115993E+02  0.00000000000E+00 0.  1.
</event>
<event>
 5    1  0.1626333E-003  0.9118800E+02  0.7818608E-02  0.1130116E+00
         25   -1    0    0    0    0  0.00000000000E+00  0.00000000000E+00  0.99999998245E-14  0.12500000000E+03  0.12500000000E+03 0.  0.
        -11    1    3    3    0    0  0.23418053351E+02 -0.29075357742E+02 -0.24825327001E+02  0.44833899134E+02  0.51100000000E-03 0.  1.
         23    2    1    0    0    0 -0.22235596383E+02 -0.18604846299E+02 -0.55646433051E+01  0.95478358659E+02  0.90799722824E+02 0.  0.
         11    1    3    3    0    0 -0.45653649735E+02  0.10470511443E+02  0.19260683696E+02  0.50644459526E+02  0.51100000000E-03 0. -1.
         22    1    1    0    0    0  0.22235596383E+02  0.18604846299E+02  0.55646433051E+01  0.29521641341E+02  0.00000000000E+00 0. -1.
</event>
<event>
 5    1  0.1626333E-003  0.9118800E+02  0.7818608E-02  0.1130116E+00
         25   -1    0    0    0    0  0.00000000000E+00  0.00000000000E+00  0.99999998245E-14  0.12500000000E+03  0.12500000000E+03 0.  0.
        -11    1    3    3    0    0 -0.23105161925E+02 -0.26690757080E+01  0.49164854103E+02  0.54388926741E+02  0.51100000000E-03 0.  1.
         23    2    1    0    0    0  0.11647495945E+02 -0.29567398211E+01  0.26561449401E+02  0.95846662860E+02  0.91305343299E+02 0.  0.
         11    1    3    3    0    0  0.34752657870E+02 -0.28766411310E+00 -0.22603404703E+02  0.41457736119E+02  0.51100000000E-03 0. -1.
         22    1    1    0    0    0 -0.11647495945E+02  0.29567398211E+01 -0.26561449401E+02  0.29153337140E+02  0.00000000000E+00 0.  1.
</event>
<event>
 5    1  0.1626333E-003  0.9118800E+02  0.7818608E-02  0.1130116E+00
         25   -1    0    0    0    0  0.00000000000E+00  0.00000000000E+00  0.99999998245E-14  0.12500000000E+03  0.12500000000E+03 0.  0.
        -11    1    3    3    0    0  0.20458120584E-01  0.34444473864E+02  0.30052632751E+02  0.45711956137E+02  0.51100000000E-03 0. -1.
         23    2    1    0    0    0  0.25800840962E+02 -0.49560859224E+01  0.11506641744E+02  0.96318141862E+02  0.91948547925E+02 0.  0.
         11    1    3    3    0    0  0.25780382841E+02 -0.39400559787E+02 -0.18545991007E+02  0.50606185725E+02  0.51100000000E-03 0.  1.
         22    1    1    0    0    0 -0.25800840962E+02  0.49560859224E+01 -0.11506641744E+02  0.28681858138E+02  0.00000000000E+00 0.  1.
</event>
<event>
 5    1  0.1626333E-003  0.9118800E+02  0.7818608E-02  0.1130116E+00
         25   -1    0    0    0    0  0.00000000000E+00  0.00000000000E+00  0.99999998245E-14  0.12500000000E+03  0.12500000000E+03 0.  0.
        -11    1    3    3    0    0  0.18329054261E+02  0.49929326099E+02  0.18572412678E+02  0.56336722906E+02  0.51100000000E-03 0. -1.
         23    2    1    0    0    0 -0.10561392461E+02  0.26689826585E+02  0.47535414262E+01  0.95905567372E+02  0.91385949922E+02 0.  0.
         11    1    3    3    0    0 -0.28890446722E+02 -0.23239499515E+02 -0.13818871252E+02  0.39568844467E+02  0.51100000000E-03 0.  1.
         22    1    1    0    0    0  0.10561392461E+02 -0.26689826585E+02 -0.47535414262E+01  0.29094432628E+02  0.00000000000E+00 0. -1.
</event>
<event>
 5    1  0.1626333E-003  0.9118800E+02  0.7818608E-02  0.1130116E+00
         25   -1    0    0    0    0  0.00000000000E+00  0.00000000000E+00  0.99999998245E-14  0.12500000000E+03  0.12500000000E+03 0.  0.
        -11    1    3    3    0    0  0.24284777561E+02  0.48481685480E+02 -0.28635490789E+02  0.61320596712E+02  0.51100000000E-03 0. -1.
         23    2    1    0    0    0  0.54271386961E+01  0.20853511326E+02 -0.19357679983E+02  0.96033768913E+02  0.91561139291E+02 0.  0.
         11    1    3    3    0    0 -0.18857638865E+02 -0.27628174154E+02  0.92778108061E+01  0.34713172201E+02  0.51100000000E-03 0.  1.
         22    1    1    0    0    0 -0.54271386961E+01 -0.20853511326E+02  0.19357679983E+02  0.28966231087E+02  0.00000000000E+00 0. -1.
</event>
<event>
 5    1  0.1626333E-003  0.9118800E+02  0.7818608E-02  0.1130116E+00
         25   -1    0    0    0    0  0.00000000000E+00  0.00000000000E+00  0.99999998245E-14  0.12500000000E+03  0.12500000000E+03 0.  0.
        -11    1    3    3    0    0  0.12726684981E+02  0.62131141431E+01  0.32531125587E+02  0.35480211812E+02  0.51100000000E-03 0.  1.
         23    2    1    0    0    0  0.11881438242E+01 -0.23422116060E+02 -0.18171811138E+02  0.95331465717E+02  0.90597276058E+02 0.  0.
         11    1    3    3    0    0 -0.11538541156E+02 -0.29635230203E+02 -0.50702936725E+02  0.59851253905E+02  0.51100000000E-03 0. -1.
         22    1    1    0    0    0 -0.11881438242E+01  0.23422116060E+02  0.18171811138E+02  0.29668534283E+02  0.00000000000E+00 0. -1.
</event>
<event>
 5    1  0.1626333E-003  0.9118800E+02  0.7818608E-02  0.1130116E+00
         25   -1    0    0    0    0  0.00000000000E+00  0.00000000000E+00  0.99999998245E-14  0.12500000000E+03  0.12500000000E+03 0.  0.
        -11    1    3    3    0    0  0.16390025887E+02 -0.24525195135E+02 -0.34185438699E+02  0.45152656226E+02  0.51100000000E-03 0. -1.
         23    2    1    0    0    0 -0.53918120804E+01 -0.43143745184E+02 -0.21632475690E+02  0.76436449981E+02  0.59026371185E+02 0.  0.
         11    1    3    3    0    0 -0.21781837967E+02 -0.18618550048E+02  0.12552963009E+02  0.31283793755E+02  0.51100000000E-03 0.  1.
         22    1    1    0    0    0  0.53918120804E+01  0.43143745184E+02  0.21632475690E+02  0.48563550019E+02  0.00000000000E+00 0. -1.
</event>
<event>
 5    1  0.1626333E-003  0.9118800E+02  0.7818608E-02  0.1130116E+00
         25   -1    0    0    0    0  0.00000000000E+00  0.00000000000E+00  0.99999998245E-14  0.12500000000E+03  0.12500000000E+03 0.  0.
        -11    1    3    3    0    0  0.41329837788E+02  0.38990491608E+02 -0.25502972549E+02  0.62280137576E+02  0.51100000000E-03 0.  1.
         23    2    1    0    0    0  0.17894134628E+02  0.20873986597E+02 -0.97626250948E+01  0.95824115792E+02  0.91274470407E+02 0.  0.
         11    1    3    3    0    0 -0.23435703159E+02 -0.18116505011E+02  0.15740347454E+02  0.33543978216E+02  0.51100000000E-03 0. -1.
         22    1    1    0    0    0 -0.17894134628E+02 -0.20873986597E+02  0.97626250948E+01  0.29175884208E+02  0.00000000000E+00 0.  1.
</event>
<event>
 5    1  0.1626333E-003  0.9118800E+02  0.7818608E-02  0.1130116E+00
         25   -1    0    0    0    0  0.00000000000E+00  0.00000000000E+00  0.99999998245E-14  0.12500000000E+03  0.12500000000E+03 0.  0.
        -11    1    3    3    0    0 -0.99973489562E+01 -0.15841364290E+02  0.33030795302E+02  0.37972743478E+02  0.51100000000E-03 0. -1.
         23    2    1    0    0    0 -0.22949208411E+02  0.15628444774E+02 -0.12280304136E+02  0.94640152793E+02  0.89638374585E+02 0.  0.
         11    1    3    3    0    0 -0.12951859455E+02  0.31469809064E+02 -0.45311099438E+02  0.56667409315E+02  0.51100000000E-03 0.  1.
         22    1    1    0    0    0  0.22949208411E+02 -0.15628444774E+02  0.12280304136E+02  0.30359847207E+02  0.00000000000E+00 0.  1.
</event>
<event>
 5    1  0.1626333E-003  0.9118800E+02  0.7818608E-02  0.1130116E+00
         25   -1    0    0    0    0  0.00000000000E+00  0.00000000000E+00  0.99999998245E-14  0.12500000000E+03  0.12500000000E+03 0.  0.
        -11    1    3    3    0    0 -0.36786808887E+02 -0.20356831044E+01  0.15936707381E+01  0.36877541952E+02  0.51100000000E-03 0. -1.
         23    2    1    0    0    0  0.18449611996E+02 -0.20866445537E+02 -0.80042646908E+01  0.96019575824E+02  0.91541760722E+02 0.  0.
         11    1    3    3    0    0  0.55236420883E+02 -0.18830762433E+02 -0.95979354289E+01  0.59142033872E+02  0.51100000000E-03 0.  1.
         22    1    1    0    0    0 -0.18449611996E+02  0.20866445537E+02  0.80042646908E+01  0.28980424176E+02  0.00000000000E+00 0.  1.
</event>
<event>
 5    1  0.1626333E-003  0.9118800E+02  0.7818608E-02  0.1130116E+00
         25   -1    0    0    0    0  0.00000000000E+00  0.00000000000E+00  0.99999998245E-14  0.12500000000E+03  0.12500000000E+03 0.  0.
        -11    1    3    3    0    0 -0.42876726860E+01 -0.30578535216E+02  0.61903025972E+01  0.31492075186E+02  0.51100000000E-03 0.  1.
         23    2    1    0    0    0 -0.10544758110E+02  0.23496851376E+02  0.25020337814E+02  0.89093019446E+02  0.81536831319E+02 0.  0.
         11    1    3    3    0    0 -0.62570854243E+01  0.54075386592E+02  0.18830035217E+02  0.57600944260E+02  0.51100000000E-03 0. -1.
         22    1    1    0    0    0  0.10544758110E+02 -0.23496851376E+02 -0.25020337814E+02  0.35906980554E+02  0.00000000000E+00 0. -1.
</event>
<event>
 5    1  0.1626333E-003  0.9118800E+02  0.7818608E-02  0.1130116E+00
         25   -1    0    0    0    0  0.00000000000E+00  0.00000000000E+00  0.99999998245E-14  0.12500000000E+03  0.12500000000E+03 0.  0.
        -11    1    3    3    0    0 -0.25616903316E+02  0.22370712399E+02  0.17162720497E+02  0.38095058523E+02  0.51100000000E-03 0.  1.
         23    2    1    0    0    0 -0.45654365237E+01 -0.23323242343E+02 -0.14137440805E+02  0.97347078336E+02  0.93336860800E+02 0.  0.
         11    1    3    3    0    0  0.21051466793E+02 -0.45693954742E+02 -0.31300161302E+02  0.59252019813E+02  0.51100000000E-03 0. -1.
         22    1    1    0    0    0  0.45654365237E+01  0.23323242343E+02  0.14137440805E+02  0.27652921664E+02  0.00000000000E+00 0. -1.
</event>
<event>
 5    1  0.1626333E-003  0.9118800E+02  0.7818608E-02  0.1130116E+00
         25   -1    0    0    0    0  0.00000000000E+00  0.00000000000E+00  0.99999998245E-14  0.12500000000E+03  0.12500000000E+03 0.  0.
        -11    1    3    3    0    0 -0.35317798446E+02  0.86493682731E+01 -0.44831169640E+02  0.57723411457E+02  0.51100000000E-03 0. -1.
         23    2    1    0    0    0 -0.28027332426E+02 -0.55967380730E+00 -0.88036541133E+01  0.95617200211E+02  0.90990659151E+02 0.  0.
         11    1    3    3    0    0  0.72904660195E+01 -0.92090420804E+01  0.36027515527E+02  0.37893788754E+02  0.51100000000E-03 0.  1.
         22    1    1    0    0    0  0.28027332426E+02  0.55967380730E+00  0.88036541133E+01  0.29382799789E+02  0.00000000000E+00 0. -1.
</event>
<event>
 5    1  0.1626333E-003  0.9118800E+02  0.7818608E-02  0.1130116E+00
         25   -1    0    0    0    0  0.00000000000E+00  0.00000000000E+00  0.99999998245E-14  0.12500000000E+03  0.12500000000E+03 0.  0.
        -11    1    3    3    0    0 -0.48904115303E+02 -0.33594779165E+01 -0.28198514486E+02  0.56551346623E+02  0.51100000000E-03 0. -1.
         23    2    1    0    0    0 -0.27554825612E+02  0.66375883615E+01  0.39141792753E+01  0.96387995646E+02  0.92043462079E+02 0.  0.
         11    1    3    3    0    0  0.21349289691E+02  0.99970662780E+01  0.32112693762E+02  0.39836649023E+02  0.51100000000E-03 0.  1.
         22    1    1    0    0    0  0.27554825612E+02 -0.66375883615E+01 -0.39141792753E+01  0.28612004354E+02  0.00000000000E+00 0. -1.
</event>
<event>
 5    1  0.1626333E-003  0.9118800E+02  0.7818608E-02  0.1130116E+00
         25   -1    0    0    0    0  0.00000000000E+00  0.00000000000E+00  0.99999998245E-14  0.12500000000E+03  0.12500000000E+03 0.  0.
        -11    1    3    3    0    0  0.25736688639E+02 -0.31501194463E+02 -0.34466520867E+01  0.40823789701E+02  0.51100000000E-03 0. -1.
         23    2    1    0    0    0  0.11208200252E+02  0.22188633008E+02 -0.12498030934E+02  0.97176269753E+02  0.93107826943E+02 0.  0.
         11    1    3    3    0    0 -0.14528488386E+02  0.53689827471E+02 -0.90513788475E+01  0.56352480051E+02  0.51100000000E-03 0.  1.
         22    1    1    0    0    0 -0.11208200252E+02 -0.22188633008E+02  0.12498030934E+02  0.27823730247E+02  0.00000000000E+00 0. -1.
</event>
<event>
 5    1  0.1626333E-003  0.9118800E+02  0.7818608E-02  0.1130116E+00
         25   -1    0    0    0    0  0.00000000000E+00  0.00000000000E+00  0.99999998245E-14  0.12500000000E+03  0.12500000000E+03 0.  0.
        -11    1    3    3    0    0  0.10466818238E+02  0.13668875286E+02  0.12757141869E+02  0.21427484793E+02  0.51100000000E-03 0. -1.
         23    2    1    0    0    0 -0.35375192669E+02 -0.24382618121E+02  0.88609540054E+01  0.81131642057E+02  0.68248886542E+02 0.  0.
         11    1    3    3    0    0 -0.45842010907E+02 -0.38051493407E+02 -0.38961878633E+01  0.59704157264E+02  0.51100000000E-03 0.  1.
         22    1    1    0    0    0  0.35375192669E+02  0.24382618121E+02 -0.88609540054E+01  0.43868357943E+02  0.00000000000E+00 0.  1.
</event>
<event>
 5    1  0.1626333E-003  0.9118800E+02  0.7818608E-02  0.1130116E+00
         25   -1    0    0    0    0  0.00000000000E+00  0.00000000000E+00  0.99999998245E-14  0.12500000000E+03  0.12500000000E+03 0.  0.
        -11    1    3    3    0    0  0.42614234517E+02  0.11520587350E+02 -0.19762571001E+02  0.48365857061E+02  0.51100000000E-03 0.  1.
         23    2    1    0    0    0 -0.97910563292E+00  0.25511715247E+02 -0.17190245518E+02  0.94221585427E+02  0.89052772875E+02 0.  0.
         11    1    3    3    0    0 -0.43593340150E+02  0.13991127897E+02  0.25723254832E+01  0.45855728366E+02  0.51100000000E-03 0. -1.
         22    1    1    0    0    0  0.97910563292E+00 -0.25511715247E+02  0.17190245518E+02  0.30778414573E+02  0.00000000000E+00 0.  1.
</event>
<event>
 5    1  0.1626333E-003  0.9118800E+02  0.7818608E-02  0.1130116E+00
         25   -1    0    0    0    0  0.00000000000E+00  0.00000000000E+00  0.99999998245E-14  0.12500000000E+03  0.12500000000E+03 0.  0.
        -11    1    3    3    0    0 -0.44612095026E+02  0.31601634264E+02 -0.17781209413E+02  0.57489770562E+02  0.51100000000E-03 0.  1.
         23    2    1    0    0    0 -0.16301941182E+02  0.23366731265E+02  0.66067219052E+01  0.95752672077E+02  0.91176576044E+02 0.  0.
         11    1    3    3    0    0  0.28310153844E+02 -0.82349029987E+01  0.24387931318E+02  0.38262901515E+02  0.51100000000E-03 0. -1.
         22    1    1    0    0    0  0.16301941182E+02 -0.23366731265E+02 -0.66067219052E+01  0.29247327923E+02  0.00000000000E+00 0.  1.
</event>
<event>
 5    1  0.1626333E-003  0.9118800E+02  0.7818608E-02  0.1130116E+00
         25   -1    0    0    0    0  0.00000000000E+00  0.00000000000E+00  0.99999998245E-14  0.12500000000E+03  0.12500000000E+03 0.  0.
        -11    1    3    3    0    0 -0.43971645312E+02  0.13635240637E+01 -0.46076539739E+01  0.44233417963E+02  0.51100000000E-03 0.  1.
         23    2    1    0    0    0 -0.80704785500E+01 -0.12932203413E+02  0.26891904053E+02  0.94088044178E+02  0.88865128395E+02 0.  0.
         11    1    3    3    0    0  0.35901166762E+02 -0.14295727476E+02  0.31499558027E+02  0.49854626215E+02  0.51100000000E-03 0. -1.
         22    1    1    0    0    0  0.80704785500E+01  0.12932203413E+02 -0.26891904053E+02  0.30911955822E+02  0.00000000000E+00 0. -1.
</event>
<event>
 5    1  0.1626333E-003  0.9118800E+02  0.7818608E-02  0.1130116E+00
         25   -1    0    0    0    0  0.00000000000E+00  0.00000000000E+00  0.99999998245E-14  0.12500000000E+03  0.12500000000E+03 0.  0.
        -11    1    3    3    0    0  0.13523763166E+02 -0.24824073997E+02  0.34892144873E+02  0.44906442679E+02  0.51100000000E-03 0.  1.
         23    2    1    0    0    0  0.29276687100E+02 -0.33084060884E+01 -0.71403938163E+01  0.94684077084E+02  0.89699605746E+02 0.  0.
         11    1    3    3    0    0  0.15752923934E+02  0.21515667908E+02 -0.42032538690E+02  0.49777634405E+02  0.51100000000E-03 0. -1.
         22    1    1    0    0    0 -0.29276687100E+02  0.33084060884E+01  0.71403938163E+01  0.30315922916E+02  0.00000000000E+00 0. -1.
</event>
<event>
 5    1  0.1626333E-003  0.9118800E+02  0.7818608E-02  0.1130116E+00
         25   -1    0    0    0    0  0.00000000000E+00  0.00000000000E+00  0.99999998245E-14  0.12500000000E+03  0.12500000000E+03 0.  0.
        -11    1    3    3    0    0  0.52838215884E+02 -0.89680304344E+00 -0.27031721053E+02  0.59358194522E+02  0.51100000000E-03 0.  1.
         23    2    1    0    0    0  0.19857630588E+02  0.37787081108E+01 -0.25166387089E+02  0.92720731627E+02  0.86920555146E+02 0.  0.
         11    1    3    3    0    0 -0.32980585297E+02  0.46755111542E+01  0.18653339636E+01  0.33362537106E+02  0.51100000000E-03 0. -1.
         22    1    1    0    0    0 -0.19857630588E+02 -0.37787081108E+01  0.25166387089E+02  0.32279268373E+02  0.00000000000E+00 0.  1.
</event>
<event>
 5    1  0.1626333E-003  0.9118800E+02  0.7818608E-02  0.1130116E+00
         25   -1    0    0    0    0  0.00000000000E+00  0.00000000000E+00  0.99999998245E-14  0.12500000000E+03  0.12500000000E+03 0.  0.
        -11    1    3    3    0    0  0.13184507323E+02 -0.17054216751E+02 -0.74189013236E+00  0.21569143320E+02  0.51100000000E-03 0.  1.
         23    2    1    0    0    0 -0.18855498650E+02  0.28591274984E+02 -0.25214407045E+02  0.82470514262E+02  0.70658534980E+02 0.  0.
         11    1    3    3    0    0 -0.32040005972E+02  0.45645491734E+02 -0.24472516913E+02  0.60901370942E+02  0.51100000000E-03 0. -1.
         22    1    1    0    0    0  0.18855498650E+02 -0.28591274984E+02  0.25214407045E+02  0.42529485738E+02  0.00000000000E+00 0. -1.
</event>
<event>
 5    1  0.1626333E-003  0.9118800E+02  0.7818608E-02  0.1130116E+00
         25   -1    0    0    0    0  0.00000000000E+00  0.00000000000E+00  0.99999998245E-14  0.12500000000E+03  0.12500000000E+03 0.  0.
        -11    1    3    3    0    0 -0.30084844680E+00 -0.30044260418E+02 -0.13443804973E+02  0.32916317933E+02  0.51100000000E-03 0. -1.
         23    2    1    0    0    0  0.14620668779E+02  0.27405159806E+02 -0.99874409931E+01  0.92372469950E+02  0.86418270566E+02 0.  0.
         11    1    3    3    0    0  0.14921517226E+02  0.57449420224E+02  0.34563639802E+01  0.59456152017E+02  0.51100000000E-03 0.  1.
         22    1    1    0    0    0 -0.14620668779E+02 -0.27405159806E+02  0.99874409931E+01  0.32627530050E+02  0.00000000000E+00 0.  1.
</event>
<event>
 5    1  0.1626333E-003  0.9118800E+02  0.7818608E-02  0.1130116E+00
         25   -1    0    0    0    0  0.00000000000E+00  0.00000000000E+00  0.99999998245E-14  0.12500000000E+03  0.12500000000E+03 0.  0.
        -11    1    3    3    0    0 -0.14277925794E+02 -0.49544472626E+02 -0.30193982547E+02  0.59751071246E+02  0.51100000000E-03 0. -1.
         23    2    1    0    0    0 -0.12237142023E+02 -0.13880571387E+02 -0.21722965220E+02  0.96463967955E+02  0.92146578823E+02 0.  0.
         11    1    3    3    0    0  0.20407837708E+01  0.35663901239E+02  0.84710173268E+01  0.36712896709E+02  0.51100000000E-03 0.  1.
         22    1    1    0    0    0  0.12237142023E+02  0.13880571387E+02  0.21722965220E+02  0.28536032045E+02  0.00000000000E+00 0. -1.
</event>
<event>
 5    1  0.1626333E-003  0.9118800E+02  0.7818608E-02  0.1130116E+00
         25   -1    0    0    0    0  0.00000000000E+00  0.00000000000E+00  0.99999998245E-14  0.12500000000E+03  0.12500000000E+03 0.  0.
        -11    1    3    3    0    0  0.17647485421E+02  0.25777663378E+02  0.18234819758E+02  0.36172231377E+02  0.51100000000E-03 0. -1.
         23    2    1    0    0    0 -0.24618943976E+02 -0.14147786881E+02  0.10007678642E+02  0.94893424175E+02  0.89990866446E+02 0.  0.
         11    1    3    3    0    0 -0.42266429397E+02 -0.39925450259E+02 -0.82271411154E+01  0.58721192798E+02  0.51100000000E-03 0.  1.
         22    1    1    0    0    0  0.24618943976E+02  0.14147786881E+02 -0.10007678642E+02  0.30106575825E+02  0.00000000000E+00 0.  1.
</event>
<event>
 5    1  0.1626333E-003  0.9118800E+02  0.7818608E-02  0.1130116E+00
         25   -1    0    0    0    0  0.00000000000E+00  0.00000000000E+00  0.99999998245E-14  0.12500000000E+03  0.12500000000E+03 0.  0.
        -11    1    3    3    0    0  0.12397459839E+02  0.38334091401E+02  0.40643838524E+02  0.57228674493E+02  0.51100000000E-03 0. -1.
         23    2    1    0    0    0  0.18259772801E+02  0.62055436681E+01  0.24957469492E+02  0.93459496541E+02  0.87976554464E+02 0.  0.
         11    1    3    3    0    0  0.58623129617E+01 -0.32128547733E+02 -0.15686369032E+02  0.36230822049E+02  0.51100000000E-03 0.  1.
         22    1    1    0    0    0 -0.18259772801E+02 -0.62055436681E+01 -0.24957469492E+02  0.31540503459E+02  0.00000000000E+00 0. -1.
</event>
<event>
 5    1  0.1626333E-003  0.9118800E+02  0.7818608E-02  0.1130116E+00
         25   -1    0    0    0    0  0.00000000000E+00  0.00000000000E+00  0.99999998245E-14  0.12500000000E+03  0.12500000000E+03 0.  0.
        -11    1    3    3    0    0 -0.27101282723E+02  0.19961136017E+02  0.20755219531E+01  0.33722904204E+02  0.51100000000E-03 0.  1.
         23    2    1    0    0    0  0.23379295756E+02 -0.16756245706E+02 -0.98186247460E+00  0.96219324294E+02  0.91814111516E+02 0.  0.
         11    1    3    3    0    0  0.50480578479E+02 -0.36717381723E+02 -0.30573844277E+01  0.62496420089E+02  0.51100000000E-03 0. -1.
         22    1    1    0    0    0 -0.23379295756E+02  0.16756245706E+02  0.98186247460E+00  0.28780675706E+02  0.00000000000E+00 0. -1.
</event>
<event>
 5    1  0.1626333E-003  0.9118800E+02  0.7818608E-02  0.1130116E+00
         25   -1    0    0    0    0  0.00000000000E+00  0.00000000000E+00  0.99999998245E-14  0.12500000000E+03  0.12500000000E+03 0.  0.
        -11    1    3    3    0    0 -0.28233270662E+01  0.14720751273E+02  0.46353410162E+01  0.15689425750E+02  0.51100000000E-03 0.  1.
         23    2    1    0    0    0 -0.46295706538E+01 -0.38604848658E+02  0.31064778007E+02  0.75232664357E+02  0.56419554140E+02 0.  0.
         11    1    3    3    0    0 -0.18062435876E+01 -0.53325599932E+02  0.26429436990E+02  0.59543238607E+02  0.51100000000E-03 0. -1.
         22    1    1    0    0    0  0.46295706538E+01  0.38604848658E+02 -0.31064778007E+02  0.49767335643E+02  0.00000000000E+00 0. -1.
</event>
<event>
 5    1  0.1626333E-003  0.9118800E+02  0.7818608E-02  0.1130116E+00
         25   -1    0    0    0    0  0.00000000000E+00  0.00000000000E+00  0.99999998245E-14  0.12500000000E+03  0.12500000000E+03 0.  0.
        -11    1    3    3    0    0 -0.12126827325E+02  0.29094191986E+01 -0.34304161975E+02  0.36500687529E+02  0.51100000000E-03 0.  1.
         23    2    1    0    0    0 -0.12161760090E+02  0.97723498835E+01  0.24636187158E+02  0.95839256724E+02  0.91295203494E+02 0.  0.
         11    1    3    3    0    0 -0.34932765053E-01  0.68629306849E+01  0.58940349133E+02  0.59338569195E+02  0.51100000000E-03 0. -1.
         22    1    1    0    0    0  0.12161760090E+02 -0.97723498835E+01 -0.24636187158E+02  0.29160743276E+02  0.00000000000E+00 0. -1.
</event>
<event>
 5    1  0.1626333E-003  0.9118800E+02  0.7818608E-02  0.1130116E+00
         25   -1    0    0    0    0  0.00000000000E+00  0.00000000000E+00  0.99999998245E-14  0.12500000000E+03  0.12500000000E+03 0.  0.
        -11    1    3    3    0    0 -0.92674289842E+00  0.58808192969E+02  0.10726588469E+02  0.59785634672E+02  0.51100000000E-03 0.  1.
         23    2    1    0    0    0 -0.13151408572E+02  0.26632343354E+02  0.23851119010E+01  0.95201845380E+02  0.90418257808E+02 0.  0.
         11    1    3    3    0    0 -0.12224665674E+02 -0.32175849615E+02 -0.83414765677E+01  0.35416210708E+02  0.51100000000E-03 0. -1.
         22    1    1    0    0    0  0.13151408572E+02 -0.26632343354E+02 -0.23851119010E+01  0.29798154620E+02  0.00000000000E+00 0.  1.
</event>
<event>
 5    1  0.1626333E-003  0.9118800E+02  0.7818608E-02  0.1130116E+00
         25   -1    0    0    0    0  0.00000000000E+00  0.00000000000E+00  0.99999998245E-14  0.12500000000E+03  0.12500000000E+03 0.  0.
        -11    1    3    3    0    0 -0.19317146406E+02  0.65542094410E+01  0.40393237946E+02  0.45251778735E+02  0.51100000000E-03 0. -1.
         23    2    1    0    0    0  0.97789570091E+01  0.26777937614E+02  0.37137262997E+01  0.96251474714E+02  0.91857872165E+02 0.  0.
         11    1    3    3    0    0  0.29096103415E+02  0.20223728173E+02 -0.36679511646E+02  0.50999695980E+02  0.51100000000E-03 0.  1.
         22    1    1    0    0    0 -0.97789570091E+01 -0.26777937614E+02 -0.37137262997E+01  0.28748525286E+02  0.00000000000E+00 0.  1.
</event>
<event>
 5    1  0.1626333E-003  0.9118800E+02  0.7818608E-02  0.1130116E+00
         25   -1    0    0    0    0  0.00000000000E+00  0.00000000000E+00  0.99999998245E-14  0.12500000000E+03  0.12500000000E+03 0.  0.
        -11    1    3    3    0    0 -0.16112474031E+02  0.43493070923E+02  0.17546273675E+01  0.46414844125E+02  0.51100000000E-03 0. -1.
         23    2    1    0    0    0 -0.68748317095E+01  0.49066980799E+01 -0.27836010671E+02  0.95910784006E+02  0.91393085085E+02 0.  0.
         11    1    3    3    0    0  0.92376423214E+01 -0.38586372843E+02 -0.29590638039E+02  0.49495939880E+02  0.51100000000E-03 0.  1.
         22    1    1    0    0    0  0.68748317095E+01 -0.49066980799E+01  0.27836010671E+02  0.29089215994E+02  0.00000000000E+00 0.  1.
</event>
<event>
 5    1  0.1626333E-003  0.9118800E+02  0.7818608E-02  0.1130116E+00
         25   -1    0    0    0    0  0.00000000000E+00  0.00000000000E+00  0.99999998245E-14  0.12500000000E+03  0.12500000000E+03 0.  0.
        -11    1    3    3    0    0  0.51155023861E+01  0.18040753780E+02 -0.24661511323E+02  0.30981079753E+02  0.51100000000E-03 0.  1.
         23    2    1    0    0    0 -0.11780317125E+02 -0.67018079853E+01  0.29308359374E+02  0.92709598470E+02  0.86904543134E+02 0.  0.
         11    1    3    3    0    0 -0.16895819511E+02 -0.24742561766E+02  0.53969870697E+02  0.61728518717E+02  0.51100000000E-03 0. -1.
         22    1    1    0    0    0  0.11780317125E+02  0.67018079853E+01 -0.29308359374E+02  0.32290401530E+02  0.00000000000E+00 0. -1.
</event>
<event>
 5    1  0.1626333E-003  0.9118800E+02  0.7818608E-02  0.1130116E+00
         25   -1    0    0    0    0  0.00000000000E+00  0.00000000000E+00  0.99999998245E-14  0.12500000000E+03  0.12500000000E+03 0.  0.
        -11    1    3    3    0    0 -0.92211706288E+01 -0.40087355336E+02  0.16928496519E+02  0.44481457263E+02  0.51100000000E-03 0.  1.
         23    2    1    0    0    0  0.23959312065E+02 -0.10070415812E+02 -0.10507489926E+02  0.96966640340E+02  0.92825966653E+02 0.  0.
         11    1    3    3    0    0  0.33180482694E+02  0.30016939524E+02 -0.27435986445E+02  0.52485183077E+02  0.51100000000E-03 0. -1.
         22    1    1    0    0    0 -0.23959312065E+02  0.10070415812E+02  0.10507489926E+02  0.28033359660E+02  0.00000000000E+00 0. -1.
</event>
<event>
 5    1  0.1626333E-003  0.9118800E+02  0.7818608E-02  0.1130116E+00
         25   -1    0    0    0    0  0.00000000000E+00  0.00000000000E+00  0.99999998245E-14  0.12500000000E+03  0.12500000000E+03 0.  0.
        -11    1    3    3    0    0 -0.18532671955E+02 -0.52947576445E+02 -0.22364150648E+01  0.56141850110E+02  0.51100000000E-03 0. -1.
         23    2    1    0    0    0 -0.21787876933E+02 -0.28454909150E+02 -0.17430226640E+02  0.85147694713E+02  0.75245755218E+02 0.  0.
         11    1    3    3    0    0 -0.32552049778E+01  0.24492667295E+02 -0.15193811575E+02  0.29005844603E+02  0.51100000000E-03 0.  1.
         22    1    1    0    0    0  0.21787876933E+02  0.28454909150E+02  0.17430226640E+02  0.39852305287E+02  0.00000000000E+00 0. -1.
</event>
<event>
 5    1  0.1626333E-003  0.9118800E+02  0.7818608E-02  0.1130116E+00
         25   -1    0    0    0    0  0.00000000000E+00  0.00000000000E+00  0.99999998245E-14  0.12500000000E+03  0.12500000000E+03 0.  0.
        -11    1    3    3    0    0  0.14278340191E+02  0.56528906969E+02  0.13056096237E+02  0.59748221488E+02  0.51100000000E-03 0. -1.
         23    2    1    0    0    0  0.17073442941E+02  0.23918910050E+02 -0.15124933024E+01  0.95573747302E+02  0.90930945368E+02 0.  0.
         11    1    3    3    0    0  0.27951027494E+01 -0.32609996919E+02 -0.14568589539E+02  0.35825525814E+02  0.51100000000E-03 0.  1.
         22    1    1    0    0    0 -0.17073442941E+02 -0.23918910050E+02  0.15124933024E+01  0.29426252698E+02  0.00000000000E+00 0. -1.
</event>
<event>
 5    1  0.1626333E-003  0.9118800E+02  0.7818608E-02  0.1130116E+00
         25   -1    0    0    0    0  0.00000000000E+00  0.00000000000E+00  0.99999998245E-14  0.12500000000E+03  0.12500000000E+03 0.  0.
        -11    1    3    3    0    0  0.52045270803E+02 -0.55586890953E+01  0.31721661373E+02  0.61203537790E+02  0.51100000000E-03 0. -1.
         23    2    1    0    0    0  0.29400742339E+02  0.43075285179E+01  0.11456723181E+02  0.93153258282E+02  0.87540359666E+02 0.  0.
         11    1    3    3    0    0 -0.22644528464E+02  0.98662176132E+01 -0.20264938192E+02  0.31949720492E+02  0.51100000000E-03 0.  1.
         22    1    1    0    0    0 -0.29400742339E+02 -0.43075285179E+01 -0.11456723181E+02  0.31846741718E+02  0.00000000000E+00 0. -1.
</event>
<event>
 5    1  0.1626333E-003  0.9118800E+02  0.7818608E-02  0.1130116E+00
         25   -1    0    0    0    0  0.00000000000E+00  0.00000000000E+00  0.99999998245E-14  0.12500000000E+03  0.12500000000E+03 0.  0.
        -11    1    3    3    0    0  0.37959353591E+02 -0.48317520908E+02 -0.28204743753E+01  0.61509758801E+02  0.51100000000E-03 0.  1.
         23    2    1    0    0    0  0.20687666892E+02 -0.19963073506E+02 -0.81096257451E+01  0.95129112920E+02  0.90317651818E+02 0.  0.
         11    1    3    3    0    0 -0.17271686699E+02  0.28354447402E+02 -0.52891513698E+01  0.33619354119E+02  0.51100000000E-03 0. -1.
         22    1    1    0    0    0 -0.20687666892E+02  0.19963073506E+02  0.81096257451E+01  0.29870887080E+02  0.00000000000E+00 0.  1.
</event>
<event>
 5    1  0.1626333E-003  0.9118800E+02  0.7818608E-02  0.1130116E+00
         25   -1    0    0    0    0  0.00000000000E+00  0.00000000000E+00  0.99999998245E-14  0.12500000000E+03  0.12500000000E+03 0.  0.
        -11    1    3    3    0    0 -0.30478877390E+02  0.66654033958E+01 -0.40543074862E+02  0.51157897620E+02  0.51100000000E-03 0. -1.
         23    2    1    0    0    0  0.23496418955E+01 -0.17405450837E+02 -0.24369688483E+02  0.94960821372E+02  0.90084434521E+02 0.  0.
         11    1    3    3    0    0  0.32828519285E+02 -0.24070854233E+02  0.16173386379E+02  0.43802923752E+02  0.51100000000E-03 0.  1.
         22    1    1    0    0    0 -0.23496418955E+01  0.17405450837E+02  0.24369688483E+02  0.30039178628E+02  0.00000000000E+00 0. -1.
</event>
<event>
 5    1  0.1626333E-003  0.9118800E+02  0.7818608E-02  0.1130116E+00
         25   -1    0    0    0    0  0.00000000000E+00  0.00000000000E+00  0.99999998245E-14  0.12500000000E+03  0.12500000000E+03 0.  0.
        -11    1    3    3    0    0  0.25419940802E+02 -0.36527287553E+02  0.29488798258E+02  0.53385441361E+02  0.51100000000E-03 0.  1.
         23    2    1    0    0    0  0.23049185023E+02  0.50029889372E+01  0.12358220607E+02  0.98372562175E+02  0.94700266863E+02 0.  0.
         11    1    3    3    0    0 -0.23707557791E+01  0.41530276490E+02 -0.17130577650E+02  0.44987120815E+02  0.51100000000E-03 0. -1.
         22    1    1    0    0    0 -0.23049185023E+02 -0.50029889372E+01 -0.12358220607E+02  0.26627437825E+02  0.00000000000E+00 0. -1.
</event>
<event>
 5    1  0.1626333E-003  0.9118800E+02  0.7818608E-02  0.1130116E+00
         25   -1    0    0    0    0  0.00000000000E+00  0.00000000000E+00  0.99999998245E-14  0.12500000000E+03  0.12500000000E+03 0.  0.
        -11    1    3    3    0    0 -0.28906365726E+02 -0.39794189025E+02  0.32843562085E+02  0.59142666750E+02  0.51100000000E-03 0.  1.
         23    2    1    0    0    0 -0.33668732877E+00 -0.21262996078E+02  0.20773320792E+02  0.95271911981E+02  0.90515070541E+02 0.  0.
         11    1    3    3    0    0  0.28569678397E+02  0.18531192948E+02 -0.12070241292E+02  0.36129245230E+02  0.51100000000E-03 0. -1.
         22    1    1    0    0    0  0.33668732877E+00  0.21262996078E+02 -0.20773320792E+02  0.29728088019E+02  0.00000000000E+00 0.  1.
</event>
<event>
 5    1  0.1626333E-003  0.9118800E+02  0.7818608E-02  0.1130116E+00
         25   -1    0    0    0    0  0.00000000000E+00  0.00000000000E+00  0.99999998245E-14  0.12500000000E+03  0.12500000000E+03 0.  0.
        -11    1    3    3    0    0 -0.35344104318E+02  0.17751045080E+02  0.19496004392E+02  0.44095345548E+02  0.51100000000E-03 0.  1.
         23    2    1    0    0    0 -0.97999925721E+01 -0.25919997246E+02  0.97876476356E+01  0.95611496161E+02  0.90982822776E+02 0.  0.
         11    1    3    3    0    0  0.25544111746E+02 -0.43671042326E+02 -0.97083567562E+01  0.51516150613E+02  0.51100000000E-03 0. -1.
         22    1    1    0    0    0  0.97999925721E+01  0.25919997246E+02 -0.97876476356E+01  0.29388503839E+02  0.00000000000E+00 0.  1.
</event>
<event>
 5    1  0.1626333E-003  0.9118800E+02  0.7818608E-02  0.1130116E+00
         25   -1    0    0    0    0  0.00000000000E+00  0.00000000000E+00  0.99999998245E-14  0.12500000000E+03  0.12500000000E+03 0.  0.
        -11    1    3    3    0    0 -0.19884884243E+02 -0.34282592940E+02  0.19183642905E+02  0.44030863669E+02  0.51100000000E-03 0. -1.
         23    2    1    0    0    0  0.82721461930E+01 -0.59037234873E+01 -0.21592810325E+02  0.10113513437E+03  0.98279110666E+02 0.  0.
         11    1    3    3    0    0  0.28157030436E+02  0.28378869452E+02 -0.40776453230E+02  0.57104270704E+02  0.51100000000E-03 0.  1.
         22    1    1    0    0    0 -0.82721461930E+01  0.59037234873E+01  0.21592810325E+02  0.23864865627E+02  0.00000000000E+00 0.  1.
</event>
<event>
 5    1  0.1626333E-003  0.9118800E+02  0.7818608E-02  0.1130116E+00
         25   -1    0    0    0    0  0.00000000000E+00  0.00000000000E+00  0.99999998245E-14  0.12500000000E+03  0.12500000000E+03 0.  0.
        -11    1    3    3    0    0  0.12075997398E+02  0.91805858968E+01 -0.36001673304E+02  0.39067036636E+02  0.51100000000E-03 0. -1.
         23    2    1    0    0    0 -0.22606143343E+02 -0.19150431805E+02 -0.19813480647E+01  0.95306524365E+02  0.90562857128E+02 0.  0.
         11    1    3    3    0    0 -0.34682140741E+02 -0.28331017702E+02  0.34020325239E+02  0.56239487729E+02  0.51100000000E-03 0.  1.
         22    1    1    0    0    0  0.22606143343E+02  0.19150431805E+02  0.19813480647E+01  0.29693475635E+02  0.00000000000E+00 0. -1.
</event>
<event>
 5    1  0.1626333E-003  0.9118800E+02  0.7818608E-02  0.1130116E+00
         25   -1    0    0    0    0  0.00000000000E+00  0.00000000000E+00  0.99999998245E-14  0.12500000000E+03  0.12500000000E+03 0.  0.
        -11    1    3    3    0    0 -0.43738088349E+02  0.26594916220E+02 -0.16763665545E+02  0.53863999331E+02  0.51100000000E-03 0.  1.
         23    2    1    0    0    0 -0.20798330410E+02 -0.52073161675E+01 -0.22985779721E+02  0.93567011614E+02  0.88129183041E+02 0.  0.
         11    1    3    3    0    0  0.22939757940E+02 -0.31802232388E+02 -0.62221141767E+01  0.39703012282E+02  0.51100000000E-03 0. -1.
         22    1    1    0    0    0  0.20798330410E+02  0.52073161675E+01  0.22985779721E+02  0.31432988386E+02  0.00000000000E+00 0.  1.
</event>
<event>
 5    1  0.1626333E-003  0.9118800E+02  0.7818608E-02  0.1130116E+00
         25   -1    0    0    0    0  0.00000000000E+00  0.00000000000E+00  0.99999998245E-14  0.12500000000E+03  0.12500000000E+03 0.  0.
        -11    1    3    3    0    0 -0.11883311150E+02 -0.51395132631E+02 -0.28597594977E+01  0.52828505247E+02  0.51100000000E-03 0.  1.
         23    2    1    0    0    0  0.11716729875E+02 -0.25183580683E+02  0.16124022227E+02  0.92883359644E+02  0.87154115857E+02 0.  0.
         11    1    3    3    0    0  0.23600041025E+02  0.26211551947E+02  0.18983781725E+02  0.40054854396E+02  0.51100000000E-03 0. -1.
         22    1    1    0    0    0 -0.11716729875E+02  0.25183580683E+02 -0.16124022227E+02  0.32116640356E+02  0.00000000000E+00 0.  1.
</event>
<event>
 5    1  0.1626333E-003  0.9118800E+02  0.7818608E-02  0.1130116E+00
         25   -1    0    0    0    0  0.00000000000E+00  0.00000000000E+00  0.99999998245E-14  0.12500000000E+03  0.12500000000E+03 0.  0.
        -11    1    3    3    0    0 -0.45779721864E+02 -0.61733565474E+01  0.35668239843E+01  0.46331582086E+02  0.51100000000E-03 0. -1.
         23    2    1    0    0    0 -0.10330230610E+02  0.16628138034E+02 -0.21938785162E+02  0.95597297177E+02  0.90963312903E+02 0.  0.
         11    1    3    3    0    0  0.35449491254E+02  0.22801494581E+02 -0.25505609146E+02  0.49265715091E+02  0.51100000000E-03 0.  1.
         22    1    1    0    0    0  0.10330230610E+02 -0.16628138034E+02  0.21938785162E+02  0.29402702823E+02  0.00000000000E+00 0.  1.
</event>
<event>
 5    1  0.1626333E-003  0.9118800E+02  0.7818608E-02  0.1130116E+00
         25   -1    0    0    0    0  0.00000000000E+00  0.00000000000E+00  0.99999998245E-14  0.12500000000E+03  0.12500000000E+03 0.  0.
        -11    1    3    3    0    0 -0.22987903772E+01  0.55686333219E+02  0.95783993559E+01  0.56550843309E+02  0.51100000000E-03 0.  1.
         23    2    1    0    0    0  0.94770993315E-01  0.26094241394E+02 -0.14830704599E+02  0.94985533249E+02  0.90118717879E+02 0.  0.
         11    1    3    3    0    0  0.23935613705E+01 -0.29592091825E+02 -0.24409103955E+02  0.38434689939E+02  0.51100000000E-03 0. -1.
         22    1    1    0    0    0 -0.94770993315E-01 -0.26094241394E+02  0.14830704599E+02  0.30014466751E+02  0.00000000000E+00 0.  1.
</event>
<event>
 5    1  0.1626333E-003  0.9118800E+02  0.7818608E-02  0.1130116E+00
         25   -1    0    0    0    0  0.00000000000E+00  0.00000000000E+00  0.99999998245E-14  0.12500000000E+03  0.12500000000E+03 0.  0.
        -11    1    3    3    0    0 -0.86022090452E+00 -0.26989283976E+02  0.51573584395E+01  0.27491085389E+02  0.51100000000E-03 0. -1.
         23    2    1    0    0    0  0.17761035055E+02  0.20869700880E+01 -0.38143198645E+02  0.82872652430E+02  0.71366400411E+02 0.  0.
         11    1    3    3    0    0  0.18621255959E+02  0.29076254064E+02 -0.43300557085E+02  0.55381567042E+02  0.51100000000E-03 0.  1.
         22    1    1    0    0    0 -0.17761035055E+02 -0.20869700880E+01  0.38143198645E+02  0.42127347570E+02  0.00000000000E+00 0.  1.
</event>
<event>
 5    1  0.1626333E-003  0.9118800E+02  0.7818608E-02  0.1130116E+00
         25   -1    0    0    0    0  0.00000000000E+00  0.00000000000E+00  0.99999998245E-14  0.12500000000E+03  0.12500000000E+03 0.  0.
        -11    1    3    3    0    0  0.19434200884E+02  0.20385555509E+02 -0.20487891157E+02  0.34828332170E+02  0.51100000000E-03 0. -1.
         23    2    1    0    0    0 -0.40788465862E+00 -0.12461554984E+02  0.26629680476E+02  0.95595976384E+02  0.90961497877E+02 0.  0.
         11    1    3    3    0    0 -0.19842085543E+02 -0.32847110494E+02  0.47117571633E+02  0.60767644214E+02  0.51100000000E-03 0.  1.
         22    1    1    0    0    0  0.40788465862E+00  0.12461554984E+02 -0.26629680476E+02  0.29404023616E+02  0.00000000000E+00 0.  1.
</event>
<event>
 5    1  0.1626333E-003  0.9118800E+02  0.7818608E-02  0.1130116E+00
         25   -1    0    0    0    0  0.00000000000E+00  0.00000000000E+00  0.99999998245E-14  0.12500000000E+03  0.12500000000E+03 0.  0.
        -11    1    3    3    0    0  0.23722078249E+02 -0.37581817484E+01  0.52759570355E+02  0.57969243490E+02  0.51100000000E-03 0. -1.
         23    2    1    0    0    0  0.10031331895E+02  0.15047863413E+02  0.23002040111E+02  0.95739793881E+02  0.91158918764E+02 0.  0.
         11    1    3    3    0    0 -0.13690746354E+02  0.18806045161E+02 -0.29757530244E+02  0.37770550391E+02  0.51100000000E-03 0.  1.
         22    1    1    0    0    0 -0.10031331895E+02 -0.15047863413E+02 -0.23002040111E+02  0.29260206119E+02  0.00000000000E+00 0. -1.
</event>
<event>
 5    1  0.1626333E-003  0.9118800E+02  0.7818608E-02  0.1130116E+00
         25   -1    0    0    0    0  0.00000000000E+00  0.00000000000E+00  0.99999998245E-14  0.12500000000E+03  0.12500000000E+03 0.  0.
        -11    1    3    3    0    0 -0.20734312550E+02  0.33188116868E+02  0.23701991012E+02  0.45750925634E+02  0.51100000000E-03 0. -1.
         23    2    1    0    0    0  0.61691990319E+01 -0.96423155604E+01  0.26217435692E+02  0.96392532438E+02  0.92049623081E+02 0.  0.
         11    1    3    3    0    0  0.26903511582E+02 -0.42830432429E+02  0.25154446804E+01  0.50641606804E+02  0.51100000000E-03 0.  1.
         22    1    1    0    0    0 -0.61691990319E+01  0.96423155604E+01 -0.26217435692E+02  0.28607467562E+02  0.00000000000E+00 0. -1.
</event>
<event>
 5    1  0.1626333E-003  0.9118800E+02  0.7818608E-02  0.1130116E+00
         25   -1    0    0    0    0  0.00000000000E+00  0.00000000000E+00  0.99999998245E-14  0.12500000000E+03  0.12500000000E+03 0.  0.
        -11    1    3    3    0    0  0.44606812127E+02 -0.13549658874E+02 -0.28618143073E+02  0.54702459332E+02  0.51100000000E-03 0.  1.
         23    2    1    0    0    0  0.96183248468E+01 -0.25485595243E+02 -0.12096912258E+02  0.95194580628E+02  0.90408213991E+02 0.  0.
         11    1    3    3    0    0 -0.34988487280E+02 -0.11935936369E+02  0.16521230815E+02  0.40492121296E+02  0.51100000000E-03 0. -1.
         22    1    1    0    0    0 -0.96183248468E+01  0.25485595243E+02  0.12096912258E+02  0.29805419372E+02  0.00000000000E+00 0.  1.
</event>
<event>
 5    1  0.1626333E-003  0.9118800E+02  0.7818608E-02  0.1130116E+00
         25   -1    0    0    0    0  0.00000000000E+00  0.00000000000E+00  0.99999998245E-14  0.12500000000E+03  0.12500000000E+03 0.  0.
        -11    1    3    3    0    0  0.27644582503E+02 -0.16334673857E+02 -0.14919994700E+02  0.35406930874E+02  0.51100000000E-03 0.  1.
         23    2    1    0    0    0 -0.20329371594E+02 -0.59782728600E+01  0.20174079811E+02  0.95742238773E+02  0.91162271216E+02 0.  0.
         11    1    3    3    0    0 -0.47973954097E+02  0.10356400996E+02  0.35094074511E+02  0.60335307900E+02  0.51100000000E-03 0. -1.
         22    1    1    0    0    0  0.20329371594E+02  0.59782728600E+01 -0.20174079811E+02  0.29257761227E+02  0.00000000000E+00 0. -1.
</event>
<event>
 5    1  0.1626333E-003  0.9118800E+02  0.7818608E-02  0.1130116E+00
         25   -1    0    0    0    0  0.00000000000E+00  0.00000000000E+00  0.99999998245E-14  0.12500000000E+03  0.12500000000E+03 0.  0.
        -11    1    3    3    0    0 -0.25537480588E+02 -0.20404009186E+02 -0.11630150977E+02  0.34695056099E+02  0.51100000000E-03 0.  1.
         23    2    1    0    0    0  0.10162890460E+02  0.18588842330E+02  0.19634312648E+02  0.96115131387E+02  0.91672148697E+02 0.  0.
         11    1    3    3    0    0  0.35700371048E+02  0.38992851516E+02  0.31264463626E+02  0.61420075288E+02  0.51100000000E-03 0. -1.
         22    1    1    0    0    0 -0.10162890460E+02 -0.18588842330E+02 -0.19634312648E+02  0.28884868613E+02  0.00000000000E+00 0. -1.
</event>
<event>
 5    1  0.1626333E-003  0.9118800E+02  0.7818608E-02  0.1130116E+00
         25   -1    0    0    0    0  0.00000000000E+00  0.00000000000E+00  0.99999998245E-14  0.12500000000E+03  0.12500000000E+03 0.  0.
        -11    1    3    3    0    0 -0.29368585796E+02  0.16208244440E+02 -0.34371694898E+02  0.48027434138E+02  0.51100000000E-03 0.  1.
         23    2    1    0    0    0 -0.10170543361E+02  0.26205649415E+02  0.81423502570E+01  0.95734424981E+02  0.91151556460E+02 0.  0.
         11    1    3    3    0    0  0.19198042434E+02  0.99974049747E+01  0.42514045155E+02  0.47706990843E+02  0.51100000000E-03 0. -1.
         22    1    1    0    0    0  0.10170543361E+02 -0.26205649415E+02 -0.81423502570E+01  0.29265575019E+02  0.00000000000E+00 0.  1.
</event>
<event>
 5    1  0.1626333E-003  0.9118800E+02  0.7818608E-02  0.1130116E+00
         25   -1    0    0    0    0  0.00000000000E+00  0.00000000000E+00  0.99999998245E-14  0.12500000000E+03  0.12500000000E+03 0.  0.
        -11    1    3    3    0    0  0.22671104015E+02  0.21534319111E+02  0.13801810074E+02  0.34178879713E+02  0.51100000000E-03 0.  1.
         23    2    1    0    0    0 -0.66739823138E+01 -0.26850369978E+02 -0.10016418725E+02  0.95575298609E+02  0.90933077878E+02 0.  0.
         11    1    3    3    0    0 -0.29345086329E+02 -0.48384689088E+02 -0.23818228800E+02  0.61396418896E+02  0.51100000000E-03 0. -1.
         22    1    1    0    0    0  0.66739823138E+01  0.26850369978E+02  0.10016418725E+02  0.29424701391E+02  0.00000000000E+00 0. -1.
</event>
<event>
 5    1  0.1626333E-003  0.9118800E+02  0.7818608E-02  0.1130116E+00
         25   -1    0    0    0    0  0.00000000000E+00  0.00000000000E+00  0.99999998245E-14  0.12500000000E+03  0.12500000000E+03 0.  0.
        -11    1    3    3    0    0 -0.53624153660E+02 -0.71414054338E+01 -0.17133673572E+02  0.56746033321E+02  0.51100000000E-03 0. -1.
         23    2    1    0    0    0 -0.22541488749E+02 -0.21610550801E+02 -0.37605574815E+01  0.93547235201E+02  0.88101128258E+02 0.  0.
         11    1    3    3    0    0  0.31082664911E+02 -0.14469145367E+02  0.13373116090E+02  0.36801201881E+02  0.51100000000E-03 0.  1.
         22    1    1    0    0    0  0.22541488749E+02  0.21610550801E+02  0.37605574815E+01  0.31452764799E+02  0.00000000000E+00 0. -1.
</event>
<event>
 5    1  0.1626333E-003  0.9118800E+02  0.7818608E-02  0.1130116E+00
         25   -1    0    0    0    0  0.00000000000E+00  0.00000000000E+00  0.99999998245E-14  0.12500000000E+03  0.12500000000E+03 0.  0.
        -11    1    3    3    0    0  0.58780492438E+01 -0.20837763318E+02 -0.33165027221E+02  0.39606601392E+02  0.51100000000E-03 0. -1.
         23    2    1    0    0    0 -0.16467962377E+01  0.16193995125E+02  0.16373185265E+02  0.10191237102E+03  0.99262746064E+02 0.  0.
         11    1    3    3    0    0 -0.75248454816E+01  0.37031758443E+02  0.49538212486E+02  0.62305769633E+02  0.51100000000E-03 0.  1.
         22    1    1    0    0    0  0.16467962377E+01 -0.16193995125E+02 -0.16373185265E+02  0.23087628975E+02  0.00000000000E+00 0.  1.
</event>
<event>
 5    1  0.1626333E-003  0.9118800E+02  0.7818608E-02  0.1130116E+00
         25   -1    0    0    0    0  0.00000000000E+00  0.00000000000E+00  0.99999998245E-14  0.12500000000E+03  0.12500000000E+03 0.  0.
        -11    1    3    3    0    0 -0.23856148114E+02 -0.51010183434E+02  0.28093729279E+01  0.56383039944E+02  0.51100000000E-03 0.  1.
         23    2    1    0    0    0  0.10810047085E+01 -0.11650453381E+02  0.16340375798E+02  0.10490249975E+03  0.10295933633E+03 0.  0.
         11    1    3    3    0    0  0.24937152822E+02  0.39359730053E+02  0.13531002870E+02  0.48519459804E+02  0.51100000000E-03 0. -1.
         22    1    1    0    0    0 -0.10810047085E+01  0.11650453381E+02 -0.16340375798E+02  0.20097500252E+02  0.00000000000E+00 0.  1.
</event>
<event>
 5    1  0.1626333E-003  0.9118800E+02  0.7818608E-02  0.1130116E+00
         25   -1    0    0    0    0  0.00000000000E+00  0.00000000000E+00  0.99999998245E-14  0.12500000000E+03  0.12500000000E+03 0.  0.
        -11    1    3    3    0    0  0.70229740254E+00  0.22261621550E+02  0.32247928011E+02  0.39191859830E+02  0.51100000000E-03 0. -1.
         23    2    1    0    0    0  0.17591771232E+02 -0.22970685209E+02  0.23729107278E+01  0.95969782995E+02  0.91473743493E+02 0.  0.
         11    1    3    3    0    0  0.16889473829E+02 -0.45232306759E+02 -0.29875017283E+02  0.56777923165E+02  0.51100000000E-03 0.  1.
         22    1    1    0    0    0 -0.17591771232E+02  0.22970685209E+02 -0.23729107278E+01  0.29030217005E+02  0.00000000000E+00 0.  1.
</event>
<event>
 5    1  0.1626333E-003  0.9118800E+02  0.7818608E-02  0.1130116E+00
         25   -1    0    0    0    0  0.00000000000E+00  0.00000000000E+00  0.99999998245E-14  0.12500000000E+03  0.12500000000E+03 0.  0.
        -11    1    3    3    0    0 -0.19045122291E+02  0.31408285414E+02 -0.10416348611E+02  0.38179803488E+02  0.51100000000E-03 0.  1.
         23    2    1    0    0    0  0.12321070496E+02 -0.21345086187E+02 -0.50465106508E+00  0.10034891168E+03  0.97273983781E+02 0.  0.
         11    1    3    3    0    0  0.31366192787E+02 -0.52753371601E+02  0.99116975458E+01  0.62169108195E+02  0.51100000000E-03 0. -1.
         22    1    1    0    0    0 -0.12321070496E+02  0.21345086187E+02  0.50465106508E+00  0.24651088317E+02  0.00000000000E+00 0. -1.
</event>
<event>
 5    1  0.1626333E-003  0.9118800E+02  0.7818608E-02  0.1130116E+00
         25   -1    0    0    0    0  0.00000000000E+00  0.00000000000E+00  0.99999998245E-14  0.12500000000E+03  0.12500000000E+03 0.  0.
        -11    1    3    3    0    0  0.27407508075E+02  0.50805702350E+02  0.83399021470E+00  0.57732888635E+02  0.51100000000E-03 0.  1.
         23    2    1    0    0    0  0.18537719609E+02  0.18040855075E+02  0.15646961041E+02  0.94768445459E+02  0.89817099513E+02 0.  0.
         11    1    3    3    0    0 -0.88697884664E+01 -0.32764847275E+02  0.14812970826E+02  0.37035556825E+02  0.51100000000E-03 0. -1.
         22    1    1    0    0    0 -0.18537719609E+02 -0.18040855075E+02 -0.15646961041E+02  0.30231554541E+02  0.00000000000E+00 0.  1.
</event>
<event>
 5    1  0.1626333E-003  0.9118800E+02  0.7818608E-02  0.1130116E+00
         25   -1    0    0    0    0  0.00000000000E+00  0.00000000000E+00  0.99999998245E-14  0.12500000000E+03  0.12500000000E+03 0.  0.
        -11    1    3    3    0    0 -0.42806348437E+01  0.33300205906E+02  0.53444555960E+01  0.33996922713E+02  0.51100000000E-03 0.  1.
         23    2    1    0    0    0  0.15167303125E+02 -0.24952399988E+02  0.47673401107E+01  0.95412893332E+02  0.90709554806E+02 0.  0.
         11    1    3    3    0    0  0.19447937968E+02 -0.58252605894E+02 -0.57711548528E+00  0.61415970620E+02  0.51100000000E-03 0. -1.
         22    1    1    0    0    0 -0.15167303125E+02  0.24952399988E+02 -0.47673401107E+01  0.29587106668E+02  0.00000000000E+00 0. -1.
</event>
<event>
 5    1  0.1626333E-003  0.9118800E+02  0.7818608E-02  0.1130116E+00
         25   -1    0    0    0    0  0.00000000000E+00  0.00000000000E+00  0.99999998245E-14  0.12500000000E+03  0.12500000000E+03 0.  0.
        -11    1    3    3    0    0 -0.49491826459E+02  0.63717684865E+01 -0.22363715894E+02  0.54682502766E+02  0.51100000000E-03 0. -1.
         23    2    1    0    0    0 -0.16935149261E+02  0.22174890367E+02 -0.24351829747E+00  0.97096875723E+02  0.93001177039E+02 0.  0.
         11    1    3    3    0    0  0.32556677198E+02  0.15803121880E+02  0.22120197597E+02  0.42414372957E+02  0.51100000000E-03 0.  1.
         22    1    1    0    0    0  0.16935149261E+02 -0.22174890367E+02  0.24351829747E+00  0.27903124277E+02  0.00000000000E+00 0. -1.
</event>
<event>
 5    1  0.1626333E-003  0.9118800E+02  0.7818608E-02  0.1130116E+00
         25   -1    0    0    0    0  0.00000000000E+00  0.00000000000E+00  0.99999998245E-14  0.12500000000E+03  0.12500000000E+03 0.  0.
        -11    1    3    3    0    0 -0.22264415262E+02 -0.32117939404E+02  0.13716294567E+02  0.41417423332E+02  0.51100000000E-03 0.  1.
         23    2    1    0    0    0  0.25950893434E+02 -0.12741007850E+02 -0.28311391777E+01  0.95951807283E+02  0.91449176163E+02 0.  0.
         11    1    3    3    0    0  0.48215308696E+02  0.19376931554E+02 -0.16547433745E+02  0.54534383951E+02  0.51100000000E-03 0. -1.
         22    1    1    0    0    0 -0.25950893434E+02  0.12741007850E+02  0.28311391777E+01  0.29048192717E+02  0.00000000000E+00 0. -1.
</event>
<event>
 5    1  0.1626333E-003  0.9118800E+02  0.7818608E-02  0.1130116E+00
         25   -1    0    0    0    0  0.00000000000E+00  0.00000000000E+00  0.99999998245E-14  0.12500000000E+03  0.12500000000E+03 0.  0.
        -11    1    3    3    0    0  0.13294318345E+02 -0.52607932543E+02  0.13350866685E+02  0.55880042128E+02  0.51100000000E-03 0.  1.
         23    2    1    0    0    0  0.94562152604E-01 -0.26568450011E+02 -0.13192044524E+02  0.95336528917E+02  0.90604261651E+02 0.  0.
         11    1    3    3    0    0 -0.13199756192E+02  0.26039482533E+02 -0.26542911208E+02  0.39456486789E+02  0.51100000000E-03 0. -1.
         22    1    1    0    0    0 -0.94562152604E-01  0.26568450011E+02  0.13192044524E+02  0.29663471083E+02  0.00000000000E+00 0.  1.
</event>
<event>
 5    1  0.1626333E-003  0.9118800E+02  0.7818608E-02  0.1130116E+00
         25   -1    0    0    0    0  0.00000000000E+00  0.00000000000E+00  0.99999998245E-14  0.12500000000E+03  0.12500000000E+03 0.  0.
        -11    1    3    3    0    0  0.40297990694E+02  0.14800124570E+02  0.18708865428E+02  0.46829407290E+02  0.51100000000E-03 0.  1.
         23    2    1    0    0    0 -0.19643544193E+01 -0.18275537626E+02  0.16109359200E+02  0.10055893992E+03  0.97543503018E+02 0.  0.
         11    1    3    3    0    0 -0.42262345113E+02 -0.33075662197E+02 -0.25995062282E+01  0.53729532634E+02  0.51100000000E-03 0. -1.
         22    1    1    0    0    0  0.19643544193E+01  0.18275537626E+02 -0.16109359200E+02  0.24441060076E+02  0.00000000000E+00 0. -1.
</event>
<event>
 5    1  0.1626333E-003  0.9118800E+02  0.7818608E-02  0.1130116E+00
         25   -1    0    0    0    0  0.00000000000E+00  0.00000000000E+00  0.99999998245E-14  0.12500000000E+03  0.12500000000E+03 0.  0.
        -11    1    3    3    0    0  0.24212093513E+01  0.31900726987E+02 -0.14842409840E+02  0.35267772358E+02  0.51100000000E-03 0.  1.
         23    2    1    0    0    0  0.13768621556E+02 -0.96750543350E+01  0.25597274598E+02  0.94366650807E+02  0.89256163383E+02 0.  0.
         11    1    3    3    0    0  0.11347412205E+02 -0.41575781322E+02  0.40439684437E+02  0.59098878449E+02  0.51100000000E-03 0. -1.
         22    1    1    0    0    0 -0.13768621556E+02  0.96750543350E+01 -0.25597274598E+02  0.30633349193E+02  0.00000000000E+00 0. -1.
</event>
<event>
 5    1  0.1626333E-003  0.9118800E+02  0.7818608E-02  0.1130116E+00
         25   -1    0    0    0    0  0.00000000000E+00  0.00000000000E+00  0.99999998245E-14  0.12500000000E+03  0.12500000000E+03 0.  0.
        -11    1    3    3    0    0  0.24638677235E+01 -0.35373253616E+02  0.15630651150E+01  0.35493392179E+02  0.51100000000E-03 0. -1.
         23    2    1    0    0    0  0.10052093665E+02  0.25369977861E+02 -0.56504622331E+01  0.97132311055E+02  0.93048792382E+02 0.  0.
         11    1    3    3    0    0  0.75882259418E+01  0.60743231476E+02 -0.72135273481E+01  0.61638918876E+02  0.51100000000E-03 0.  1.
         22    1    1    0    0    0 -0.10052093665E+02 -0.25369977861E+02  0.56504622331E+01  0.27867688945E+02  0.00000000000E+00 0.  1.
</event>
<event>
 5    1  0.1626333E-003  0.9118800E+02  0.7818608E-02  0.1130116E+00
         25   -1    0    0    0    0  0.00000000000E+00  0.00000000000E+00  0.99999998245E-14  0.12500000000E+03  0.12500000000E+03 0.  0.
        -11    1    3    3    0    0  0.31095327801E+02 -0.45097015387E+02 -0.13090891033E+02  0.56320792219E+02  0.51100000000E-03 0. -1.
         23    2    1    0    0    0  0.26904421823E+02 -0.12866696504E+02  0.67809079271E+01  0.94416009011E+02  0.89325261000E+02 0.  0.
         11    1    3    3    0    0 -0.41909059788E+01  0.32230318883E+02  0.19871798960E+02  0.38095216792E+02  0.51100000000E-03 0.  1.
         22    1    1    0    0    0 -0.26904421823E+02  0.12866696504E+02 -0.67809079271E+01  0.30583990989E+02  0.00000000000E+00 0. -1.
</event>
<event>
 5    1  0.1626333E-003  0.9118800E+02  0.7818608E-02  0.1130116E+00
         25   -1    0    0    0    0  0.00000000000E+00  0.00000000000E+00  0.99999998245E-14  0.12500000000E+03  0.12500000000E+03 0.  0.
        -11    1    3    3    0    0  0.29891935475E+02 -0.23981331927E+02  0.76718241167E+01  0.39083103420E+02  0.51100000000E-03 0. -1.
         23    2    1    0    0    0  0.78542550317E+01  0.27730325632E+02 -0.19524784439E+01  0.96112763132E+02  0.91668919395E+02 0.  0.
         11    1    3    3    0    0 -0.22037680443E+02  0.51711657559E+02 -0.96243025606E+01  0.57029659712E+02  0.51100000000E-03 0.  1.
         22    1    1    0    0    0 -0.78542550317E+01 -0.27730325632E+02  0.19524784439E+01  0.28887236868E+02  0.00000000000E+00 0.  1.
</event>
<event>
 5    1  0.1626333E-003  0.9118800E+02  0.7818608E-02  0.1130116E+00
         25   -1    0    0    0    0  0.00000000000E+00  0.00000000000E+00  0.99999998245E-14  0.12500000000E+03  0.12500000000E+03 0.  0.
        -11    1    3    3    0    0 -0.37916946668E+02  0.33498786039E+02 -0.31606491905E+02  0.59655962330E+02  0.51100000000E-03 0.  1.
         23    2    1    0    0    0 -0.16512725585E+02  0.54399344211E+01 -0.23330279725E+02  0.95904210875E+02  0.91384094452E+02 0.  0.
         11    1    3    3    0    0  0.21404221083E+02 -0.28058851618E+02  0.82762121808E+01  0.36248248545E+02  0.51100000000E-03 0. -1.
         22    1    1    0    0    0  0.16512725585E+02 -0.54399344211E+01  0.23330279725E+02  0.29095789125E+02  0.00000000000E+00 0.  1.
</event>
<event>
 4    1  0.1626333E-003  0.9118800E+02  0.7818608E-02  0.1130116E+00
         25   -1    0    0    0    0  0.00000000000E+00  0.00000000000E+00  0.99999998245E-14  0.12500000000E+03  0.12500000000E+03 0.  0.
        -11    1    1    0    0    0  0.50185999346E+01  0.11252513787E+01 -0.91459535312E+01  0.10492902469E+02  0.51100000000E-03 0. -1.
         11    1    1    0    0    0 -0.16305830989E+02  0.52949013199E+02  0.18646026087E+02  0.58456414636E+02  0.51100000000E-03 0.  1.
         22    1    1    0    0    0  0.11287231054E+02 -0.54074264578E+02 -0.95000725554E+01  0.56050682895E+02  0.00000000000E+00 0.  1.
</event>
<event>
 5    1  0.1626333E-003  0.9118800E+02  0.7818608E-02  0.1130116E+00
         25   -1    0    0    0    0  0.00000000000E+00  0.00000000000E+00  0.99999998245E-14  0.12500000000E+03  0.12500000000E+03 0.  0.
        -11    1    3    3    0    0 -0.47216683038E+02 -0.11997918288E+02  0.19559874604E+02  0.52497179878E+02  0.51100000000E-03 0.  1.
         23    2    1    0    0    0 -0.41097877167E+02 -0.99949669570E+01 -0.89860565962E+01  0.81760156276E+02  0.69390482554E+02 0.  0.
         11    1    3    3    0    0  0.61188058715E+01  0.20029513307E+01 -0.28545931200E+02  0.29262976398E+02  0.51100000000E-03 0. -1.
         22    1    1    0    0    0  0.41097877167E+02  0.99949669570E+01  0.89860565962E+01  0.43239843724E+02  0.00000000000E+00 0. -1.
</event>
<event>
 5    1  0.1626333E-003  0.9118800E+02  0.7818608E-02  0.1130116E+00
         25   -1    0    0    0    0  0.00000000000E+00  0.00000000000E+00  0.99999998245E-14  0.12500000000E+03  0.12500000000E+03 0.  0.
        -11    1    3    3    0    0  0.22298583239E+02  0.28889326142E+02  0.46014469405E+02  0.58729476196E+02  0.51100000000E-03 0. -1.
         23    2    1    0    0    0 -0.34322015556E+01  0.10321506573E+02  0.27406517017E+02  0.95513890042E+02  0.90848624154E+02 0.  0.
         11    1    3    3    0    0 -0.25730784794E+02 -0.18567819570E+02 -0.18607952388E+02  0.36784413846E+02  0.51100000000E-03 0.  1.
         22    1    1    0    0    0  0.34322015556E+01 -0.10321506573E+02 -0.27406517017E+02  0.29486109958E+02  0.00000000000E+00 0. -1.
</event>
<event>
 5    1  0.1626333E-003  0.9118800E+02  0.7818608E-02  0.1130116E+00
         25   -1    0    0    0    0  0.00000000000E+00  0.00000000000E+00  0.99999998245E-14  0.12500000000E+03  0.12500000000E+03 0.  0.
        -11    1    3    3    0    0 -0.14336074978E+02  0.85315649289E+01 -0.50709845758E+02  0.53383509654E+02  0.51100000000E-03 0. -1.
         23    2    1    0    0    0  0.17412161966E+02 -0.49270966563E+00 -0.20149897236E+02  0.98364600514E+02  0.94689757252E+02 0.  0.
         11    1    3    3    0    0  0.31748236944E+02 -0.90242745945E+01  0.30559948522E+02  0.44981090860E+02  0.51100000000E-03 0.  1.
         22    1    1    0    0    0 -0.17412161966E+02  0.49270966563E+00  0.20149897236E+02  0.26635399486E+02  0.00000000000E+00 0. -1.
</event>
<event>
 5    1  0.1626333E-003  0.9118800E+02  0.7818608E-02  0.1130116E+00
         25   -1    0    0    0    0  0.00000000000E+00  0.00000000000E+00  0.99999998245E-14  0.12500000000E+03  0.12500000000E+03 0.  0.
        -11    1    3    3    0    0 -0.33910528272E+02  0.15515350248E+02  0.78302161160E+01  0.38104623154E+02  0.51100000000E-03 0. -1.
         23    2    1    0    0    0  0.19321290462E+02  0.47622148472E+00  0.22506387945E+02  0.95333915824E+02  0.90600656487E+02 0.  0.
         11    1    3    3    0    0  0.53231818734E+02 -0.15039128764E+02  0.14676171829E+02  0.57229292670E+02  0.51100000000E-03 0.  1.
         22    1    1    0    0    0 -0.19321290462E+02 -0.47622148472E+00 -0.22506387945E+02  0.29666084176E+02  0.00000000000E+00 0.  1.
</event>
<event>
 5    1  0.1626333E-003  0.9118800E+02  0.7818608E-02  0.1130116E+00
         25   -1    0    0    0    0  0.00000000000E+00  0.00000000000E+00  0.99999998245E-14  0.12500000000E+03  0.12500000000E+03 0.  0.
        -11    1    3    3    0    0 -0.95824636604E+01  0.39068086707E+02  0.34320063512E+01  0.40372238934E+02  0.51100000000E-03 0. -1.
         23    2    1    0    0    0  0.51953436597E+01 -0.40367916147E+01 -0.28329276252E+02  0.95916754390E+02  0.91401250524E+02 0.  0.
         11    1    3    3    0    0  0.14777807320E+02 -0.43104878321E+02 -0.31761282603E+02  0.55544515455E+02  0.51100000000E-03 0.  1.
         22    1    1    0    0    0 -0.51953436597E+01  0.40367916147E+01  0.28329276252E+02  0.29083245610E+02  0.00000000000E+00 0.  1.
</event>
<event>
 5    1  0.1626333E-003  0.9118800E+02  0.7818608E-02  0.1130116E+00
         25   -1    0    0    0    0  0.00000000000E+00  0.00000000000E+00  0.99999998245E-14  0.12500000000E+03  0.12500000000E+03 0.  0.
        -11    1    3    3    0    0 -0.18858224669E+02  0.49005935689E+02 -0.85294149841E+01  0.53197418083E+02  0.51100000000E-03 0.  1.
         23    2    1    0    0    0 -0.27495081715E+02  0.71874831167E+01 -0.58694166837E+01  0.95981221868E+02  0.91489373520E+02 0.  0.
         11    1    3    3    0    0 -0.86368570454E+01 -0.41818452572E+02  0.26599983004E+01  0.42783803786E+02  0.51100000000E-03 0. -1.
         22    1    1    0    0    0  0.27495081715E+02 -0.71874831167E+01  0.58694166837E+01  0.29018778132E+02  0.00000000000E+00 0. -1.
</event>
<event>
 5    1  0.1626333E-003  0.9118800E+02  0.7818608E-02  0.1130116E+00
         25   -1    0    0    0    0  0.00000000000E+00  0.00000000000E+00  0.99999998245E-14  0.12500000000E+03  0.12500000000E+03 0.  0.
        -11    1    3    3    0    0 -0.12612116097E+02 -0.54895797823E+02  0.25193511190E+02  0.61703542016E+02  0.51100000000E-03 0. -1.
         23    2    1    0    0    0 -0.84890480730E+01 -0.26333576964E+02  0.19584880289E+02  0.91101788412E+02  0.84560316361E+02 0.  0.
         11    1    3    3    0    0  0.41230680240E+01  0.28562220859E+02 -0.56086309004E+01  0.29398246396E+02  0.51100000000E-03 0.  1.
         22    1    1    0    0    0  0.84890480730E+01  0.26333576964E+02 -0.19584880289E+02  0.33898211588E+02  0.00000000000E+00 0. -1.
</event>
<event>
 5    1  0.1626333E-003  0.9118800E+02  0.7818608E-02  0.1130116E+00
         25   -1    0    0    0    0  0.00000000000E+00  0.00000000000E+00  0.99999998245E-14  0.12500000000E+03  0.12500000000E+03 0.  0.
        -11    1    3    3    0    0 -0.13861181331E+02  0.41162686279E+02  0.41102579476E+02  0.59799006091E+02  0.51100000000E-03 0.  1.
         23    2    1    0    0    0 -0.55085427752E+01  0.26079138561E+02  0.79200570721E+01  0.97193655119E+02  0.93131164385E+02 0.  0.
         11    1    3    3    0    0  0.83526385557E+01 -0.15083547717E+02 -0.33182522404E+02  0.37394649028E+02  0.51100000000E-03 0. -1.
         22    1    1    0    0    0  0.55085427752E+01 -0.26079138561E+02 -0.79200570721E+01  0.27806344881E+02  0.00000000000E+00 0.  1.
</event>
<event>
 5    1  0.1626333E-003  0.9118800E+02  0.7818608E-02  0.1130116E+00
         25   -1    0    0    0    0  0.00000000000E+00  0.00000000000E+00  0.99999998245E-14  0.12500000000E+03  0.12500000000E+03 0.  0.
        -11    1    3    3    0    0 -0.56974061291E+01 -0.51352847696E+01  0.57827107226E+02  0.58333574524E+02  0.51100000000E-03 0.  1.
         23    2    1    0    0    0  0.80534393666E+01 -0.14348741814E+02  0.25494262297E+02  0.94656933455E+02  0.89661772031E+02 0.  0.
         11    1    3    3    0    0  0.13750845496E+02 -0.92134570448E+01 -0.32332844930E+02  0.36323358932E+02  0.51100000000E-03 0. -1.
         22    1    1    0    0    0 -0.80534393666E+01  0.14348741814E+02 -0.25494262297E+02  0.30343066545E+02  0.00000000000E+00 0.  1.
</event>
<event>
 5    1  0.1626333E-003  0.9118800E+02  0.7818608E-02  0.1130116E+00
         25   -1    0    0    0    0  0.00000000000E+00  0.00000000000E+00  0.99999998245E-14  0.12500000000E+03  0.12500000000E+03 0.  0.
        -11    1    3    3    0    0 -0.32438296940E+01 -0.38753033501E+02  0.48083071584E+02  0.61840939594E+02  0.51100000000E-03 0. -1.
         23    2    1    0    0    0 -0.33146676250E+01 -0.24122915224E+02  0.20066830910E+02  0.93447190884E+02  0.87959068441E+02 0.  0.
         11    1    3    3    0    0 -0.70837930953E-01  0.14630118277E+02 -0.28016240675E+02  0.31606251290E+02  0.51100000000E-03 0.  1.
         22    1    1    0    0    0  0.33146676250E+01  0.24122915224E+02 -0.20066830910E+02  0.31552809116E+02  0.00000000000E+00 0. -1.
</event>
<event>
 5    1  0.1626333E-003  0.9118800E+02  0.7818608E-02  0.1130116E+00
         25   -1    0    0    0    0  0.00000000000E+00  0.00000000000E+00  0.99999998245E-14  0.12500000000E+03  0.12500000000E+03 0.  0.
        -11    1    3    3    0    0  0.39975025020E+02 -0.45650400114E+01  0.19681391455E+02  0.44790617160E+02  0.51100000000E-03 0.  1.
         23    2    1    0    0    0 -0.11475524992E+02 -0.71732463146E+01  0.24990923251E+02  0.96580123479E+02  0.92304013292E+02 0.  0.
         11    1    3    3    0    0 -0.51450550012E+02 -0.26082063032E+01  0.53095317963E+01  0.51789506320E+02  0.51100000000E-03 0. -1.
         22    1    1    0    0    0  0.11475524992E+02  0.71732463146E+01 -0.24990923251E+02  0.28419876521E+02  0.00000000000E+00 0. -1.
</event>
<event>
 5    1  0.1626333E-003  0.9118800E+02  0.7818608E-02  0.1130116E+00
         25   -1    0    0    0    0  0.00000000000E+00  0.00000000000E+00  0.99999998245E-14  0.12500000000E+03  0.12500000000E+03 0.  0.
        -11    1    3    3    0    0 -0.26867116791E+02  0.44149017029E+02  0.41504014082E+01  0.51847888110E+02  0.51100000000E-03 0.  1.
         23    2    1    0    0    0  0.13158889894E+02  0.24042383385E+02 -0.37664254941E+01  0.97334524347E+02  0.93320046543E+02 0.  0.
         11    1    3    3    0    0  0.40026006686E+02 -0.20106633645E+02 -0.79168269022E+01  0.45486636238E+02  0.51100000000E-03 0. -1.
         22    1    1    0    0    0 -0.13158889894E+02 -0.24042383385E+02  0.37664254941E+01  0.27665475653E+02  0.00000000000E+00 0.  1.
</event>
<event>
 5    1  0.1626333E-003  0.9118800E+02  0.7818608E-02  0.1130116E+00
         25   -1    0    0    0    0  0.00000000000E+00  0.00000000000E+00  0.99999998245E-14  0.12500000000E+03  0.12500000000E+03 0.  0.
        -11    1    3    3    0    0  0.31858581938E+02 -0.26350087612E+02  0.61438880467E+01  0.41797652097E+02  0.51100000000E-03 0.  1.
         23    2    1    0    0    0 -0.11372551211E+02  0.44186212052E+01  0.24241235071E+02  0.97861528927E+02  0.94023306854E+02 0.  0.
         11    1    3    3    0    0 -0.43231133149E+02  0.30768708817E+02  0.18097347025E+02  0.56063876830E+02  0.51100000000E-03 0. -1.
         22    1    1    0    0    0  0.11372551211E+02 -0.44186212052E+01 -0.24241235071E+02  0.27138471073E+02  0.00000000000E+00 0. -1.
</event>
<event>
 5    1  0.1626333E-003  0.9118800E+02  0.7818608E-02  0.1130116E+00
         25   -1    0    0    0    0  0.00000000000E+00  0.00000000000E+00  0.99999998245E-14  0.12500000000E+03  0.12500000000E+03 0.  0.
        -11    1    3    3    0    0  0.53152190235E+02  0.52019049003E+01 -0.22589336550E+02  0.57987009471E+02  0.51100000000E-03 0.  1.
         23    2    1    0    0    0  0.18774720708E+02  0.15893205804E+02 -0.18502262008E+02  0.94219846852E+02  0.89050332470E+02 0.  0.
         11    1    3    3    0    0 -0.34377469527E+02  0.10691300903E+02  0.40870745422E+01  0.36232837381E+02  0.51100000000E-03 0. -1.
         22    1    1    0    0    0 -0.18774720708E+02 -0.15893205804E+02  0.18502262008E+02  0.30780153148E+02  0.00000000000E+00 0.  1.
</event>
<event>
 5    1  0.1626333E-003  0.9118800E+02  0.7818608E-02  0.1130116E+00
         25   -1    0    0    0    0  0.00000000000E+00  0.00000000000E+00  0.99999998245E-14  0.12500000000E+03  0.12500000000E+03 0.  0.
        -11    1    3    3    0    0 -0.22361998241E+01  0.39418985288E+02 -0.12711808651E+02  0.41478272266E+02  0.51100000000E-03 0. -1.
         23    2    1    0    0    0 -0.23089414697E+02 -0.12551469436E+02 -0.72250559420E+01  0.97744507170E+02  0.93867602465E+02 0.  0.
         11    1    3    3    0    0 -0.20853214873E+02 -0.51970454723E+02  0.54867527090E+01  0.56266234904E+02  0.51100000000E-03 0.  1.
         22    1    1    0    0    0  0.23089414697E+02  0.12551469436E+02  0.72250559420E+01  0.27255492830E+02  0.00000000000E+00 0.  1.
</event>
<event>
 5    1  0.1626333E-003  0.9118800E+02  0.7818608E-02  0.1130116E+00
         25   -1    0    0    0    0  0.00000000000E+00  0.00000000000E+00  0.99999998245E-14  0.12500000000E+03  0.12500000000E+03 0.  0.
        -11    1    3    3    0    0 -0.23879432256E+02  0.24708368411E+02 -0.43409524107E+02  0.55363503663E+02  0.51100000000E-03 0. -1.
         23    2    1    0    0    0 -0.33275880362E+00  0.25028744207E+02 -0.37952507437E+02  0.79536370737E+02  0.65261724496E+02 0.  0.
         11    1    3    3    0    0  0.23546673453E+02  0.32037579633E+00  0.54570166699E+01  0.24172867073E+02  0.51100000000E-03 0.  1.
         22    1    1    0    0    0  0.33275880362E+00 -0.25028744207E+02  0.37952507437E+02  0.45463629263E+02  0.00000000000E+00 0. -1.
</event>
<event>
 5    1  0.1626333E-003  0.9118800E+02  0.7818608E-02  0.1130116E+00
         25   -1    0    0    0    0  0.00000000000E+00  0.00000000000E+00  0.99999998245E-14  0.12500000000E+03  0.12500000000E+03 0.  0.
        -11    1    3    3    0    0  0.55600393502E+02  0.18496256544E+02 -0.16699856063E+02  0.60929471165E+02  0.51100000000E-03 0.  1.
         23    2    1    0    0    0  0.23568724942E+02  0.18258211203E+02 -0.74814716236E+01  0.94262083847E+02  0.89109600840E+02 0.  0.
         11    1    3    3    0    0 -0.32031668559E+02 -0.23804534116E+00  0.92183844396E+01  0.33332612682E+02  0.51100000000E-03 0. -1.
         22    1    1    0    0    0 -0.23568724942E+02 -0.18258211203E+02  0.74814716236E+01  0.30737916153E+02  0.00000000000E+00 0.  1.
</event>
<event>
 5    1  0.1626333E-003  0.9118800E+02  0.7818608E-02  0.1130116E+00
         25   -1    0    0    0    0  0.00000000000E+00  0.00000000000E+00  0.99999998245E-14  0.12500000000E+03  0.12500000000E+03 0.  0.
        -11    1    3    3    0    0 -0.12572350860E+02  0.40092614930E+02 -0.27588917351E+02  0.50265595977E+02  0.51100000000E-03 0. -1.
         23    2    1    0    0    0  0.21397654666E+02  0.17284858719E+02 -0.48728930767E+01  0.97064877787E+02  0.92958159656E+02 0.  0.
         11    1    3    3    0    0  0.33970005526E+02 -0.22807756211E+02  0.22716024275E+02  0.46799281810E+02  0.51100000000E-03 0.  1.
         22    1    1    0    0    0 -0.21397654666E+02 -0.17284858719E+02  0.48728930767E+01  0.27935122213E+02  0.00000000000E+00 0. -1.
</event>
<event>
 5    1  0.1626333E-003  0.9118800E+02  0.7818608E-02  0.1130116E+00
         25   -1    0    0    0    0  0.00000000000E+00  0.00000000000E+00  0.99999998245E-14  0.12500000000E+03  0.12500000000E+03 0.  0.
        -11    1    3    3    0    0 -0.41325523608E+02  0.44675989904E+02 -0.73523940711E+01  0.61300902720E+02  0.51100000000E-03 0.  1.
         23    2    1    0    0    0 -0.23301725976E+02  0.17035299854E+02 -0.10115000016E+02  0.94414299095E+02  0.89322868145E+02 0.  0.
         11    1    3    3    0    0  0.18023797633E+02 -0.27640690051E+02 -0.27626059452E+01  0.33113396375E+02  0.51100000000E-03 0. -1.
         22    1    1    0    0    0  0.23301725976E+02 -0.17035299854E+02  0.10115000016E+02  0.30585700905E+02  0.00000000000E+00 0.  1.
</event>
<event>
 5    1  0.1626333E-003  0.9118800E+02  0.7818608E-02  0.1130116E+00
         25   -1    0    0    0    0  0.00000000000E+00  0.00000000000E+00  0.99999998245E-14  0.12500000000E+03  0.12500000000E+03 0.  0.
        -11    1    3    3    0    0 -0.24959128831E+01  0.45993334433E+02 -0.13793402167E+01  0.46081655494E+02  0.51100000000E-03 0. -1.
         23    2    1    0    0    0 -0.23413718330E+02  0.33709998084E+01 -0.16782390728E+02  0.95996302231E+02  0.91509975181E+02 0.  0.
         11    1    3    3    0    0 -0.20917805447E+02 -0.42622334624E+02 -0.15403050511E+02  0.49914646737E+02  0.51100000000E-03 0.  1.
         22    1    1    0    0    0  0.23413718330E+02 -0.33709998084E+01  0.16782390728E+02  0.29003697769E+02  0.00000000000E+00 0.  1.
</event>
<event>
 5    1  0.1626333E-003  0.9118800E+02  0.7818608E-02  0.1130116E+00
         25   -1    0    0    0    0  0.00000000000E+00  0.00000000000E+00  0.99999998245E-14  0.12500000000E+03  0.12500000000E+03 0.  0.
        -11    1    3    3    0    0 -0.22645386436E+01  0.15863403734E+02  0.33209911567E+02  0.36873756790E+02  0.51100000000E-03 0.  1.
         23    2    1    0    0    0  0.90740075787E+01  0.10968627899E+02 -0.24919741023E+02  0.96300837918E+02  0.91925020966E+02 0.  0.
         11    1    3    3    0    0  0.11338546222E+02 -0.48947758352E+01 -0.58129652590E+02  0.59427081128E+02  0.51100000000E-03 0. -1.
         22    1    1    0    0    0 -0.90740075787E+01 -0.10968627899E+02  0.24919741023E+02  0.28699162082E+02  0.00000000000E+00 0. -1.
</event>
<event>
 5    1  0.1626333E-003  0.9118800E+02  0.7818608E-02  0.1130116E+00
         25   -1    0    0    0    0  0.00000000000E+00  0.00000000000E+00  0.99999998245E-14  0.12500000000E+03  0.12500000000E+03 0.  0.
        -11    1    3    3    0    0  0.19317073205E+01  0.47381132113E+02 -0.39203200224E+01  0.47582266474E+02  0.51100000000E-03 0. -1.
         23    2    1    0    0    0  0.13869034188E+01  0.60946192251E+01 -0.28626211906E+02  0.95699353375E+02  0.91103448583E+02 0.  0.
         11    1    3    3    0    0 -0.54480390173E+00 -0.41286512888E+02 -0.24705891883E+02  0.48117086900E+02  0.51100000000E-03 0.  1.
         22    1    1    0    0    0 -0.13869034188E+01 -0.60946192251E+01  0.28626211906E+02  0.29300646625E+02  0.00000000000E+00 0. -1.
</event>
<event>
 5    1  0.1626333E-003  0.9118800E+02  0.7818608E-02  0.1130116E+00
         25   -1    0    0    0    0  0.00000000000E+00  0.00000000000E+00  0.99999998245E-14  0.12500000000E+03  0.12500000000E+03 0.  0.
        -11    1    3    3    0    0  0.76890118453E+00  0.15068923989E+02  0.38075894267E+02  0.40956530660E+02  0.51100000000E-03 0.  1.
         23    2    1    0    0    0 -0.28636131703E+02  0.13271704629E+02 -0.48993873306E+01  0.93059897012E+02  0.87406946252E+02 0.  0.
         11    1    3    3    0    0 -0.29405032887E+02 -0.17972193605E+01 -0.42975281598E+02  0.52103366352E+02  0.51100000000E-03 0. -1.
         22    1    1    0    0    0  0.28636131703E+02 -0.13271704629E+02  0.48993873306E+01  0.31940102988E+02  0.00000000000E+00 0.  1.
</event>
<event>
 5    1  0.1626333E-003  0.9118800E+02  0.7818608E-02  0.1130116E+00
         25   -1    0    0    0    0  0.00000000000E+00  0.00000000000E+00  0.99999998245E-14  0.12500000000E+03  0.12500000000E+03 0.  0.
        -11    1    3    3    0    0 -0.33725758645E+02  0.36407591792E+02 -0.34184758629E+02  0.60262237422E+02  0.51100000000E-03 0.  1.
         23    2    1    0    0    0 -0.23528539475E+02  0.15424775441E+02 -0.71491667065E+01  0.95971971272E+02  0.91476733752E+02 0.  0.
         11    1    3    3    0    0  0.10197219171E+02 -0.20982816351E+02  0.27035591922E+02  0.35709733850E+02  0.51100000000E-03 0. -1.
         22    1    1    0    0    0  0.23528539475E+02 -0.15424775441E+02  0.71491667065E+01  0.29028028728E+02  0.00000000000E+00 0.  1.
</event>
<event>
 5    1  0.1626333E-003  0.9118800E+02  0.7818608E-02  0.1130116E+00
         25   -1    0    0    0    0  0.00000000000E+00  0.00000000000E+00  0.99999998245E-14  0.12500000000E+03  0.12500000000E+03 0.  0.
        -11    1    3    3    0    0  0.27725324938E+02 -0.44047676480E+02 -0.77011503343E+01  0.52613678478E+02  0.51100000000E-03 0. -1.
         23    2    1    0    0    0 -0.54702774243E+01 -0.14204571864E+02 -0.20883803946E+02  0.99157649794E+02  0.95730937781E+02 0.  0.
         11    1    3    3    0    0 -0.33195602363E+02  0.29843104617E+02 -0.13182653611E+02  0.46543971316E+02  0.51100000000E-03 0.  1.
         22    1    1    0    0    0  0.54702774243E+01  0.14204571864E+02  0.20883803946E+02  0.25842350206E+02  0.00000000000E+00 0.  1.
</event>
<event>
 5    1  0.1626333E-003  0.9118800E+02  0.7818608E-02  0.1130116E+00
         25   -1    0    0    0    0  0.00000000000E+00  0.00000000000E+00  0.99999998245E-14  0.12500000000E+03  0.12500000000E+03 0.  0.
        -11    1    3    3    0    0 -0.16316033484E+02 -0.17887114007E+02 -0.30071762398E+02  0.38606640492E+02  0.51100000000E-03 0. -1.
         23    2    1    0    0    0  0.72823546842E+01 -0.18256584778E+02  0.21831548008E+02  0.95623954215E+02  0.90999937109E+02 0.  0.
         11    1    3    3    0    0  0.23598388168E+02 -0.36947077134E+00  0.51903310406E+02  0.57017313723E+02  0.51100000000E-03 0.  1.
         22    1    1    0    0    0 -0.72823546842E+01  0.18256584778E+02 -0.21831548008E+02  0.29376045785E+02  0.00000000000E+00 0.  1.
</event>
<event>
 5    1  0.1626333E-003  0.9118800E+02  0.7818608E-02  0.1130116E+00
         25   -1    0    0    0    0  0.00000000000E+00  0.00000000000E+00  0.99999998245E-14  0.12500000000E+03  0.12500000000E+03 0.  0.
        -11    1    3    3    0    0 -0.13664885319E+01  0.20682372666E+02  0.15316881863E+02  0.25772751119E+02  0.51100000000E-03 0. -1.
         23    2    1    0    0    0 -0.11156594336E+02 -0.23876454287E+02 -0.26475811467E+02  0.87643296996E+02  0.79283190205E+02 0.  0.
         11    1    3    3    0    0 -0.97901058038E+01 -0.44558826952E+02 -0.41792693330E+02  0.61870545877E+02  0.51100000000E-03 0.  1.
         22    1    1    0    0    0  0.11156594336E+02  0.23876454287E+02  0.26475811467E+02  0.37356703004E+02  0.00000000000E+00 0.  1.
</event>
<event>
 5    1  0.1626333E-003  0.9118800E+02  0.7818608E-02  0.1130116E+00
         25   -1    0    0    0    0  0.00000000000E+00  0.00000000000E+00  0.99999998245E-14  0.12500000000E+03  0.12500000000E+03 0.  0.
        -11    1    3    3    0    0  0.11641494994E+02  0.15592758465E+01 -0.30783252589E+02  0.32947904138E+02  0.51100000000E-03 0.  1.
         23    2    1    0    0    0 -0.13753424218E+02  0.11863045856E+02  0.24412010631E+02  0.94572466453E+02  0.89543936775E+02 0.  0.
         11    1    3    3    0    0 -0.25394919212E+02  0.10303770009E+02  0.55195263221E+02  0.61624562315E+02  0.51100000000E-03 0. -1.
         22    1    1    0    0    0  0.13753424218E+02 -0.11863045856E+02 -0.24412010631E+02  0.30427533547E+02  0.00000000000E+00 0. -1.
</event>
<event>
 5    1  0.1626333E-003  0.9118800E+02  0.7818608E-02  0.1130116E+00
         25   -1    0    0    0    0  0.00000000000E+00  0.00000000000E+00  0.99999998245E-14  0.12500000000E+03  0.12500000000E+03 0.  0.
        -11    1    3    3    0    0 -0.27710657460E+02 -0.26118558044E+02  0.43116445519E+02  0.57524668496E+02  0.51100000000E-03 0. -1.
         23    2    1    0    0    0 -0.18347907840E+02 -0.21560758732E+02  0.60185178788E+01  0.96056354814E+02  0.91591968553E+02 0.  0.
         11    1    3    3    0    0  0.93627496197E+01  0.45577993120E+01 -0.37097927640E+02  0.38531686317E+02  0.51100000000E-03 0.  1.
         22    1    1    0    0    0  0.18347907840E+02  0.21560758732E+02 -0.60185178788E+01  0.28943645186E+02  0.00000000000E+00 0. -1.
</event>
<event>
 5    1  0.1626333E-003  0.9118800E+02  0.7818608E-02  0.1130116E+00
         25   -1    0    0    0    0  0.00000000000E+00  0.00000000000E+00  0.99999998245E-14  0.12500000000E+03  0.12500000000E+03 0.  0.
        -11    1    3    3    0    0  0.20593045000E+02  0.54379040027E+02 -0.21295129212E+02  0.61924438027E+02  0.51100000000E-03 0.  1.
         23    2    1    0    0    0  0.14611642219E+02  0.22731097634E+02 -0.11888235216E+02  0.95478261831E+02  0.90799589524E+02 0.  0.
         11    1    3    3    0    0 -0.59814027810E+01 -0.31647942392E+02  0.94068939967E+01  0.33553823803E+02  0.51100000000E-03 0. -1.
         22    1    1    0    0    0 -0.14611642219E+02 -0.22731097634E+02  0.11888235216E+02  0.29521738169E+02  0.00000000000E+00 0.  1.
</event>
<event>
 5    1  0.1626333E-003  0.9118800E+02  0.7818608E-02  0.1130116E+00
         25   -1    0    0    0    0  0.00000000000E+00  0.00000000000E+00  0.99999998245E-14  0.12500000000E+03  0.12500000000E+03 0.  0.
        -11    1    3    3    0    0  0.35734846971E+01 -0.10851791844E+02 -0.41489194450E+02  0.43033526877E+02  0.51100000000E-03 0.  1.
         23    2    1    0    0    0 -0.15714356706E+02 -0.25887486623E+02  0.37749637508E+01  0.94481918119E+02  0.89417445333E+02 0.  0.
         11    1    3    3    0    0 -0.19287841403E+02 -0.15035694779E+02  0.45264158201E+02  0.51448391242E+02  0.51100000000E-03 0. -1.
         22    1    1    0    0    0  0.15714356706E+02  0.25887486623E+02 -0.37749637508E+01  0.30518081881E+02  0.00000000000E+00 0. -1.
</event>
<event>
 5    1  0.1626333E-003  0.9118800E+02  0.7818608E-02  0.1130116E+00
         25   -1    0    0    0    0  0.00000000000E+00  0.00000000000E+00  0.99999998245E-14  0.12500000000E+03  0.12500000000E+03 0.  0.
        -11    1    3    3    0    0  0.33931281234E+02 -0.11188644778E+02  0.29700815200E+01  0.35851624826E+02  0.51100000000E-03 0. -1.
         23    2    1    0    0    0 -0.18070734490E+02  0.27482039368E+01 -0.22996781016E+02  0.95623887137E+02  0.90999844968E+02 0.  0.
         11    1    3    3    0    0 -0.52002015724E+02  0.13936848715E+02 -0.25966862536E+02  0.59772262310E+02  0.51100000000E-03 0.  1.
         22    1    1    0    0    0  0.18070734490E+02 -0.27482039368E+01  0.22996781016E+02  0.29376112863E+02  0.00000000000E+00 0.  1.
</event>
<event>
 5    1  0.1626333E-003  0.9118800E+02  0.7818608E-02  0.1130116E+00
         25   -1    0    0    0    0  0.00000000000E+00  0.00000000000E+00  0.99999998245E-14  0.12500000000E+03  0.12500000000E+03 0.  0.
        -11    1    3    3    0    0  0.76107449434E+01  0.36679739903E+02  0.36945042022E+01  0.37642743252E+02  0.51100000000E-03 0. -1.
         23    2    1    0    0    0  0.22113298850E+02 -0.19106946366E+02  0.52645685903E+01  0.95305066629E+02  0.90560845056E+02 0.  0.
         11    1    3    3    0    0  0.14502553907E+02 -0.55786686269E+02  0.15700643882E+01  0.57662323377E+02  0.51100000000E-03 0.  1.
         22    1    1    0    0    0 -0.22113298850E+02  0.19106946366E+02 -0.52645685903E+01  0.29694933371E+02  0.00000000000E+00 0.  1.
</event>
<event>
 5    1  0.1626333E-003  0.9118800E+02  0.7818608E-02  0.1130116E+00
         25   -1    0    0    0    0  0.00000000000E+00  0.00000000000E+00  0.99999998245E-14  0.12500000000E+03  0.12500000000E+03 0.  0.
        -11    1    3    3    0    0  0.37277732092E+02 -0.23035332130E+02  0.43221555361E+02  0.61549644064E+02  0.51100000000E-03 0.  1.
         23    2    1    0    0    0  0.16349869611E+02 -0.15181101813E+01  0.16091709464E+02  0.10200943654E+03  0.99384903957E+02 0.  0.
         11    1    3    3    0    0 -0.20927862481E+02  0.21517221949E+02 -0.27129845897E+02  0.40459792474E+02  0.51100000000E-03 0. -1.
         22    1    1    0    0    0 -0.16349869611E+02  0.15181101813E+01 -0.16091709464E+02  0.22990563462E+02  0.00000000000E+00 0.  1.
</event>
<event>
 5    1  0.1626333E-003  0.9118800E+02  0.7818608E-02  0.1130116E+00
         25   -1    0    0    0    0  0.00000000000E+00  0.00000000000E+00  0.99999998245E-14  0.12500000000E+03  0.12500000000E+03 0.  0.
        -11    1    3    3    0    0 -0.45609632875E+02 -0.25952961780E+02  0.11931660528E+02  0.53815976804E+02  0.51100000000E-03 0. -1.
         23    2    1    0    0    0 -0.12421687994E+02 -0.24836118631E+01  0.25382933967E+02  0.96631707889E+02  0.92373843551E+02 0.  0.
         11    1    3    3    0    0  0.33187944881E+02  0.23469349917E+02  0.13451273439E+02  0.42815731085E+02  0.51100000000E-03 0.  1.
         22    1    1    0    0    0  0.12421687994E+02  0.24836118631E+01 -0.25382933967E+02  0.28368292111E+02  0.00000000000E+00 0.  1.
</event>
<event>
 5    1  0.1626333E-003  0.9118800E+02  0.7818608E-02  0.1130116E+00
         25   -1    0    0    0    0  0.00000000000E+00  0.00000000000E+00  0.99999998245E-14  0.12500000000E+03  0.12500000000E+03 0.  0.
        -11    1    3    3    0    0  0.48147694435E+02  0.33160284041E+02  0.75011218328E+01  0.58941256740E+02  0.51100000000E-03 0.  1.
         23    2    1    0    0    0  0.27696885305E+02  0.64540072525E+01 -0.72202775965E+01  0.95658833122E+02  0.91047835122E+02 0.  0.
         11    1    3    3    0    0 -0.20450809130E+02 -0.26706276788E+02 -0.14721399429E+02  0.36717576382E+02  0.51100000000E-03 0. -1.
         22    1    1    0    0    0 -0.27696885305E+02 -0.64540072525E+01  0.72202775965E+01  0.29341166878E+02  0.00000000000E+00 0.  1.
</event>
<event>
 5    1  0.1626333E-003  0.9118800E+02  0.7818608E-02  0.1130116E+00
         25   -1    0    0    0    0  0.00000000000E+00  0.00000000000E+00  0.99999998245E-14  0.12500000000E+03  0.12500000000E+03 0.  0.
        -11    1    3    3    0    0 -0.45661648853E+02 -0.62068894953E+01  0.11432240493E+01  0.46095754844E+02  0.51100000000E-03 0. -1.
         23    2    1    0    0    0 -0.85098416025E-02 -0.16173615667E+02  0.22350518377E+02  0.97411386626E+02  0.93422945022E+02 0.  0.
         11    1    3    3    0    0  0.45653139011E+02 -0.99667261717E+01  0.21207294328E+02  0.51315631782E+02  0.51100000000E-03 0.  1.
         22    1    1    0    0    0  0.85098416025E-02  0.16173615667E+02 -0.22350518377E+02  0.27588613374E+02  0.00000000000E+00 0.  1.
</event>
<event>
 5    1  0.1626333E-003  0.9118800E+02  0.7818608E-02  0.1130116E+00
         25   -1    0    0    0    0  0.00000000000E+00  0.00000000000E+00  0.99999998245E-14  0.12500000000E+03  0.12500000000E+03 0.  0.
        -11    1    3    3    0    0  0.37939408388E+02 -0.25407455579E+02  0.15744217569E+02  0.48299253566E+02  0.51100000000E-03 0. -1.
         23    2    1    0    0    0  0.11869740515E+02 -0.16287932956E+02 -0.22061409300E+02  0.95118680080E+02  0.90303211571E+02 0.  0.
         11    1    3    3    0    0 -0.26069667873E+02  0.91195226233E+01 -0.37805626869E+02  0.46819426514E+02  0.51100000000E-03 0.  1.
         22    1    1    0    0    0 -0.11869740515E+02  0.16287932956E+02  0.22061409300E+02  0.29881319920E+02  0.00000000000E+00 0. -1.
</event>
<event>
 5    1  0.1626333E-003  0.9118800E+02  0.7818608E-02  0.1130116E+00
         25   -1    0    0    0    0  0.00000000000E+00  0.00000000000E+00  0.99999998245E-14  0.12500000000E+03  0.12500000000E+03 0.  0.
        -11    1    3    3    0    0 -0.21505764620E+02 -0.54631753626E+01 -0.25614398548E+02  0.33888664922E+02  0.51100000000E-03 0. -1.
         23    2    1    0    0    0  0.61284187516E+01 -0.10020014311E+02  0.28142938761E+02  0.94504373997E+02  0.89448831738E+02 0.  0.
         11    1    3    3    0    0  0.27634183372E+02 -0.45568389486E+01  0.53757337309E+02  0.60615709075E+02  0.51100000000E-03 0.  1.
         22    1    1    0    0    0 -0.61284187516E+01  0.10020014311E+02 -0.28142938761E+02  0.30495626003E+02  0.00000000000E+00 0.  1.
</event>
<event>
 5    1  0.1626333E-003  0.9118800E+02  0.7818608E-02  0.1130116E+00
         25   -1    0    0    0    0  0.00000000000E+00  0.00000000000E+00  0.99999998245E-14  0.12500000000E+03  0.12500000000E+03 0.  0.
        -11    1    3    3    0    0 -0.13047506718E+02  0.22012834709E+02 -0.51099983905E+02  0.57149021678E+02  0.51100000000E-03 0. -1.
         23    2    1    0    0    0 -0.14929901081E+01 -0.75276690018E+01 -0.26844945935E+02  0.97079650033E+02  0.92978021640E+02 0.  0.
         11    1    3    3    0    0  0.11554516609E+02 -0.29540503711E+02  0.24255037970E+02  0.39930628354E+02  0.51100000000E-03 0.  1.
         22    1    1    0    0    0  0.14929901081E+01  0.75276690018E+01  0.26844945935E+02  0.27920349967E+02  0.00000000000E+00 0.  1.
</event>
<event>
 5    1  0.1626333E-003  0.9118800E+02  0.7818608E-02  0.1130116E+00
         25   -1    0    0    0    0  0.00000000000E+00  0.00000000000E+00  0.99999998245E-14  0.12500000000E+03  0.12500000000E+03 0.  0.
        -11    1    3    3    0    0  0.18338933944E+01  0.21558210398E+02 -0.27858676234E+02  0.35273579948E+02  0.51100000000E-03 0. -1.
         23    2    1    0    0    0 -0.91984871758E+01 -0.27483086197E+02  0.53625314032E+01  0.95526470583E+02  0.90865932261E+02 0.  0.
         11    1    3    3    0    0 -0.11032380570E+02 -0.49041296595E+02  0.33221207637E+02  0.60252890635E+02  0.51100000000E-03 0.  1.
         22    1    1    0    0    0  0.91984871758E+01  0.27483086197E+02 -0.53625314032E+01  0.29473529417E+02  0.00000000000E+00 0.  1.
</event>
<event>
 5    1  0.1626333E-003  0.9118800E+02  0.7818608E-02  0.1130116E+00
         25   -1    0    0    0    0  0.00000000000E+00  0.00000000000E+00  0.99999998245E-14  0.12500000000E+03  0.12500000000E+03 0.  0.
        -11    1    3    3    0    0 -0.16515675549E+02 -0.43740525340E+02 -0.22746052639E+02  0.51994076651E+02  0.51100000000E-03 0. -1.
         23    2    1    0    0    0 -0.27273786793E+02 -0.97666141536E+01  0.28794995429E+01  0.95887498980E+02  0.91361232177E+02 0.  0.
         11    1    3    3    0    0 -0.10758111244E+02  0.33973911187E+02  0.25625552182E+02  0.43893422329E+02  0.51100000000E-03 0.  1.
         22    1    1    0    0    0  0.27273786793E+02  0.97666141536E+01 -0.28794995429E+01  0.29112501020E+02  0.00000000000E+00 0. -1.
</event>
<event>
 5    1  0.1626333E-003  0.9118800E+02  0.7818608E-02  0.1130116E+00
         25   -1    0    0    0    0  0.00000000000E+00  0.00000000000E+00  0.99999998245E-14  0.12500000000E+03  0.12500000000E+03 0.  0.
        -11    1    3    3    0    0 -0.19724069066E+02  0.62078027636E+01 -0.49131170289E+02  0.53305230606E+02  0.51100000000E-03 0. -1.
         23    2    1    0    0    0  0.59755341095E+01  0.21357600742E+02 -0.17852311269E+02  0.96529679752E+02  0.92235676059E+02 0.  0.
         11    1    3    3    0    0  0.25699603176E+02  0.15149797978E+02  0.31278859020E+02  0.43224449147E+02  0.51100000000E-03 0.  1.
         22    1    1    0    0    0 -0.59755341095E+01 -0.21357600742E+02  0.17852311269E+02  0.28470320248E+02  0.00000000000E+00 0.  1.
</event>
<event>
 5    1  0.1626333E-003  0.9118800E+02  0.7818608E-02  0.1130116E+00
         25   -1    0    0    0    0  0.00000000000E+00  0.00000000000E+00  0.99999998245E-14  0.12500000000E+03  0.12500000000E+03 0.  0.
        -11    1    3    3    0    0  0.85114166590E+01  0.32256027369E+02 -0.76866619232E+01  0.34234197624E+02  0.51100000000E-03 0.  1.
         23    2    1    0    0    0 -0.10616415708E+02 -0.25920380661E+02 -0.92721316350E+01  0.95494969223E+02  0.90822586980E+02 0.  0.
         11    1    3    3    0    0 -0.19127832367E+02 -0.58176408031E+02 -0.15854697118E+01  0.61260771599E+02  0.51100000000E-03 0. -1.
         22    1    1    0    0    0  0.10616415708E+02  0.25920380661E+02  0.92721316350E+01  0.29505030777E+02  0.00000000000E+00 0. -1.
</event>
<event>
 5    1  0.1626333E-003  0.9118800E+02  0.7818608E-02  0.1130116E+00
         25   -1    0    0    0    0  0.00000000000E+00  0.00000000000E+00  0.99999998245E-14  0.12500000000E+03  0.12500000000E+03 0.  0.
        -11    1    3    3    0    0 -0.14589129728E+02  0.36110439307E+02  0.16323925413E+02  0.42228865416E+02  0.51100000000E-03 0.  1.
         23    2    1    0    0    0 -0.17051069289E+02 -0.15922331414E+01 -0.22711938043E+02  0.96555206101E+02  0.92270263494E+02 0.  0.
         11    1    3    3    0    0 -0.24619395606E+01 -0.37702672449E+02 -0.39035863456E+02  0.54326340685E+02  0.51100000000E-03 0. -1.
         22    1    1    0    0    0  0.17051069289E+02  0.15922331414E+01  0.22711938043E+02  0.28444793899E+02  0.00000000000E+00 0. -1.
</event>
<event>
 5    1  0.1626333E-003  0.9118800E+02  0.7818608E-02  0.1130116E+00
         25   -1    0    0    0    0  0.00000000000E+00  0.00000000000E+00  0.99999998245E-14  0.12500000000E+03  0.12500000000E+03 0.  0.
        -11    1    3    3    0    0 -0.38538948238E+02  0.20164240607E+01  0.23512322991E+02  0.45190107657E+02  0.51100000000E-03 0.  1.
         23    2    1    0    0    0  0.13519517110E+02  0.16333588716E+02  0.12797263367E+02  0.10023443090E+03  0.97126761115E+02 0.  0.
         11    1    3    3    0    0  0.52058465348E+02  0.14317164656E+02 -0.10715059624E+02  0.55044323242E+02  0.51100000000E-03 0. -1.
         22    1    1    0    0    0 -0.13519517110E+02 -0.16333588716E+02 -0.12797263367E+02  0.24765569101E+02  0.00000000000E+00 0. -1.
</event>
<event>
 5    1  0.1626333E-003  0.9118800E+02  0.7818608E-02  0.1130116E+00
         25   -1    0    0    0    0  0.00000000000E+00  0.00000000000E+00  0.99999998245E-14  0.12500000000E+03  0.12500000000E+03 0.  0.
        -11    1    3    3    0    0 -0.96229046342E+01 -0.30982516482E+02  0.17185179579E+02  0.36713036085E+02  0.51100000000E-03 0. -1.
         23    2    1    0    0    0  0.80726340284E+01  0.59445392829E+01 -0.26546866087E+02  0.96623230162E+02  0.92362370803E+02 0.  0.
         11    1    3    3    0    0  0.17695538663E+02  0.36927055765E+02 -0.43732045665E+02  0.59910194077E+02  0.51100000000E-03 0.  1.
         22    1    1    0    0    0 -0.80726340284E+01 -0.59445392829E+01  0.26546866087E+02  0.28376769838E+02  0.00000000000E+00 0.  1.
</event>
<event>
 5    1  0.1626333E-003  0.9118800E+02  0.7818608E-02  0.1130116E+00
         25   -1    0    0    0    0  0.00000000000E+00  0.00000000000E+00  0.99999998245E-14  0.12500000000E+03  0.12500000000E+03 0.  0.
        -11    1    3    3    0    0 -0.23720853594E+02 -0.84744555827E+01 -0.18725984228E+02  0.31387223168E+02  0.51100000000E-03 0.  1.
         23    2    1    0    0    0  0.10047527985E+02  0.35082141749E+02 -0.97566415996E+01  0.87225649660E+02  0.78621958860E+02 0.  0.
         11    1    3    3    0    0  0.33768381579E+02  0.43556597332E+02  0.89693426287E+01  0.55838426491E+02  0.51100000000E-03 0. -1.
         22    1    1    0    0    0 -0.10047527985E+02 -0.35082141749E+02  0.97566415996E+01  0.37774350340E+02  0.00000000000E+00 0. -1.
</event>
<event>
 5    1  0.1626333E-003  0.9118800E+02  0.7818608E-02  0.1130116E+00
         25   -1    0    0    0    0  0.00000000000E+00  0.00000000000E+00  0.99999998245E-14  0.12500000000E+03  0.12500000000E+03 0.  0.
        -11    1    3    3    0    0 -0.14289649563E+02 -0.30826026864E+00 -0.30273970467E+02  0.33478387015E+02  0.51100000000E-03 0. -1.
         23    2    1    0    0    0  0.95901272804E+01 -0.18552034465E+02  0.22557903637E+02  0.94259025055E+02  0.89105309964E+02 0.  0.
         11    1    3    3    0    0  0.23879776843E+02 -0.18243774196E+02  0.52831874104E+02  0.60780638041E+02  0.51100000000E-03 0.  1.
         22    1    1    0    0    0 -0.95901272804E+01  0.18552034465E+02 -0.22557903637E+02  0.30740974945E+02  0.00000000000E+00 0.  1.
</event>
<event>
 5    1  0.1626333E-003  0.9118800E+02  0.7818608E-02  0.1130116E+00
         25   -1    0    0    0    0  0.00000000000E+00  0.00000000000E+00  0.99999998245E-14  0.12500000000E+03  0.12500000000E+03 0.  0.
        -11    1    3    3    0    0  0.49841200447E+01  0.51153173983E+02  0.21073046687E+02  0.55547834864E+02  0.51100000000E-03 0.  1.
         23    2    1    0    0    0  0.22029255622E+02  0.16802930986E+02  0.10952498746E+02  0.95207654980E+02  0.90426289015E+02 0.  0.
         11    1    3    3    0    0  0.17045135578E+02 -0.34350242997E+02 -0.10120547941E+02  0.39659820117E+02  0.51100000000E-03 0. -1.
         22    1    1    0    0    0 -0.22029255622E+02 -0.16802930986E+02 -0.10952498746E+02  0.29792345020E+02  0.00000000000E+00 0.  1.
</event>
<event>
 5    1  0.1626333E-003  0.9118800E+02  0.7818608E-02  0.1130116E+00
         25   -1    0    0    0    0  0.00000000000E+00  0.00000000000E+00  0.99999998245E-14  0.12500000000E+03  0.12500000000E+03 0.  0.
        -11    1    3    3    0    0 -0.15827815805E+01  0.33730629109E+02  0.17902337990E+01  0.33815166345E+02  0.51100000000E-03 0.  1.
         23    2    1    0    0    0 -0.77191329512E+01 -0.27340974891E+02 -0.67873211961E+01  0.95790726634E+02  0.91228732637E+02 0.  0.
         11    1    3    3    0    0 -0.61363513707E+01 -0.61071604000E+02 -0.85775549951E+01  0.61975560290E+02  0.51100000000E-03 0. -1.
         22    1    1    0    0    0  0.77191329512E+01  0.27340974891E+02  0.67873211961E+01  0.29209273366E+02  0.00000000000E+00 0. -1.
</event>
<event>
 5    1  0.1626333E-003  0.9118800E+02  0.7818608E-02  0.1130116E+00
         25   -1    0    0    0    0  0.00000000000E+00  0.00000000000E+00  0.99999998245E-14  0.12500000000E+03  0.12500000000E+03 0.  0.
        -11    1    3    3    0    0  0.33635934053E+02  0.16256743379E+02  0.39980155466E+02  0.54718101175E+02  0.51100000000E-03 0. -1.
         23    2    1    0    0    0 -0.32418638504E+01  0.18442964890E+01  0.28937368210E+02  0.95823256013E+02  0.91273292935E+02 0.  0.
         11    1    3    3    0    0 -0.36877797904E+02 -0.14412446890E+02 -0.11042787256E+02  0.41105154837E+02  0.51100000000E-03 0.  1.
         22    1    1    0    0    0  0.32418638504E+01 -0.18442964890E+01 -0.28937368210E+02  0.29176743987E+02  0.00000000000E+00 0. -1.
</event>
<event>
 5    1  0.1626333E-003  0.9118800E+02  0.7818608E-02  0.1130116E+00
         25   -1    0    0    0    0  0.00000000000E+00  0.00000000000E+00  0.99999998245E-14  0.12500000000E+03  0.12500000000E+03 0.  0.
        -11    1    3    3    0    0 -0.93331262836E+01  0.12443287992E+02 -0.50612094170E+02  0.52948340284E+02  0.51100000000E-03 0.  1.
         23    2    1    0    0    0 -0.16968822560E+02 -0.14982777823E+02 -0.19473523516E+02  0.95139613391E+02  0.90332183344E+02 0.  0.
         11    1    3    3    0    0 -0.76356962760E+01 -0.27426065814E+02  0.31138570655E+02  0.42191273107E+02  0.51100000000E-03 0. -1.
         22    1    1    0    0    0  0.16968822560E+02  0.14982777823E+02  0.19473523516E+02  0.29860386609E+02  0.00000000000E+00 0.  1.
</event>
<event>
 5    1  0.1626333E-003  0.9118800E+02  0.7818608E-02  0.1130116E+00
         25   -1    0    0    0    0  0.00000000000E+00  0.00000000000E+00  0.99999998245E-14  0.12500000000E+03  0.12500000000E+03 0.  0.
        -11    1    3    3    0    0  0.37382861418E+01 -0.24252691823E+02  0.36315554920E+02  0.43829069957E+02  0.51100000000E-03 0.  1.
         23    2    1    0    0    0  0.28053043833E+02  0.41645100061E+01 -0.94741457345E+00  0.96623706968E+02  0.92363016094E+02 0.  0.
         11    1    3    3    0    0  0.24314757691E+02  0.28417201829E+02 -0.37262969493E+02  0.52794637011E+02  0.51100000000E-03 0. -1.
         22    1    1    0    0    0 -0.28053043833E+02 -0.41645100061E+01  0.94741457345E+00  0.28376293032E+02  0.00000000000E+00 0.  1.
</event>
<event>
 5    1  0.1626333E-003  0.9118800E+02  0.7818608E-02  0.1130116E+00
         25   -1    0    0    0    0  0.00000000000E+00  0.00000000000E+00  0.99999998245E-14  0.12500000000E+03  0.12500000000E+03 0.  0.
        -11    1    3    3    0    0  0.36771146357E+02 -0.13030829941E+02  0.34622439897E+02  0.52159688247E+02  0.51100000000E-03 0.  1.
         23    2    1    0    0    0  0.23196918729E+02 -0.18461082606E+02 -0.54865589420E+01  0.94850191733E+02  0.89930795244E+02 0.  0.
         11    1    3    3    0    0 -0.13574227628E+02 -0.54302526655E+01 -0.40108998839E+02  0.42690503485E+02  0.51100000000E-03 0. -1.
         22    1    1    0    0    0 -0.23196918729E+02  0.18461082606E+02  0.54865589420E+01  0.30149808267E+02  0.00000000000E+00 0.  1.
</event>
<event>
 5    1  0.1626333E-003  0.9118800E+02  0.7818608E-02  0.1130116E+00
         25   -1    0    0    0    0  0.00000000000E+00  0.00000000000E+00  0.99999998245E-14  0.12500000000E+03  0.12500000000E+03 0.  0.
        -11    1    3    3    0    0  0.72799911067E+01  0.10888156615E+02  0.54285027673E+02  0.55842765464E+02  0.51100000000E-03 0. -1.
         23    2    1    0    0    0 -0.16464564194E+02  0.94280055193E+01  0.21938477432E+02  0.95995414945E+02  0.91508763166E+02 0.  0.
         11    1    3    3    0    0 -0.23744555301E+02 -0.14601510953E+01 -0.32346550240E+02  0.40152649481E+02  0.51100000000E-03 0.  1.
         22    1    1    0    0    0  0.16464564194E+02 -0.94280055193E+01 -0.21938477432E+02  0.29004585055E+02  0.00000000000E+00 0. -1.
</event>
<event>
 5    1  0.1626333E-003  0.9118800E+02  0.7818608E-02  0.1130116E+00
         25   -1    0    0    0    0  0.00000000000E+00  0.00000000000E+00  0.99999998245E-14  0.12500000000E+03  0.12500000000E+03 0.  0.
        -11    1    3    3    0    0 -0.32879729025E+02 -0.10394410548E+02  0.45633474955E+02  0.57197328505E+02  0.51100000000E-03 0.  1.
         23    2    1    0    0    0 -0.60993902429E+01  0.11443778968E+02  0.23277358093E+02  0.98354211624E+02  0.94676041879E+02 0.  0.
         11    1    3    3    0    0  0.26780338782E+02  0.21838189516E+02 -0.22356116862E+02  0.41156883118E+02  0.51100000000E-03 0. -1.
         22    1    1    0    0    0  0.60993902429E+01 -0.11443778968E+02 -0.23277358093E+02  0.26645788376E+02  0.00000000000E+00 0.  1.
</event>
<event>
 5    1  0.1626333E-003  0.9118800E+02  0.7818608E-02  0.1130116E+00
         25   -1    0    0    0    0  0.00000000000E+00  0.00000000000E+00  0.99999998245E-14  0.12500000000E+03  0.12500000000E+03 0.  0.
        -11    1    3    3    0    0  0.41709406690E+01 -0.20419352840E+02 -0.34963141597E+02  0.40703414931E+02  0.51100000000E-03 0.  1.
         23    2    1    0    0    0  0.10687394327E+02  0.26465895961E+02 -0.72647844492E+01  0.95547646281E+02  0.90895058008E+02 0.  0.
         11    1    3    3    0    0  0.65164536584E+01  0.46885248801E+02  0.27698357148E+02  0.54844231350E+02  0.51100000000E-03 0. -1.
         22    1    1    0    0    0 -0.10687394327E+02 -0.26465895961E+02  0.72647844492E+01  0.29452353719E+02  0.00000000000E+00 0. -1.
</event>
<event>
 5    1  0.1626333E-003  0.9118800E+02  0.7818608E-02  0.1130116E+00
         25   -1    0    0    0    0  0.00000000000E+00  0.00000000000E+00  0.99999998245E-14  0.12500000000E+03  0.12500000000E+03 0.  0.
        -11    1    3    3    0    0 -0.39540315340E+02 -0.19489668096E+02 -0.51633854261E+01  0.44384053995E+02  0.51100000000E-03 0. -1.
         23    2    1    0    0    0 -0.13301814777E+02  0.25052195731E+02 -0.56313659059E+01  0.96081786547E+02  0.91626669899E+02 0.  0.
         11    1    3    3    0    0  0.26238500563E+02  0.44541863828E+02 -0.46798047981E+00  0.51697732552E+02  0.51100000000E-03 0.  1.
         22    1    1    0    0    0  0.13301814777E+02 -0.25052195731E+02  0.56313659059E+01  0.28918213453E+02  0.00000000000E+00 0.  1.
</event>
<event>
 5    1  0.1626333E-003  0.9118800E+02  0.7818608E-02  0.1130116E+00
         25   -1    0    0    0    0  0.00000000000E+00  0.00000000000E+00  0.99999998245E-14  0.12500000000E+03  0.12500000000E+03 0.  0.
        -11    1    3    3    0    0  0.22946669085E+02  0.18808959142E+02 -0.54081867676E+02  0.61686100360E+02  0.51100000000E-03 0.  1.
         23    2    1    0    0    0  0.70993301996E+01  0.15040541830E+02 -0.27381998015E+02  0.92962643631E+02  0.87267754112E+02 0.  0.
         11    1    3    3    0    0 -0.15847338886E+02 -0.37684173124E+01  0.26699869661E+02  0.31276543270E+02  0.51100000000E-03 0. -1.
         22    1    1    0    0    0 -0.70993301996E+01 -0.15040541830E+02  0.27381998015E+02  0.32037356369E+02  0.00000000000E+00 0.  1.
</event>
<event>
 5    1  0.1626333E-003  0.9118800E+02  0.7818608E-02  0.1130116E+00
         25   -1    0    0    0    0  0.00000000000E+00  0.00000000000E+00  0.99999998245E-14  0.12500000000E+03  0.12500000000E+03 0.  0.
        -11    1    3    3    0    0  0.63717510199E+01  0.26481431684E+02 -0.49044668885E+02  0.56100311776E+02  0.51100000000E-03 0. -1.
         23    2    1    0    0    0  0.21544783691E+01 -0.73319033383E+01 -0.27599124469E+02  0.96362432801E+02  0.92008739804E+02 0.  0.
         11    1    3    3    0    0 -0.42172726508E+01 -0.33813335022E+02  0.21445544415E+02  0.40262121025E+02  0.51100000000E-03 0.  1.
         22    1    1    0    0    0 -0.21544783691E+01  0.73319033383E+01  0.27599124469E+02  0.28637567199E+02  0.00000000000E+00 0. -1.
</event>
<event>
 5    1  0.1626333E-003  0.9118800E+02  0.7818608E-02  0.1130116E+00
         25   -1    0    0    0    0  0.00000000000E+00  0.00000000000E+00  0.99999998245E-14  0.12500000000E+03  0.12500000000E+03 0.  0.
        -11    1    3    3    0    0  0.11154506470E+02  0.39306667962E+02  0.33808595411E+02  0.53032615293E+02  0.51100000000E-03 0.  1.
         23    2    1    0    0    0  0.26758971283E+02  0.14680629963E+02  0.49029503360E+01  0.94087181264E+02  0.88863914588E+02 0.  0.
         11    1    3    3    0    0  0.15604464812E+02 -0.24626037999E+02 -0.28905645075E+02  0.41054565971E+02  0.51100000000E-03 0. -1.
         22    1    1    0    0    0 -0.26758971283E+02 -0.14680629963E+02 -0.49029503360E+01  0.30912818736E+02  0.00000000000E+00 0.  1.
</event>
<event>
 5    1  0.1626333E-003  0.9118800E+02  0.7818608E-02  0.1130116E+00
         25   -1    0    0    0    0  0.00000000000E+00  0.00000000000E+00  0.99999998245E-14  0.12500000000E+03  0.12500000000E+03 0.  0.
        -11    1    3    3    0    0 -0.38649401493E+02 -0.23858955103E+02 -0.35087597734E+00  0.45421900979E+02  0.51100000000E-03 0.  1.
         23    2    1    0    0    0 -0.16656775091E+02  0.20720516796E+02 -0.10948715624E+02  0.96248263590E+02  0.91853502370E+02 0.  0.
         11    1    3    3    0    0  0.21992626401E+02  0.44579471899E+02 -0.10597839646E+02  0.50826362611E+02  0.51100000000E-03 0. -1.
         22    1    1    0    0    0  0.16656775091E+02 -0.20720516796E+02  0.10948715624E+02  0.28751736410E+02  0.00000000000E+00 0. -1.
</event>
<event>
 5    1  0.1626333E-003  0.9118800E+02  0.7818608E-02  0.1130116E+00
         25   -1    0    0    0    0  0.00000000000E+00  0.00000000000E+00  0.99999998245E-14  0.12500000000E+03  0.12500000000E+03 0.  0.
        -11    1    3    3    0    0 -0.61782543526E+01 -0.19404625089E+02  0.34766584479E+02  0.40291757200E+02  0.51100000000E-03 0. -1.
         23    2    1    0    0    0  0.52469719059E+01 -0.25447630642E+02 -0.17198912155E+02  0.93840487828E+02  0.88516224259E+02 0.  0.
         11    1    3    3    0    0  0.11425226259E+02 -0.60430055528E+01 -0.51965496634E+02  0.53548730628E+02  0.51100000000E-03 0.  1.
         22    1    1    0    0    0 -0.52469719059E+01  0.25447630642E+02  0.17198912155E+02  0.31159512172E+02  0.00000000000E+00 0.  1.
</event>
<event>
 5    1  0.1626333E-003  0.9118800E+02  0.7818608E-02  0.1130116E+00
         25   -1    0    0    0    0  0.00000000000E+00  0.00000000000E+00  0.99999998245E-14  0.12500000000E+03  0.12500000000E+03 0.  0.
        -11    1    3    3    0    0  0.20435120038E+02  0.26403500301E+02  0.49900410345E+02  0.60039902664E+02  0.51100000000E-03 0. -1.
         23    2    1    0    0    0  0.13429240790E+02  0.10201285425E+01  0.26528965124E+02  0.95248173821E+02  0.90482282549E+02 0.  0.
         11    1    3    3    0    0 -0.70058792481E+01 -0.25383371758E+02 -0.23371445221E+02  0.35208271157E+02  0.51100000000E-03 0.  1.
         22    1    1    0    0    0 -0.13429240790E+02 -0.10201285425E+01 -0.26528965124E+02  0.29751826179E+02  0.00000000000E+00 0. -1.
</event>
<event>
 5    1  0.1626333E-003  0.9118800E+02  0.7818608E-02  0.1130116E+00
         25   -1    0    0    0    0  0.00000000000E+00  0.00000000000E+00  0.99999998245E-14  0.12500000000E+03  0.12500000000E+03 0.  0.
        -11    1    3    3    0    0  0.27516332803E+02 -0.24932317405E+02 -0.27508930079E+02  0.46211581411E+02  0.51100000000E-03 0.  1.
         23    2    1    0    0    0  0.19841943221E+02  0.16100065407E+02  0.48034381596E+01  0.99000233942E+02  0.95525172000E+02 0.  0.
         11    1    3    3    0    0 -0.76743895818E+01  0.41032382812E+02  0.32312368239E+02  0.52788652532E+02  0.51100000000E-03 0. -1.
         22    1    1    0    0    0 -0.19841943221E+02 -0.16100065407E+02 -0.48034381596E+01  0.25999766058E+02  0.00000000000E+00 0. -1.
</event>
<event>
 5    1  0.1626333E-003  0.9118800E+02  0.7818608E-02  0.1130116E+00
         25   -1    0    0    0    0  0.00000000000E+00  0.00000000000E+00  0.99999998245E-14  0.12500000000E+03  0.12500000000E+03 0.  0.
        -11    1    3    3    0    0 -0.27256491827E+02 -0.33646337410E+02 -0.39834033909E+02  0.58836575577E+02  0.51100000000E-03 0.  1.
         23    2    1    0    0    0 -0.31057622165E+01 -0.26516538043E+02 -0.14237189379E+02  0.94743263392E+02  0.89782046357E+02 0.  0.
         11    1    3    3    0    0  0.24150729610E+02  0.71297993672E+01  0.25596844530E+02  0.35906687815E+02  0.51100000000E-03 0. -1.
         22    1    1    0    0    0  0.31057622165E+01  0.26516538043E+02  0.14237189379E+02  0.30256736608E+02  0.00000000000E+00 0.  1.
</event>
<event>
 5    1  0.1626333E-003  0.9118800E+02  0.7818608E-02  0.1130116E+00
         25   -1    0    0    0    0  0.00000000000E+00  0.00000000000E+00  0.99999998245E-14  0.12500000000E+03  0.12500000000E+03 0.  0.
        -11    1    3    3    0    0 -0.49552833852E+02 -0.17741591449E+02 -0.11412305719E+02  0.53856180072E+02  0.51100000000E-03 0.  1.
         23    2    1    0    0    0 -0.30892377588E+02  0.15817247704E+01  0.14192242278E+02  0.90966772307E+02  0.84360494764E+02 0.  0.
         11    1    3    3    0    0  0.18660456263E+02  0.19323316219E+02  0.25604547997E+02  0.37110592235E+02  0.51100000000E-03 0. -1.
         22    1    1    0    0    0  0.30892377588E+02 -0.15817247704E+01 -0.14192242278E+02  0.34033227693E+02  0.00000000000E+00 0.  1.
</event>
<event>
 5    1  0.1626333E-003  0.9118800E+02  0.7818608E-02  0.1130116E+00
         25   -1    0    0    0    0  0.00000000000E+00  0.00000000000E+00  0.99999998245E-14  0.12500000000E+03  0.12500000000E+03 0.  0.
        -11    1    3    3    0    0 -0.10420169326E+02 -0.11161942285E+02 -0.30738452082E+02  0.34322315205E+02  0.51100000000E-03 0.  1.
         23    2    1    0    0    0  0.17351448320E+02 -0.63532408920E+01  0.23295824715E+02  0.95265644823E+02  0.90506415274E+02 0.  0.
         11    1    3    3    0    0  0.27771617646E+02  0.48087013926E+01  0.54034276797E+02  0.60943329618E+02  0.51100000000E-03 0. -1.
         22    1    1    0    0    0 -0.17351448320E+02  0.63532408920E+01 -0.23295824715E+02  0.29734355177E+02  0.00000000000E+00 0. -1.
</event>
<event>
 5    1  0.1626333E-003  0.9118800E+02  0.7818608E-02  0.1130116E+00
         25   -1    0    0    0    0  0.00000000000E+00  0.00000000000E+00  0.99999998245E-14  0.12500000000E+03  0.12500000000E+03 0.  0.
        -11    1    3    3    0    0  0.16976608869E+01 -0.50817863216E+02 -0.30577625130E+02  0.59332355702E+02  0.51100000000E-03 0.  1.
         23    2    1    0    0    0  0.57536203569E+01 -0.27635744118E+02 -0.15119615982E+01  0.96731209293E+02  0.92508390556E+02 0.  0.
         11    1    3    3    0    0  0.40559594700E+01  0.23182119098E+02  0.29065663532E+02  0.37398853591E+02  0.51100000000E-03 0. -1.
         22    1    1    0    0    0 -0.57536203569E+01  0.27635744118E+02  0.15119615982E+01  0.28268790707E+02  0.00000000000E+00 0.  1.
</event>
<event>
 5    1  0.1626333E-003  0.9118800E+02  0.7818608E-02  0.1130116E+00
         25   -1    0    0    0    0  0.00000000000E+00  0.00000000000E+00  0.99999998245E-14  0.12500000000E+03  0.12500000000E+03 0.  0.
        -11    1    3    3    0    0  0.19064014901E+02 -0.88282922475E+01 -0.13387553898E+02  0.24911884870E+02  0.51100000000E-03 0. -1.
         23    2    1    0    0    0 -0.29868822107E+02 -0.27600153091E+01  0.23831187939E+02  0.86689560990E+02  0.77764967997E+02 0.  0.
         11    1    3    3    0    0 -0.48932837008E+02  0.60682769384E+01  0.37218741836E+02  0.61777676120E+02  0.51100000000E-03 0.  1.
         22    1    1    0    0    0  0.29868822107E+02  0.27600153091E+01 -0.23831187939E+02  0.38310439010E+02  0.00000000000E+00 0.  1.
</event>
<event>
 5    1  0.1626333E-003  0.9118800E+02  0.7818608E-02  0.1130116E+00
         25   -1    0    0    0    0  0.00000000000E+00  0.00000000000E+00  0.99999998245E-14  0.12500000000E+03  0.12500000000E+03 0.  0.
        -11    1    3    3    0    0  0.38280458958E+02  0.90222144302E+01 -0.25336578176E+01  0.39410827363E+02  0.51100000000E-03 0.  1.
         23    2    1    0    0    0 -0.18612266909E+02 -0.11922118641E+02  0.90195410679E+01  0.10112730611E+03  0.98269153492E+02 0.  0.
         11    1    3    3    0    0 -0.56892725867E+02 -0.20944333071E+02  0.11553198885E+02  0.61716478749E+02  0.51100000000E-03 0. -1.
         22    1    1    0    0    0  0.18612266909E+02  0.11922118641E+02 -0.90195410679E+01  0.23872693888E+02  0.00000000000E+00 0. -1.
</event>
<event>
 5    1  0.1626333E-003  0.9118800E+02  0.7818608E-02  0.1130116E+00
         25   -1    0    0    0    0  0.00000000000E+00  0.00000000000E+00  0.99999998245E-14  0.12500000000E+03  0.12500000000E+03 0.  0.
        -11    1    3    3    0    0  0.21054331652E+02  0.48230876478E+01  0.36590974086E+02  0.42490545309E+02  0.51100000000E-03 0.  1.
         23    2    1    0    0    0  0.19645789984E+01  0.30490963447E+02 -0.40152224969E+01  0.94183114462E+02  0.88998756258E+02 0.  0.
         11    1    3    3    0    0 -0.19089752654E+02  0.25667875800E+02 -0.40606196583E+02  0.51692569153E+02  0.51100000000E-03 0. -1.
         22    1    1    0    0    0 -0.19645789984E+01 -0.30490963447E+02  0.40152224969E+01  0.30816885538E+02  0.00000000000E+00 0. -1.
</event>
<event>
 5    1  0.1626333E-003  0.9118800E+02  0.7818608E-02  0.1130116E+00
         25   -1    0    0    0    0  0.00000000000E+00  0.00000000000E+00  0.99999998245E-14  0.12500000000E+03  0.12500000000E+03 0.  0.
        -11    1    3    3    0    0  0.40294374523E+02 -0.12254746885E+02  0.31116656566E+01  0.42231479998E+02  0.51100000000E-03 0.  1.
         23    2    1    0    0    0 -0.77498400518E+01  0.43787216843E+01  0.25653039047E+02  0.97846517042E+02  0.94003347070E+02 0.  0.
         11    1    3    3    0    0 -0.48044214575E+02  0.16633468570E+02  0.22541373391E+02  0.55615037043E+02  0.51100000000E-03 0. -1.
         22    1    1    0    0    0  0.77498400518E+01 -0.43787216843E+01 -0.25653039047E+02  0.27153482958E+02  0.00000000000E+00 0. -1.
</event>
<event>
 5    1  0.1626333E-003  0.9118800E+02  0.7818608E-02  0.1130116E+00
         25   -1    0    0    0    0  0.00000000000E+00  0.00000000000E+00  0.99999998245E-14  0.12500000000E+03  0.12500000000E+03 0.  0.
        -11    1    3    3    0    0 -0.21664070967E+02  0.25724743383E+02 -0.79738597165E+01  0.34564097443E+02  0.51100000000E-03 0. -1.
         23    2    1    0    0    0  0.18916159223E+02  0.49767225382E+01  0.26750158882E+02  0.91861505056E+02  0.85675995844E+02 0.  0.
         11    1    3    3    0    0  0.40580230190E+02 -0.20748020845E+02  0.34724018599E+02  0.57297407613E+02  0.51100000000E-03 0.  1.
         22    1    1    0    0    0 -0.18916159223E+02 -0.49767225382E+01 -0.26750158882E+02  0.33138494944E+02  0.00000000000E+00 0.  1.
</event>
<event>
 5    1  0.1626333E-003  0.9118800E+02  0.7818608E-02  0.1130116E+00
         25   -1    0    0    0    0  0.00000000000E+00  0.00000000000E+00  0.99999998245E-14  0.12500000000E+03  0.12500000000E+03 0.  0.
        -11    1    3    3    0    0 -0.27160557580E+02 -0.15439213008E+02 -0.72354807447E+01  0.32068947102E+02  0.51100000000E-03 0. -1.
         23    2    1    0    0    0 -0.90938699469E+01  0.15266329368E+01  0.39213779607E+02  0.84716633833E+02  0.74526226647E+02 0.  0.
         11    1    3    3    0    0  0.18066687633E+02  0.16965845945E+02  0.46449260351E+02  0.52647686731E+02  0.51100000000E-03 0.  1.
         22    1    1    0    0    0  0.90938699469E+01 -0.15266329368E+01 -0.39213779607E+02  0.40283366167E+02  0.00000000000E+00 0.  1.
</event>
<event>
 5    1  0.1626333E-003  0.9118800E+02  0.7818608E-02  0.1130116E+00
         25   -1    0    0    0    0  0.00000000000E+00  0.00000000000E+00  0.99999998245E-14  0.12500000000E+03  0.12500000000E+03 0.  0.
        -11    1    3    3    0    0  0.31582393014E+02 -0.47344558605E+02 -0.49778809275E+01  0.57129100088E+02  0.51100000000E-03 0.  1.
         23    2    1    0    0    0  0.31688133896E+01 -0.23575449487E+02  0.12543021435E+02  0.98108168833E+02  0.94350634382E+02 0.  0.
         11    1    3    3    0    0 -0.28413579625E+02  0.23769109119E+02  0.17520902362E+02  0.40979068745E+02  0.51100000000E-03 0. -1.
         22    1    1    0    0    0 -0.31688133896E+01  0.23575449487E+02 -0.12543021435E+02  0.26891831167E+02  0.00000000000E+00 0.  1.
</event>
<event>
 5    1  0.1626333E-003  0.9118800E+02  0.7818608E-02  0.1130116E+00
         25   -1    0    0    0    0  0.00000000000E+00  0.00000000000E+00  0.99999998245E-14  0.12500000000E+03  0.12500000000E+03 0.  0.
        -11    1    3    3    0    0  0.31182745239E+02  0.11159117620E+02  0.47737815281E+02  0.58101536251E+02  0.51100000000E-03 0.  1.
         23    2    1    0    0    0 -0.12102275791E+01  0.43935722349E+01  0.27997387862E+02  0.96634142797E+02  0.92377138401E+02 0.  0.
         11    1    3    3    0    0 -0.32392972818E+02 -0.67655453847E+01 -0.19740427419E+02  0.38532606546E+02  0.51100000000E-03 0. -1.
         22    1    1    0    0    0  0.12102275791E+01 -0.43935722349E+01 -0.27997387862E+02  0.28365857203E+02  0.00000000000E+00 0.  1.
</event>
<event>
 5    1  0.1626333E-003  0.9118800E+02  0.7818608E-02  0.1130116E+00
         25   -1    0    0    0    0  0.00000000000E+00  0.00000000000E+00  0.99999998245E-14  0.12500000000E+03  0.12500000000E+03 0.  0.
        -11    1    3    3    0    0  0.44611625387E+02 -0.16957528207E+02  0.19568346970E+02  0.51581732096E+02  0.51100000000E-03 0. -1.
         23    2    1    0    0    0  0.58357982579E+01 -0.28653288607E+02  0.21197188667E+01  0.95681734407E+02  0.91079270977E+02 0.  0.
         11    1    3    3    0    0 -0.38775827129E+02 -0.11695760400E+02 -0.17448628104E+02  0.44100002311E+02  0.51100000000E-03 0.  1.
         22    1    1    0    0    0 -0.58357982579E+01  0.28653288607E+02 -0.21197188667E+01  0.29318265593E+02  0.00000000000E+00 0. -1.
</event>
<event>
 5    1  0.1626333E-003  0.9118800E+02  0.7818608E-02  0.1130116E+00
         25   -1    0    0    0    0  0.00000000000E+00  0.00000000000E+00  0.99999998245E-14  0.12500000000E+03  0.12500000000E+03 0.  0.
        -11    1    3    3    0    0 -0.20331192879E+02  0.37582385397E+02 -0.95626739574E+01  0.43786274442E+02  0.51100000000E-03 0.  1.
         23    2    1    0    0    0 -0.16618143065E+02 -0.24714664232E+01  0.23676560497E+02  0.95968115076E+02  0.91471464234E+02 0.  0.
         11    1    3    3    0    0  0.37130498136E+01 -0.40053851821E+02  0.33239234455E+02  0.52181840634E+02  0.51100000000E-03 0. -1.
         22    1    1    0    0    0  0.16618143065E+02  0.24714664232E+01 -0.23676560497E+02  0.29031884924E+02  0.00000000000E+00 0. -1.
</event>
<event>
 5    1  0.1626333E-003  0.9118800E+02  0.7818608E-02  0.1130116E+00
         25   -1    0    0    0    0  0.00000000000E+00  0.00000000000E+00  0.99999998245E-14  0.12500000000E+03  0.12500000000E+03 0.  0.
        -11    1    3    3    0    0 -0.10358708681E+02 -0.50602969630E+02 -0.10247321425E+02  0.52659006613E+02  0.51100000000E-03 0. -1.
         23    2    1    0    0    0  0.36737193311E+01 -0.23248155396E+02  0.18740310894E+02  0.94913920238E+02  0.90019331587E+02 0.  0.
         11    1    3    3    0    0  0.14032428012E+02  0.27354814233E+02  0.28987632319E+02  0.42254913624E+02  0.51100000000E-03 0.  1.
         22    1    1    0    0    0 -0.36737193311E+01  0.23248155396E+02 -0.18740310894E+02  0.30086079762E+02  0.00000000000E+00 0. -1.
</event>
<event>
 5    1  0.1626333E-003  0.9118800E+02  0.7818608E-02  0.1130116E+00
         25   -1    0    0    0    0  0.00000000000E+00  0.00000000000E+00  0.99999998245E-14  0.12500000000E+03  0.12500000000E+03 0.  0.
        -11    1    3    3    0    0 -0.14652239458E+02 -0.21465497729E+02 -0.28285383422E+02  0.38412480126E+02  0.51100000000E-03 0. -1.
         23    2    1    0    0    0  0.10142569285E+01 -0.18963580229E+02  0.24769267861E+02  0.93788420056E+02  0.88442665123E+02 0.  0.
         11    1    3    3    0    0  0.15666496386E+02  0.25019175003E+01  0.53054651282E+02  0.55375939930E+02  0.51100000000E-03 0.  1.
         22    1    1    0    0    0 -0.10142569285E+01  0.18963580229E+02 -0.24769267861E+02  0.31211579944E+02  0.00000000000E+00 0.  1.
</event>
<event>
 5    1  0.1626333E-003  0.9118800E+02  0.7818608E-02  0.1130116E+00
         25   -1    0    0    0    0  0.00000000000E+00  0.00000000000E+00  0.99999998245E-14  0.12500000000E+03  0.12500000000E+03 0.  0.
        -11    1    3    3    0    0 -0.26792317069E+02 -0.84347657727E+01 -0.18779418244E+02  0.33788164754E+02  0.51100000000E-03 0. -1.
         23    2    1    0    0    0  0.20672333179E+02  0.89346431861E+01  0.17895334069E+02  0.96235157061E+02  0.91835664451E+02 0.  0.
         11    1    3    3    0    0  0.47464650248E+02  0.17369408959E+02  0.36674752312E+02  0.62446992307E+02  0.51100000000E-03 0.  1.
         22    1    1    0    0    0 -0.20672333179E+02 -0.89346431861E+01 -0.17895334069E+02  0.28764842939E+02  0.00000000000E+00 0.  1.
</event>
<event>
 5    1  0.1626333E-003  0.9118800E+02  0.7818608E-02  0.1130116E+00
         25   -1    0    0    0    0  0.00000000000E+00  0.00000000000E+00  0.99999998245E-14  0.12500000000E+03  0.12500000000E+03 0.  0.
        -11    1    3    3    0    0  0.44782818045E+01 -0.20154319999E+02  0.25807304717E+02  0.33049487130E+02  0.51100000000E-03 0.  1.
         23    2    1    0    0    0 -0.24522993186E+01  0.26341697859E+02 -0.14374053294E+02  0.94891658529E+02  0.89988413877E+02 0.  0.
         11    1    3    3    0    0 -0.69305811231E+01  0.46496017858E+02 -0.40181358011E+02  0.61842171398E+02  0.51100000000E-03 0. -1.
         22    1    1    0    0    0  0.24522993186E+01 -0.26341697859E+02  0.14374053294E+02  0.30108341471E+02  0.00000000000E+00 0. -1.
</event>
<event>
 5    1  0.1626333E-003  0.9118800E+02  0.7818608E-02  0.1130116E+00
         25   -1    0    0    0    0  0.00000000000E+00  0.00000000000E+00  0.99999998245E-14  0.12500000000E+03  0.12500000000E+03 0.  0.
        -11    1    3    3    0    0  0.44855907174E+02 -0.93734857097E+01 -0.18843902972E+02  0.49548030458E+02  0.51100000000E-03 0. -1.
         23    2    1    0    0    0  0.36772932107E+01 -0.26928000824E+02 -0.13572227359E+02  0.94621634850E+02  0.89612547740E+02 0.  0.
         11    1    3    3    0    0 -0.41178613963E+02 -0.17554515114E+02  0.52716756136E+01  0.45073604392E+02  0.51100000000E-03 0.  1.
         22    1    1    0    0    0 -0.36772932107E+01  0.26928000824E+02  0.13572227359E+02  0.30378365150E+02  0.00000000000E+00 0.  1.
</event>
<event>
 5    1  0.1626333E-003  0.9118800E+02  0.7818608E-02  0.1130116E+00
         25   -1    0    0    0    0  0.00000000000E+00  0.00000000000E+00  0.99999998245E-14  0.12500000000E+03  0.12500000000E+03 0.  0.
        -11    1    3    3    0    0  0.88051830548E+01  0.20888957017E+02  0.31820933052E+02  0.39069829210E+02  0.51100000000E-03 0. -1.
         23    2    1    0    0    0 -0.20395605993E+02  0.22845644864E+02 -0.12285273570E+02  0.92002542829E+02  0.85881521338E+02 0.  0.
         11    1    3    3    0    0 -0.29200789047E+02  0.19566878470E+01 -0.44106206622E+02  0.52932713620E+02  0.51100000000E-03 0.  1.
         22    1    1    0    0    0  0.20395605993E+02 -0.22845644864E+02  0.12285273570E+02  0.32997457171E+02  0.00000000000E+00 0.  1.
</event>
<event>
 5    1  0.1626333E-003  0.9118800E+02  0.7818608E-02  0.1130116E+00
         25   -1    0    0    0    0  0.00000000000E+00  0.00000000000E+00  0.99999998245E-14  0.12500000000E+03  0.12500000000E+03 0.  0.
        -11    1    3    3    0    0 -0.14286103620E+02  0.49021786315E+02  0.67459777952E+01  0.51504723150E+02  0.51100000000E-03 0.  1.
         23    2    1    0    0    0 -0.27354341249E+02  0.90062147254E+01 -0.61910287336E+01  0.95543239730E+02  0.90888997863E+02 0.  0.
         11    1    3    3    0    0 -0.13068237629E+02 -0.40015571589E+02 -0.12937006529E+02  0.44038516580E+02  0.51100000000E-03 0. -1.
         22    1    1    0    0    0  0.27354341249E+02 -0.90062147254E+01  0.61910287336E+01  0.29456760270E+02  0.00000000000E+00 0.  1.
</event>
<event>
 5    1  0.1626333E-003  0.9118800E+02  0.7818608E-02  0.1130116E+00
         25   -1    0    0    0    0  0.00000000000E+00  0.00000000000E+00  0.99999998245E-14  0.12500000000E+03  0.12500000000E+03 0.  0.
        -11    1    3    3    0    0  0.29534378838E+01 -0.21505618932E+02 -0.31115872840E+02  0.37939583338E+02  0.51100000000E-03 0. -1.
         23    2    1    0    0    0  0.18837967044E+02  0.21236647603E+02  0.50843855903E+01  0.96160527387E+02  0.91734027747E+02 0.  0.
         11    1    3    3    0    0  0.15884529160E+02  0.42742266536E+02  0.36200258430E+02  0.58220944049E+02  0.51100000000E-03 0.  1.
         22    1    1    0    0    0 -0.18837967044E+02 -0.21236647603E+02 -0.50843855903E+01  0.28839472613E+02  0.00000000000E+00 0.  1.
</event>
<event>
 5    1  0.1626333E-003  0.9118800E+02  0.7818608E-02  0.1130116E+00
         25   -1    0    0    0    0  0.00000000000E+00  0.00000000000E+00  0.99999998245E-14  0.12500000000E+03  0.12500000000E+03 0.  0.
        -11    1    3    3    0    0 -0.41500804095E+02 -0.38591138377E+01 -0.18956777427E+02  0.45788305393E+02  0.51100000000E-03 0. -1.
         23    2    1    0    0    0  0.11196231738E+02 -0.21980064787E+01 -0.23671726292E+02  0.98721920481E+02  0.95160286465E+02 0.  0.
         11    1    3    3    0    0  0.52697035832E+02  0.16611073590E+01 -0.47149488645E+01  0.52933615087E+02  0.51100000000E-03 0.  1.
         22    1    1    0    0    0 -0.11196231738E+02  0.21980064787E+01  0.23671726292E+02  0.26278079519E+02  0.00000000000E+00 0.  1.
</event>
<event>
 5    1  0.1626333E-003  0.9118800E+02  0.7818608E-02  0.1130116E+00
         25   -1    0    0    0    0  0.00000000000E+00  0.00000000000E+00  0.99999998245E-14  0.12500000000E+03  0.12500000000E+03 0.  0.
        -11    1    3    3    0    0  0.25261190205E+01 -0.40896247943E+02  0.18471938910E+02  0.44945488099E+02  0.51100000000E-03 0.  1.
         23    2    1    0    0    0  0.28884180508E+02  0.20199686121E-01  0.32937860066E+01  0.95928616856E+02  0.91417472148E+02 0.  0.
         11    1    3    3    0    0  0.26358061488E+02  0.40916447629E+02 -0.15178152904E+02  0.50983128757E+02  0.51100000000E-03 0. -1.
         22    1    1    0    0    0 -0.28884180508E+02 -0.20199686121E-01 -0.32937860066E+01  0.29071383144E+02  0.00000000000E+00 0. -1.
</event>
<event>
 5    1  0.1626333E-003  0.9118800E+02  0.7818608E-02  0.1130116E+00
         25   -1    0    0    0    0  0.00000000000E+00  0.00000000000E+00  0.99999998245E-14  0.12500000000E+03  0.12500000000E+03 0.  0.
        -11    1    3    3    0    0  0.28853103714E+02  0.37741018748E+02  0.10218324470E+02  0.48593211926E+02  0.51100000000E-03 0.  1.
         23    2    1    0    0    0  0.21650638479E+02 -0.83717898683E+01  0.17631606518E+02  0.95850204794E+02  0.91310192194E+02 0.  0.
         11    1    3    3    0    0 -0.72024652348E+01 -0.46112808616E+02  0.74132820478E+01  0.47256992868E+02  0.51100000000E-03 0. -1.
         22    1    1    0    0    0 -0.21650638479E+02  0.83717898683E+01 -0.17631606518E+02  0.29149795206E+02  0.00000000000E+00 0. -1.
</event>
<event>
 5    1  0.1626333E-003  0.9118800E+02  0.7818608E-02  0.1130116E+00
         25   -1    0    0    0    0  0.00000000000E+00  0.00000000000E+00  0.99999998245E-14  0.12500000000E+03  0.12500000000E+03 0.  0.
        -11    1    3    3    0    0  0.22370422894E+02 -0.33254026107E+02 -0.17155165717E+02  0.43595478938E+02  0.51100000000E-03 0. -1.
         23    2    1    0    0    0 -0.23417655957E+02 -0.19398393078E+02  0.49813284307E+00  0.94587298692E+02  0.89564639635E+02 0.  0.
         11    1    3    3    0    0 -0.45788078851E+02  0.13855633029E+02  0.17653298560E+02  0.50991819754E+02  0.51100000000E-03 0.  1.
         22    1    1    0    0    0  0.23417655957E+02  0.19398393078E+02 -0.49813284307E+00  0.30412701308E+02  0.00000000000E+00 0. -1.
</event>
<event>
 5    1  0.1626333E-003  0.9118800E+02  0.7818608E-02  0.1130116E+00
         25   -1    0    0    0    0  0.00000000000E+00  0.00000000000E+00  0.99999998245E-14  0.12500000000E+03  0.12500000000E+03 0.  0.
        -11    1    3    3    0    0  0.12055017934E+02  0.35657588926E+02  0.48999823016E+02  0.61788103720E+02  0.51100000000E-03 0. -1.
         23    2    1    0    0    0  0.59113171377E+01  0.22366746086E+02  0.19414770035E+02  0.94798207069E+02  0.89858509709E+02 0.  0.
         11    1    3    3    0    0 -0.61437007961E+01 -0.13290842840E+02 -0.29585052982E+02  0.33010103349E+02  0.51100000000E-03 0.  1.
         22    1    1    0    0    0 -0.59113171377E+01 -0.22366746086E+02 -0.19414770035E+02  0.30201792931E+02  0.00000000000E+00 0. -1.
</event>
<event>
 5    1  0.1626333E-003  0.9118800E+02  0.7818608E-02  0.1130116E+00
         25   -1    0    0    0    0  0.00000000000E+00  0.00000000000E+00  0.99999998245E-14  0.12500000000E+03  0.12500000000E+03 0.  0.
        -11    1    3    3    0    0  0.51498296046E+01  0.36613677462E+02  0.42876933972E+01  0.37221854295E+02  0.51100000000E-03 0.  1.
         23    2    1    0    0    0  0.85096875066E+01 -0.19527028391E+02  0.20172439697E+02  0.95663215197E+02  0.91053851095E+02 0.  0.
         11    1    3    3    0    0  0.33598579020E+01 -0.56140705853E+02  0.15884746300E+02  0.58441360902E+02  0.51100000000E-03 0. -1.
         22    1    1    0    0    0 -0.85096875066E+01  0.19527028391E+02 -0.20172439697E+02  0.29336784803E+02  0.00000000000E+00 0. -1.
</event>
<event>
 5    1  0.1626333E-003  0.9118800E+02  0.7818608E-02  0.1130116E+00
         25   -1    0    0    0    0  0.00000000000E+00  0.00000000000E+00  0.99999998245E-14  0.12500000000E+03  0.12500000000E+03 0.  0.
        -11    1    3    3    0    0 -0.46713833285E+01 -0.32428143113E+02 -0.91222730489E+01  0.34009148089E+02  0.51100000000E-03 0.  1.
         23    2    1    0    0    0  0.22666561824E+02  0.20455644327E+02 -0.74859340224E+01  0.93563625878E+02  0.88124380677E+02 0.  0.
         11    1    3    3    0    0  0.27337945152E+02  0.52883787439E+02  0.16363390264E+01  0.59554477789E+02  0.51100000000E-03 0. -1.
         22    1    1    0    0    0 -0.22666561824E+02 -0.20455644327E+02  0.74859340224E+01  0.31436374122E+02  0.00000000000E+00 0. -1.
</event>
<event>
 5    1  0.1626333E-003  0.9118800E+02  0.7818608E-02  0.1130116E+00
         25   -1    0    0    0    0  0.00000000000E+00  0.00000000000E+00  0.99999998245E-14  0.12500000000E+03  0.12500000000E+03 0.  0.
        -11    1    3    3    0    0 -0.34970482453E+02  0.40863884045E+01 -0.50368742376E+02  0.61454401160E+02  0.51100000000E-03 0. -1.
         23    2    1    0    0    0 -0.19026156454E+02 -0.52500920642E+01 -0.20761949941E+02  0.96353592521E+02  0.91996728911E+02 0.  0.
         11    1    3    3    0    0  0.15944325999E+02 -0.93364804686E+01  0.29606792435E+02  0.34899191361E+02  0.51100000000E-03 0.  1.
         22    1    1    0    0    0  0.19026156454E+02  0.52500920642E+01  0.20761949941E+02  0.28646407479E+02  0.00000000000E+00 0. -1.
</event>
<event>
 5    1  0.1626333E-003  0.9118800E+02  0.7818608E-02  0.1130116E+00
         25   -1    0    0    0    0  0.00000000000E+00  0.00000000000E+00  0.99999998245E-14  0.12500000000E+03  0.12500000000E+03 0.  0.
        -11    1    3    3    0    0  0.15177423220E+02 -0.26172782538E+02  0.21970516447E+02  0.37390805214E+02  0.51100000000E-03 0.  1.
         23    2    1    0    0    0  0.15835811785E+02  0.99793942482E+01 -0.23161310134E+02  0.95220686180E+02  0.90444300788E+02 0.  0.
         11    1    3    3    0    0  0.65838856555E+00  0.36152176786E+02 -0.45131826580E+02  0.57829880966E+02  0.51100000000E-03 0. -1.
         22    1    1    0    0    0 -0.15835811785E+02 -0.99793942482E+01  0.23161310134E+02  0.29779313820E+02  0.00000000000E+00 0. -1.
</event>
<event>
 5    1  0.1626333E-003  0.9118800E+02  0.7818608E-02  0.1130116E+00
         25   -1    0    0    0    0  0.00000000000E+00  0.00000000000E+00  0.99999998245E-14  0.12500000000E+03  0.12500000000E+03 0.  0.
        -11    1    3    3    0    0  0.36656611264E+02 -0.13402036792E+02 -0.13718463430E+02  0.41370496476E+02  0.51100000000E-03 0. -1.
         23    2    1    0    0    0 -0.15152137570E+02 -0.25116904451E+02 -0.62282134785E+01  0.95012722610E+02  0.90156423246E+02 0.  0.
         11    1    3    3    0    0 -0.51808748834E+02 -0.11714867659E+02  0.74902499515E+01  0.53642226134E+02  0.51100000000E-03 0.  1.
         22    1    1    0    0    0  0.15152137570E+02  0.25116904451E+02  0.62282134785E+01  0.29987277390E+02  0.00000000000E+00 0.  1.
</event>
<event>
 5    1  0.1626333E-003  0.9118800E+02  0.7818608E-02  0.1130116E+00
         25   -1    0    0    0    0  0.00000000000E+00  0.00000000000E+00  0.99999998245E-14  0.12500000000E+03  0.12500000000E+03 0.  0.
        -11    1    3    3    0    0 -0.26883936491E+02  0.25931934708E+02  0.46581479541E+02  0.59708002106E+02  0.51100000000E-03 0.  1.
         23    2    1    0    0    0 -0.23114007854E+01  0.78146363411E+01  0.28867365207E+02  0.95004402178E+02  0.90144886402E+02 0.  0.
         11    1    3    3    0    0  0.24572535705E+02 -0.18117298367E+02 -0.17714114335E+02  0.35296400072E+02  0.51100000000E-03 0. -1.
         22    1    1    0    0    0  0.23114007854E+01 -0.78146363411E+01 -0.28867365207E+02  0.29995597822E+02  0.00000000000E+00 0.  1.
</event>
<event>
 5    1  0.1626333E-003  0.9118800E+02  0.7818608E-02  0.1130116E+00
         25   -1    0    0    0    0  0.00000000000E+00  0.00000000000E+00  0.99999998245E-14  0.12500000000E+03  0.12500000000E+03 0.  0.
        -11    1    3    3    0    0 -0.14619447363E+02  0.42926563714E+01  0.49360150522E+02  0.51658296524E+02  0.51100000000E-03 0.  1.
         23    2    1    0    0    0 -0.28981880005E+02  0.25098226184E+01  0.89777390391E+01  0.94555815392E+02  0.89520689496E+02 0.  0.
         11    1    3    3    0    0 -0.14362432642E+02 -0.17828337530E+01 -0.40382411483E+02  0.42897518868E+02  0.51100000000E-03 0. -1.
         22    1    1    0    0    0  0.28981880005E+02 -0.25098226184E+01 -0.89777390391E+01  0.30444184608E+02  0.00000000000E+00 0. -1.
</event>
<event>
 5    1  0.1626333E-003  0.9118800E+02  0.7818608E-02  0.1130116E+00
         25   -1    0    0    0    0  0.00000000000E+00  0.00000000000E+00  0.99999998245E-14  0.12500000000E+03  0.12500000000E+03 0.  0.
        -11    1    3    3    0    0  0.33887384001E+02 -0.40247772616E+02  0.31114853550E+02  0.61125871009E+02  0.51100000000E-03 0.  1.
         23    2    1    0    0    0  0.69437017071E+01 -0.21868152668E+02  0.15684567215E+02  0.97207253766E+02  0.93149414606E+02 0.  0.
         11    1    3    3    0    0 -0.26943682294E+02  0.18379619948E+02 -0.15430286335E+02  0.36081382757E+02  0.51100000000E-03 0. -1.
         22    1    1    0    0    0 -0.69437017071E+01  0.21868152668E+02 -0.15684567215E+02  0.27792746234E+02  0.00000000000E+00 0.  1.
</event>
<event>
 5    1  0.1626333E-003  0.9118800E+02  0.7818608E-02  0.1130116E+00
         25   -1    0    0    0    0  0.00000000000E+00  0.00000000000E+00  0.99999998245E-14  0.12500000000E+03  0.12500000000E+03 0.  0.
        -11    1    3    3    0    0 -0.37643690443E+01 -0.90572800346E+01  0.49831055437E+02  0.50787192107E+02  0.51100000000E-03 0.  1.
         23    2    1    0    0    0 -0.39344987027E+01 -0.26729951802E+02  0.70466257509E+01  0.97078224665E+02  0.92976105351E+02 0.  0.
         11    1    3    3    0    0 -0.17012965833E+00 -0.17672671767E+02 -0.42784429686E+02  0.46291032558E+02  0.51100000000E-03 0. -1.
         22    1    1    0    0    0  0.39344987027E+01  0.26729951802E+02 -0.70466257509E+01  0.27921775335E+02  0.00000000000E+00 0.  1.
</event>
<event>
 5    1  0.1626333E-003  0.9118800E+02  0.7818608E-02  0.1130116E+00
         25   -1    0    0    0    0  0.00000000000E+00  0.00000000000E+00  0.99999998245E-14  0.12500000000E+03  0.12500000000E+03 0.  0.
        -11    1    3    3    0    0 -0.49822274531E+02  0.25125219150E+00 -0.19662970121E+02  0.53562622802E+02  0.51100000000E-03 0.  1.
         23    2    1    0    0    0 -0.25657093487E+02 -0.85863123773E+01  0.12868567662E+02  0.95039839117E+02  0.90194011881E+02 0.  0.
         11    1    3    3    0    0  0.24165181044E+02 -0.88375645688E+01  0.32531537784E+02  0.41477216315E+02  0.51100000000E-03 0. -1.
         22    1    1    0    0    0  0.25657093487E+02  0.85863123773E+01 -0.12868567662E+02  0.29960160883E+02  0.00000000000E+00 0.  1.
</event>
<event>
 5    1  0.1626333E-003  0.9118800E+02  0.7818608E-02  0.1130116E+00
         25   -1    0    0    0    0  0.00000000000E+00  0.00000000000E+00  0.99999998245E-14  0.12500000000E+03  0.12500000000E+03 0.  0.
        -11    1    3    3    0    0  0.14424589880E+02  0.82377379009E+01 -0.52451455645E+02  0.55018945087E+02  0.51100000000E-03 0.  1.
         23    2    1    0    0    0  0.25513842081E+02  0.74508432087E+00 -0.13668936845E+02  0.96045706314E+02  0.91577434876E+02 0.  0.
         11    1    3    3    0    0  0.11089252201E+02 -0.74926535800E+01  0.38782518800E+02  0.41026761227E+02  0.51100000000E-03 0. -1.
         22    1    1    0    0    0 -0.25513842081E+02 -0.74508432087E+00  0.13668936845E+02  0.28954293686E+02  0.00000000000E+00 0.  1.
</event>
<event>
 5    1  0.1626333E-003  0.9118800E+02  0.7818608E-02  0.1130116E+00
         25   -1    0    0    0    0  0.00000000000E+00  0.00000000000E+00  0.99999998245E-14  0.12500000000E+03  0.12500000000E+03 0.  0.
        -11    1    3    3    0    0  0.15569721191E+02  0.13322566611E+02 -0.35492551369E+02  0.40983267342E+02  0.51100000000E-03 0. -1.
         23    2    1    0    0    0 -0.11182339150E+02  0.24564881618E+02  0.11053507700E+02  0.95833955526E+02  0.91287944887E+02 0.  0.
         11    1    3    3    0    0 -0.26752060341E+02  0.11242315007E+02  0.46546059069E+02  0.54850688184E+02  0.51100000000E-03 0.  1.
         22    1    1    0    0    0  0.11182339150E+02 -0.24564881618E+02 -0.11053507700E+02  0.29166044474E+02  0.00000000000E+00 0.  1.
</event>
<event>
 5    1  0.1626333E-003  0.9118800E+02  0.7818608E-02  0.1130116E+00
         25   -1    0    0    0    0  0.00000000000E+00  0.00000000000E+00  0.99999998245E-14  0.12500000000E+03  0.12500000000E+03 0.  0.
        -11    1    3    3    0    0  0.43464324126E+02 -0.14732571224E+02  0.14925957922E+02  0.48259510428E+02  0.51100000000E-03 0. -1.
         23    2    1    0    0    0  0.20533892529E+02  0.19747618971E+02 -0.77571470519E+01  0.95474036378E+02  0.90793772333E+02 0.  0.
         11    1    3    3    0    0 -0.22930431597E+02  0.34480190195E+02 -0.22683104974E+02  0.47214525949E+02  0.51100000000E-03 0.  1.
         22    1    1    0    0    0 -0.20533892529E+02 -0.19747618971E+02  0.77571470519E+01  0.29525963622E+02  0.00000000000E+00 0. -1.
</event>
<event>
 5    1  0.1626333E-003  0.9118800E+02  0.7818608E-02  0.1130116E+00
         25   -1    0    0    0    0  0.00000000000E+00  0.00000000000E+00  0.99999998245E-14  0.12500000000E+03  0.12500000000E+03 0.  0.
        -11    1    3    3    0    0 -0.43335723927E+01 -0.35576197928E+02 -0.84675368755E+01  0.36825872558E+02  0.51100000000E-03 0.  1.
         23    2    1    0    0    0 -0.54142225907E+01  0.15843476082E+02 -0.28438975285E+02  0.91998411312E+02  0.85875507731E+02 0.  0.
         11    1    3    3    0    0 -0.10806501981E+01  0.51419674010E+02 -0.19971438410E+02  0.55172538754E+02  0.51100000000E-03 0. -1.
         22    1    1    0    0    0  0.54142225907E+01 -0.15843476082E+02  0.28438975285E+02  0.33001588688E+02  0.00000000000E+00 0. -1.
</event>
<event>
 5    1  0.1626333E-003  0.9118800E+02  0.7818608E-02  0.1130116E+00
         25   -1    0    0    0    0  0.00000000000E+00  0.00000000000E+00  0.99999998245E-14  0.12500000000E+03  0.12500000000E+03 0.  0.
        -11    1    3    3    0    0  0.13232575813E+00  0.10393758289E+02  0.36542297384E+02  0.37991936248E+02  0.51100000000E-03 0. -1.
         23    2    1    0    0    0  0.40544435890E+01 -0.27106599555E+02 -0.80938258763E+01  0.96421751811E+02  0.92089293367E+02 0.  0.
         11    1    3    3    0    0  0.39221178309E+01 -0.37500357844E+02 -0.44636123261E+02  0.58429815563E+02  0.51100000000E-03 0.  1.
         22    1    1    0    0    0 -0.40544435890E+01  0.27106599555E+02  0.80938258763E+01  0.28578248189E+02  0.00000000000E+00 0.  1.
</event>
<event>
 5    1  0.1626333E-003  0.9118800E+02  0.7818608E-02  0.1130116E+00
         25   -1    0    0    0    0  0.00000000000E+00  0.00000000000E+00  0.99999998245E-14  0.12500000000E+03  0.12500000000E+03 0.  0.
        -11    1    3    3    0    0 -0.43518254367E+02  0.40694415612E+02 -0.78662159883E+00  0.59586010934E+02  0.51100000000E-03 0. -1.
         23    2    1    0    0    0 -0.26054149376E+02  0.11333815691E+02 -0.98477030284E+01  0.94929227932E+02  0.90040585200E+02 0.  0.
         11    1    3    3    0    0  0.17464104992E+02 -0.29360599921E+02 -0.90610814296E+01  0.35343216999E+02  0.51100000000E-03 0.  1.
         22    1    1    0    0    0  0.26054149376E+02 -0.11333815691E+02  0.98477030284E+01  0.30070772068E+02  0.00000000000E+00 0. -1.
</event>
<event>
 5    1  0.1626333E-003  0.9118800E+02  0.7818608E-02  0.1130116E+00
         25   -1    0    0    0    0  0.00000000000E+00  0.00000000000E+00  0.99999998245E-14  0.12500000000E+03  0.12500000000E+03 0.  0.
        -11    1    3    3    0    0 -0.54490390084E+01 -0.40108816221E+02 -0.34851401034E+02  0.53413755898E+02  0.51100000000E-03 0. -1.
         23    2    1    0    0    0  0.93032927980E+01 -0.24838702275E+02  0.44707920368E+01  0.98102037827E+02  0.94342511398E+02 0.  0.
         11    1    3    3    0    0  0.14752331806E+02  0.15270113946E+02  0.39322193071E+02  0.44688281930E+02  0.51100000000E-03 0.  1.
         22    1    1    0    0    0 -0.93032927980E+01  0.24838702275E+02 -0.44707920368E+01  0.26897962173E+02  0.00000000000E+00 0.  1.
</event>
<event>
 5    1  0.1626333E-003  0.9118800E+02  0.7818608E-02  0.1130116E+00
         25   -1    0    0    0    0  0.00000000000E+00  0.00000000000E+00  0.99999998245E-14  0.12500000000E+03  0.12500000000E+03 0.  0.
        -11    1    3    3    0    0  0.28415936025E+02 -0.28611462995E+02 -0.41122666210E+02  0.57594747255E+02  0.51100000000E-03 0.  1.
         23    2    1    0    0    0  0.10874818806E+02  0.18340476928E+01 -0.27659594544E+02  0.95222851289E+02  0.90447293062E+02 0.  0.
         11    1    3    3    0    0 -0.17541117219E+02  0.30445510687E+02  0.13463071666E+02  0.37628104035E+02  0.51100000000E-03 0. -1.
         22    1    1    0    0    0 -0.10874818806E+02 -0.18340476928E+01  0.27659594544E+02  0.29777148711E+02  0.00000000000E+00 0.  1.
</event>
<event>
 5    1  0.1626333E-003  0.9118800E+02  0.7818608E-02  0.1130116E+00
         25   -1    0    0    0    0  0.00000000000E+00  0.00000000000E+00  0.99999998245E-14  0.12500000000E+03  0.12500000000E+03 0.  0.
        -11    1    3    3    0    0  0.24754028879E+02  0.23759219375E+02  0.68394860230E+01  0.34986297608E+02  0.51100000000E-03 0.  1.
         23    2    1    0    0    0 -0.22964815991E+02 -0.62609623840E+01 -0.16536156129E+02  0.96016782735E+02  0.91537946688E+02 0.  0.
         11    1    3    3    0    0 -0.47718844870E+02 -0.30020181759E+02 -0.23375642152E+02  0.61030485127E+02  0.51100000000E-03 0. -1.
         22    1    1    0    0    0  0.22964815991E+02  0.62609623840E+01  0.16536156129E+02  0.28983217265E+02  0.00000000000E+00 0. -1.
</event>
<event>
 5    1  0.1626333E-003  0.9118800E+02  0.7818608E-02  0.1130116E+00
         25   -1    0    0    0    0  0.00000000000E+00  0.00000000000E+00  0.99999998245E-14  0.12500000000E+03  0.12500000000E+03 0.  0.
        -11    1    3    3    0    0 -0.23511501138E+02 -0.31904020348E+02 -0.48099215484E+02  0.62323284016E+02  0.51100000000E-03 0.  1.
         23    2    1    0    0    0 -0.12997342560E+02 -0.16657306686E+02 -0.20496832426E+02  0.95563340557E+02  0.90916638407E+02 0.  0.
         11    1    3    3    0    0  0.10514158579E+02  0.15246713662E+02  0.27602383058E+02  0.33240056541E+02  0.51100000000E-03 0. -1.
         22    1    1    0    0    0  0.12997342560E+02  0.16657306686E+02  0.20496832426E+02  0.29436659443E+02  0.00000000000E+00 0.  1.
</event>
<event>
 5    1  0.1626333E-003  0.9118800E+02  0.7818608E-02  0.1130116E+00
         25   -1    0    0    0    0  0.00000000000E+00  0.00000000000E+00  0.99999998245E-14  0.12500000000E+03  0.12500000000E+03 0.  0.
        -11    1    3    3    0    0  0.35981161489E+02 -0.49881342165E+02  0.11006572459E+02  0.62481492587E+02  0.51100000000E-03 0.  1.
         23    2    1    0    0    0  0.16878559400E+02 -0.21614693760E+02  0.46702832461E+01  0.97181080191E+02  0.93114284875E+02 0.  0.
         11    1    3    3    0    0 -0.19102602089E+02  0.28266648405E+02 -0.63362892127E+01  0.34699587604E+02  0.51100000000E-03 0. -1.
         22    1    1    0    0    0 -0.16878559400E+02  0.21614693760E+02 -0.46702832461E+01  0.27818919809E+02  0.00000000000E+00 0.  1.
</event>
<event>
 5    1  0.1626333E-003  0.9118800E+02  0.7818608E-02  0.1130116E+00
         25   -1    0    0    0    0  0.00000000000E+00  0.00000000000E+00  0.99999998245E-14  0.12500000000E+03  0.12500000000E+03 0.  0.
        -11    1    3    3    0    0 -0.23895566161E+02 -0.23367421620E+02  0.11914118504E+02  0.35482117965E+02  0.51100000000E-03 0.  1.
         23    2    1    0    0    0  0.14839773126E+02  0.47578780364E+01 -0.24731731334E+02  0.95767914809E+02  0.91197470920E+02 0.  0.
         11    1    3    3    0    0  0.38735339287E+02  0.28125299656E+02 -0.36645849838E+02  0.60285796844E+02  0.51100000000E-03 0. -1.
         22    1    1    0    0    0 -0.14839773126E+02 -0.47578780364E+01  0.24731731334E+02  0.29232085191E+02  0.00000000000E+00 0. -1.
</event>
<event>
 5    1  0.1626333E-003  0.9118800E+02  0.7818608E-02  0.1130116E+00
         25   -1    0    0    0    0  0.00000000000E+00  0.00000000000E+00  0.99999998245E-14  0.12500000000E+03  0.12500000000E+03 0.  0.
        -11    1    3    3    0    0 -0.28477827643E+02  0.64385162602E+01  0.24734209507E+02  0.38265157508E+02  0.51100000000E-03 0.  1.
         23    2    1    0    0    0  0.25113062583E+01  0.13720635798E+02 -0.24449306883E+02  0.96851623264E+02  0.92670954543E+02 0.  0.
         11    1    3    3    0    0  0.30989133902E+02  0.72821195379E+01 -0.49183516390E+02  0.58586465755E+02  0.51100000000E-03 0. -1.
         22    1    1    0    0    0 -0.25113062583E+01 -0.13720635798E+02  0.24449306883E+02  0.28148376736E+02  0.00000000000E+00 0.  1.
</event>
<event>
 5    1  0.1626333E-003  0.9118800E+02  0.7818608E-02  0.1130116E+00
         25   -1    0    0    0    0  0.00000000000E+00  0.00000000000E+00  0.99999998245E-14  0.12500000000E+03  0.12500000000E+03 0.  0.
        -11    1    3    3    0    0  0.44929349970E+02  0.42813348250E+01  0.33438623556E+02  0.56170435837E+02  0.51100000000E-03 0. -1.
         23    2    1    0    0    0  0.59029829234E+01  0.12093930173E+02  0.24628463287E+02  0.96934548671E+02  0.92782741756E+02 0.  0.
         11    1    3    3    0    0 -0.39026367046E+02  0.78125953484E+01 -0.88101602689E+01  0.40764112834E+02  0.51100000000E-03 0.  1.
         22    1    1    0    0    0 -0.59029829234E+01 -0.12093930173E+02 -0.24628463287E+02  0.28065451329E+02  0.00000000000E+00 0. -1.
</event>
<event>
 5    1  0.1626333E-003  0.9118800E+02  0.7818608E-02  0.1130116E+00
         25   -1    0    0    0    0  0.00000000000E+00  0.00000000000E+00  0.99999998245E-14  0.12500000000E+03  0.12500000000E+03 0.  0.
        -11    1    3    3    0    0  0.17039893767E+02  0.26571288806E+02  0.34618794066E+02  0.46849250487E+02  0.51100000000E-03 0. -1.
         23    2    1    0    0    0  0.26658095750E+02 -0.71979830804E+01 -0.16603388012E+01  0.97337358146E+02  0.93323842272E+02 0.  0.
         11    1    3    3    0    0  0.96182019825E+01 -0.33769271886E+02 -0.36279132867E+02  0.50488107658E+02  0.51100000000E-03 0.  1.
         22    1    1    0    0    0 -0.26658095750E+02  0.71979830804E+01  0.16603388012E+01  0.27662641854E+02  0.00000000000E+00 0.  1.
</event>
<event>
 5    1  0.1626333E-003  0.9118800E+02  0.7818608E-02  0.1130116E+00
         25   -1    0    0    0    0  0.00000000000E+00  0.00000000000E+00  0.99999998245E-14  0.12500000000E+03  0.12500000000E+03 0.  0.
        -11    1    3    3    0    0 -0.10071214625E+02 -0.34653224000E+02 -0.13249593366E+02  0.38442515815E+02  0.51100000000E-03 0. -1.
         23    2    1    0    0    0 -0.75862614706E+01  0.88197365835E+01  0.25652401088E+02  0.96832912858E+02  0.92645713416E+02 0.  0.
         11    1    3    3    0    0  0.24849531541E+01  0.43472960583E+02  0.38901994454E+02  0.58390397043E+02  0.51100000000E-03 0.  1.
         22    1    1    0    0    0  0.75862614706E+01 -0.88197365835E+01 -0.25652401088E+02  0.28167087142E+02  0.00000000000E+00 0.  1.
</event>
<event>
 5    1  0.1626333E-003  0.9118800E+02  0.7818608E-02  0.1130116E+00
         25   -1    0    0    0    0  0.00000000000E+00  0.00000000000E+00  0.99999998245E-14  0.12500000000E+03  0.12500000000E+03 0.  0.
        -11    1    3    3    0    0  0.35118670968E+02 -0.44153384336E+01  0.30753473924E+01  0.35528495970E+02  0.51100000000E-03 0. -1.
         23    2    1    0    0    0 -0.16302327406E+02  0.11961663810E+02 -0.22072344318E+02  0.95066145192E+02  0.90230462140E+02 0.  0.
         11    1    3    3    0    0 -0.51420998374E+02  0.16377002244E+02 -0.25147691711E+02  0.59537649222E+02  0.51100000000E-03 0.  1.
         22    1    1    0    0    0  0.16302327406E+02 -0.11961663810E+02  0.22072344318E+02  0.29933854808E+02  0.00000000000E+00 0.  1.
</event>
<event>
 5    1  0.1626333E-003  0.9118800E+02  0.7818608E-02  0.1130116E+00
         25   -1    0    0    0    0  0.00000000000E+00  0.00000000000E+00  0.99999998245E-14  0.12500000000E+03  0.12500000000E+03 0.  0.
        -11    1    3    3    0    0  0.43218727920E+02 -0.19449678542E+02  0.30712453473E+02  0.56474801788E+02  0.51100000000E-03 0.  1.
         23    2    1    0    0    0  0.19711671453E+02  0.60111311119E+01  0.26570450531E+02  0.91374525578E+02  0.84962529355E+02 0.  0.
         11    1    3    3    0    0 -0.23507056467E+02  0.25460809654E+02 -0.41420029419E+01  0.34899723790E+02  0.51100000000E-03 0. -1.
         22    1    1    0    0    0 -0.19711671453E+02 -0.60111311119E+01 -0.26570450531E+02  0.33625474422E+02  0.00000000000E+00 0.  1.
</event>
<event>
 5    1  0.1626333E-003  0.9118800E+02  0.7818608E-02  0.1130116E+00
         25   -1    0    0    0    0  0.00000000000E+00  0.00000000000E+00  0.99999998245E-14  0.12500000000E+03  0.12500000000E+03 0.  0.
        -11    1    3    3    0    0 -0.41364879218E+02 -0.12510849017E+02  0.35186094134E+02  0.55728231593E+02  0.51100000000E-03 0.  1.
         23    2    1    0    0    0 -0.18729292205E+01 -0.48856675313E+01  0.27911684324E+02  0.96602117457E+02  0.92333793187E+02 0.  0.
         11    1    3    3    0    0  0.39491949997E+02  0.76251814859E+01 -0.72744098101E+01  0.40873885864E+02  0.51100000000E-03 0. -1.
         22    1    1    0    0    0  0.18729292205E+01  0.48856675313E+01 -0.27911684324E+02  0.28397882543E+02  0.00000000000E+00 0.  1.
</event>
<event>
 5    1  0.1626333E-003  0.9118800E+02  0.7818608E-02  0.1130116E+00
         25   -1    0    0    0    0  0.00000000000E+00  0.00000000000E+00  0.99999998245E-14  0.12500000000E+03  0.12500000000E+03 0.  0.
        -11    1    3    3    0    0  0.12648067038E+02  0.31948038824E+02 -0.18844338667E+02  0.39188772430E+02  0.51100000000E-03 0. -1.
         23    2    1    0    0    0  0.16769888133E+02 -0.43713821012E+01  0.23930055639E+02  0.95453668715E+02  0.90765726895E+02 0.  0.
         11    1    3    3    0    0  0.41218210951E+01 -0.36319420925E+02  0.42774394306E+02  0.56264896286E+02  0.51100000000E-03 0.  1.
         22    1    1    0    0    0 -0.16769888133E+02  0.43713821012E+01 -0.23930055639E+02  0.29546331285E+02  0.00000000000E+00 0.  1.
</event>
<event>
 5    1  0.1626333E-003  0.9118800E+02  0.7818608E-02  0.1130116E+00
         25   -1    0    0    0    0  0.00000000000E+00  0.00000000000E+00  0.99999998245E-14  0.12500000000E+03  0.12500000000E+03 0.  0.
        -11    1    3    3    0    0  0.16501101154E+02  0.47388975822E+02 -0.10911869303E+02  0.51352412413E+02  0.51100000000E-03 0.  1.
         23    2    1    0    0    0  0.41195857849E+01  0.18901664263E+02  0.21385674373E+02  0.96162680996E+02  0.91736962284E+02 0.  0.
         11    1    3    3    0    0 -0.12381515369E+02 -0.28487311559E+02  0.32297543676E+02  0.44810268583E+02  0.51100000000E-03 0. -1.
         22    1    1    0    0    0 -0.41195857849E+01 -0.18901664263E+02 -0.21385674373E+02  0.28837319004E+02  0.00000000000E+00 0. -1.
</event>
<event>
 5    1  0.1626333E-003  0.9118800E+02  0.7818608E-02  0.1130116E+00
         25   -1    0    0    0    0  0.00000000000E+00  0.00000000000E+00  0.99999998245E-14  0.12500000000E+03  0.12500000000E+03 0.  0.
        -11    1    3    3    0    0  0.21244658108E+02 -0.34692847502E+02 -0.81770326913E+00  0.40689037895E+02  0.51100000000E-03 0.  1.
         23    2    1    0    0    0  0.81326182813E+01  0.14148443402E+02 -0.23723546532E+02  0.96205476374E+02  0.91795256378E+02 0.  0.
         11    1    3    3    0    0 -0.13112039827E+02  0.48841290903E+02 -0.22905843263E+02  0.55516438479E+02  0.51100000000E-03 0. -1.
         22    1    1    0    0    0 -0.81326182813E+01 -0.14148443402E+02  0.23723546532E+02  0.28794523626E+02  0.00000000000E+00 0. -1.
</event>
<event>
 5    1  0.1626333E-003  0.9118800E+02  0.7818608E-02  0.1130116E+00
         25   -1    0    0    0    0  0.00000000000E+00  0.00000000000E+00  0.99999998245E-14  0.12500000000E+03  0.12500000000E+03 0.  0.
        -11    1    3    3    0    0  0.18780799061E+02 -0.46746506318E+00  0.57728243803E+02  0.60708212540E+02  0.51100000000E-03 0.  1.
         23    2    1    0    0    0  0.93233721850E+01 -0.10780096743E+02  0.27131039050E+02  0.94353156205E+02  0.89237262683E+02 0.  0.
         11    1    3    3    0    0 -0.94574268759E+01 -0.10312631680E+02 -0.30597204753E+02  0.33644943665E+02  0.51100000000E-03 0. -1.
         22    1    1    0    0    0 -0.93233721850E+01  0.10780096743E+02 -0.27131039050E+02  0.30646843795E+02  0.00000000000E+00 0.  1.
</event>
<event>
 5    1  0.1626333E-003  0.9118800E+02  0.7818608E-02  0.1130116E+00
         25   -1    0    0    0    0  0.00000000000E+00  0.00000000000E+00  0.99999998245E-14  0.12500000000E+03  0.12500000000E+03 0.  0.
        -11    1    3    3    0    0  0.14183403714E+02 -0.36665489178E+02  0.46910977277E+02  0.61205937840E+02  0.51100000000E-03 0. -1.
         23    2    1    0    0    0  0.12115888568E+01 -0.22137192313E+02  0.16321023899E+02  0.97470033560E+02  0.93501381754E+02 0.  0.
         11    1    3    3    0    0 -0.12971814857E+02  0.14528296865E+02 -0.30589953377E+02  0.36264095720E+02  0.51100000000E-03 0.  1.
         22    1    1    0    0    0 -0.12115888568E+01  0.22137192313E+02 -0.16321023899E+02  0.27529966440E+02  0.00000000000E+00 0. -1.
</event>
<event>
 5    1  0.1626333E-003  0.9118800E+02  0.7818608E-02  0.1130116E+00
         25   -1    0    0    0    0  0.00000000000E+00  0.00000000000E+00  0.99999998245E-14  0.12500000000E+03  0.12500000000E+03 0.  0.
        -11    1    3    3    0    0  0.14239319287E+02 -0.28958553680E+02  0.37848954585E+02  0.49738309264E+02  0.51100000000E-03 0. -1.
         23    2    1    0    0    0  0.11511060346E+02 -0.21180905048E+02 -0.10442934296E+02  0.98728530196E+02  0.95168968415E+02 0.  0.
         11    1    3    3    0    0 -0.27282589409E+01  0.77776486324E+01 -0.48291888881E+02  0.48990220933E+02  0.51100000000E-03 0.  1.
         22    1    1    0    0    0 -0.11511060346E+02  0.21180905048E+02  0.10442934296E+02  0.26271469804E+02  0.00000000000E+00 0. -1.
</event>
<event>
 5    1  0.1626333E-003  0.9118800E+02  0.7818608E-02  0.1130116E+00
         25   -1    0    0    0    0  0.00000000000E+00  0.00000000000E+00  0.99999998245E-14  0.12500000000E+03  0.12500000000E+03 0.  0.
        -11    1    3    3    0    0  0.34600471430E+01 -0.36092325361E+02 -0.34707374856E+02  0.50191929090E+02  0.51100000000E-03 0.  1.
         23    2    1    0    0    0 -0.24617470238E+02 -0.19442235879E+02 -0.73540139769E+01  0.92780411262E+02  0.87006337789E+02 0.  0.
         11    1    3    3    0    0 -0.28077517381E+02  0.16650089482E+02  0.27353360879E+02  0.42588482171E+02  0.51100000000E-03 0. -1.
         22    1    1    0    0    0  0.24617470238E+02  0.19442235879E+02  0.73540139769E+01  0.32219588738E+02  0.00000000000E+00 0.  1.
</event>
<event>
 5    1  0.1626333E-003  0.9118800E+02  0.7818608E-02  0.1130116E+00
         25   -1    0    0    0    0  0.00000000000E+00  0.00000000000E+00  0.99999998245E-14  0.12500000000E+03  0.12500000000E+03 0.  0.
        -11    1    3    3    0    0  0.43059134266E+02 -0.35969170543E+02  0.10559639166E+02  0.57090947206E+02  0.51100000000E-03 0.  1.
         23    2    1    0    0    0  0.39324713335E+02 -0.15373735384E+02 -0.39998380764E+01  0.82587931869E+02  0.70865950691E+02 0.  0.
         11    1    3    3    0    0 -0.37344209313E+01  0.20595435159E+02 -0.14559477242E+02  0.25496984663E+02  0.51100000000E-03 0. -1.
         22    1    1    0    0    0 -0.39324713335E+02  0.15373735384E+02  0.39998380764E+01  0.42412068131E+02  0.00000000000E+00 0.  1.
</event>
<event>
 5    1  0.1626333E-003  0.9118800E+02  0.7818608E-02  0.1130116E+00
         25   -1    0    0    0    0  0.00000000000E+00  0.00000000000E+00  0.99999998245E-14  0.12500000000E+03  0.12500000000E+03 0.  0.
        -11    1    3    3    0    0 -0.14441850101E+02  0.54149909792E+01  0.38871116909E+02  0.41819288512E+02  0.51100000000E-03 0. -1.
         23    2    1    0    0    0 -0.10971809644E+02 -0.24469936045E+02 -0.75528343757E+01  0.97139567770E+02  0.93058540406E+02 0.  0.
         11    1    3    3    0    0  0.34700404569E+01 -0.29884927025E+02 -0.46423951285E+02  0.55320279258E+02  0.51100000000E-03 0.  1.
         22    1    1    0    0    0  0.10971809644E+02  0.24469936045E+02  0.75528343757E+01  0.27860432230E+02  0.00000000000E+00 0.  1.
</event>
<event>
 5    1  0.1626333E-003  0.9118800E+02  0.7818608E-02  0.1130116E+00
         25   -1    0    0    0    0  0.00000000000E+00  0.00000000000E+00  0.99999998245E-14  0.12500000000E+03  0.12500000000E+03 0.  0.
        -11    1    3    3    0    0  0.11459160501E+02  0.31024663799E+02  0.43447116484E+02  0.54603059019E+02  0.51100000000E-03 0.  1.
         23    2    1    0    0    0  0.10586262403E+02 -0.68922080297E+01  0.25458676133E+02  0.96579660917E+02  0.92303386878E+02 0.  0.
         11    1    3    3    0    0 -0.87289809809E+00 -0.37916871828E+02 -0.17988440351E+02  0.41976601898E+02  0.51100000000E-03 0. -1.
         22    1    1    0    0    0 -0.10586262403E+02  0.68922080297E+01 -0.25458676133E+02  0.28420339083E+02  0.00000000000E+00 0. -1.
</event>
<event>
 5    1  0.1626333E-003  0.9118800E+02  0.7818608E-02  0.1130116E+00
         25   -1    0    0    0    0  0.00000000000E+00  0.00000000000E+00  0.99999998245E-14  0.12500000000E+03  0.12500000000E+03 0.  0.
        -11    1    3    3    0    0  0.75022466065E+00  0.24036997162E+02 -0.19597526639E+02  0.31022622717E+02  0.51100000000E-03 0.  1.
         23    2    1    0    0    0 -0.23147712353E+02 -0.12261403408E+02  0.21707954622E+02  0.90979507726E+02  0.84379363184E+02 0.  0.
         11    1    3    3    0    0 -0.23897937014E+02 -0.36298400571E+02  0.41305481261E+02  0.59956885009E+02  0.51100000000E-03 0. -1.
         22    1    1    0    0    0  0.23147712353E+02  0.12261403408E+02 -0.21707954622E+02  0.34020492274E+02  0.00000000000E+00 0. -1.
</event>
<event>
 5    1  0.1626333E-003  0.9118800E+02  0.7818608E-02  0.1130116E+00
         25   -1    0    0    0    0  0.00000000000E+00  0.00000000000E+00  0.99999998245E-14  0.12500000000E+03  0.12500000000E+03 0.  0.
        -11    1    3    3    0    0 -0.78812164480E+01  0.24428266953E+02 -0.22467692311E+02  0.34112329106E+02  0.51100000000E-03 0.  1.
         23    2    1    0    0    0  0.95896745505E+00 -0.20282985943E+02  0.20065587603E+02  0.96452724417E+02  0.92131325315E+02 0.  0.
         11    1    3    3    0    0  0.88401839030E+01 -0.44711252896E+02  0.42533279915E+02  0.62340395311E+02  0.51100000000E-03 0. -1.
         22    1    1    0    0    0 -0.95896745505E+00  0.20282985943E+02 -0.20065587603E+02  0.28547275583E+02  0.00000000000E+00 0. -1.
</event>
<event>
 5    1  0.1626333E-003  0.9118800E+02  0.7818608E-02  0.1130116E+00
         25   -1    0    0    0    0  0.00000000000E+00  0.00000000000E+00  0.99999998245E-14  0.12500000000E+03  0.12500000000E+03 0.  0.
        -11    1    3    3    0    0 -0.69639556226E+01  0.38677207585E+02 -0.44354965091E+02  0.59260323936E+02  0.51100000000E-03 0. -1.
         23    2    1    0    0    0  0.15817518003E+01  0.26891377571E+02 -0.10544251387E+02  0.96071996894E+02  0.91613313571E+02 0.  0.
         11    1    3    3    0    0  0.85457074230E+01 -0.11785830014E+02  0.33810713705E+02  0.36811672958E+02  0.51100000000E-03 0.  1.
         22    1    1    0    0    0 -0.15817518003E+01 -0.26891377571E+02  0.10544251387E+02  0.28928003106E+02  0.00000000000E+00 0. -1.
</event>
<event>
 5    1  0.1626333E-003  0.9118800E+02  0.7818608E-02  0.1130116E+00
         25   -1    0    0    0    0  0.00000000000E+00  0.00000000000E+00  0.99999998245E-14  0.12500000000E+03  0.12500000000E+03 0.  0.
        -11    1    3    3    0    0 -0.42554217606E+02  0.24169248952E+02 -0.10114548113E+01  0.48949331681E+02  0.51100000000E-03 0. -1.
         23    2    1    0    0    0 -0.19377730858E+02 -0.12829099764E+02  0.17030180211E+02  0.96188382690E+02  0.91771976510E+02 0.  0.
         11    1    3    3    0    0  0.23176486748E+02 -0.36998348716E+02  0.18041635023E+02  0.47239051009E+02  0.51100000000E-03 0.  1.
         22    1    1    0    0    0  0.19377730858E+02  0.12829099764E+02 -0.17030180211E+02  0.28811617310E+02  0.00000000000E+00 0. -1.
</event>
<event>
 5    1  0.1626333E-003  0.9118800E+02  0.7818608E-02  0.1130116E+00
         25   -1    0    0    0    0  0.00000000000E+00  0.00000000000E+00  0.99999998245E-14  0.12500000000E+03  0.12500000000E+03 0.  0.
        -11    1    3    3    0    0 -0.29038026001E+02 -0.14749751913E+02 -0.45232217851E+02  0.55737919476E+02  0.51100000000E-03 0.  1.
         23    2    1    0    0    0  0.29482616362E+01  0.71603725800E+01 -0.23657695798E+02  0.10010723493E+03  0.96962924530E+02 0.  0.
         11    1    3    3    0    0  0.31986287637E+02  0.21910124493E+02  0.21574522052E+02  0.44369315458E+02  0.51100000000E-03 0. -1.
         22    1    1    0    0    0 -0.29482616362E+01 -0.71603725800E+01  0.23657695798E+02  0.24892765066E+02  0.00000000000E+00 0.  1.
</event>
<event>
 5    1  0.1626333E-003  0.9118800E+02  0.7818608E-02  0.1130116E+00
         25   -1    0    0    0    0  0.00000000000E+00  0.00000000000E+00  0.99999998245E-14  0.12500000000E+03  0.12500000000E+03 0.  0.
        -11    1    3    3    0    0 -0.19953378250E+02 -0.42157637064E+02  0.10439520400E+02  0.47795263917E+02  0.51100000000E-03 0. -1.
         23    2    1    0    0    0 -0.19681528605E+02 -0.42575918396E+01 -0.20159273676E+02  0.96506387178E+02  0.92204104001E+02 0.  0.
         11    1    3    3    0    0  0.27184964501E+00  0.37900045225E+02 -0.30598794076E+02  0.48711123262E+02  0.51100000000E-03 0.  1.
         22    1    1    0    0    0  0.19681528605E+02  0.42575918396E+01  0.20159273676E+02  0.28493612822E+02  0.00000000000E+00 0.  1.
</event>
<event>
 5    1  0.1626333E-003  0.9118800E+02  0.7818608E-02  0.1130116E+00
         25   -1    0    0    0    0  0.00000000000E+00  0.00000000000E+00  0.99999998245E-14  0.12500000000E+03  0.12500000000E+03 0.  0.
        -11    1    3    3    0    0  0.29802089076E+02 -0.19665463268E+02 -0.10864538990E+02  0.37322019862E+02  0.51100000000E-03 0.  1.
         23    2    1    0    0    0 -0.26567553484E+02 -0.14774813690E+02 -0.28721749202E+01  0.94465111652E+02  0.89393947854E+02 0.  0.
         11    1    3    3    0    0 -0.56369642560E+02  0.48906495786E+01  0.79923640702E+01  0.57143091790E+02  0.51100000000E-03 0. -1.
         22    1    1    0    0    0  0.26567553484E+02  0.14774813690E+02  0.28721749202E+01  0.30534888348E+02  0.00000000000E+00 0. -1.
</event>
<event>
 5    1  0.1626333E-003  0.9118800E+02  0.7818608E-02  0.1130116E+00
         25   -1    0    0    0    0  0.00000000000E+00  0.00000000000E+00  0.99999998245E-14  0.12500000000E+03  0.12500000000E+03 0.  0.
        -11    1    3    3    0    0 -0.25733618579E+02  0.13131822387E+02  0.49721220340E+02  0.57505335724E+02  0.51100000000E-03 0.  1.
         23    2    1    0    0    0 -0.97274421177E+01  0.21971725637E+02  0.15208110962E+02  0.96562937974E+02  0.92280737392E+02 0.  0.
         11    1    3    3    0    0  0.16006176462E+02  0.88399032498E+01 -0.34513109377E+02  0.39057602250E+02  0.51100000000E-03 0. -1.
         22    1    1    0    0    0  0.97274421177E+01 -0.21971725637E+02 -0.15208110962E+02  0.28437062026E+02  0.00000000000E+00 0.  1.
</event>
<event>
 5    1  0.1626333E-003  0.9118800E+02  0.7818608E-02  0.1130116E+00
         25   -1    0    0    0    0  0.00000000000E+00  0.00000000000E+00  0.99999998245E-14  0.12500000000E+03  0.12500000000E+03 0.  0.
        -11    1    3    3    0    0  0.46051472767E+02  0.77235795419E+01  0.20176466431E+02  0.50867294236E+02  0.51100000000E-03 0. -1.
         23    2    1    0    0    0  0.33504145366E+01 -0.11200640547E+02  0.24580311232E+02  0.97781048395E+02  0.93916250451E+02 0.  0.
         11    1    3    3    0    0 -0.42701058231E+02 -0.18924220088E+02  0.44038448006E+01  0.46913754159E+02  0.51100000000E-03 0.  1.
         22    1    1    0    0    0 -0.33504145366E+01  0.11200640547E+02 -0.24580311232E+02  0.27218951605E+02  0.00000000000E+00 0. -1.
</event>
<event>
 5    1  0.1626333E-003  0.9118800E+02  0.7818608E-02  0.1130116E+00
         25   -1    0    0    0    0  0.00000000000E+00  0.00000000000E+00  0.99999998245E-14  0.12500000000E+03  0.12500000000E+03 0.  0.
        -11    1    3    3    0    0  0.35506727965E+02 -0.31015608258E+02 -0.28895153574E+02  0.55295800806E+02  0.51100000000E-03 0.  1.
         23    2    1    0    0    0  0.79785412693E+00 -0.28047823300E+02 -0.84123748451E+01  0.95706911846E+02  0.91113818718E+02 0.  0.
         11    1    3    3    0    0 -0.34708873839E+02  0.29677849581E+01  0.20482778729E+02  0.40411111039E+02  0.51100000000E-03 0. -1.
         22    1    1    0    0    0 -0.79785412693E+00  0.28047823300E+02  0.84123748451E+01  0.29293088154E+02  0.00000000000E+00 0.  1.
</event>
<event>
 5    1  0.1626333E-003  0.9118800E+02  0.7818608E-02  0.1130116E+00
         25   -1    0    0    0    0  0.00000000000E+00  0.00000000000E+00  0.99999998245E-14  0.12500000000E+03  0.12500000000E+03 0.  0.
        -11    1    3    3    0    0  0.30721969967E+02 -0.40890091279E+00 -0.33899477888E+02  0.45751297686E+02  0.51100000000E-03 0.  1.
         23    2    1    0    0    0  0.21513016012E+02  0.16706372593E+02  0.11726963469E+02  0.95344740511E+02  0.90615589872E+02 0.  0.
         11    1    3    3    0    0 -0.92089539550E+01  0.17115273506E+02  0.45626441357E+02  0.49593442826E+02  0.51100000000E-03 0. -1.
         22    1    1    0    0    0 -0.21513016012E+02 -0.16706372593E+02 -0.11726963469E+02  0.29655259489E+02  0.00000000000E+00 0.  1.
</event>
<event>
 5    1  0.1626333E-003  0.9118800E+02  0.7818608E-02  0.1130116E+00
         25   -1    0    0    0    0  0.00000000000E+00  0.00000000000E+00  0.99999998245E-14  0.12500000000E+03  0.12500000000E+03 0.  0.
        -11    1    3    3    0    0 -0.49277220865E+02 -0.30607339941E+02 -0.20708185900E+02  0.61594502336E+02  0.51100000000E-03 0.  1.
         23    2    1    0    0    0 -0.20542348082E+02 -0.12501994978E+02 -0.16541986795E+02  0.95812241088E+02  0.91258206601E+02 0.  0.
         11    1    3    3    0    0  0.28734872783E+02  0.18105344963E+02  0.41661991051E+01  0.34217738753E+02  0.51100000000E-03 0. -1.
         22    1    1    0    0    0  0.20542348082E+02  0.12501994978E+02  0.16541986795E+02  0.29187758912E+02  0.00000000000E+00 0.  1.
</event>
<event>
 5    1  0.1626333E-003  0.9118800E+02  0.7818608E-02  0.1130116E+00
         25   -1    0    0    0    0  0.00000000000E+00  0.00000000000E+00  0.99999998245E-14  0.12500000000E+03  0.12500000000E+03 0.  0.
        -11    1    3    3    0    0  0.38689579063E+02  0.10545136411E+02 -0.23607642719E+02  0.46533904038E+02  0.51100000000E-03 0.  1.
         23    2    1    0    0    0  0.18156503161E+02  0.20963929397E+02 -0.41077812056E+02  0.75436590249E+02  0.56869566222E+02 0.  0.
         11    1    3    3    0    0 -0.20533075902E+02  0.10418792987E+02 -0.17470169338E+02  0.28902686211E+02  0.51100000000E-03 0. -1.
         22    1    1    0    0    0 -0.18156503161E+02 -0.20963929397E+02  0.41077812056E+02  0.49563409751E+02  0.00000000000E+00 0.  1.
</event>
<event>
 5    1  0.1626333E-003  0.9118800E+02  0.7818608E-02  0.1130116E+00
         25   -1    0    0    0    0  0.00000000000E+00  0.00000000000E+00  0.99999998245E-14  0.12500000000E+03  0.12500000000E+03 0.  0.
        -11    1    3    3    0    0 -0.73545357949E+00  0.25347916188E+01 -0.56270848084E+02  0.56332711677E+02  0.51100000000E-03 0.  1.
         23    2    1    0    0    0 -0.28130194292E+01 -0.18247023002E+02 -0.27034013188E+02  0.92263097339E+02  0.86259923109E+02 0.  0.
         11    1    3    3    0    0 -0.20775658497E+01 -0.20781814621E+02  0.29236834896E+02  0.35930385662E+02  0.51100000000E-03 0. -1.
         22    1    1    0    0    0  0.28130194292E+01  0.18247023002E+02  0.27034013188E+02  0.32736902661E+02  0.00000000000E+00 0.  1.
</event>
<event>
 5    1  0.1626333E-003  0.9118800E+02  0.7818608E-02  0.1130116E+00
         25   -1    0    0    0    0  0.00000000000E+00  0.00000000000E+00  0.99999998245E-14  0.12500000000E+03  0.12500000000E+03 0.  0.
        -11    1    3    3    0    0 -0.50409586223E+02  0.35715702423E+02 -0.62747464212E+01  0.62097586311E+02  0.51100000000E-03 0.  1.
         23    2    1    0    0    0 -0.25105444964E+02  0.13457804427E+02 -0.64299141109E+01  0.95798293503E+02  0.91239100039E+02 0.  0.
         11    1    3    3    0    0  0.25304141259E+02 -0.22257897996E+02 -0.15516768966E+00  0.33700707193E+02  0.51100000000E-03 0. -1.
         22    1    1    0    0    0  0.25105444964E+02 -0.13457804427E+02  0.64299141109E+01  0.29201706497E+02  0.00000000000E+00 0.  1.
</event>
<event>
 5    1  0.1626333E-003  0.9118800E+02  0.7818608E-02  0.1130116E+00
         25   -1    0    0    0    0  0.00000000000E+00  0.00000000000E+00  0.99999998245E-14  0.12500000000E+03  0.12500000000E+03 0.  0.
        -11    1    3    3    0    0 -0.48154165025E+01 -0.60152865912E+02  0.11679298033E+02  0.61465124390E+02  0.51100000000E-03 0. -1.
         23    2    1    0    0    0 -0.84545217250E+01 -0.32442653706E+02  0.11930227570E+02  0.89414398320E+02  0.82028041424E+02 0.  0.
         11    1    3    3    0    0 -0.36391052225E+01  0.27710212206E+02  0.25092953640E+00  0.27949273930E+02  0.51100000000E-03 0.  1.
         22    1    1    0    0    0  0.84545217250E+01  0.32442653706E+02 -0.11930227570E+02  0.35585601680E+02  0.00000000000E+00 0. -1.
</event>
<event>
 5    1  0.1626333E-003  0.9118800E+02  0.7818608E-02  0.1130116E+00
         25   -1    0    0    0    0  0.00000000000E+00  0.00000000000E+00  0.99999998245E-14  0.12500000000E+03  0.12500000000E+03 0.  0.
        -11    1    3    3    0    0 -0.11064675364E+02  0.22921025211E+02  0.49019069524E+02  0.55232867162E+02  0.51100000000E-03 0. -1.
         23    2    1    0    0    0 -0.15229287923E+02  0.25934942154E+02  0.11981518706E+02  0.92625484935E+02  0.86783473276E+02 0.  0.
         11    1    3    3    0    0 -0.41646125590E+01  0.30139169430E+01 -0.37037550818E+02  0.37392617774E+02  0.51100000000E-03 0.  1.
         22    1    1    0    0    0  0.15229287923E+02 -0.25934942154E+02 -0.11981518706E+02  0.32374515065E+02  0.00000000000E+00 0. -1.
</event>
<event>
 5    1  0.1626333E-003  0.9118800E+02  0.7818608E-02  0.1130116E+00
         25   -1    0    0    0    0  0.00000000000E+00  0.00000000000E+00  0.99999998245E-14  0.12500000000E+03  0.12500000000E+03 0.  0.
        -11    1    3    3    0    0  0.31106241571E+01  0.29374478355E+02 -0.17226538581E+02  0.34194876707E+02  0.51100000000E-03 0. -1.
         23    2    1    0    0    0  0.33061702608E+02 -0.13677517659E+02 -0.58994253877E+00  0.89215943483E+02  0.81725062684E+02 0.  0.
         11    1    3    3    0    0  0.29951078451E+02 -0.43051996013E+02  0.16636596042E+02  0.55021066776E+02  0.51100000000E-03 0.  1.
         22    1    1    0    0    0 -0.33061702608E+02  0.13677517659E+02  0.58994253877E+00  0.35784056517E+02  0.00000000000E+00 0.  1.
</event>
<event>
 5    1  0.1626333E-003  0.9118800E+02  0.7818608E-02  0.1130116E+00
         25   -1    0    0    0    0  0.00000000000E+00  0.00000000000E+00  0.99999998245E-14  0.12500000000E+03  0.12500000000E+03 0.  0.
        -11    1    3    3    0    0  0.41602525871E+02  0.21226966235E+02  0.33949986470E+02  0.57740417698E+02  0.51100000000E-03 0.  1.
         23    2    1    0    0    0  0.17816243910E+02  0.22817781922E+02  0.43835577733E+01  0.95720565278E+02  0.91132548079E+02 0.  0.
         11    1    3    3    0    0 -0.23786281961E+02  0.15908156867E+01 -0.29566428696E+02  0.37980147580E+02  0.51100000000E-03 0. -1.
         22    1    1    0    0    0 -0.17816243910E+02 -0.22817781922E+02 -0.43835577733E+01  0.29279434722E+02  0.00000000000E+00 0.  1.
</event>
<event>
 5    1  0.1626333E-003  0.9118800E+02  0.7818608E-02  0.1130116E+00
         25   -1    0    0    0    0  0.00000000000E+00  0.00000000000E+00  0.99999998245E-14  0.12500000000E+03  0.12500000000E+03 0.  0.
        -11    1    3    3    0    0 -0.29442940082E+02 -0.26837853545E+01  0.30281871723E+02  0.42321167042E+02  0.51100000000E-03 0.  1.
         23    2    1    0    0    0 -0.78093713213E+01  0.32668691407E+02  0.22711184439E+02  0.84453390064E+02  0.74083382185E+02 0.  0.
         11    1    3    3    0    0  0.21633568760E+02  0.35352476762E+02 -0.75706872847E+01  0.42132223022E+02  0.51100000000E-03 0. -1.
         22    1    1    0    0    0  0.78093713213E+01 -0.32668691407E+02 -0.22711184439E+02  0.40546609936E+02  0.00000000000E+00 0.  1.
</event>
<event>
 5    1  0.1626333E-003  0.9118800E+02  0.7818608E-02  0.1130116E+00
         25   -1    0    0    0    0  0.00000000000E+00  0.00000000000E+00  0.99999998245E-14  0.12500000000E+03  0.12500000000E+03 0.  0.
        -11    1    3    3    0    0  0.29047868655E+02 -0.34358360558E+02 -0.31150968325E+02  0.54723472491E+02  0.51100000000E-03 0. -1.
         23    2    1    0    0    0  0.12609361823E+02  0.36368945288E+01 -0.25253365953E+02  0.96540282866E+02  0.92250044534E+02 0.  0.
         11    1    3    3    0    0 -0.16438506832E+02  0.37995255087E+02  0.58976023719E+01  0.41816810375E+02  0.51100000000E-03 0.  1.
         22    1    1    0    0    0 -0.12609361823E+02 -0.36368945288E+01  0.25253365953E+02  0.28459717134E+02  0.00000000000E+00 0. -1.
</event>
<event>
 5    1  0.1626333E-003  0.9118800E+02  0.7818608E-02  0.1130116E+00
         25   -1    0    0    0    0  0.00000000000E+00  0.00000000000E+00  0.99999998245E-14  0.12500000000E+03  0.12500000000E+03 0.  0.
        -11    1    3    3    0    0  0.12911224800E+02 -0.48030713546E+02 -0.36430557596E+02  0.61650909942E+02  0.51100000000E-03 0.  1.
         23    2    1    0    0    0  0.24444241314E+01 -0.18193253782E+02 -0.21826049554E+02  0.96480776104E+02  0.92169376834E+02 0.  0.
         11    1    3    3    0    0 -0.10466800669E+02  0.29837459765E+02  0.14604508042E+02  0.34829866162E+02  0.51100000000E-03 0. -1.
         22    1    1    0    0    0 -0.24444241314E+01  0.18193253782E+02  0.21826049554E+02  0.28519223896E+02  0.00000000000E+00 0.  1.
</event>
<event>
 5    1  0.1626333E-003  0.9118800E+02  0.7818608E-02  0.1130116E+00
         25   -1    0    0    0    0  0.00000000000E+00  0.00000000000E+00  0.99999998245E-14  0.12500000000E+03  0.12500000000E+03 0.  0.
        -11    1    3    3    0    0  0.15884256529E+02  0.24806075015E+02 -0.29917141502E+02  0.41984358028E+02  0.51100000000E-03 0.  1.
         23    2    1    0    0    0  0.17751671063E+02 -0.21885935047E+02 -0.12792719758E+01  0.96790914315E+02  0.92589030552E+02 0.  0.
         11    1    3    3    0    0  0.18674145335E+01 -0.46692010062E+02  0.28637869526E+02  0.54806556286E+02  0.51100000000E-03 0. -1.
         22    1    1    0    0    0 -0.17751671063E+02  0.21885935047E+02  0.12792719758E+01  0.28209085685E+02  0.00000000000E+00 0. -1.
</event>
<event>
 5    1  0.1626333E-003  0.9118800E+02  0.7818608E-02  0.1130116E+00
         25   -1    0    0    0    0  0.00000000000E+00  0.00000000000E+00  0.99999998245E-14  0.12500000000E+03  0.12500000000E+03 0.  0.
        -11    1    3    3    0    0  0.26110567980E+02 -0.21722981922E+02  0.37961579285E+01  0.34176900373E+02  0.51100000000E-03 0.  1.
         23    2    1    0    0    0 -0.23088417621E+02  0.16365316319E+02  0.41489228030E+01  0.96397339863E+02  0.92056151157E+02 0.  0.
         11    1    3    3    0    0 -0.49198985601E+02  0.38088298241E+02  0.35276487447E+00  0.62220439490E+02  0.51100000000E-03 0. -1.
         22    1    1    0    0    0  0.23088417621E+02 -0.16365316319E+02 -0.41489228030E+01  0.28602660137E+02  0.00000000000E+00 0. -1.
</event>
<event>
 5    1  0.1626333E-003  0.9118800E+02  0.7818608E-02  0.1130116E+00
         25   -1    0    0    0    0  0.00000000000E+00  0.00000000000E+00  0.99999998245E-14  0.12500000000E+03  0.12500000000E+03 0.  0.
        -11    1    3    3    0    0 -0.39181598340E+02  0.18786475357E+02  0.14930370131E+02  0.45946112537E+02  0.51100000000E-03 0.  1.
         23    2    1    0    0    0 -0.13075626318E+01 -0.15970248541E+02  0.21945071077E+02  0.97827500978E+02  0.93978057251E+02 0.  0.
         11    1    3    3    0    0  0.37874035708E+02 -0.34756723898E+02  0.70147009457E+01  0.51881388441E+02  0.51100000000E-03 0. -1.
         22    1    1    0    0    0  0.13075626318E+01  0.15970248541E+02 -0.21945071077E+02  0.27172499022E+02  0.00000000000E+00 0. -1.
</event>
<event>
 5    1  0.1626333E-003  0.9118800E+02  0.7818608E-02  0.1130116E+00
         25   -1    0    0    0    0  0.00000000000E+00  0.00000000000E+00  0.99999998245E-14  0.12500000000E+03  0.12500000000E+03 0.  0.
        -11    1    3    3    0    0 -0.33192082029E+02 -0.94737168219E+01  0.11248750766E+02  0.36304269912E+02  0.51100000000E-03 0. -1.
         23    2    1    0    0    0  0.95409534547E+01  0.25970258348E+02 -0.97543227807E+01  0.95663488203E+02  0.91054225881E+02 0.  0.
         11    1    3    3    0    0  0.42733035483E+02  0.35443975170E+02 -0.21003073547E+02  0.59359218291E+02  0.51100000000E-03 0.  1.
         22    1    1    0    0    0 -0.95409534547E+01 -0.25970258348E+02  0.97543227807E+01  0.29336511797E+02  0.00000000000E+00 0.  1.
</event>
<event>
 5    1  0.1626333E-003  0.9118800E+02  0.7818608E-02  0.1130116E+00
         25   -1    0    0    0    0  0.00000000000E+00  0.00000000000E+00  0.99999998245E-14  0.12500000000E+03  0.12500000000E+03 0.  0.
        -11    1    3    3    0    0 -0.20330867112E+02 -0.54061173543E+01 -0.56857252419E+02  0.60624396206E+02  0.51100000000E-03 0.  1.
         23    2    1    0    0    0 -0.19572059430E+02 -0.85415108919E+00 -0.23031393826E+02  0.94763595022E+02  0.89810348822E+02 0.  0.
         11    1    3    3    0    0  0.75880768226E+00  0.45519662651E+01  0.33825858594E+02  0.34139198817E+02  0.51100000000E-03 0. -1.
         22    1    1    0    0    0  0.19572059430E+02  0.85415108919E+00  0.23031393826E+02  0.30236404978E+02  0.00000000000E+00 0.  1.
</event>
<event>
 5    1  0.1626333E-003  0.9118800E+02  0.7818608E-02  0.1130116E+00
         25   -1    0    0    0    0  0.00000000000E+00  0.00000000000E+00  0.99999998245E-14  0.12500000000E+03  0.12500000000E+03 0.  0.
        -11    1    3    3    0    0 -0.26748428274E+02  0.39231488325E+02  0.98877778804E+01  0.48501095276E+02  0.51100000000E-03 0.  1.
         23    2    1    0    0    0  0.55644662989E+01  0.33156428654E+02 -0.13416794764E+02  0.88801623959E+02  0.81088877102E+02 0.  0.
         11    1    3    3    0    0  0.32312894573E+02 -0.60750596712E+01 -0.23304572644E+02  0.40300528682E+02  0.51100000000E-03 0. -1.
         22    1    1    0    0    0 -0.55644662989E+01 -0.33156428654E+02  0.13416794764E+02  0.36198376041E+02  0.00000000000E+00 0. -1.
</event>
<event>
 5    1  0.1626333E-003  0.9118800E+02  0.7818608E-02  0.1130116E+00
         25   -1    0    0    0    0  0.00000000000E+00  0.00000000000E+00  0.99999998245E-14  0.12500000000E+03  0.12500000000E+03 0.  0.
        -11    1    3    3    0    0  0.42691824959E+01 -0.40936597741E+02  0.41736029611E+01  0.41369673866E+02  0.51100000000E-03 0.  1.
         23    2    1    0    0    0 -0.19668310073E+02  0.25204273550E+01  0.23176829908E+02  0.94498189894E+02  0.89440189364E+02 0.  0.
         11    1    3    3    0    0 -0.23937492569E+02  0.43457025096E+02  0.19003226947E+02  0.53128516028E+02  0.51100000000E-03 0. -1.
         22    1    1    0    0    0  0.19668310073E+02 -0.25204273550E+01 -0.23176829908E+02  0.30501810106E+02  0.00000000000E+00 0.  1.
</event>
<event>
 5    1  0.1626333E-003  0.9118800E+02  0.7818608E-02  0.1130116E+00
         25   -1    0    0    0    0  0.00000000000E+00  0.00000000000E+00  0.99999998245E-14  0.12500000000E+03  0.12500000000E+03 0.  0.
        -11    1    3    3    0    0  0.25581527233E+02 -0.94195972808E+00 -0.31432556152E+02  0.40537728232E+02  0.51100000000E-03 0. -1.
         23    2    1    0    0    0 -0.26300573894E+02  0.22858513975E+01 -0.11328303862E+02  0.96272386592E+02  0.91886324597E+02 0.  0.
         11    1    3    3    0    0 -0.51882101127E+02  0.32278111256E+01  0.20104252290E+02  0.55734658359E+02  0.51100000000E-03 0.  1.
         22    1    1    0    0    0  0.26300573894E+02 -0.22858513975E+01  0.11328303862E+02  0.28727613408E+02  0.00000000000E+00 0.  1.
</event>
<event>
 5    1  0.1626333E-003  0.9118800E+02  0.7818608E-02  0.1130116E+00
         25   -1    0    0    0    0  0.00000000000E+00  0.00000000000E+00  0.99999998245E-14  0.12500000000E+03  0.12500000000E+03 0.  0.
        -11    1    3    3    0    0  0.19259434477E+02  0.15291665595E+02  0.56898986430E+02  0.61985929936E+02  0.51100000000E-03 0.  1.
         23    2    1    0    0    0  0.34068953995E+01  0.54861347325E+01  0.27152208433E+02  0.97090377406E+02  0.92992442443E+02 0.  0.
         11    1    3    3    0    0 -0.15852539077E+02 -0.98055308629E+01 -0.29746777997E+02  0.35104447470E+02  0.51100000000E-03 0. -1.
         22    1    1    0    0    0 -0.34068953995E+01 -0.54861347325E+01 -0.27152208433E+02  0.27909622594E+02  0.00000000000E+00 0.  1.
</event>
<event>
 5    1  0.1626333E-003  0.9118800E+02  0.7818608E-02  0.1130116E+00
         25   -1    0    0    0    0  0.00000000000E+00  0.00000000000E+00  0.99999998245E-14  0.12500000000E+03  0.12500000000E+03 0.  0.
        -11    1    3    3    0    0 -0.16607541906E+02  0.23964428912E+02 -0.21215821317E+02  0.36058499354E+02  0.51100000000E-03 0.  1.
         23    2    1    0    0    0 -0.77785445009E+01 -0.51852082844E+01  0.28856824478E+02  0.94666710392E+02  0.89675401298E+02 0.  0.
         11    1    3    3    0    0  0.88289974052E+01 -0.29149637197E+02  0.50072645795E+02  0.58608211038E+02  0.51100000000E-03 0. -1.
         22    1    1    0    0    0  0.77785445009E+01  0.51852082844E+01 -0.28856824478E+02  0.30333289608E+02  0.00000000000E+00 0. -1.
</event>
<event>
 5    1  0.1626333E-003  0.9118800E+02  0.7818608E-02  0.1130116E+00
         25   -1    0    0    0    0  0.00000000000E+00  0.00000000000E+00  0.99999998245E-14  0.12500000000E+03  0.12500000000E+03 0.  0.
        -11    1    3    3    0    0  0.56984502642E+02  0.49718215618E+01 -0.17242955375E+01  0.57226966950E+02  0.51100000000E-03 0.  1.
         23    2    1    0    0    0  0.22353193129E+02  0.19511318870E+02 -0.49270656605E+01  0.94922886057E+02  0.90031780579E+02 0.  0.
         11    1    3    3    0    0 -0.34631309513E+02  0.14539497309E+02 -0.32027701231E+01  0.37695919107E+02  0.51100000000E-03 0. -1.
         22    1    1    0    0    0 -0.22353193129E+02 -0.19511318870E+02  0.49270656605E+01  0.30077113943E+02  0.00000000000E+00 0.  1.
</event>
<event>
 5    1  0.1626333E-003  0.9118800E+02  0.7818608E-02  0.1130116E+00
         25   -1    0    0    0    0  0.00000000000E+00  0.00000000000E+00  0.99999998245E-14  0.12500000000E+03  0.12500000000E+03 0.  0.
        -11    1    3    3    0    0 -0.51505716481E+02 -0.33287436319E+02 -0.47838087444E+00  0.61327979711E+02  0.51100000000E-03 0.  1.
         23    2    1    0    0    0 -0.20509375648E+02 -0.18202562198E+02  0.72076484676E+01  0.96646553005E+02  0.92393929732E+02 0.  0.
         11    1    3    3    0    0  0.30996340833E+02  0.15084874121E+02  0.76860293420E+01  0.35318573295E+02  0.51100000000E-03 0. -1.
         22    1    1    0    0    0  0.20509375648E+02  0.18202562198E+02 -0.72076484676E+01  0.28353446995E+02  0.00000000000E+00 0.  1.
</event>
<event>
 5    1  0.1626333E-003  0.9118800E+02  0.7818608E-02  0.1130116E+00
         25   -1    0    0    0    0  0.00000000000E+00  0.00000000000E+00  0.99999998245E-14  0.12500000000E+03  0.12500000000E+03 0.  0.
        -11    1    3    3    0    0 -0.38804039110E+02  0.73025637218E+01 -0.19942629427E+01  0.39535527985E+02  0.51100000000E-03 0. -1.
         23    2    1    0    0    0  0.13660506810E+02  0.10246885107E+02 -0.23193855497E+02  0.96197864080E+02  0.91784889933E+02 0.  0.
         11    1    3    3    0    0  0.52464545920E+02  0.29443213856E+01 -0.21199592554E+02  0.56662336095E+02  0.51100000000E-03 0.  1.
         22    1    1    0    0    0 -0.13660506810E+02 -0.10246885107E+02  0.23193855497E+02  0.28802135920E+02  0.00000000000E+00 0.  1.
</event>
<event>
 5    1  0.1626333E-003  0.9118800E+02  0.7818608E-02  0.1130116E+00
         25   -1    0    0    0    0  0.00000000000E+00  0.00000000000E+00  0.99999998245E-14  0.12500000000E+03  0.12500000000E+03 0.  0.
        -11    1    3    3    0    0  0.31738481704E+02 -0.36318869370E+02 -0.38851978128E+02  0.61934382196E+02  0.51100000000E-03 0. -1.
         23    2    1    0    0    0  0.12210629111E+02 -0.16785461886E+02 -0.23908682182E+02  0.93338094218E+02  0.87803892594E+02 0.  0.
         11    1    3    3    0    0 -0.19527852593E+02  0.19533407484E+02  0.14943295946E+02  0.31403712023E+02  0.51100000000E-03 0.  1.
         22    1    1    0    0    0 -0.12210629111E+02  0.16785461886E+02  0.23908682182E+02  0.31661905782E+02  0.00000000000E+00 0. -1.
</event>
<event>
 5    1  0.1626333E-003  0.9118800E+02  0.7818608E-02  0.1130116E+00
         25   -1    0    0    0    0  0.00000000000E+00  0.00000000000E+00  0.99999998245E-14  0.12500000000E+03  0.12500000000E+03 0.  0.
        -11    1    3    3    0    0 -0.16797891663E+02  0.48619136226E+02  0.35124699751E+02  0.62287511626E+02  0.51100000000E-03 0.  1.
         23    2    1    0    0    0 -0.47977543834E+01  0.24926528797E+02  0.16531477936E+02  0.94707425864E+02  0.89732137309E+02 0.  0.
         11    1    3    3    0    0  0.12000137280E+02 -0.23692607429E+02 -0.18593221815E+02  0.32419914238E+02  0.51100000000E-03 0. -1.
         22    1    1    0    0    0  0.47977543834E+01 -0.24926528797E+02 -0.16531477936E+02  0.30292574136E+02  0.00000000000E+00 0.  1.
</event>
<event>
 5    1  0.1626333E-003  0.9118800E+02  0.7818608E-02  0.1130116E+00
         25   -1    0    0    0    0  0.00000000000E+00  0.00000000000E+00  0.99999998245E-14  0.12500000000E+03  0.12500000000E+03 0.  0.
        -11    1    3    3    0    0 -0.30114212415E+02  0.47741482747E+02  0.25638752092E+02  0.61995649633E+02  0.51100000000E-03 0.  1.
         23    2    1    0    0    0 -0.20029696513E+02  0.21820574334E+02  0.11200990651E+02  0.93333165642E+02  0.87796875859E+02 0.  0.
         11    1    3    3    0    0  0.10084515901E+02 -0.25920908413E+02 -0.14437761442E+02  0.31337516009E+02  0.51100000000E-03 0. -1.
         22    1    1    0    0    0  0.20029696513E+02 -0.21820574334E+02 -0.11200990651E+02  0.31666834358E+02  0.00000000000E+00 0.  1.
</event>
<event>
 5    1  0.1626333E-003  0.9118800E+02  0.7818608E-02  0.1130116E+00
         25   -1    0    0    0    0  0.00000000000E+00  0.00000000000E+00  0.99999998245E-14  0.12500000000E+03  0.12500000000E+03 0.  0.
        -11    1    3    3    0    0  0.11642531902E+02 -0.94044754285E+01 -0.22740121593E+02  0.27223259127E+02  0.51100000000E-03 0. -1.
         23    2    1    0    0    0 -0.11452105385E+02 -0.31954358404E+02  0.23571805440E+02  0.83673715985E+02  0.72755955058E+02 0.  0.
         11    1    3    3    0    0 -0.23094637287E+02 -0.22549882975E+02  0.46311927034E+02  0.56450456858E+02  0.51100000000E-03 0.  1.
         22    1    1    0    0    0  0.11452105385E+02  0.31954358404E+02 -0.23571805440E+02  0.41326284015E+02  0.00000000000E+00 0.  1.
</event>
<event>
 5    1  0.1626333E-003  0.9118800E+02  0.7818608E-02  0.1130116E+00
         25   -1    0    0    0    0  0.00000000000E+00  0.00000000000E+00  0.99999998245E-14  0.12500000000E+03  0.12500000000E+03 0.  0.
        -11    1    3    3    0    0 -0.55825751030E+01  0.24309140196E+02  0.47921751024E+02  0.54024010064E+02  0.51100000000E-03 0. -1.
         23    2    1    0    0    0 -0.13700319729E+02  0.24624257935E+02  0.67042126635E+01  0.96034515247E+02  0.91562158187E+02 0.  0.
         11    1    3    3    0    0 -0.81177446256E+01  0.31511773865E+00 -0.41217538361E+02  0.42010505184E+02  0.51100000000E-03 0.  1.
         22    1    1    0    0    0  0.13700319729E+02 -0.24624257935E+02 -0.67042126635E+01  0.28965484753E+02  0.00000000000E+00 0. -1.
</event>
<event>
 5    1  0.1626333E-003  0.9118800E+02  0.7818608E-02  0.1130116E+00
         25   -1    0    0    0    0  0.00000000000E+00  0.00000000000E+00  0.99999998245E-14  0.12500000000E+03  0.12500000000E+03 0.  0.
        -11    1    3    3    0    0  0.18809047404E+02 -0.34858573218E+02  0.44270677629E+02  0.59403647102E+02  0.51100000000E-03 0.  1.
         23    2    1    0    0    0  0.29575112210E+01 -0.27664749196E+02  0.15177232178E+02  0.93307199599E+02  0.87759899155E+02 0.  0.
         11    1    3    3    0    0 -0.15851536183E+02  0.71938240221E+01 -0.29093445452E+02  0.33903552497E+02  0.51100000000E-03 0. -1.
         22    1    1    0    0    0 -0.29575112210E+01  0.27664749196E+02 -0.15177232178E+02  0.31692800401E+02  0.00000000000E+00 0.  1.
</event>
<event>
 5    1  0.1626333E-003  0.9118800E+02  0.7818608E-02  0.1130116E+00
         25   -1    0    0    0    0  0.00000000000E+00  0.00000000000E+00  0.99999998245E-14  0.12500000000E+03  0.12500000000E+03 0.  0.
        -11    1    3    3    0    0 -0.30991688269E+02  0.18826330737E+00  0.48719133988E+02  0.57741442670E+02  0.51100000000E-03 0.  1.
         23    2    1    0    0    0  0.14046185398E+01  0.26628282050E+01  0.29201510442E+02  0.95643709032E+02  0.91027068820E+02 0.  0.
         11    1    3    3    0    0  0.32396306809E+02  0.24745648977E+01 -0.19517623545E+02  0.37902266362E+02  0.51100000000E-03 0. -1.
         22    1    1    0    0    0 -0.14046185398E+01 -0.26628282050E+01 -0.29201510442E+02  0.29356290968E+02  0.00000000000E+00 0.  1.
</event>
<event>
 5    1  0.1626333E-003  0.9118800E+02  0.7818608E-02  0.1130116E+00
         25   -1    0    0    0    0  0.00000000000E+00  0.00000000000E+00  0.99999998245E-14  0.12500000000E+03  0.12500000000E+03 0.  0.
        -11    1    3    3    0    0  0.22403636803E+02 -0.32782599976E+02  0.35831403686E+02  0.53483747938E+02  0.51100000000E-03 0.  1.
         23    2    1    0    0    0  0.27486459984E+02 -0.17696938046E+02  0.42246357509E+00  0.92306490337E+02  0.86322781374E+02 0.  0.
         11    1    3    3    0    0  0.50828231808E+01  0.15085661929E+02 -0.35408940111E+02  0.38822742399E+02  0.51100000000E-03 0. -1.
         22    1    1    0    0    0 -0.27486459984E+02  0.17696938046E+02 -0.42246357509E+00  0.32693509663E+02  0.00000000000E+00 0.  1.
</event>
<event>
 5    1  0.1626333E-003  0.9118800E+02  0.7818608E-02  0.1130116E+00
         25   -1    0    0    0    0  0.00000000000E+00  0.00000000000E+00  0.99999998245E-14  0.12500000000E+03  0.12500000000E+03 0.  0.
        -11    1    3    3    0    0 -0.34219007121E+01 -0.29507881788E+02 -0.37699154244E+01  0.29943893446E+02  0.51100000000E-03 0.  1.
         23    2    1    0    0    0 -0.42419000632E+02 -0.16219323832E+00 -0.14968189404E+02  0.80017285372E+02  0.66176440997E+02 0.  0.
         11    1    3    3    0    0 -0.38997099920E+02  0.29345688550E+02 -0.11198273980E+02  0.50073391926E+02  0.51100000000E-03 0. -1.
         22    1    1    0    0    0  0.42419000632E+02  0.16219323832E+00  0.14968189404E+02  0.44982714628E+02  0.00000000000E+00 0. -1.
</event>
<event>
 5    1  0.1626333E-003  0.9118800E+02  0.7818608E-02  0.1130116E+00
         25   -1    0    0    0    0  0.00000000000E+00  0.00000000000E+00  0.99999998245E-14  0.12500000000E+03  0.12500000000E+03 0.  0.
        -11    1    3    3    0    0 -0.64439153838E+01  0.59164445361E+02  0.67253778478E+01  0.59893124378E+02  0.51100000000E-03 0.  1.
         23    2    1    0    0    0 -0.17244654879E+01  0.25787582517E+02  0.15678945837E+02  0.94770833028E+02  0.89820422271E+02 0.  0.
         11    1    3    3    0    0  0.47194498959E+01 -0.33376862844E+02  0.89535679891E+01  0.34877708649E+02  0.51100000000E-03 0. -1.
         22    1    1    0    0    0  0.17244654879E+01 -0.25787582517E+02 -0.15678945837E+02  0.30229166972E+02  0.00000000000E+00 0.  1.
</event>
<event>
 5    1  0.1626333E-003  0.9118800E+02  0.7818608E-02  0.1130116E+00
         25   -1    0    0    0    0  0.00000000000E+00  0.00000000000E+00  0.99999998245E-14  0.12500000000E+03  0.12500000000E+03 0.  0.
        -11    1    3    3    0    0 -0.16787675060E+01 -0.19445204825E+02  0.30585843074E+02  0.36282613575E+02  0.51100000000E-03 0. -1.
         23    2    1    0    0    0  0.87564687636E+01 -0.86945960753E+01 -0.26748580981E+02  0.95542261957E+02  0.90887653118E+02 0.  0.
         11    1    3    3    0    0  0.10435236270E+02  0.10750608749E+02 -0.57334424055E+02  0.59259648382E+02  0.51100000000E-03 0.  1.
         22    1    1    0    0    0 -0.87564687636E+01  0.86945960753E+01  0.26748580981E+02  0.29457738043E+02  0.00000000000E+00 0.  1.
</event>
<event>
 5    1  0.1626333E-003  0.9118800E+02  0.7818608E-02  0.1130116E+00
         25   -1    0    0    0    0  0.00000000000E+00  0.00000000000E+00  0.99999998245E-14  0.12500000000E+03  0.12500000000E+03 0.  0.
        -11    1    3    3    0    0  0.50607701741E+02 -0.11595871526E+02  0.40048413040E+00  0.51920748259E+02  0.51100000000E-03 0. -1.
         23    2    1    0    0    0  0.14449200286E+02 -0.85108172303E+01  0.24374142932E+02  0.95414323694E+02  0.90711525858E+02 0.  0.
         11    1    3    3    0    0 -0.36158501456E+02  0.30850542960E+01  0.23973658801E+02  0.43493575435E+02  0.51100000000E-03 0.  1.
         22    1    1    0    0    0 -0.14449200286E+02  0.85108172303E+01 -0.24374142932E+02  0.29585676306E+02  0.00000000000E+00 0. -1.
</event>
<event>
 5    1  0.1626333E-003  0.9118800E+02  0.7818608E-02  0.1130116E+00
         25   -1    0    0    0    0  0.00000000000E+00  0.00000000000E+00  0.99999998245E-14  0.12500000000E+03  0.12500000000E+03 0.  0.
        -11    1    3    3    0    0 -0.33618536653E+02  0.14894043210E+02 -0.12487610388E+02  0.38832704558E+02  0.51100000000E-03 0. -1.
         23    2    1    0    0    0  0.12207546197E+02 -0.21599754552E+02 -0.12053940893E+02  0.97416108470E+02  0.93429262641E+02 0.  0.
         11    1    3    3    0    0  0.45826082850E+02 -0.36493797762E+02  0.43366949529E+00  0.58583403912E+02  0.51100000000E-03 0.  1.
         22    1    1    0    0    0 -0.12207546197E+02  0.21599754552E+02  0.12053940893E+02  0.27583891530E+02  0.00000000000E+00 0.  1.
</event>
<event>
 5    1  0.1626333E-003  0.9118800E+02  0.7818608E-02  0.1130116E+00
         25   -1    0    0    0    0  0.00000000000E+00  0.00000000000E+00  0.99999998245E-14  0.12500000000E+03  0.12500000000E+03 0.  0.
        -11    1    3    3    0    0 -0.44509801813E+02  0.41134437976E+02 -0.13187402247E+01  0.60620982515E+02  0.51100000000E-03 0.  1.
         23    2    1    0    0    0 -0.13656834624E+02  0.26911322570E+02 -0.32367694333E+01  0.94648639392E+02  0.89650208299E+02 0.  0.
         11    1    3    3    0    0  0.30852967189E+02 -0.14223115406E+02 -0.19180292085E+01  0.34027656877E+02  0.51100000000E-03 0. -1.
         22    1    1    0    0    0  0.13656834624E+02 -0.26911322570E+02  0.32367694333E+01  0.30351360608E+02  0.00000000000E+00 0.  1.
</event>
<event>
 5    1  0.1626333E-003  0.9118800E+02  0.7818608E-02  0.1130116E+00
         25   -1    0    0    0    0  0.00000000000E+00  0.00000000000E+00  0.99999998245E-14  0.12500000000E+03  0.12500000000E+03 0.  0.
        -11    1    3    3    0    0 -0.16795364520E+02 -0.20822697060E+02  0.21150025042E+02  0.34102676460E+02  0.51100000000E-03 0.  1.
         23    2    1    0    0    0  0.12281763659E+02  0.26898135172E+02 -0.35853062358E+01  0.95213999680E+02  0.90435059130E+02 0.  0.
         11    1    3    3    0    0  0.29077128179E+02  0.47720832231E+02 -0.24735331278E+02  0.61111323220E+02  0.51100000000E-03 0. -1.
         22    1    1    0    0    0 -0.12281763659E+02 -0.26898135172E+02  0.35853062358E+01  0.29786000320E+02  0.00000000000E+00 0. -1.
</event>
<event>
 5    1  0.1626333E-003  0.9118800E+02  0.7818608E-02  0.1130116E+00
         25   -1    0    0    0    0  0.00000000000E+00  0.00000000000E+00  0.99999998245E-14  0.12500000000E+03  0.12500000000E+03 0.  0.
        -11    1    3    3    0    0  0.18783970803E+02  0.38311350926E+01  0.48337146216E+02  0.51999950575E+02  0.51100000000E-03 0.  1.
         23    2    1    0    0    0  0.17216292813E+02 -0.20417595282E+02  0.11982238924E+02  0.95727948741E+02  0.91142674885E+02 0.  0.
         11    1    3    3    0    0 -0.15676779899E+01 -0.24248730374E+02 -0.36354907293E+02  0.43727998166E+02  0.51100000000E-03 0. -1.
         22    1    1    0    0    0 -0.17216292813E+02  0.20417595282E+02 -0.11982238924E+02  0.29272051259E+02  0.00000000000E+00 0.  1.
</event>
<event>
 5    1  0.1626333E-003  0.9118800E+02  0.7818608E-02  0.1130116E+00
         25   -1    0    0    0    0  0.00000000000E+00  0.00000000000E+00  0.99999998245E-14  0.12500000000E+03  0.12500000000E+03 0.  0.
        -11    1    3    3    0    0 -0.32810720555E+02  0.18238414347E+01 -0.19749384679E+00  0.32861965629E+02  0.51100000000E-03 0. -1.
         23    2    1    0    0    0  0.29538868737E+02  0.33933030218E+01  0.11294930870E+01  0.95245420079E+02  0.90478478213E+02 0.  0.
         11    1    3    3    0    0  0.62349589292E+02  0.15694615870E+01  0.13269869338E+01  0.62383454450E+02  0.51100000000E-03 0.  1.
         22    1    1    0    0    0 -0.29538868737E+02 -0.33933030218E+01 -0.11294930870E+01  0.29754579921E+02  0.00000000000E+00 0.  1.
</event>
<event>
 5    1  0.1626333E-003  0.9118800E+02  0.7818608E-02  0.1130116E+00
         25   -1    0    0    0    0  0.00000000000E+00  0.00000000000E+00  0.99999998245E-14  0.12500000000E+03  0.12500000000E+03 0.  0.
        -11    1    3    3    0    0 -0.29514853859E+02 -0.11715159230E+02  0.81465339294E+01  0.32783190349E+02  0.51100000000E-03 0. -1.
         23    2    1    0    0    0  0.28253210016E+02  0.99555196591E+01  0.55320488357E+01  0.94537567198E+02  0.89495205455E+02 0.  0.
         11    1    3    3    0    0  0.57768063876E+02  0.21670678889E+02 -0.26144850938E+01  0.61754376849E+02  0.51100000000E-03 0.  1.
         22    1    1    0    0    0 -0.28253210016E+02 -0.99555196591E+01 -0.55320488357E+01  0.30462432802E+02  0.00000000000E+00 0.  1.
</event>
<event>
 5    1  0.1626333E-003  0.9118800E+02  0.7818608E-02  0.1130116E+00
         25   -1    0    0    0    0  0.00000000000E+00  0.00000000000E+00  0.99999998245E-14  0.12500000000E+03  0.12500000000E+03 0.  0.
        -11    1    3    3    0    0 -0.20061945775E+02 -0.24992368476E+02  0.33373702743E+02  0.46269905828E+02  0.51100000000E-03 0.  1.
         23    2    1    0    0    0 -0.13243907474E+02  0.20692875282E+02  0.16303587581E+02  0.95514357042E+02  0.90849266703E+02 0.  0.
         11    1    3    3    0    0  0.68180383010E+01  0.45685243758E+02 -0.17070115162E+02  0.49244451214E+02  0.51100000000E-03 0. -1.
         22    1    1    0    0    0  0.13243907474E+02 -0.20692875282E+02 -0.16303587581E+02  0.29485642958E+02  0.00000000000E+00 0. -1.
</event>
<event>
 5    1  0.1626333E-003  0.9118800E+02  0.7818608E-02  0.1130116E+00
         25   -1    0    0    0    0  0.00000000000E+00  0.00000000000E+00  0.99999998245E-14  0.12500000000E+03  0.12500000000E+03 0.  0.
        -11    1    3    3    0    0  0.25728410605E+01 -0.10826394860E+02  0.55751162124E+02  0.56850878755E+02  0.51100000000E-03 0. -1.
         23    2    1    0    0    0 -0.14541920632E+02 -0.14497060825E+02  0.21778166829E+02  0.95068064235E+02  0.90233120630E+02 0.  0.
         11    1    3    3    0    0 -0.17114761692E+02 -0.36706659644E+01 -0.33972995295E+02  0.38217185479E+02  0.51100000000E-03 0.  1.
         22    1    1    0    0    0  0.14541920632E+02  0.14497060825E+02 -0.21778166829E+02  0.29931935765E+02  0.00000000000E+00 0. -1.
</event>
<event>
 5    1  0.1626333E-003  0.9118800E+02  0.7818608E-02  0.1130116E+00
         25   -1    0    0    0    0  0.00000000000E+00  0.00000000000E+00  0.99999998245E-14  0.12500000000E+03  0.12500000000E+03 0.  0.
        -11    1    3    3    0    0 -0.28923706441E+02 -0.97544857285E+01 -0.12096604462E+02  0.32833803098E+02  0.51100000000E-03 0.  1.
         23    2    1    0    0    0  0.24621766346E+02  0.18524282453E+02 -0.37418181701E+01  0.93961610519E+02  0.88687105205E+02 0.  0.
         11    1    3    3    0    0  0.53545472787E+02  0.28278768182E+02  0.83547862915E+01  0.61127807421E+02  0.51100000000E-03 0. -1.
         22    1    1    0    0    0 -0.24621766346E+02 -0.18524282453E+02  0.37418181701E+01  0.31038389481E+02  0.00000000000E+00 0. -1.
</event>
<event>
 5    1  0.1626333E-003  0.9118800E+02  0.7818608E-02  0.1130116E+00
         25   -1    0    0    0    0  0.00000000000E+00  0.00000000000E+00  0.99999998245E-14  0.12500000000E+03  0.12500000000E+03 0.  0.
        -11    1    3    3    0    0 -0.45840023346E+02  0.11813320881E+02  0.67627200167E+01  0.47818371709E+02  0.51100000000E-03 0. -1.
         23    2    1    0    0    0 -0.43430318402E+01  0.28613044370E+02 -0.80269108940E+01  0.94966692953E+02  0.90092581483E+02 0.  0.
         11    1    3    3    0    0  0.41496991506E+02  0.16799723489E+02 -0.14789630911E+02  0.47148321244E+02  0.51100000000E-03 0.  1.
         22    1    1    0    0    0  0.43430318402E+01 -0.28613044370E+02  0.80269108940E+01  0.30033307047E+02  0.00000000000E+00 0. -1.
</event>
<event>
 5    1  0.1626333E-003  0.9118800E+02  0.7818608E-02  0.1130116E+00
         25   -1    0    0    0    0  0.00000000000E+00  0.00000000000E+00  0.99999998245E-14  0.12500000000E+03  0.12500000000E+03 0.  0.
        -11    1    3    3    0    0  0.31950512975E+02 -0.11969864210E+02  0.48845222981E+00  0.34122595365E+02  0.51100000000E-03 0. -1.
         23    2    1    0    0    0 -0.22522147542E+02  0.12971257840E+02 -0.13597933953E+02  0.95667348097E+02  0.91059524621E+02 0.  0.
         11    1    3    3    0    0 -0.54472660517E+02  0.24941122050E+02 -0.14086386183E+02  0.61544752732E+02  0.51100000000E-03 0.  1.
         22    1    1    0    0    0  0.22522147542E+02 -0.12971257840E+02  0.13597933953E+02  0.29332651903E+02  0.00000000000E+00 0.  1.
</event>
<event>
 5    1  0.1626333E-003  0.9118800E+02  0.7818608E-02  0.1130116E+00
         25   -1    0    0    0    0  0.00000000000E+00  0.00000000000E+00  0.99999998245E-14  0.12500000000E+03  0.12500000000E+03 0.  0.
        -11    1    3    3    0    0 -0.32177504130E+02  0.53369491354E+01 -0.24218354355E+00  0.32617992753E+02  0.51100000000E-03 0.  1.
         23    2    1    0    0    0  0.29983633221E+02  0.18012646235E+01  0.17489931164E+01  0.94911434193E+02  0.90015879423E+02 0.  0.
         11    1    3    3    0    0  0.62161137351E+02 -0.35356845119E+01  0.19911766599E+01  0.62293441440E+02  0.51100000000E-03 0. -1.
         22    1    1    0    0    0 -0.29983633221E+02 -0.18012646235E+01 -0.17489931164E+01  0.30088565807E+02  0.00000000000E+00 0. -1.
</event>
<event>
 5    1  0.1626333E-003  0.9118800E+02  0.7818608E-02  0.1130116E+00
         25   -1    0    0    0    0  0.00000000000E+00  0.00000000000E+00  0.99999998245E-14  0.12500000000E+03  0.12500000000E+03 0.  0.
        -11    1    3    3    0    0  0.51132605529E+02  0.53907598698E+01  0.26444765255E+02  0.57818070270E+02  0.51100000000E-03 0. -1.
         23    2    1    0    0    0  0.23236133055E+02  0.19308004517E+02  0.93376608286E+01  0.93378664995E+02  0.87861631266E+02 0.  0.
         11    1    3    3    0    0 -0.27896472474E+02  0.13917244647E+02 -0.17107104427E+02  0.35560594724E+02  0.51100000000E-03 0.  1.
         22    1    1    0    0    0 -0.23236133055E+02 -0.19308004517E+02 -0.93376608286E+01  0.31621335005E+02  0.00000000000E+00 0. -1.
</event>
<event>
 5    1  0.1626333E-003  0.9118800E+02  0.7818608E-02  0.1130116E+00
         25   -1    0    0    0    0  0.00000000000E+00  0.00000000000E+00  0.99999998245E-14  0.12500000000E+03  0.12500000000E+03 0.  0.
        -11    1    3    3    0    0  0.76411547940E+01 -0.25489596217E+02  0.18700914436E+02  0.32524313412E+02  0.51100000000E-03 0. -1.
         23    2    1    0    0    0 -0.23475079246E+02 -0.12862295044E+02 -0.25497036097E+02  0.88032219040E+02  0.79894022054E+02 0.  0.
         11    1    3    3    0    0 -0.31116234040E+02  0.12627301173E+02 -0.44197950532E+02  0.55507905628E+02  0.51100000000E-03 0.  1.
         22    1    1    0    0    0  0.23475079246E+02  0.12862295044E+02  0.25497036097E+02  0.36967780960E+02  0.00000000000E+00 0.  1.
</event>
<event>
 5    1  0.1626333E-003  0.9118800E+02  0.7818608E-02  0.1130116E+00
         25   -1    0    0    0    0  0.00000000000E+00  0.00000000000E+00  0.99999998245E-14  0.12500000000E+03  0.12500000000E+03 0.  0.
        -11    1    3    3    0    0  0.31137346134E+02  0.37535547045E+02  0.65188709660E+01  0.49203122820E+02  0.51100000000E-03 0. -1.
         23    2    1    0    0    0 -0.24172435707E+01  0.21837556889E+02 -0.20418058671E+02  0.95006349385E+02  0.90147586469E+02 0.  0.
         11    1    3    3    0    0 -0.33554589705E+02 -0.15697990157E+02 -0.26936929637E+02  0.45803226565E+02  0.51100000000E-03 0.  1.
         22    1    1    0    0    0  0.24172435707E+01 -0.21837556889E+02  0.20418058671E+02  0.29993650615E+02  0.00000000000E+00 0.  1.
</event>
<event>
 5    1  0.1626333E-003  0.9118800E+02  0.7818608E-02  0.1130116E+00
         25   -1    0    0    0    0  0.00000000000E+00  0.00000000000E+00  0.99999998245E-14  0.12500000000E+03  0.12500000000E+03 0.  0.
        -11    1    3    3    0    0  0.28796146222E+02 -0.43325195847E+02 -0.21298426527E+02  0.56213108838E+02  0.51100000000E-03 0.  1.
         23    2    1    0    0    0  0.23531001932E+02 -0.18505481673E+02  0.70373113298E+01  0.94248013811E+02  0.89089861672E+02 0.  0.
         11    1    3    3    0    0 -0.52651442904E+01  0.24819714175E+02  0.28335737857E+02  0.38034904973E+02  0.51100000000E-03 0. -1.
         22    1    1    0    0    0 -0.23531001932E+02  0.18505481673E+02 -0.70373113298E+01  0.30751986189E+02  0.00000000000E+00 0.  1.
</event>
<event>
 5    1  0.1626333E-003  0.9118800E+02  0.7818608E-02  0.1130116E+00
         25   -1    0    0    0    0  0.00000000000E+00  0.00000000000E+00  0.99999998245E-14  0.12500000000E+03  0.12500000000E+03 0.  0.
        -11    1    3    3    0    0 -0.21563209803E+02  0.14540468655E+02 -0.32282396260E+02  0.41455401992E+02  0.51100000000E-03 0. -1.
         23    2    1    0    0    0  0.85864535621E+01 -0.25382973107E+02 -0.14368801405E+02  0.94594655694E+02  0.89574906774E+02 0.  0.
         11    1    3    3    0    0  0.30149663365E+02 -0.39923441762E+02  0.17913594855E+02  0.53139253703E+02  0.51100000000E-03 0.  1.
         22    1    1    0    0    0 -0.85864535621E+01  0.25382973107E+02  0.14368801405E+02  0.30405344306E+02  0.00000000000E+00 0.  1.
</event>
<event>
 5    1  0.1626333E-003  0.9118800E+02  0.7818608E-02  0.1130116E+00
         25   -1    0    0    0    0  0.00000000000E+00  0.00000000000E+00  0.99999998245E-14  0.12500000000E+03  0.12500000000E+03 0.  0.
        -11    1    3    3    0    0  0.15641738977E+02  0.21448736209E+02 -0.20691272292E+02  0.33657703911E+02  0.51100000000E-03 0. -1.
         23    2    1    0    0    0 -0.13091308612E+02 -0.25245958106E+02  0.78904561072E+01  0.95487289866E+02  0.90812017193E+02 0.  0.
         11    1    3    3    0    0 -0.28733047589E+02 -0.46694694315E+02  0.28581728399E+02  0.61829585956E+02  0.51100000000E-03 0.  1.
         22    1    1    0    0    0  0.13091308612E+02  0.25245958106E+02 -0.78904561072E+01  0.29512710134E+02  0.00000000000E+00 0.  1.
</event>
<event>
 5    1  0.1626333E-003  0.9118800E+02  0.7818608E-02  0.1130116E+00
         25   -1    0    0    0    0  0.00000000000E+00  0.00000000000E+00  0.99999998245E-14  0.12500000000E+03  0.12500000000E+03 0.  0.
        -11    1    3    3    0    0 -0.26979912837E+02 -0.61280726224E+01 -0.49196798052E+02  0.56442837540E+02  0.51100000000E-03 0.  1.
         23    2    1    0    0    0 -0.63195924117E+01 -0.21021222438E+02 -0.18801148306E+02  0.96098231565E+02  0.91649101966E+02 0.  0.
         11    1    3    3    0    0  0.20660320425E+02 -0.14893149816E+02  0.30395649746E+02  0.39655394025E+02  0.51100000000E-03 0. -1.
         22    1    1    0    0    0  0.63195924117E+01  0.21021222438E+02  0.18801148306E+02  0.28901768435E+02  0.00000000000E+00 0.  1.
</event>
<event>
 5    1  0.1626333E-003  0.9118800E+02  0.7818608E-02  0.1130116E+00
         25   -1    0    0    0    0  0.00000000000E+00  0.00000000000E+00  0.99999998245E-14  0.12500000000E+03  0.12500000000E+03 0.  0.
        -11    1    3    3    0    0  0.34369320754E+02  0.24926076495E+02 -0.13340961275E+02  0.44503266695E+02  0.51100000000E-03 0. -1.
         23    2    1    0    0    0  0.34633294451E+01 -0.12220797664E+02 -0.27374281914E+02  0.94822295371E+02  0.89892012119E+02 0.  0.
         11    1    3    3    0    0 -0.30905991308E+02 -0.37146874159E+02 -0.14033320639E+02  0.50319028677E+02  0.51100000000E-03 0.  1.
         22    1    1    0    0    0 -0.34633294451E+01  0.12220797664E+02  0.27374281914E+02  0.30177704629E+02  0.00000000000E+00 0. -1.
</event>
<event>
 5    1  0.1626333E-003  0.9118800E+02  0.7818608E-02  0.1130116E+00
         25   -1    0    0    0    0  0.00000000000E+00  0.00000000000E+00  0.99999998245E-14  0.12500000000E+03  0.12500000000E+03 0.  0.
        -11    1    3    3    0    0  0.30701809475E+02  0.11044901036E+02  0.35794078815E+02  0.48433532005E+02  0.51100000000E-03 0.  1.
         23    2    1    0    0    0 -0.72169360368E+01 -0.14584888489E+02  0.24523048353E+02  0.95569012274E+02  0.90924436037E+02 0.  0.
         11    1    3    3    0    0 -0.37918745512E+02 -0.25629789525E+02 -0.11271030463E+02  0.47135480270E+02  0.51100000000E-03 0. -1.
         22    1    1    0    0    0  0.72169360368E+01  0.14584888489E+02 -0.24523048353E+02  0.29430987726E+02  0.00000000000E+00 0.  1.
</event>
<event>
 5    1  0.1626333E-003  0.9118800E+02  0.7818608E-02  0.1130116E+00
         25   -1    0    0    0    0  0.00000000000E+00  0.00000000000E+00  0.99999998245E-14  0.12500000000E+03  0.12500000000E+03 0.  0.
        -11    1    3    3    0    0  0.15194047719E+02  0.34090417730E+02 -0.26732652427E+02  0.45909153479E+02  0.51100000000E-03 0.  1.
         23    2    1    0    0    0  0.28069040776E+02 -0.77204287542E+01 -0.28564385741E+01  0.95748755385E+02  0.91171206234E+02 0.  0.
         11    1    3    3    0    0  0.12874993056E+02 -0.41810846484E+02  0.23876213853E+02  0.49839601906E+02  0.51100000000E-03 0. -1.
         22    1    1    0    0    0 -0.28069040776E+02  0.77204287542E+01  0.28564385741E+01  0.29251244615E+02  0.00000000000E+00 0. -1.
</event>
<event>
 5    1  0.1626333E-003  0.9118800E+02  0.7818608E-02  0.1130116E+00
         25   -1    0    0    0    0  0.00000000000E+00  0.00000000000E+00  0.99999998245E-14  0.12500000000E+03  0.12500000000E+03 0.  0.
        -11    1    3    3    0    0 -0.27398224559E+02 -0.36370800919E+02 -0.30933680679E+02  0.55048982453E+02  0.51100000000E-03 0. -1.
         23    2    1    0    0    0 -0.11734943177E+02  0.13008708684E+01 -0.26377281796E+02  0.96100827844E+02  0.91652642956E+02 0.  0.
         11    1    3    3    0    0  0.15663281382E+02  0.37671671788E+02  0.45563988828E+01  0.41051845391E+02  0.51100000000E-03 0.  1.
         22    1    1    0    0    0  0.11734943177E+02 -0.13008708684E+01  0.26377281796E+02  0.28899172156E+02  0.00000000000E+00 0. -1.
</event>
<event>
 5    1  0.1626333E-003  0.9118800E+02  0.7818608E-02  0.1130116E+00
         25   -1    0    0    0    0  0.00000000000E+00  0.00000000000E+00  0.99999998245E-14  0.12500000000E+03  0.12500000000E+03 0.  0.
        -11    1    3    3    0    0 -0.41381927552E+02 -0.18989664312E+02 -0.16668028571E+01  0.45561491533E+02  0.51100000000E-03 0.  1.
         23    2    1    0    0    0 -0.14953848678E+02  0.24379391252E+02 -0.17134715366E+01  0.96348502783E+02  0.91989813000E+02 0.  0.
         11    1    3    3    0    0  0.26428078875E+02  0.43369055564E+02 -0.46668679496E-01  0.50787011250E+02  0.51100000000E-03 0. -1.
         22    1    1    0    0    0  0.14953848678E+02 -0.24379391252E+02  0.17134715366E+01  0.28651497217E+02  0.00000000000E+00 0. -1.
</event>
<event>
 5    1  0.1626333E-003  0.9118800E+02  0.7818608E-02  0.1130116E+00
         25   -1    0    0    0    0  0.00000000000E+00  0.00000000000E+00  0.99999998245E-14  0.12500000000E+03  0.12500000000E+03 0.  0.
        -11    1    3    3    0    0  0.12030396595E+02 -0.15793449108E+02  0.23692076896E+02  0.30910806927E+02  0.51100000000E-03 0.  1.
         23    2    1    0    0    0  0.19235898398E+02 -0.43901254801E+01 -0.31556911443E+02  0.87782643179E+02  0.79502583573E+02 0.  0.
         11    1    3    3    0    0  0.72055018027E+01  0.11403323628E+02 -0.55248988339E+02  0.56871836252E+02  0.51100000000E-03 0. -1.
         22    1    1    0    0    0 -0.19235898398E+02  0.43901254801E+01  0.31556911443E+02  0.37217356821E+02  0.00000000000E+00 0. -1.
</event>
<event>
 5    1  0.1626333E-003  0.9118800E+02  0.7818608E-02  0.1130116E+00
         25   -1    0    0    0    0  0.00000000000E+00  0.00000000000E+00  0.99999998245E-14  0.12500000000E+03  0.12500000000E+03 0.  0.
        -11    1    3    3    0    0 -0.18021507861E+00 -0.17966107050E+02 -0.12060450431E+02  0.21639499644E+02  0.51100000000E-03 0. -1.
         23    2    1    0    0    0 -0.12240943028E+01  0.22297245550E+02  0.34937982223E+02  0.83535217741E+02  0.72517614655E+02 0.  0.
         11    1    3    3    0    0 -0.10438792242E+01  0.40263352600E+02  0.46998432654E+02  0.61895718096E+02  0.51100000000E-03 0.  1.
         22    1    1    0    0    0  0.12240943028E+01 -0.22297245550E+02 -0.34937982223E+02  0.41464782259E+02  0.00000000000E+00 0.  1.
</event>
<event>
 5    1  0.1626333E-003  0.9118800E+02  0.7818608E-02  0.1130116E+00
         25   -1    0    0    0    0  0.00000000000E+00  0.00000000000E+00  0.99999998245E-14  0.12500000000E+03  0.12500000000E+03 0.  0.
        -11    1    3    3    0    0 -0.28824980610E+02  0.58284783573E+01 -0.46491379723E+02  0.55011808332E+02  0.51100000000E-03 0. -1.
         23    2    1    0    0    0 -0.25625915752E+02  0.17909173522E+02 -0.12320694972E+02  0.91396048164E+02  0.84994188278E+02 0.  0.
         11    1    3    3    0    0  0.31990648585E+01  0.12080695165E+02  0.34170684750E+02  0.36384239833E+02  0.51100000000E-03 0.  1.
         22    1    1    0    0    0  0.25625915752E+02 -0.17909173522E+02  0.12320694972E+02  0.33603951836E+02  0.00000000000E+00 0. -1.
</event>
<event>
 5    1  0.1626333E-003  0.9118800E+02  0.7818608E-02  0.1130116E+00
         25   -1    0    0    0    0  0.00000000000E+00  0.00000000000E+00  0.99999998245E-14  0.12500000000E+03  0.12500000000E+03 0.  0.
        -11    1    3    3    0    0  0.16626653734E+02  0.38241882059E+02  0.38332500121E+02  0.56641572397E+02  0.51100000000E-03 0. -1.
         23    2    1    0    0    0 -0.81411503879E+01  0.25630976239E+02  0.10061496798E+02  0.96286606080E+02  0.91905666419E+02 0.  0.
         11    1    3    3    0    0 -0.24767804122E+02 -0.12610905820E+02 -0.28271003323E+02  0.39645033683E+02  0.51100000000E-03 0.  1.
         22    1    1    0    0    0  0.81411503879E+01 -0.25630976239E+02 -0.10061496798E+02  0.28713393920E+02  0.00000000000E+00 0.  1.
</event>
<event>
 5    1  0.1626333E-003  0.9118800E+02  0.7818608E-02  0.1130116E+00
         25   -1    0    0    0    0  0.00000000000E+00  0.00000000000E+00  0.99999998245E-14  0.12500000000E+03  0.12500000000E+03 0.  0.
        -11    1    3    3    0    0 -0.24281286054E+02  0.32884059895E+02 -0.24421811218E+02  0.47616878426E+02  0.51100000000E-03 0.  1.
         23    2    1    0    0    0 -0.18409679536E+02  0.10316786378E+02  0.18806008547E+02  0.96733087554E+02  0.92510928481E+02 0.  0.
         11    1    3    3    0    0  0.58716065183E+01 -0.22567273517E+02  0.43227819766E+02  0.49116209128E+02  0.51100000000E-03 0. -1.
         22    1    1    0    0    0  0.18409679536E+02 -0.10316786378E+02 -0.18806008547E+02  0.28266912446E+02  0.00000000000E+00 0. -1.
</event>
<event>
 5    1  0.1626333E-003  0.9118800E+02  0.7818608E-02  0.1130116E+00
         25   -1    0    0    0    0  0.00000000000E+00  0.00000000000E+00  0.99999998245E-14  0.12500000000E+03  0.12500000000E+03 0.  0.
        -11    1    3    3    0    0  0.40653299588E+02 -0.14517833136E+02  0.36550896977E+02  0.56563471574E+02  0.51100000000E-03 0.  1.
         23    2    1    0    0    0  0.29159468875E+02 -0.38013129472E+01  0.83696216557E+00  0.95581891447E+02  0.90942140186E+02 0.  0.
         11    1    3    3    0    0 -0.11493830713E+02  0.10716520189E+02 -0.35713934811E+02  0.39018419873E+02  0.51100000000E-03 0. -1.
         22    1    1    0    0    0 -0.29159468875E+02  0.38013129472E+01 -0.83696216557E+00  0.29418108553E+02  0.00000000000E+00 0.  1.
</event>
<event>
 5    1  0.1626333E-003  0.9118800E+02  0.7818608E-02  0.1130116E+00
         25   -1    0    0    0    0  0.00000000000E+00  0.00000000000E+00  0.99999998245E-14  0.12500000000E+03  0.12500000000E+03 0.  0.
        -11    1    3    3    0    0 -0.13349460164E+02 -0.43783717440E+02 -0.40721447871E+02  0.61265474098E+02  0.51100000000E-03 0. -1.
         23    2    1    0    0    0 -0.33998495461E+01 -0.14790739926E+02 -0.25098310967E+02  0.95669978216E+02  0.91063134988E+02 0.  0.
         11    1    3    3    0    0  0.99496106180E+01  0.28992977514E+02  0.15623136904E+02  0.34404504118E+02  0.51100000000E-03 0.  1.
         22    1    1    0    0    0  0.33998495461E+01  0.14790739926E+02  0.25098310967E+02  0.29330021784E+02  0.00000000000E+00 0. -1.
</event>
<event>
 5    1  0.1626333E-003  0.9118800E+02  0.7818608E-02  0.1130116E+00
         25   -1    0    0    0    0  0.00000000000E+00  0.00000000000E+00  0.99999998245E-14  0.12500000000E+03  0.12500000000E+03 0.  0.
        -11    1    3    3    0    0 -0.39090926793E+02  0.30311065152E+02  0.16687267376E+02  0.52204656123E+02  0.51100000000E-03 0.  1.
         23    2    1    0    0    0 -0.20784262341E+02  0.53217681860E+01 -0.16746431323E+02  0.97783281981E+02  0.93919223247E+02 0.  0.
         11    1    3    3    0    0  0.18306664452E+02 -0.24989296966E+02 -0.33433698699E+02  0.45578625858E+02  0.51100000000E-03 0. -1.
         22    1    1    0    0    0  0.20784262341E+02 -0.53217681860E+01  0.16746431323E+02  0.27216718019E+02  0.00000000000E+00 0.  1.
</event>
<event>
 5    1  0.1626333E-003  0.9118800E+02  0.7818608E-02  0.1130116E+00
         25   -1    0    0    0    0  0.00000000000E+00  0.00000000000E+00  0.99999998245E-14  0.12500000000E+03  0.12500000000E+03 0.  0.
        -11    1    3    3    0    0 -0.23998090957E+02 -0.26173823474E+02 -0.21243265478E+02  0.41379387783E+02  0.51100000000E-03 0.  1.
         23    2    1    0    0    0  0.10381020978E+02 -0.20436224718E+02  0.19435192925E+02  0.94947851968E+02  0.90066436546E+02 0.  0.
         11    1    3    3    0    0  0.34379111935E+02  0.57375987557E+01  0.40678458403E+02  0.53568464186E+02  0.51100000000E-03 0. -1.
         22    1    1    0    0    0 -0.10381020978E+02  0.20436224718E+02 -0.19435192925E+02  0.30052148032E+02  0.00000000000E+00 0. -1.
</event>
<event>
 5    1  0.1626333E-003  0.9118800E+02  0.7818608E-02  0.1130116E+00
         25   -1    0    0    0    0  0.00000000000E+00  0.00000000000E+00  0.99999998245E-14  0.12500000000E+03  0.12500000000E+03 0.  0.
        -11    1    3    3    0    0  0.15533566523E+02  0.22858351515E+02 -0.50374442356E+02  0.57457639752E+02  0.51100000000E-03 0. -1.
         23    2    1    0    0    0  0.22287407976E+01  0.27615348617E+02 -0.20402884639E+02  0.90592842803E+02  0.83804598327E+02 0.  0.
         11    1    3    3    0    0 -0.13304825726E+02  0.47569971022E+01  0.29971557717E+02  0.33135203052E+02  0.51100000000E-03 0.  1.
         22    1    1    0    0    0 -0.22287407976E+01 -0.27615348617E+02  0.20402884639E+02  0.34407157197E+02  0.00000000000E+00 0. -1.
</event>
<event>
 5    1  0.1626333E-003  0.9118800E+02  0.7818608E-02  0.1130116E+00
         25   -1    0    0    0    0  0.00000000000E+00  0.00000000000E+00  0.99999998245E-14  0.12500000000E+03  0.12500000000E+03 0.  0.
        -11    1    3    3    0    0  0.16036232914E+02  0.35818738697E+02  0.33248346053E+02  0.51435350912E+02  0.51100000000E-03 0. -1.
         23    2    1    0    0    0 -0.13022219042E+02 -0.41597855820E+00  0.22327328643E+02  0.99149258593E+02  0.95719980402E+02 0.  0.
         11    1    3    3    0    0 -0.29058451956E+02 -0.36234717255E+02 -0.10921017410E+02  0.47713907681E+02  0.51100000000E-03 0.  1.
         22    1    1    0    0    0  0.13022219042E+02  0.41597855820E+00 -0.22327328643E+02  0.25850741407E+02  0.00000000000E+00 0.  1.
</event>
<event>
 5    1  0.1626333E-003  0.9118800E+02  0.7818608E-02  0.1130116E+00
         25   -1    0    0    0    0  0.00000000000E+00  0.00000000000E+00  0.99999998245E-14  0.12500000000E+03  0.12500000000E+03 0.  0.
        -11    1    3    3    0    0  0.26994573708E+02  0.22208780478E+02 -0.64876462881E+01  0.35553150277E+02  0.51100000000E-03 0.  1.
         23    2    1    0    0    0 -0.19351892697E+02 -0.18989960685E+02 -0.37990410190E+01  0.97622142698E+02  0.93704512562E+02 0.  0.
         11    1    3    3    0    0 -0.46346466405E+02 -0.41198741162E+02  0.26886052692E+01  0.62068992421E+02  0.51100000000E-03 0. -1.
         22    1    1    0    0    0  0.19351892697E+02  0.18989960685E+02  0.37990410190E+01  0.27377857302E+02  0.00000000000E+00 0. -1.
</event>
<event>
 5    1  0.1626333E-003  0.9118800E+02  0.7818608E-02  0.1130116E+00
         25   -1    0    0    0    0  0.00000000000E+00  0.00000000000E+00  0.99999998245E-14  0.12500000000E+03  0.12500000000E+03 0.  0.
        -11    1    3    3    0    0 -0.17015275466E+02 -0.56148622422E+01  0.31639411560E+02  0.36360674379E+02  0.51100000000E-03 0. -1.
         23    2    1    0    0    0 -0.13220235454E-01  0.36820670871E+02  0.10605070879E+02  0.86682516960E+02  0.77753644545E+02 0.  0.
         11    1    3    3    0    0  0.17002055231E+02  0.42435533113E+02 -0.21034340681E+02  0.50321842581E+02  0.51100000000E-03 0.  1.
         22    1    1    0    0    0  0.13220235454E-01 -0.36820670871E+02 -0.10605070879E+02  0.38317483040E+02  0.00000000000E+00 0.  1.
</event>
<event>
 5    1  0.1626333E-003  0.9118800E+02  0.7818608E-02  0.1130116E+00
         25   -1    0    0    0    0  0.00000000000E+00  0.00000000000E+00  0.99999998245E-14  0.12500000000E+03  0.12500000000E+03 0.  0.
        -11    1    3    3    0    0  0.58625766759E+01  0.49458290762E+02  0.17225326768E+02  0.52699186075E+02  0.51100000000E-03 0. -1.
         23    2    1    0    0    0 -0.21962079167E+02  0.23490616320E+02  0.76733687009E+01  0.91939108245E+02  0.85789143026E+02 0.  0.
         11    1    3    3    0    0 -0.27824655843E+02 -0.25967674442E+02 -0.95519580672E+01  0.39239922170E+02  0.51100000000E-03 0.  1.
         22    1    1    0    0    0  0.21962079167E+02 -0.23490616320E+02 -0.76733687009E+01  0.33060891755E+02  0.00000000000E+00 0. -1.
</event>
<event>
 5    1  0.1626333E-003  0.9118800E+02  0.7818608E-02  0.1130116E+00
         25   -1    0    0    0    0  0.00000000000E+00  0.00000000000E+00  0.99999998245E-14  0.12500000000E+03  0.12500000000E+03 0.  0.
        -11    1    3    3    0    0 -0.22060511029E+02 -0.43135243958E+01 -0.40928265657E+02  0.46694706011E+02  0.51100000000E-03 0.  1.
         23    2    1    0    0    0  0.21761241543E+02 -0.63548748671E+00 -0.20163204776E+02  0.95326606115E+02  0.90590570860E+02 0.  0.
         11    1    3    3    0    0  0.43821752572E+02  0.36780369091E+01  0.20765060881E+02  0.48631900103E+02  0.51100000000E-03 0. -1.
         22    1    1    0    0    0 -0.21761241543E+02  0.63548748671E+00  0.20163204776E+02  0.29673393885E+02  0.00000000000E+00 0. -1.
</event>
<event>
 5    1  0.1626333E-003  0.9118800E+02  0.7818608E-02  0.1130116E+00
         25   -1    0    0    0    0  0.00000000000E+00  0.00000000000E+00  0.99999998245E-14  0.12500000000E+03  0.12500000000E+03 0.  0.
        -11    1    3    3    0    0 -0.40610901412E+02  0.20303936064E+02 -0.10641416472E+02  0.46634052772E+02  0.51100000000E-03 0. -1.
         23    2    1    0    0    0  0.74121075707E+01  0.23893755330E+02 -0.16328587236E+02  0.95125702627E+02  0.90312931835E+02 0.  0.
         11    1    3    3    0    0  0.48023008982E+02  0.35898192664E+01 -0.56871707648E+01  0.48491649855E+02  0.51100000000E-03 0.  1.
         22    1    1    0    0    0 -0.74121075707E+01 -0.23893755330E+02  0.16328587236E+02  0.29874297373E+02  0.00000000000E+00 0.  1.
</event>
<event>
 5    1  0.1626333E-003  0.9118800E+02  0.7818608E-02  0.1130116E+00
         25   -1    0    0    0    0  0.00000000000E+00  0.00000000000E+00  0.99999998245E-14  0.12500000000E+03  0.12500000000E+03 0.  0.
        -11    1    3    3    0    0 -0.23963531579E+02  0.28808347248E+02 -0.21068134614E+02  0.42988812652E+02  0.51100000000E-03 0.  1.
         23    2    1    0    0    0 -0.82515655560E+01  0.70192072064E+01  0.25804594035E+02  0.97013669814E+02  0.92889275234E+02 0.  0.
         11    1    3    3    0    0  0.15711966023E+02 -0.21789140041E+02  0.46872728650E+02  0.54024857162E+02  0.51100000000E-03 0. -1.
         22    1    1    0    0    0  0.82515655560E+01 -0.70192072064E+01 -0.25804594035E+02  0.27986330186E+02  0.00000000000E+00 0. -1.
</event>
<event>
 5    1  0.1626333E-003  0.9118800E+02  0.7818608E-02  0.1130116E+00
         25   -1    0    0    0    0  0.00000000000E+00  0.00000000000E+00  0.99999998245E-14  0.12500000000E+03  0.12500000000E+03 0.  0.
        -11    1    3    3    0    0  0.36174821156E+01  0.19724745673E+02 -0.41076873096E+02  0.45710625377E+02  0.51100000000E-03 0.  1.
         23    2    1    0    0    0 -0.21317928148E+02 -0.14268947854E+02 -0.14935957882E+02  0.95316001428E+02  0.90575936964E+02 0.  0.
         11    1    3    3    0    0 -0.24935410264E+02 -0.33993693527E+02  0.26140915214E+02  0.49605376051E+02  0.51100000000E-03 0. -1.
         22    1    1    0    0    0  0.21317928148E+02  0.14268947854E+02  0.14935957882E+02  0.29683998572E+02  0.00000000000E+00 0.  1.
</event>
<event>
 5    1  0.1626333E-003  0.9118800E+02  0.7818608E-02  0.1130116E+00
         25   -1    0    0    0    0  0.00000000000E+00  0.00000000000E+00  0.99999998245E-14  0.12500000000E+03  0.12500000000E+03 0.  0.
        -11    1    3    3    0    0  0.30183209764E+01  0.38721568172E+02 -0.26283828478E+02  0.46896798856E+02  0.51100000000E-03 0. -1.
         23    2    1    0    0    0  0.26863585661E+02 -0.13566036152E+01 -0.88670961369E+01  0.96678312165E+02  0.92436886800E+02 0.  0.
         11    1    3    3    0    0  0.23845264684E+02 -0.40078171787E+02  0.17416732341E+02  0.49781513309E+02  0.51100000000E-03 0.  1.
         22    1    1    0    0    0 -0.26863585661E+02  0.13566036152E+01  0.88670961369E+01  0.28321687835E+02  0.00000000000E+00 0. -1.
</event>
<event>
 5    1  0.1626333E-003  0.9118800E+02  0.7818608E-02  0.1130116E+00
         25   -1    0    0    0    0  0.00000000000E+00  0.00000000000E+00  0.99999998245E-14  0.12500000000E+03  0.12500000000E+03 0.  0.
        -11    1    3    3    0    0  0.41022127750E+02  0.19346192712E+02  0.25993097354E+02  0.52275532020E+02  0.51100000000E-03 0.  1.
         23    2    1    0    0    0  0.27882956058E+02  0.99241516772E+00 -0.10503128106E+02  0.95187924822E+02  0.90399011087E+02 0.  0.
         11    1    3    3    0    0 -0.13139171692E+02 -0.18353777544E+02 -0.36496225460E+02  0.42912392802E+02  0.51100000000E-03 0. -1.
         22    1    1    0    0    0 -0.27882956058E+02 -0.99241516772E+00  0.10503128106E+02  0.29812075178E+02  0.00000000000E+00 0.  1.
</event>
<event>
 5    1  0.1626333E-003  0.9118800E+02  0.7818608E-02  0.1130116E+00
         25   -1    0    0    0    0  0.00000000000E+00  0.00000000000E+00  0.99999998245E-14  0.12500000000E+03  0.12500000000E+03 0.  0.
        -11    1    3    3    0    0 -0.25073620040E+02 -0.41471469646E+02 -0.33067767847E+02  0.58668956759E+02  0.51100000000E-03 0.  1.
         23    2    1    0    0    0 -0.21513878271E+02 -0.19915059095E+02 -0.34385674683E+01  0.95482542738E+02  0.90805482678E+02 0.  0.
         11    1    3    3    0    0  0.35597417695E+01  0.21556410551E+02  0.29629200379E+02  0.36813585979E+02  0.51100000000E-03 0. -1.
         22    1    1    0    0    0  0.21513878271E+02  0.19915059095E+02  0.34385674683E+01  0.29517457262E+02  0.00000000000E+00 0.  1.
</event>
<event>
 5    1  0.1626333E-003  0.9118800E+02  0.7818608E-02  0.1130116E+00
         25   -1    0    0    0    0  0.00000000000E+00  0.00000000000E+00  0.99999998245E-14  0.12500000000E+03  0.12500000000E+03 0.  0.
        -11    1    3    3    0    0  0.44093557863E+02  0.37857557700E+02 -0.13951458476E+02  0.59766878067E+02  0.51100000000E-03 0.  1.
         23    2    1    0    0    0  0.13197805819E+02  0.26358290229E+02 -0.10778564411E+00  0.95521988534E+02  0.90859766308E+02 0.  0.
         11    1    3    3    0    0 -0.30895752044E+02 -0.11499267471E+02  0.13843672832E+02  0.35755110467E+02  0.51100000000E-03 0. -1.
         22    1    1    0    0    0 -0.13197805819E+02 -0.26358290229E+02  0.10778564411E+00  0.29478011466E+02  0.00000000000E+00 0.  1.
</event>
<event>
 5    1  0.1626333E-003  0.9118800E+02  0.7818608E-02  0.1130116E+00
         25   -1    0    0    0    0  0.00000000000E+00  0.00000000000E+00  0.99999998245E-14  0.12500000000E+03  0.12500000000E+03 0.  0.
        -11    1    3    3    0    0 -0.42814357926E+02  0.10733385293E+02  0.26269946759E+02  0.51365211062E+02  0.51100000000E-03 0.  1.
         23    2    1    0    0    0 -0.53782773953E+01  0.64616273916E+00  0.33721603533E+02  0.90846084575E+02  0.84181477438E+02 0.  0.
         11    1    3    3    0    0  0.37436080531E+02 -0.10087222554E+02  0.74516567744E+01  0.39480873513E+02  0.51100000000E-03 0. -1.
         22    1    1    0    0    0  0.53782773953E+01 -0.64616273916E+00 -0.33721603533E+02  0.34153915425E+02  0.00000000000E+00 0.  1.
</event>
<event>
 5    1  0.1626333E-003  0.9118800E+02  0.7818608E-02  0.1130116E+00
         25   -1    0    0    0    0  0.00000000000E+00  0.00000000000E+00  0.99999998245E-14  0.12500000000E+03  0.12500000000E+03 0.  0.
        -11    1    3    3    0    0  0.43037654125E+02  0.70318905145E+01  0.12791545820E+02  0.45445690682E+02  0.51100000000E-03 0. -1.
         23    2    1    0    0    0 -0.45013513110E+01  0.22955665021E+02  0.17477390407E+02  0.95799248373E+02  0.91240408225E+02 0.  0.
         11    1    3    3    0    0 -0.47539005436E+02  0.15923774506E+02  0.46858445874E+01  0.50353557691E+02  0.51100000000E-03 0.  1.
         22    1    1    0    0    0  0.45013513110E+01 -0.22955665021E+02 -0.17477390407E+02  0.29200751627E+02  0.00000000000E+00 0.  1.
</event>
<event>
 5    1  0.1626333E-003  0.9118800E+02  0.7818608E-02  0.1130116E+00
         25   -1    0    0    0    0  0.00000000000E+00  0.00000000000E+00  0.99999998245E-14  0.12500000000E+03  0.12500000000E+03 0.  0.
        -11    1    3    3    0    0  0.19324264906E+02 -0.41156814720E+02 -0.40250040837E+02  0.60723771290E+02  0.51100000000E-03 0.  1.
         23    2    1    0    0    0  0.98702472455E+01 -0.11734213577E+02 -0.26135413608E+02  0.94698623902E+02  0.89719875031E+02 0.  0.
         11    1    3    3    0    0 -0.94540176605E+01  0.29422601143E+02  0.14114627229E+02  0.33974852612E+02  0.51100000000E-03 0. -1.
         22    1    1    0    0    0 -0.98702472455E+01  0.11734213577E+02  0.26135413608E+02  0.30301376098E+02  0.00000000000E+00 0.  1.
</event>
<event>
 5    1  0.1626333E-003  0.9118800E+02  0.7818608E-02  0.1130116E+00
         25   -1    0    0    0    0  0.00000000000E+00  0.00000000000E+00  0.99999998245E-14  0.12500000000E+03  0.12500000000E+03 0.  0.
        -11    1    3    3    0    0  0.28345534470E+02 -0.12113755627E+02 -0.13364911696E+02  0.33598114005E+02  0.51100000000E-03 0. -1.
         23    2    1    0    0    0 -0.25368258249E+01  0.12276358529E+02  0.30197962337E+02  0.92303495702E+02  0.86318444874E+02 0.  0.
         11    1    3    3    0    0 -0.30882360295E+02  0.24390114156E+02  0.43562874033E+02  0.58705381697E+02  0.51100000000E-03 0.  1.
         22    1    1    0    0    0  0.25368258249E+01 -0.12276358529E+02 -0.30197962337E+02  0.32696504298E+02  0.00000000000E+00 0.  1.
</event>
<event>
 5    1  0.1626333E-003  0.9118800E+02  0.7818608E-02  0.1130116E+00
         25   -1    0    0    0    0  0.00000000000E+00  0.00000000000E+00  0.99999998245E-14  0.12500000000E+03  0.12500000000E+03 0.  0.
        -11    1    3    3    0    0 -0.32381595214E+02  0.35127586855E+02  0.35540576056E+02  0.59545340821E+02  0.51100000000E-03 0. -1.
         23    2    1    0    0    0 -0.18963805714E+02  0.60936413174E+01  0.24594862067E+02  0.93350898405E+02  0.87822119089E+02 0.  0.
         11    1    3    3    0    0  0.13417789500E+02 -0.29033945538E+02 -0.10945713989E+02  0.33805557584E+02  0.51100000000E-03 0.  1.
         22    1    1    0    0    0  0.18963805714E+02 -0.60936413174E+01 -0.24594862067E+02  0.31649101595E+02  0.00000000000E+00 0. -1.
</event>
<event>
 5    1  0.1626333E-003  0.9118800E+02  0.7818608E-02  0.1130116E+00
         25   -1    0    0    0    0  0.00000000000E+00  0.00000000000E+00  0.99999998245E-14  0.12500000000E+03  0.12500000000E+03 0.  0.
        -11    1    3    3    0    0 -0.12085154211E+02  0.34036311371E+02 -0.34356271333E+02  0.49848518776E+02  0.51100000000E-03 0. -1.
         23    2    1    0    0    0 -0.27967551694E+02  0.12891283849E+02  0.12235860137E+01  0.94180098803E+02  0.88994520623E+02 0.  0.
         11    1    3    3    0    0 -0.15882397483E+02 -0.21145027522E+02  0.35579857346E+02  0.44331580027E+02  0.51100000000E-03 0.  1.
         22    1    1    0    0    0  0.27967551694E+02 -0.12891283849E+02 -0.12235860137E+01  0.30819901197E+02  0.00000000000E+00 0. -1.
</event>
<event>
 5    1  0.1626333E-003  0.9118800E+02  0.7818608E-02  0.1130116E+00
         25   -1    0    0    0    0  0.00000000000E+00  0.00000000000E+00  0.99999998245E-14  0.12500000000E+03  0.12500000000E+03 0.  0.
        -11    1    3    3    0    0 -0.27969317529E+02  0.40720419209E+02 -0.21941058288E+02  0.54054096077E+02  0.51100000000E-03 0. -1.
         23    2    1    0    0    0 -0.28714254227E+02  0.71872875851E+01  0.21061381260E+01  0.95325072596E+02  0.90588454832E+02 0.  0.
         11    1    3    3    0    0 -0.74493669756E+00 -0.33533131624E+02  0.24047196414E+02  0.41270976519E+02  0.51100000000E-03 0.  1.
         22    1    1    0    0    0  0.28714254227E+02 -0.71872875851E+01 -0.21061381260E+01  0.29674927404E+02  0.00000000000E+00 0. -1.
</event>
<event>
 5    1  0.1626333E-003  0.9118800E+02  0.7818608E-02  0.1130116E+00
         25   -1    0    0    0    0  0.00000000000E+00  0.00000000000E+00  0.99999998245E-14  0.12500000000E+03  0.12500000000E+03 0.  0.
        -11    1    3    3    0    0 -0.13987130714E+02  0.31448883623E+02  0.40894461965E+02  0.53451184518E+02  0.51100000000E-03 0.  1.
         23    2    1    0    0    0  0.13989381181E+02  0.23481614957E+02  0.99735433709E+01  0.95904285639E+02  0.91384196717E+02 0.  0.
         11    1    3    3    0    0  0.27976511895E+02 -0.79672686662E+01 -0.30920918594E+02  0.42453101121E+02  0.51100000000E-03 0. -1.
         22    1    1    0    0    0 -0.13989381181E+02 -0.23481614957E+02 -0.99735433709E+01  0.29095714361E+02  0.00000000000E+00 0. -1.
</event>
<event>
 5    1  0.1626333E-003  0.9118800E+02  0.7818608E-02  0.1130116E+00
         25   -1    0    0    0    0  0.00000000000E+00  0.00000000000E+00  0.99999998245E-14  0.12500000000E+03  0.12500000000E+03 0.  0.
        -11    1    3    3    0    0 -0.35474813584E+02 -0.44363343078E+02 -0.28066508220E+01  0.56872189134E+02  0.51100000000E-03 0. -1.
         23    2    1    0    0    0 -0.10688050888E+02 -0.21458399025E+02  0.16635039999E+02  0.95820865738E+02  0.91270019363E+02 0.  0.
         11    1    3    3    0    0  0.24786762696E+02  0.22904944052E+02  0.19441690821E+02  0.38948676604E+02  0.51100000000E-03 0.  1.
         22    1    1    0    0    0  0.10688050888E+02  0.21458399025E+02 -0.16635039999E+02  0.29179134262E+02  0.00000000000E+00 0. -1.
</event>
<event>
 5    1  0.1626333E-003  0.9118800E+02  0.7818608E-02  0.1130116E+00
         25   -1    0    0    0    0  0.00000000000E+00  0.00000000000E+00  0.99999998245E-14  0.12500000000E+03  0.12500000000E+03 0.  0.
        -11    1    3    3    0    0 -0.20965877293E+02 -0.10715763138E+02 -0.34595723560E+02  0.41848054665E+02  0.51100000000E-03 0.  1.
         23    2    1    0    0    0  0.11805664156E+02  0.24497247755E+02 -0.88825428396E+01  0.96392511103E+02  0.92049594109E+02 0.  0.
         11    1    3    3    0    0  0.32771541449E+02  0.35213010892E+02  0.25713180721E+02  0.54544456438E+02  0.51100000000E-03 0. -1.
         22    1    1    0    0    0 -0.11805664156E+02 -0.24497247755E+02  0.88825428396E+01  0.28607488897E+02  0.00000000000E+00 0. -1.
</event>
<event>
 5    1  0.1626333E-003  0.9118800E+02  0.7818608E-02  0.1130116E+00
         25   -1    0    0    0    0  0.00000000000E+00  0.00000000000E+00  0.99999998245E-14  0.12500000000E+03  0.12500000000E+03 0.  0.
        -11    1    3    3    0    0  0.10666146686E+02  0.21334142879E+02  0.36098702469E+02  0.43266946480E+02  0.51100000000E-03 0.  1.
         23    2    1    0    0    0  0.24462144435E+02 -0.13673734648E+02 -0.21137685729E+01  0.96895986992E+02  0.92730775625E+02 0.  0.
         11    1    3    3    0    0  0.13795997750E+02 -0.35007877527E+02 -0.38212471042E+02  0.53629040512E+02  0.51100000000E-03 0. -1.
         22    1    1    0    0    0 -0.24462144435E+02  0.13673734648E+02  0.21137685729E+01  0.28104013008E+02  0.00000000000E+00 0. -1.
</event>
<event>
 5    1  0.1626333E-003  0.9118800E+02  0.7818608E-02  0.1130116E+00
         25   -1    0    0    0    0  0.00000000000E+00  0.00000000000E+00  0.99999998245E-14  0.12500000000E+03  0.12500000000E+03 0.  0.
        -11    1    3    3    0    0  0.37293269022E+02  0.50959241452E+01 -0.43587792912E+02  0.57590381562E+02  0.51100000000E-03 0. -1.
         23    2    1    0    0    0  0.29132415219E+02  0.39067998276E+01 -0.74224727336E+01  0.94684099834E+02  0.89699637449E+02 0.  0.
         11    1    3    3    0    0 -0.81608538027E+01 -0.11891243176E+01  0.36165320178E+02  0.37093718272E+02  0.51100000000E-03 0.  1.
         22    1    1    0    0    0 -0.29132415219E+02 -0.39067998276E+01  0.74224727336E+01  0.30315900166E+02  0.00000000000E+00 0. -1.
</event>
<event>
 5    1  0.1626333E-003  0.9118800E+02  0.7818608E-02  0.1130116E+00
         25   -1    0    0    0    0  0.00000000000E+00  0.00000000000E+00  0.99999998245E-14  0.12500000000E+03  0.12500000000E+03 0.  0.
        -11    1    3    3    0    0 -0.34673737310E+01  0.10829804162E+02 -0.56914761160E+02  0.58039619028E+02  0.51100000000E-03 0. -1.
         23    2    1    0    0    0 -0.71262099862E+01  0.20218359781E+02 -0.22401679247E+02  0.93993546251E+02  0.88732105592E+02 0.  0.
         11    1    3    3    0    0 -0.36588362552E+01  0.93885556187E+01  0.34513081913E+02  0.35953927223E+02  0.51100000000E-03 0.  1.
         22    1    1    0    0    0  0.71262099862E+01 -0.20218359781E+02  0.22401679247E+02  0.31006453749E+02  0.00000000000E+00 0. -1.
</event>
<event>
 5    1  0.1626333E-003  0.9118800E+02  0.7818608E-02  0.1130116E+00
         25   -1    0    0    0    0  0.00000000000E+00  0.00000000000E+00  0.99999998245E-14  0.12500000000E+03  0.12500000000E+03 0.  0.
        -11    1    3    3    0    0  0.24314965924E+02  0.25531152906E+02  0.39718604522E+02  0.53109555468E+02  0.51100000000E-03 0.  1.
         23    2    1    0    0    0 -0.12003093276E+02  0.13970326805E+02  0.24957668730E+02  0.93981787484E+02  0.88715539061E+02 0.  0.
         11    1    3    3    0    0 -0.36318059201E+02 -0.11560826101E+02 -0.14760935791E+02  0.40872232016E+02  0.51100000000E-03 0. -1.
         22    1    1    0    0    0  0.12003093276E+02 -0.13970326805E+02 -0.24957668730E+02  0.31018212516E+02  0.00000000000E+00 0.  1.
</event>
<event>
 5    1  0.1626333E-003  0.9118800E+02  0.7818608E-02  0.1130116E+00
         25   -1    0    0    0    0  0.00000000000E+00  0.00000000000E+00  0.99999998245E-14  0.12500000000E+03  0.12500000000E+03 0.  0.
        -11    1    3    3    0    0  0.11981848573E+02  0.45511833324E+02  0.40036620004E+02  0.61788531374E+02  0.51100000000E-03 0.  1.
         23    2    1    0    0    0  0.35457617458E+01  0.25162334649E+02  0.13673454147E+02  0.96143824584E+02  0.91711265098E+02 0.  0.
         11    1    3    3    0    0 -0.84360868273E+01 -0.20349498675E+02 -0.26363165857E+02  0.34355293210E+02  0.51100000000E-03 0. -1.
         22    1    1    0    0    0 -0.35457617458E+01 -0.25162334649E+02 -0.13673454147E+02  0.28856175416E+02  0.00000000000E+00 0.  1.
</event>
<event>
 5    1  0.1626333E-003  0.9118800E+02  0.7818608E-02  0.1130116E+00
         25   -1    0    0    0    0  0.00000000000E+00  0.00000000000E+00  0.99999998245E-14  0.12500000000E+03  0.12500000000E+03 0.  0.
        -11    1    3    3    0    0  0.95615113300E+01 -0.66521737279E+01 -0.35431902262E+02  0.37297367365E+02  0.51100000000E-03 0. -1.
         23    2    1    0    0    0  0.16700861937E+02 -0.24147334105E+01  0.23087695763E+02  0.96402947311E+02  0.92063765009E+02 0.  0.
         11    1    3    3    0    0  0.71393506074E+01  0.42374403174E+01  0.58519598024E+02  0.59105579946E+02  0.51100000000E-03 0.  1.
         22    1    1    0    0    0 -0.16700861937E+02  0.24147334105E+01 -0.23087695763E+02  0.28597052689E+02  0.00000000000E+00 0.  1.
</event>
<event>
 5    1  0.1626333E-003  0.9118800E+02  0.7818608E-02  0.1130116E+00
         25   -1    0    0    0    0  0.00000000000E+00  0.00000000000E+00  0.99999998245E-14  0.12500000000E+03  0.12500000000E+03 0.  0.
        -11    1    3    3    0    0 -0.16848032076E+02  0.27722519375E+02 -0.40199178780E+02  0.51656250736E+02  0.51100000000E-03 0.  1.
         23    2    1    0    0    0  0.63912323099E+01 -0.85665268780E+01 -0.25772023074E+02  0.97099634294E+02  0.93004884675E+02 0.  0.
         11    1    3    3    0    0  0.23239264386E+02 -0.36289046253E+02  0.14427155705E+02  0.45443383557E+02  0.51100000000E-03 0. -1.
         22    1    1    0    0    0 -0.63912323099E+01  0.85665268780E+01  0.25772023074E+02  0.27900365706E+02  0.00000000000E+00 0. -1.
</event>
<event>
 5    1  0.1626333E-003  0.9118800E+02  0.7818608E-02  0.1130116E+00
         25   -1    0    0    0    0  0.00000000000E+00  0.00000000000E+00  0.99999998245E-14  0.12500000000E+03  0.12500000000E+03 0.  0.
        -11    1    3    3    0    0 -0.23231561926E+02 -0.52726552762E+02  0.83674713630E+01  0.58222069810E+02  0.51100000000E-03 0.  1.
         23    2    1    0    0    0 -0.52647188211E+01 -0.31833118092E+02 -0.98603987664E+01  0.91261414737E+02  0.84795953230E+02 0.  0.
         11    1    3    3    0    0  0.17966843105E+02  0.20893434670E+02 -0.18227870129E+02  0.33039344927E+02  0.51100000000E-03 0. -1.
         22    1    1    0    0    0  0.52647188211E+01  0.31833118092E+02  0.98603987664E+01  0.33738585263E+02  0.00000000000E+00 0.  1.
</event>
<event>
 5    1  0.1626333E-003  0.9118800E+02  0.7818608E-02  0.1130116E+00
         25   -1    0    0    0    0  0.00000000000E+00  0.00000000000E+00  0.99999998245E-14  0.12500000000E+03  0.12500000000E+03 0.  0.
        -11    1    3    3    0    0 -0.77401418386E+01 -0.33501300588E+02  0.19571007351E+02  0.39563509270E+02  0.51100000000E-03 0.  1.
         23    2    1    0    0    0  0.15426428081E+02 -0.28268337154E+02 -0.20985291546E+02  0.86562309772E+02  0.77560153706E+02 0.  0.
         11    1    3    3    0    0  0.23166569919E+02  0.52329634332E+01 -0.40556298897E+02  0.46998800502E+02  0.51100000000E-03 0. -1.
         22    1    1    0    0    0 -0.15426428081E+02  0.28268337154E+02  0.20985291546E+02  0.38437690228E+02  0.00000000000E+00 0.  1.
</event>
<event>
 5    1  0.1626333E-003  0.9118800E+02  0.7818608E-02  0.1130116E+00
         25   -1    0    0    0    0  0.00000000000E+00  0.00000000000E+00  0.99999998245E-14  0.12500000000E+03  0.12500000000E+03 0.  0.
        -11    1    3    3    0    0 -0.22092257768E+02 -0.11775554241E+02 -0.28326972116E+02  0.37804085500E+02  0.51100000000E-03 0.  1.
         23    2    1    0    0    0  0.16037359185E+02  0.24810222383E+02 -0.83108112950E+01  0.94311018122E+02  0.89178217803E+02 0.  0.
         11    1    3    3    0    0  0.38129616953E+02  0.36585776623E+02  0.20016160821E+02  0.56506932622E+02  0.51100000000E-03 0. -1.
         22    1    1    0    0    0 -0.16037359185E+02 -0.24810222383E+02  0.83108112950E+01  0.30688981878E+02  0.00000000000E+00 0. -1.
</event>
<event>
 5    1  0.1626333E-003  0.9118800E+02  0.7818608E-02  0.1130116E+00
         25   -1    0    0    0    0  0.00000000000E+00  0.00000000000E+00  0.99999998245E-14  0.12500000000E+03  0.12500000000E+03 0.  0.
        -11    1    3    3    0    0 -0.16130011015E+02 -0.37520153512E+02 -0.93224613532E+01  0.41890899500E+02  0.51100000000E-03 0. -1.
         23    2    1    0    0    0  0.26090244772E+02 -0.62784092877E+01  0.76643979493E+01  0.97091895597E+02  0.92994483166E+02 0.  0.
         11    1    3    3    0    0  0.42220255787E+02  0.31241744225E+02  0.16986859302E+02  0.55200996098E+02  0.51100000000E-03 0.  1.
         22    1    1    0    0    0 -0.26090244772E+02  0.62784092877E+01 -0.76643979493E+01  0.27908104403E+02  0.00000000000E+00 0. -1.
</event>
<event>
 5    1  0.1626333E-003  0.9118800E+02  0.7818608E-02  0.1130116E+00
         25   -1    0    0    0    0  0.00000000000E+00  0.00000000000E+00  0.99999998245E-14  0.12500000000E+03  0.12500000000E+03 0.  0.
        -11    1    3    3    0    0  0.40646713570E+02 -0.35719420702E+02 -0.96430412451E+01  0.54963811585E+02  0.51100000000E-03 0.  1.
         23    2    1    0    0    0  0.31282714008E+01 -0.23907413561E+02 -0.17668467444E+02  0.95108107337E+02  0.90288575326E+02 0.  0.
         11    1    3    3    0    0 -0.37518442169E+02  0.11812007141E+02 -0.80254261993E+01  0.40144295752E+02  0.51100000000E-03 0. -1.
         22    1    1    0    0    0 -0.31282714008E+01  0.23907413561E+02  0.17668467444E+02  0.29891892663E+02  0.00000000000E+00 0.  1.
</event>
<event>
 5    1  0.1626333E-003  0.9118800E+02  0.7818608E-02  0.1130116E+00
         25   -1    0    0    0    0  0.00000000000E+00  0.00000000000E+00  0.99999998245E-14  0.12500000000E+03  0.12500000000E+03 0.  0.
        -11    1    3    3    0    0 -0.17872090236E+01  0.85546654118E+01  0.37316112599E+02  0.38325822576E+02  0.51100000000E-03 0. -1.
         23    2    1    0    0    0  0.27667536894E+02  0.10476097265E+01 -0.10834656250E+02  0.95268201198E+02  0.90509945860E+02 0.  0.
         11    1    3    3    0    0  0.29454745918E+02 -0.75070556853E+01 -0.48150768849E+02  0.56942378622E+02  0.51100000000E-03 0.  1.
         22    1    1    0    0    0 -0.27667536894E+02 -0.10476097265E+01  0.10834656250E+02  0.29731798802E+02  0.00000000000E+00 0.  1.
</event>
<event>
 5    1  0.1626333E-003  0.9118800E+02  0.7818608E-02  0.1130116E+00
         25   -1    0    0    0    0  0.00000000000E+00  0.00000000000E+00  0.99999998245E-14  0.12500000000E+03  0.12500000000E+03 0.  0.
        -11    1    3    3    0    0 -0.42055746256E+01 -0.51644113730E+02 -0.15895598705E+02  0.54198444621E+02  0.51100000000E-03 0.  1.
         23    2    1    0    0    0 -0.93895108972E+01 -0.26222960256E+02  0.14036699249E+02  0.93809689240E+02  0.88472720711E+02 0.  0.
         11    1    3    3    0    0 -0.51839362716E+01  0.25421153474E+02  0.29932297954E+02  0.39611244619E+02  0.51100000000E-03 0. -1.
         22    1    1    0    0    0  0.93895108972E+01  0.26222960256E+02 -0.14036699249E+02  0.31190310760E+02  0.00000000000E+00 0.  1.
</event>
<event>
 5    1  0.1626333E-003  0.9118800E+02  0.7818608E-02  0.1130116E+00
         25   -1    0    0    0    0  0.00000000000E+00  0.00000000000E+00  0.99999998245E-14  0.12500000000E+03  0.12500000000E+03 0.  0.
        -11    1    3    3    0    0  0.19131366542E+02  0.47231488538E+02 -0.99696652361E+01  0.51925108767E+02  0.51100000000E-03 0. -1.
         23    2    1    0    0    0 -0.15088680867E+02  0.19445634259E+02 -0.14817234590E+02  0.96271069931E+02  0.91884533425E+02 0.  0.
         11    1    3    3    0    0 -0.34220047409E+02 -0.27785854279E+02 -0.48475693534E+01  0.44345961164E+02  0.51100000000E-03 0.  1.
         22    1    1    0    0    0  0.15088680867E+02 -0.19445634259E+02  0.14817234590E+02  0.28728930069E+02  0.00000000000E+00 0. -1.
</event>
<event>
 5    1  0.1626333E-003  0.9118800E+02  0.7818608E-02  0.1130116E+00
         25   -1    0    0    0    0  0.00000000000E+00  0.00000000000E+00  0.99999998245E-14  0.12500000000E+03  0.12500000000E+03 0.  0.
        -11    1    3    3    0    0 -0.52797807078E+02 -0.13321869220E+02 -0.15697508318E+02  0.56670030875E+02  0.51100000000E-03 0.  1.
         23    2    1    0    0    0 -0.21504085533E+02  0.10835332639E+02 -0.15793095251E+02  0.96203264324E+02  0.91792244122E+02 0.  0.
         11    1    3    3    0    0  0.31293721545E+02  0.24157201859E+02 -0.95586933100E-01  0.39533233449E+02  0.51100000000E-03 0. -1.
         22    1    1    0    0    0  0.21504085533E+02 -0.10835332639E+02  0.15793095251E+02  0.28796735676E+02  0.00000000000E+00 0.  1.
</event>
<event>
 5    1  0.1626333E-003  0.9118800E+02  0.7818608E-02  0.1130116E+00
         25   -1    0    0    0    0  0.00000000000E+00  0.00000000000E+00  0.99999998245E-14  0.12500000000E+03  0.12500000000E+03 0.  0.
        -11    1    3    3    0    0 -0.20848543148E+02 -0.33303333286E+02 -0.16674550664E+02  0.42682717808E+02  0.51100000000E-03 0. -1.
         23    2    1    0    0    0 -0.15181234535E+02  0.18445415339E+02 -0.18518553868E+02  0.94773520443E+02  0.89824162177E+02 0.  0.
         11    1    3    3    0    0  0.56673086129E+01  0.51748748625E+02 -0.18440032038E+01  0.52090802635E+02  0.51100000000E-03 0.  1.
         22    1    1    0    0    0  0.15181234535E+02 -0.18445415339E+02  0.18518553868E+02  0.30226479557E+02  0.00000000000E+00 0.  1.
</event>
<event>
 5    1  0.1626333E-003  0.9118800E+02  0.7818608E-02  0.1130116E+00
         25   -1    0    0    0    0  0.00000000000E+00  0.00000000000E+00  0.99999998245E-14  0.12500000000E+03  0.12500000000E+03 0.  0.
        -11    1    3    3    0    0 -0.32086280073E+02  0.18880667564E+02  0.19062010410E+02  0.41825461357E+02  0.51100000000E-03 0.  1.
         23    2    1    0    0    0 -0.23063077105E+01  0.14818514238E+02 -0.25405900076E+02  0.95498013996E+02  0.90826777434E+02 0.  0.
         11    1    3    3    0    0  0.29779972362E+02 -0.40621533264E+01 -0.44467910487E+02  0.53672552639E+02  0.51100000000E-03 0. -1.
         22    1    1    0    0    0  0.23063077105E+01 -0.14818514238E+02  0.25405900076E+02  0.29501986004E+02  0.00000000000E+00 0. -1.
</event>
<event>
 5    1  0.1626333E-003  0.9118800E+02  0.7818608E-02  0.1130116E+00
         25   -1    0    0    0    0  0.00000000000E+00  0.00000000000E+00  0.99999998245E-14  0.12500000000E+03  0.12500000000E+03 0.  0.
        -11    1    3    3    0    0  0.54633076928E+02 -0.14600909943E+02 -0.24232182541E+02  0.61523640471E+02  0.51100000000E-03 0. -1.
         23    2    1    0    0    0  0.25133461264E+02  0.29329473399E+00 -0.14541168125E+02  0.95961706880E+02  0.91462706717E+02 0.  0.
         11    1    3    3    0    0 -0.29499615665E+02  0.14894204677E+02  0.96910144162E+01  0.34438066409E+02  0.51100000000E-03 0.  1.
         22    1    1    0    0    0 -0.25133461264E+02 -0.29329473399E+00  0.14541168125E+02  0.29038293120E+02  0.00000000000E+00 0. -1.
</event>
<event>
 5    1  0.1626333E-003  0.9118800E+02  0.7818608E-02  0.1130116E+00
         25   -1    0    0    0    0  0.00000000000E+00  0.00000000000E+00  0.99999998245E-14  0.12500000000E+03  0.12500000000E+03 0.  0.
        -11    1    3    3    0    0 -0.35163872310E+01  0.32093982140E+02 -0.11672586197E+02  0.34331296765E+02  0.51100000000E-03 0. -1.
         23    2    1    0    0    0  0.19561948223E+02 -0.17408647254E+02  0.14685536124E+02  0.94976745867E+02  0.90106528435E+02 0.  0.
         11    1    3    3    0    0  0.23078335454E+02 -0.49502629394E+02  0.26358122321E+02  0.60645449102E+02  0.51100000000E-03 0.  1.
         22    1    1    0    0    0 -0.19561948223E+02  0.17408647254E+02 -0.14685536124E+02  0.30023254133E+02  0.00000000000E+00 0.  1.
</event>
<event>
 5    1  0.1626333E-003  0.9118800E+02  0.7818608E-02  0.1130116E+00
         25   -1    0    0    0    0  0.00000000000E+00  0.00000000000E+00  0.99999998245E-14  0.12500000000E+03  0.12500000000E+03 0.  0.
        -11    1    3    3    0    0  0.30677101542E+02 -0.23653990142E+02  0.18006837680E+02  0.42718169579E+02  0.51100000000E-03 0.  1.
         23    2    1    0    0    0  0.97604744373E+01  0.24654487208E+02 -0.38542208372E+00  0.98480966252E+02  0.94843247324E+02 0.  0.
         11    1    3    3    0    0 -0.20916627105E+02  0.48308477350E+02 -0.18392259763E+02  0.55762796673E+02  0.51100000000E-03 0. -1.
         22    1    1    0    0    0 -0.97604744373E+01 -0.24654487208E+02  0.38542208372E+00  0.26519033748E+02  0.00000000000E+00 0. -1.
</event>
<event>
 5    1  0.1626333E-003  0.9118800E+02  0.7818608E-02  0.1130116E+00
         25   -1    0    0    0    0  0.00000000000E+00  0.00000000000E+00  0.99999998245E-14  0.12500000000E+03  0.12500000000E+03 0.  0.
        -11    1    3    3    0    0  0.33333651808E+02 -0.88741765185E+01  0.23277748742E+02  0.41614143491E+02  0.51100000000E-03 0.  1.
         23    2    1    0    0    0 -0.14505826799E+02  0.14860377124E+02  0.21589019704E+02  0.95044439729E+02  0.90200387650E+02 0.  0.
         11    1    3    3    0    0 -0.47839478608E+02  0.23734553642E+02 -0.16887290383E+01  0.53430296238E+02  0.51100000000E-03 0. -1.
         22    1    1    0    0    0  0.14505826799E+02 -0.14860377124E+02 -0.21589019704E+02  0.29955560271E+02  0.00000000000E+00 0. -1.
</event>
<event>
 5    1  0.1626333E-003  0.9118800E+02  0.7818608E-02  0.1130116E+00
         25   -1    0    0    0    0  0.00000000000E+00  0.00000000000E+00  0.99999998245E-14  0.12500000000E+03  0.12500000000E+03 0.  0.
        -11    1    3    3    0    0  0.23034564127E+02  0.15128354618E+02  0.26741710526E+02  0.38400225782E+02  0.51100000000E-03 0.  1.
         23    2    1    0    0    0  0.25006619236E+01 -0.29183284387E+02 -0.29593352675E+01  0.95560654510E+02  0.90912945324E+02 0.  0.
         11    1    3    3    0    0 -0.20533902203E+02 -0.44311639004E+02 -0.29701045794E+02  0.57160428729E+02  0.51100000000E-03 0. -1.
         22    1    1    0    0    0 -0.25006619236E+01  0.29183284387E+02  0.29593352675E+01  0.29439345490E+02  0.00000000000E+00 0. -1.
</event>
<event>
 5    1  0.1626333E-003  0.9118800E+02  0.7818608E-02  0.1130116E+00
         25   -1    0    0    0    0  0.00000000000E+00  0.00000000000E+00  0.99999998245E-14  0.12500000000E+03  0.12500000000E+03 0.  0.
        -11    1    3    3    0    0 -0.25450796909E+02  0.40291597951E+02 -0.29990360094E+02  0.56307882464E+02  0.51100000000E-03 0. -1.
         23    2    1    0    0    0  0.24508570398E+01  0.32101160147E+02 -0.11278696839E+02  0.90886949926E+02  0.84242136021E+02 0.  0.
         11    1    3    3    0    0  0.27901653949E+02 -0.81904378039E+01  0.18711663255E+02  0.34579067462E+02  0.51100000000E-03 0.  1.
         22    1    1    0    0    0 -0.24508570398E+01 -0.32101160147E+02  0.11278696839E+02  0.34113050074E+02  0.00000000000E+00 0. -1.
</event>
<event>
 5    1  0.1626333E-003  0.9118800E+02  0.7818608E-02  0.1130116E+00
         25   -1    0    0    0    0  0.00000000000E+00  0.00000000000E+00  0.99999998245E-14  0.12500000000E+03  0.12500000000E+03 0.  0.
        -11    1    3    3    0    0  0.26915042355E+02  0.50336192854E+00 -0.21924702464E+02  0.34718373473E+02  0.51100000000E-03 0. -1.
         23    2    1    0    0    0 -0.25408207870E+02 -0.99538587841E+01  0.88466333282E+01  0.96313430789E+02  0.91942143206E+02 0.  0.
         11    1    3    3    0    0 -0.52323250225E+02 -0.10457220713E+02  0.30771335792E+02  0.61595057316E+02  0.51100000000E-03 0.  1.
         22    1    1    0    0    0  0.25408207870E+02  0.99538587841E+01 -0.88466333282E+01  0.28686569211E+02  0.00000000000E+00 0.  1.
</event>
<event>
 5    1  0.1626333E-003  0.9118800E+02  0.7818608E-02  0.1130116E+00
         25   -1    0    0    0    0  0.00000000000E+00  0.00000000000E+00  0.99999998245E-14  0.12500000000E+03  0.12500000000E+03 0.  0.
        -11    1    3    3    0    0  0.11551213399E+02 -0.39551402291E+02  0.37015658767E+01  0.41369621033E+02  0.51100000000E-03 0.  1.
         23    2    1    0    0    0 -0.12042857147E+02 -0.10056559247E+01 -0.26601468824E+02  0.95782198993E+02  0.91217047465E+02 0.  0.
         11    1    3    3    0    0 -0.23594070547E+02  0.38545746366E+02 -0.30303034701E+02  0.54412577960E+02  0.51100000000E-03 0. -1.
         22    1    1    0    0    0  0.12042857147E+02  0.10056559247E+01  0.26601468824E+02  0.29217801007E+02  0.00000000000E+00 0. -1.
</event>
<event>
 5    1  0.1626333E-003  0.9118800E+02  0.7818608E-02  0.1130116E+00
         25   -1    0    0    0    0  0.00000000000E+00  0.00000000000E+00  0.99999998245E-14  0.12500000000E+03  0.12500000000E+03 0.  0.
        -11    1    3    3    0    0  0.17133171054E+02 -0.44263007575E+02  0.15177127396E+01  0.47487501958E+02  0.51100000000E-03 0.  1.
         23    2    1    0    0    0 -0.23158943473E+02 -0.18254575749E+02 -0.80089017895E+00  0.95500718252E+02  0.90830499079E+02 0.  0.
         11    1    3    3    0    0 -0.40292114528E+02  0.26008431825E+02 -0.23186029185E+01  0.48013216294E+02  0.51100000000E-03 0. -1.
         22    1    1    0    0    0  0.23158943473E+02  0.18254575749E+02  0.80089017895E+00  0.29499281748E+02  0.00000000000E+00 0. -1.
</event>
<event>
 5    1  0.1626333E-003  0.9118800E+02  0.7818608E-02  0.1130116E+00
         25   -1    0    0    0    0  0.00000000000E+00  0.00000000000E+00  0.99999998245E-14  0.12500000000E+03  0.12500000000E+03 0.  0.
        -11    1    3    3    0    0  0.54618093406E+01 -0.28906969533E+02  0.50291930968E+02  0.58264247783E+02  0.51100000000E-03 0. -1.
         23    2    1    0    0    0 -0.12045331147E+02 -0.19277759029E+02  0.19087464485E+02  0.95317458059E+02  0.90577947177E+02 0.  0.
         11    1    3    3    0    0 -0.17507140488E+02  0.96292105044E+01 -0.31204466484E+02  0.37053210276E+02  0.51100000000E-03 0.  1.
         22    1    1    0    0    0  0.12045331147E+02  0.19277759029E+02 -0.19087464485E+02  0.29682541941E+02  0.00000000000E+00 0. -1.
</event>
<event>
 5    1  0.1626333E-003  0.9118800E+02  0.7818608E-02  0.1130116E+00
         25   -1    0    0    0    0  0.00000000000E+00  0.00000000000E+00  0.99999998245E-14  0.12500000000E+03  0.12500000000E+03 0.  0.
        -11    1    3    3    0    0 -0.44003111536E+02  0.38006248469E+02  0.96276946651E+01  0.58935908005E+02  0.51100000000E-03 0.  1.
         23    2    1    0    0    0 -0.30438715066E+02  0.13733954799E+02 -0.63543719058E+01  0.91007134108E+02  0.84420279121E+02 0.  0.
         11    1    3    3    0    0  0.13564396470E+02 -0.24272293670E+02 -0.15982066571E+02  0.32071226103E+02  0.51100000000E-03 0. -1.
         22    1    1    0    0    0  0.30438715066E+02 -0.13733954799E+02  0.63543719058E+01  0.33992865892E+02  0.00000000000E+00 0.  1.
</event>
<event>
 5    1  0.1626333E-003  0.9118800E+02  0.7818608E-02  0.1130116E+00
         25   -1    0    0    0    0  0.00000000000E+00  0.00000000000E+00  0.99999998245E-14  0.12500000000E+03  0.12500000000E+03 0.  0.
        -11    1    3    3    0    0 -0.11303336091E+02 -0.38532780677E+02 -0.15756518336E+02  0.43137089191E+02  0.51100000000E-03 0. -1.
         23    2    1    0    0    0 -0.13017088920E+02 -0.58819654743E+01  0.25495938021E+02  0.95775267711E+02  0.91207548634E+02 0.  0.
         11    1    3    3    0    0 -0.17137528289E+01  0.32650815203E+02  0.41252456357E+02  0.52638178520E+02  0.51100000000E-03 0.  1.
         22    1    1    0    0    0  0.13017088920E+02  0.58819654743E+01 -0.25495938021E+02  0.29224732289E+02  0.00000000000E+00 0.  1.
</event>
<event>
 5    1  0.1626333E-003  0.9118800E+02  0.7818608E-02  0.1130116E+00
         25   -1    0    0    0    0  0.00000000000E+00  0.00000000000E+00  0.99999998245E-14  0.12500000000E+03  0.12500000000E+03 0.  0.
        -11    1    3    3    0    0  0.27575009932E+02 -0.53981188006E+00 -0.23889051642E+02  0.36487797388E+02  0.51100000000E-03 0. -1.
         23    2    1    0    0    0 -0.23112382996E+02 -0.15512227739E+02  0.49980129751E+01  0.96719413180E+02  0.92492449935E+02 0.  0.
         11    1    3    3    0    0 -0.50687392928E+02 -0.14972415859E+02  0.28887064617E+02  0.60231615792E+02  0.51100000000E-03 0.  1.
         22    1    1    0    0    0  0.23112382996E+02  0.15512227739E+02 -0.49980129751E+01  0.28280586820E+02  0.00000000000E+00 0.  1.
</event>
<event>
 5    1  0.1626333E-003  0.9118800E+02  0.7818608E-02  0.1130116E+00
         25   -1    0    0    0    0  0.00000000000E+00  0.00000000000E+00  0.99999998245E-14  0.12500000000E+03  0.12500000000E+03 0.  0.
        -11    1    3    3    0    0 -0.73813189067E+01  0.19443617392E+02  0.30490189030E+02  0.36907854902E+02  0.51100000000E-03 0. -1.
         23    2    1    0    0    0  0.25467381673E+02 -0.58417505144E+01 -0.11980479584E+02  0.96255514104E+02  0.91863368793E+02 0.  0.
         11    1    3    3    0    0  0.32848700580E+02 -0.25285367906E+02 -0.42470668615E+02  0.59347659202E+02  0.51100000000E-03 0.  1.
         22    1    1    0    0    0 -0.25467381673E+02  0.58417505144E+01  0.11980479584E+02  0.28744485896E+02  0.00000000000E+00 0.  1.
</event>
<event>
 5    1  0.1626333E-003  0.9118800E+02  0.7818608E-02  0.1130116E+00
         25   -1    0    0    0    0  0.00000000000E+00  0.00000000000E+00  0.99999998245E-14  0.12500000000E+03  0.12500000000E+03 0.  0.
        -11    1    3    3    0    0 -0.13999030003E+02 -0.34974492637E+02  0.11422490895E+02  0.39365737320E+02  0.51100000000E-03 0. -1.
         23    2    1    0    0    0  0.16608283803E+02 -0.25667299867E+01 -0.23581235828E+02  0.96043172189E+02  0.91573975818E+02 0.  0.
         11    1    3    3    0    0  0.30607313806E+02  0.32407762651E+02 -0.35003726724E+02  0.56677434868E+02  0.51100000000E-03 0.  1.
         22    1    1    0    0    0 -0.16608283803E+02  0.25667299867E+01  0.23581235828E+02  0.28956827811E+02  0.00000000000E+00 0.  1.
</event>
<event>
 5    1  0.1626333E-003  0.9118800E+02  0.7818608E-02  0.1130116E+00
         25   -1    0    0    0    0  0.00000000000E+00  0.00000000000E+00  0.99999998245E-14  0.12500000000E+03  0.12500000000E+03 0.  0.
        -11    1    3    3    0    0 -0.11498102539E+02 -0.51961540117E+02 -0.82157533852E+01  0.53848924012E+02  0.51100000000E-03 0.  1.
         23    2    1    0    0    0  0.13334614861E+02 -0.23829689974E+02  0.10453259650E+02  0.95760699135E+02  0.91187580206E+02 0.  0.
         11    1    3    3    0    0  0.24832717401E+02  0.28131850144E+02  0.18669013035E+02  0.41911775123E+02  0.51100000000E-03 0. -1.
         22    1    1    0    0    0 -0.13334614861E+02  0.23829689974E+02 -0.10453259650E+02  0.29239300865E+02  0.00000000000E+00 0.  1.
</event>
<event>
 5    1  0.1626333E-003  0.9118800E+02  0.7818608E-02  0.1130116E+00
         25   -1    0    0    0    0  0.00000000000E+00  0.00000000000E+00  0.99999998245E-14  0.12500000000E+03  0.12500000000E+03 0.  0.
        -11    1    3    3    0    0  0.75218066838E+01  0.16017473478E+02  0.56271669054E+02  0.58988454555E+02  0.51100000000E-03 0. -1.
         23    2    1    0    0    0 -0.94636391913E+01 -0.13199449974E+00  0.26383785220E+02  0.96969980167E+02  0.92830463975E+02 0.  0.
         11    1    3    3    0    0 -0.16985445875E+02 -0.16149467977E+02 -0.29887883834E+02  0.37981525612E+02  0.51100000000E-03 0.  1.
         22    1    1    0    0    0  0.94636391913E+01  0.13199449974E+00 -0.26383785220E+02  0.28030019833E+02  0.00000000000E+00 0. -1.
</event>
<event>
 5    1  0.1626333E-003  0.9118800E+02  0.7818608E-02  0.1130116E+00
         25   -1    0    0    0    0  0.00000000000E+00  0.00000000000E+00  0.99999998245E-14  0.12500000000E+03  0.12500000000E+03 0.  0.
        -11    1    3    3    0    0 -0.33267112062E+02 -0.11388772992E+02  0.31815533626E+02  0.47419754063E+02  0.51100000000E-03 0. -1.
         23    2    1    0    0    0  0.68926527249E+01  0.12362816720E+02  0.27240909612E+02  0.94301220622E+02  0.89164483711E+02 0.  0.
         11    1    3    3    0    0  0.40159764787E+02  0.23751589711E+02 -0.45746240142E+01  0.46881466559E+02  0.51100000000E-03 0.  1.
         22    1    1    0    0    0 -0.68926527249E+01 -0.12362816720E+02 -0.27240909612E+02  0.30698779378E+02  0.00000000000E+00 0.  1.
</event>
<event>
 5    1  0.1626333E-003  0.9118800E+02  0.7818608E-02  0.1130116E+00
         25   -1    0    0    0    0  0.00000000000E+00  0.00000000000E+00  0.99999998245E-14  0.12500000000E+03  0.12500000000E+03 0.  0.
        -11    1    3    3    0    0  0.22982867782E+02 -0.42141754376E+02 -0.35912818374E+02  0.59948896547E+02  0.51100000000E-03 0.  1.
         23    2    1    0    0    0  0.19560352441E+02 -0.19374287262E+02 -0.76042688505E+01  0.96437869490E+02  0.92111168554E+02 0.  0.
         11    1    3    3    0    0 -0.34225153406E+01  0.22767467114E+02  0.28308549524E+02  0.36488972943E+02  0.51100000000E-03 0. -1.
         22    1    1    0    0    0 -0.19560352441E+02  0.19374287262E+02  0.76042688505E+01  0.28562130510E+02  0.00000000000E+00 0.  1.
</event>
<event>
 5    1  0.1626333E-003  0.9118800E+02  0.7818608E-02  0.1130116E+00
         25   -1    0    0    0    0  0.00000000000E+00  0.00000000000E+00  0.99999998245E-14  0.12500000000E+03  0.12500000000E+03 0.  0.
        -11    1    3    3    0    0  0.23746562975E+02  0.57248457676E+02  0.68378175716E+01  0.62354157109E+02  0.51100000000E-03 0.  1.
         23    2    1    0    0    0  0.12033431608E+02  0.22107701738E+02  0.14229604476E+01  0.99789312408E+02  0.96552204025E+02 0.  0.
         11    1    3    3    0    0 -0.11713131367E+02 -0.35140755938E+02 -0.54148571240E+01  0.37435155299E+02  0.51100000000E-03 0. -1.
         22    1    1    0    0    0 -0.12033431608E+02 -0.22107701738E+02 -0.14229604476E+01  0.25210687592E+02  0.00000000000E+00 0.  1.
</event>
<event>
 5    1  0.1626333E-003  0.9118800E+02  0.7818608E-02  0.1130116E+00
         25   -1    0    0    0    0  0.00000000000E+00  0.00000000000E+00  0.99999998245E-14  0.12500000000E+03  0.12500000000E+03 0.  0.
        -11    1    3    3    0    0  0.47459056885E+02 -0.30063578733E+01 -0.18675614104E+02  0.51089909283E+02  0.51100000000E-03 0. -1.
         23    2    1    0    0    0  0.12563551632E+02 -0.22225869652E+02 -0.22311501461E+02  0.91093729063E+02  0.84548401911E+02 0.  0.
         11    1    3    3    0    0 -0.34895505253E+02 -0.19219511779E+02 -0.36358873571E+01  0.40003819780E+02  0.51100000000E-03 0.  1.
         22    1    1    0    0    0 -0.12563551632E+02  0.22225869652E+02  0.22311501461E+02  0.33906270937E+02  0.00000000000E+00 0.  1.
</event>
<event>
 5    1  0.1626333E-003  0.9118800E+02  0.7818608E-02  0.1130116E+00
         25   -1    0    0    0    0  0.00000000000E+00  0.00000000000E+00  0.99999998245E-14  0.12500000000E+03  0.12500000000E+03 0.  0.
        -11    1    3    3    0    0  0.17906292630E+02 -0.25552772525E+02  0.18823803115E+02  0.36440568923E+02  0.51100000000E-03 0. -1.
         23    2    1    0    0    0  0.12209930677E+02  0.27401238862E+02 -0.46493173160E+01  0.94643345872E+02  0.89642827198E+02 0.  0.
         11    1    3    3    0    0 -0.56963619525E+01  0.52954011388E+02 -0.23473120431E+02  0.58202776949E+02  0.51100000000E-03 0.  1.
         22    1    1    0    0    0 -0.12209930677E+02 -0.27401238862E+02  0.46493173160E+01  0.30356654128E+02  0.00000000000E+00 0.  1.
</event>
<event>
 5    1  0.1626333E-003  0.9118800E+02  0.7818608E-02  0.1130116E+00
         25   -1    0    0    0    0  0.00000000000E+00  0.00000000000E+00  0.99999998245E-14  0.12500000000E+03  0.12500000000E+03 0.  0.
        -11    1    3    3    0    0 -0.19014863594E+02  0.49493598668E+02 -0.80655034528E+01  0.53630529485E+02  0.51100000000E-03 0.  1.
         23    2    1    0    0    0  0.25978702468E+01  0.18422780970E+02 -0.23946164830E+02  0.94675643477E+02  0.89687852406E+02 0.  0.
         11    1    3    3    0    0  0.21612733841E+02 -0.31070817698E+02 -0.15880661377E+02  0.41045113991E+02  0.51100000000E-03 0. -1.
         22    1    1    0    0    0 -0.25978702468E+01 -0.18422780970E+02  0.23946164830E+02  0.30324356523E+02  0.00000000000E+00 0. -1.
</event>
<event>
 5    1  0.1626333E-003  0.9118800E+02  0.7818608E-02  0.1130116E+00
         25   -1    0    0    0    0  0.00000000000E+00  0.00000000000E+00  0.99999998245E-14  0.12500000000E+03  0.12500000000E+03 0.  0.
        -11    1    3    3    0    0 -0.12810474879E+02  0.57666006013E+01  0.31715003881E+02  0.34687222728E+02  0.51100000000E-03 0.  1.
         23    2    1    0    0    0 -0.13595407686E+02  0.53615533393E+01 -0.27472950691E+02  0.93881767659E+02  0.88574499235E+02 0.  0.
         11    1    3    3    0    0 -0.78493280678E+00 -0.40504726197E+00 -0.59187954573E+02  0.59194544931E+02  0.51100000000E-03 0. -1.
         22    1    1    0    0    0  0.13595407686E+02 -0.53615533393E+01  0.27472950691E+02  0.31118232341E+02  0.00000000000E+00 0. -1.
</event>
<event>
 5    1  0.1626333E-003  0.9118800E+02  0.7818608E-02  0.1130116E+00
         25   -1    0    0    0    0  0.00000000000E+00  0.00000000000E+00  0.99999998245E-14  0.12500000000E+03  0.12500000000E+03 0.  0.
        -11    1    3    3    0    0  0.47760490965E+02 -0.26323234794E+02 -0.26880354525E+02  0.60799100708E+02  0.51100000000E-03 0.  1.
         23    2    1    0    0    0  0.18007075821E+02 -0.15860262113E+02 -0.20936375726E+01  0.10091294928E+03  0.97996108703E+02 0.  0.
         11    1    3    3    0    0 -0.29753415144E+02  0.10462972682E+02  0.24786716953E+02  0.40113848576E+02  0.51100000000E-03 0. -1.
         22    1    1    0    0    0 -0.18007075821E+02  0.15860262113E+02  0.20936375726E+01  0.24087050716E+02  0.00000000000E+00 0.  1.
</event>
<event>
 5    1  0.1626333E-003  0.9118800E+02  0.7818608E-02  0.1130116E+00
         25   -1    0    0    0    0  0.00000000000E+00  0.00000000000E+00  0.99999998245E-14  0.12500000000E+03  0.12500000000E+03 0.  0.
        -11    1    3    3    0    0  0.17346062604E+02  0.56456253888E+02 -0.96850912955E+01  0.59849774307E+02  0.51100000000E-03 0. -1.
         23    2    1    0    0    0  0.17786199882E+02  0.20488216532E+02 -0.10700079635E+02  0.95834821668E+02  0.91289130881E+02 0.  0.
         11    1    3    3    0    0  0.44013727832E+00 -0.35968037356E+02 -0.10149883395E+01  0.35985047362E+02  0.51100000000E-03 0.  1.
         22    1    1    0    0    0 -0.17786199882E+02 -0.20488216532E+02  0.10700079635E+02  0.29165178332E+02  0.00000000000E+00 0. -1.
</event>
<event>
 5    1  0.1626333E-003  0.9118800E+02  0.7818608E-02  0.1130116E+00
         25   -1    0    0    0    0  0.00000000000E+00  0.00000000000E+00  0.99999998245E-14  0.12500000000E+03  0.12500000000E+03 0.  0.
        -11    1    3    3    0    0  0.57522022707E+01  0.28948954486E+02 -0.39298587796E+02  0.49147825993E+02  0.51100000000E-03 0. -1.
         23    2    1    0    0    0 -0.16423670865E+02  0.23774795442E+02  0.17087814128E+01  0.96053535675E+02  0.91588121057E+02 0.  0.
         11    1    3    3    0    0 -0.22175873136E+02 -0.51741590440E+01  0.41007369209E+02  0.46905709682E+02  0.51100000000E-03 0.  1.
         22    1    1    0    0    0  0.16423670865E+02 -0.23774795442E+02 -0.17087814128E+01  0.28946464325E+02  0.00000000000E+00 0.  1.
</event>
<event>
 5    1  0.1626333E-003  0.9118800E+02  0.7818608E-02  0.1130116E+00
         25   -1    0    0    0    0  0.00000000000E+00  0.00000000000E+00  0.99999998245E-14  0.12500000000E+03  0.12500000000E+03 0.  0.
        -11    1    3    3    0    0  0.43515761695E+01  0.35989310778E+02 -0.42196124046E+00  0.36253892991E+02  0.51100000000E-03 0. -1.
         23    2    1    0    0    0 -0.15809292505E+02 -0.18866092906E+02 -0.14585799842E+02  0.96388660499E+02  0.92044364981E+02 0.  0.
         11    1    3    3    0    0 -0.20160868674E+02 -0.54855403684E+02 -0.14163838602E+02  0.60134767508E+02  0.51100000000E-03 0.  1.
         22    1    1    0    0    0  0.15809292505E+02  0.18866092906E+02  0.14585799842E+02  0.28611339501E+02  0.00000000000E+00 0.  1.
</event>
<event>
 5    1  0.1626333E-003  0.9118800E+02  0.7818608E-02  0.1130116E+00
         25   -1    0    0    0    0  0.00000000000E+00  0.00000000000E+00  0.99999998245E-14  0.12500000000E+03  0.12500000000E+03 0.  0.
        -11    1    3    3    0    0 -0.92854844501E+01 -0.90223429598E+01 -0.32156463429E+02  0.34664982828E+02  0.51100000000E-03 0.  1.
         23    2    1    0    0    0  0.14750439934E+02  0.14605964689E+02  0.19614361348E+02  0.96440713352E+02  0.92115027753E+02 0.  0.
         11    1    3    3    0    0  0.24035924384E+02  0.23628307649E+02  0.51770824777E+02  0.61775730524E+02  0.51100000000E-03 0. -1.
         22    1    1    0    0    0 -0.14750439934E+02 -0.14605964689E+02 -0.19614361348E+02  0.28559286648E+02  0.00000000000E+00 0. -1.
</event>
<event>
 5    1  0.1626333E-003  0.9118800E+02  0.7818608E-02  0.1130116E+00
         25   -1    0    0    0    0  0.00000000000E+00  0.00000000000E+00  0.99999998245E-14  0.12500000000E+03  0.12500000000E+03 0.  0.
        -11    1    3    3    0    0 -0.47503181656E+02 -0.50165777885E+01  0.35973322819E+01  0.47902600347E+02  0.51100000000E-03 0. -1.
         23    2    1    0    0    0 -0.48631914024E+01 -0.18979223689E+02  0.21230135134E+02  0.96110898244E+02  0.91666376393E+02 0.  0.
         11    1    3    3    0    0  0.42639990254E+02 -0.13962645901E+02  0.17632802852E+02  0.48208297897E+02  0.51100000000E-03 0.  1.
         22    1    1    0    0    0  0.48631914024E+01  0.18979223689E+02 -0.21230135134E+02  0.28889101756E+02  0.00000000000E+00 0. -1.
</event>
<event>
 5    1  0.1626333E-003  0.9118800E+02  0.7818608E-02  0.1130116E+00
         25   -1    0    0    0    0  0.00000000000E+00  0.00000000000E+00  0.99999998245E-14  0.12500000000E+03  0.12500000000E+03 0.  0.
        -11    1    3    3    0    0  0.42100561604E+02  0.26941101399E+02  0.29855136106E+02  0.58220351975E+02  0.51100000000E-03 0. -1.
         23    2    1    0    0    0  0.28483037247E+02  0.42670936751E+01  0.27879912774E+01  0.96064478670E+02  0.91603054903E+02 0.  0.
         11    1    3    3    0    0 -0.13617524357E+02 -0.22674007724E+02 -0.27067144828E+02  0.37844126695E+02  0.51100000000E-03 0.  1.
         22    1    1    0    0    0 -0.28483037247E+02 -0.42670936751E+01 -0.27879912774E+01  0.28935521330E+02  0.00000000000E+00 0. -1.
</event>
<event>
 5    1  0.1626333E-003  0.9118800E+02  0.7818608E-02  0.1130116E+00
         25   -1    0    0    0    0  0.00000000000E+00  0.00000000000E+00  0.99999998245E-14  0.12500000000E+03  0.12500000000E+03 0.  0.
        -11    1    3    3    0    0 -0.16937288076E+02 -0.19492592699E+02 -0.20979916120E+02  0.33271455907E+02  0.51100000000E-03 0.  1.
         23    2    1    0    0    0  0.22488390282E+02  0.72766973798E+01  0.18363423903E+02  0.95068522260E+02  0.90233755131E+02 0.  0.
         11    1    3    3    0    0  0.39425678359E+02  0.26769290079E+02  0.39343340023E+02  0.61797066353E+02  0.51100000000E-03 0. -1.
         22    1    1    0    0    0 -0.22488390282E+02 -0.72766973798E+01 -0.18363423903E+02  0.29931477740E+02  0.00000000000E+00 0. -1.
</event>
<event>
 5    1  0.1626333E-003  0.9118800E+02  0.7818608E-02  0.1130116E+00
         25   -1    0    0    0    0  0.00000000000E+00  0.00000000000E+00  0.99999998245E-14  0.12500000000E+03  0.12500000000E+03 0.  0.
        -11    1    3    3    0    0 -0.50722286665E+02  0.10251308829E+02 -0.22761804972E+02  0.56532640687E+02  0.51100000000E-03 0. -1.
         23    2    1    0    0    0 -0.85047387746E+01 -0.22375424191E+01 -0.22804376693E+02  0.10055870760E+03  0.97543205302E+02 0.  0.
         11    1    3    3    0    0  0.42217547890E+02 -0.12488851249E+02 -0.42571721894E-01  0.44026066915E+02  0.51100000000E-03 0.  1.
         22    1    1    0    0    0  0.85047387746E+01  0.22375424191E+01  0.22804376693E+02  0.24441292398E+02  0.00000000000E+00 0. -1.
</event>
<event>
 5    1  0.1626333E-003  0.9118800E+02  0.7818608E-02  0.1130116E+00
         25   -1    0    0    0    0  0.00000000000E+00  0.00000000000E+00  0.99999998245E-14  0.12500000000E+03  0.12500000000E+03 0.  0.
        -11    1    3    3    0    0  0.23240356959E+02 -0.14123631906E+02 -0.63157523417E+01  0.27919167210E+02  0.51100000000E-03 0.  1.
         23    2    1    0    0    0 -0.34681181245E+02  0.14124430242E+01  0.75687162806E+01  0.89474448716E+02  0.82119499384E+02 0.  0.
         11    1    3    3    0    0 -0.57921538204E+02  0.15536074930E+02  0.13884468622E+02  0.61555281507E+02  0.51100000000E-03 0. -1.
         22    1    1    0    0    0  0.34681181245E+02 -0.14124430242E+01 -0.75687162806E+01  0.35525551284E+02  0.00000000000E+00 0. -1.
</event>
<event>
 5    1  0.1626333E-003  0.9118800E+02  0.7818608E-02  0.1130116E+00
         25   -1    0    0    0    0  0.00000000000E+00  0.00000000000E+00  0.99999998245E-14  0.12500000000E+03  0.12500000000E+03 0.  0.
        -11    1    3    3    0    0 -0.29836136949E+01 -0.43643571548E+02  0.97147777938E+01  0.44811161511E+02  0.51100000000E-03 0.  1.
         23    2    1    0    0    0 -0.69650725259E+01 -0.85666912780E+01 -0.27051741925E+02  0.95781903280E+02  0.91216642231E+02 0.  0.
         11    1    3    3    0    0 -0.39814588310E+01  0.35076880270E+02 -0.36766519719E+02  0.50970741769E+02  0.51100000000E-03 0. -1.
         22    1    1    0    0    0  0.69650725259E+01  0.85666912780E+01  0.27051741925E+02  0.29218096720E+02  0.00000000000E+00 0. -1.
</event>
<event>
 5    1  0.1626333E-003  0.9118800E+02  0.7818608E-02  0.1130116E+00
         25   -1    0    0    0    0  0.00000000000E+00  0.00000000000E+00  0.99999998245E-14  0.12500000000E+03  0.12500000000E+03 0.  0.
        -11    1    3    3    0    0  0.21009414512E+01  0.37945381967E+02 -0.79184743185E+01  0.38819688348E+02  0.51100000000E-03 0. -1.
         23    2    1    0    0    0  0.24209494744E+02 -0.14780953827E+02 -0.58918613714E+01  0.96029493235E+02  0.91555301916E+02 0.  0.
         11    1    3    3    0    0  0.22108553293E+02 -0.52726335794E+02  0.20266129471E+01  0.57209804888E+02  0.51100000000E-03 0.  1.
         22    1    1    0    0    0 -0.24209494744E+02  0.14780953827E+02  0.58918613714E+01  0.28970506765E+02  0.00000000000E+00 0.  1.
</event>
<event>
 5    1  0.1626333E-003  0.9118800E+02  0.7818608E-02  0.1130116E+00
         25   -1    0    0    0    0  0.00000000000E+00  0.00000000000E+00  0.99999998245E-14  0.12500000000E+03  0.12500000000E+03 0.  0.
        -11    1    3    3    0    0  0.31603625360E+02 -0.42144914135E+02 -0.15737338972E+02  0.54978602760E+02  0.51100000000E-03 0.  1.
         23    2    1    0    0    0  0.20600891897E+02 -0.16936202599E+02  0.13490225680E+02  0.95113248850E+02  0.90295693211E+02 0.  0.
         11    1    3    3    0    0 -0.11002733463E+02  0.25208711536E+02  0.29227564652E+02  0.40134646089E+02  0.51100000000E-03 0. -1.
         22    1    1    0    0    0 -0.20600891897E+02  0.16936202599E+02 -0.13490225680E+02  0.29886751150E+02  0.00000000000E+00 0.  1.
</event>
<event>
 5    1  0.1626333E-003  0.9118800E+02  0.7818608E-02  0.1130116E+00
         25   -1    0    0    0    0  0.00000000000E+00  0.00000000000E+00  0.99999998245E-14  0.12500000000E+03  0.12500000000E+03 0.  0.
        -11    1    3    3    0    0 -0.50387020524E+02  0.32388043370E+02 -0.24296918908E+01  0.59947815586E+02  0.51100000000E-03 0.  1.
         23    2    1    0    0    0 -0.26540603642E+02  0.89064733767E+01  0.94381125028E+01  0.95456694882E+02  0.90769894351E+02 0.  0.
         11    1    3    3    0    0  0.23846416882E+02 -0.23481569993E+02  0.11867804394E+02  0.35508879296E+02  0.51100000000E-03 0. -1.
         22    1    1    0    0    0  0.26540603642E+02 -0.89064733767E+01 -0.94381125028E+01  0.29543305118E+02  0.00000000000E+00 0.  1.
</event>
<event>
 5    1  0.1626333E-003  0.9118800E+02  0.7818608E-02  0.1130116E+00
         25   -1    0    0    0    0  0.00000000000E+00  0.00000000000E+00  0.99999998245E-14  0.12500000000E+03  0.12500000000E+03 0.  0.
        -11    1    3    3    0    0 -0.11790519783E+02  0.11234464801E+02  0.29273889139E+02  0.33499106580E+02  0.51100000000E-03 0.  1.
         23    2    1    0    0    0  0.16819358997E+02 -0.18802595654E+02 -0.16174938798E+02  0.95032399404E+02  0.90183700583E+02 0.  0.
         11    1    3    3    0    0  0.28609878780E+02 -0.30037060455E+02 -0.45448827936E+02  0.61533292823E+02  0.51100000000E-03 0. -1.
         22    1    1    0    0    0 -0.16819358997E+02  0.18802595654E+02  0.16174938798E+02  0.29967600596E+02  0.00000000000E+00 0. -1.
</event>
<event>
 5    1  0.1626333E-003  0.9118800E+02  0.7818608E-02  0.1130116E+00
         25   -1    0    0    0    0  0.00000000000E+00  0.00000000000E+00  0.99999998245E-14  0.12500000000E+03  0.12500000000E+03 0.  0.
        -11    1    3    3    0    0  0.29384280542E+02  0.62218986623E+00 -0.47538257008E+02  0.55890150678E+02  0.51100000000E-03 0.  1.
         23    2    1    0    0    0  0.13009006832E+02 -0.19172090052E+02 -0.30423020142E+02  0.86759138996E+02  0.77876727904E+02 0.  0.
         11    1    3    3    0    0 -0.16375273710E+02 -0.19794279918E+02  0.17115236865E+02  0.30868988318E+02  0.51100000000E-03 0. -1.
         22    1    1    0    0    0 -0.13009006832E+02  0.19172090052E+02  0.30423020142E+02  0.38240861004E+02  0.00000000000E+00 0.  1.
</event>
<event>
 5    1  0.1626333E-003  0.9118800E+02  0.7818608E-02  0.1130116E+00
         25   -1    0    0    0    0  0.00000000000E+00  0.00000000000E+00  0.99999998245E-14  0.12500000000E+03  0.12500000000E+03 0.  0.
        -11    1    3    3    0    0 -0.17712232404E+02  0.58414540886E+02 -0.76627117164E+01  0.61519906654E+02  0.51100000000E-03 0.  1.
         23    2    1    0    0    0 -0.87711665208E+01  0.25948855009E+02  0.43353250953E+01  0.97267861927E+02  0.93230711044E+02 0.  0.
         11    1    3    3    0    0  0.89410658831E+01 -0.32465685877E+02  0.11998036812E+02  0.35747955273E+02  0.51100000000E-03 0. -1.
         22    1    1    0    0    0  0.87711665208E+01 -0.25948855009E+02 -0.43353250953E+01  0.27732138073E+02  0.00000000000E+00 0.  1.
</event>
<event>
 5    1  0.1626333E-003  0.9118800E+02  0.7818608E-02  0.1130116E+00
         25   -1    0    0    0    0  0.00000000000E+00  0.00000000000E+00  0.99999998245E-14  0.12500000000E+03  0.12500000000E+03 0.  0.
        -11    1    3    3    0    0  0.22612053361E+02  0.13537416410E+02  0.47567204937E+01  0.26780459114E+02  0.51100000000E-03 0. -1.
         23    2    1    0    0    0 -0.11069700810E+02  0.15173787543E+02 -0.38816395034E+02  0.81878142110E+02  0.69602697703E+02 0.  0.
         11    1    3    3    0    0 -0.33681754171E+02  0.16363711328E+01 -0.43573115528E+02  0.55097682996E+02  0.51100000000E-03 0.  1.
         22    1    1    0    0    0  0.11069700810E+02 -0.15173787543E+02  0.38816395034E+02  0.43121857890E+02  0.00000000000E+00 0.  1.
</event>
<event>
 5    1  0.1626333E-003  0.9118800E+02  0.7818608E-02  0.1130116E+00
         25   -1    0    0    0    0  0.00000000000E+00  0.00000000000E+00  0.99999998245E-14  0.12500000000E+03  0.12500000000E+03 0.  0.
        -11    1    3    3    0    0 -0.24223137280E+02 -0.29206142955E+02 -0.36032840258E+02  0.52327093778E+02  0.51100000000E-03 0.  1.
         23    2    1    0    0    0 -0.17611867862E+01  0.83957404797E+01 -0.26491340471E+02  0.97154329654E+02  0.93078367054E+02 0.  0.
         11    1    3    3    0    0  0.22461950494E+02  0.37601883435E+02  0.95414997870E+01  0.44827235876E+02  0.51100000000E-03 0. -1.
         22    1    1    0    0    0  0.17611867862E+01 -0.83957404797E+01  0.26491340471E+02  0.27845670346E+02  0.00000000000E+00 0.  1.
</event>
<event>
 5    1  0.1626333E-003  0.9118800E+02  0.7818608E-02  0.1130116E+00
         25   -1    0    0    0    0  0.00000000000E+00  0.00000000000E+00  0.99999998245E-14  0.12500000000E+03  0.12500000000E+03 0.  0.
        -11    1    3    3    0    0  0.17015880292E+02 -0.18894944608E+02 -0.33903722100E+02  0.42379493701E+02  0.51100000000E-03 0. -1.
         23    2    1    0    0    0  0.36048906425E+02 -0.56310742286E+01  0.54965686207E+01  0.88102236951E+02  0.80003495160E+02 0.  0.
         11    1    3    3    0    0  0.19033026133E+02  0.13263870379E+02  0.39400290721E+02  0.45722743250E+02  0.51100000000E-03 0.  1.
         22    1    1    0    0    0 -0.36048906425E+02  0.56310742286E+01 -0.54965686207E+01  0.36897763049E+02  0.00000000000E+00 0.  1.
</event>
<event>
 5    1  0.1626333E-003  0.9118800E+02  0.7818608E-02  0.1130116E+00
         25   -1    0    0    0    0  0.00000000000E+00  0.00000000000E+00  0.99999998245E-14  0.12500000000E+03  0.12500000000E+03 0.  0.
        -11    1    3    3    0    0 -0.48448217111E+02 -0.22816184692E+02  0.15219233235E+02  0.55672552355E+02  0.51100000000E-03 0. -1.
         23    2    1    0    0    0 -0.14139972631E+02 -0.56070825252E+01  0.25410231725E+02  0.95384833670E+02  0.90670879655E+02 0.  0.
         11    1    3    3    0    0  0.34308244481E+02  0.17209102167E+02  0.10190998490E+02  0.39712281315E+02  0.51100000000E-03 0.  1.
         22    1    1    0    0    0  0.14139972631E+02  0.56070825252E+01 -0.25410231725E+02  0.29615166330E+02  0.00000000000E+00 0. -1.
</event>
<event>
 5    1  0.1626333E-003  0.9118800E+02  0.7818608E-02  0.1130116E+00
         25   -1    0    0    0    0  0.00000000000E+00  0.00000000000E+00  0.99999998245E-14  0.12500000000E+03  0.12500000000E+03 0.  0.
        -11    1    3    3    0    0  0.11819203098E+01  0.48881039126E+02  0.13551286024E+02  0.50738449669E+02  0.51100000000E-03 0.  1.
         23    2    1    0    0    0  0.24099864423E+02  0.13484548122E+02  0.16188718305E+02  0.92988890934E+02  0.87305341953E+02 0.  0.
         11    1    3    3    0    0  0.22917944114E+02 -0.35396491004E+02  0.26374322804E+01  0.42250441265E+02  0.51100000000E-03 0. -1.
         22    1    1    0    0    0 -0.24099864423E+02 -0.13484548122E+02 -0.16188718305E+02  0.32011109066E+02  0.00000000000E+00 0.  1.
</event>
<event>
 5    1  0.1626333E-003  0.9118800E+02  0.7818608E-02  0.1130116E+00
         25   -1    0    0    0    0  0.00000000000E+00  0.00000000000E+00  0.99999998245E-14  0.12500000000E+03  0.12500000000E+03 0.  0.
        -11    1    3    3    0    0 -0.14899295001E+02  0.11747523693E+01 -0.35343612518E+02  0.38373688652E+02  0.51100000000E-03 0.  1.
         23    2    1    0    0    0 -0.17400240693E+02  0.66891407712E+01  0.22072777318E+02  0.96108470464E+02  0.91663065713E+02 0.  0.
         11    1    3    3    0    0 -0.25009456916E+01  0.55143884019E+01  0.57416389836E+02  0.57734781812E+02  0.51100000000E-03 0. -1.
         22    1    1    0    0    0  0.17400240693E+02 -0.66891407712E+01 -0.22072777318E+02  0.28891529536E+02  0.00000000000E+00 0. -1.
</event>
<event>
 5    1  0.1626333E-003  0.9118800E+02  0.7818608E-02  0.1130116E+00
         25   -1    0    0    0    0  0.00000000000E+00  0.00000000000E+00  0.99999998245E-14  0.12500000000E+03  0.12500000000E+03 0.  0.
        -11    1    3    3    0    0 -0.55404994916E+01 -0.35811132047E+02  0.19978894920E+02  0.41379832715E+02  0.51100000000E-03 0. -1.
         23    2    1    0    0    0  0.28534483539E+02  0.31605585474E+01  0.18449337278E+01  0.96231794258E+02  0.91831087135E+02 0.  0.
         11    1    3    3    0    0  0.34074983030E+02  0.38971690594E+02 -0.18133961192E+02  0.54851961542E+02  0.51100000000E-03 0.  1.
         22    1    1    0    0    0 -0.28534483539E+02 -0.31605585474E+01 -0.18449337278E+01  0.28768205742E+02  0.00000000000E+00 0.  1.
</event>
<event>
 5    1  0.1626333E-003  0.9118800E+02  0.7818608E-02  0.1130116E+00
         25   -1    0    0    0    0  0.00000000000E+00  0.00000000000E+00  0.99999998245E-14  0.12500000000E+03  0.12500000000E+03 0.  0.
        -11    1    3    3    0    0 -0.32474415459E+01 -0.43780309361E+02  0.34293385514E+02  0.55707249569E+02  0.51100000000E-03 0.  1.
         23    2    1    0    0    0  0.11666115474E+02 -0.76369175898E+01  0.25732101148E+02  0.95732923104E+02  0.91149496850E+02 0.  0.
         11    1    3    3    0    0  0.14913557020E+02  0.36143391771E+02 -0.85612843652E+01  0.40025673535E+02  0.51100000000E-03 0. -1.
         22    1    1    0    0    0 -0.11666115474E+02  0.76369175898E+01 -0.25732101148E+02  0.29267076896E+02  0.00000000000E+00 0.  1.
</event>
<event>
 5    1  0.1626333E-003  0.9118800E+02  0.7818608E-02  0.1130116E+00
         25   -1    0    0    0    0  0.00000000000E+00  0.00000000000E+00  0.99999998245E-14  0.12500000000E+03  0.12500000000E+03 0.  0.
        -11    1    3    3    0    0 -0.23376298476E+01  0.40478937749E+02  0.11378627711E+02  0.42112730657E+02  0.51100000000E-03 0.  1.
         23    2    1    0    0    0  0.29429091667E+02 -0.14417593246E+01  0.28319720603E+01  0.95399828176E+02  0.90691548911E+02 0.  0.
         11    1    3    3    0    0  0.31766721514E+02 -0.41920697073E+02 -0.85466556505E+01  0.53287097518E+02  0.51100000000E-03 0. -1.
         22    1    1    0    0    0 -0.29429091667E+02  0.14417593246E+01 -0.28319720603E+01  0.29600171824E+02  0.00000000000E+00 0. -1.
</event>
<event>
 5    1  0.1626333E-003  0.9118800E+02  0.7818608E-02  0.1130116E+00
         25   -1    0    0    0    0  0.00000000000E+00  0.00000000000E+00  0.99999998245E-14  0.12500000000E+03  0.12500000000E+03 0.  0.
        -11    1    3    3    0    0 -0.52189640013E+02  0.11073089872E+02  0.94151377406E+01  0.54175794069E+02  0.51100000000E-03 0.  1.
         23    2    1    0    0    0 -0.24038616509E+02 -0.16550123274E+02 -0.33338007569E+01  0.95625250783E+02  0.91001718092E+02 0.  0.
         11    1    3    3    0    0  0.28151023504E+02 -0.27623213146E+02 -0.12748938498E+02  0.41449456714E+02  0.51100000000E-03 0. -1.
         22    1    1    0    0    0  0.24038616509E+02  0.16550123274E+02  0.33338007569E+01  0.29374749217E+02  0.00000000000E+00 0.  1.
</event>
<event>
 5    1  0.1626333E-003  0.9118800E+02  0.7818608E-02  0.1130116E+00
         25   -1    0    0    0    0  0.00000000000E+00  0.00000000000E+00  0.99999998245E-14  0.12500000000E+03  0.12500000000E+03 0.  0.
        -11    1    3    3    0    0 -0.12881907743E+02  0.36904009953E+02  0.15528064629E+02  0.42059128487E+02  0.51100000000E-03 0. -1.
         23    2    1    0    0    0 -0.29338346585E+02 -0.37392605018E+01 -0.11157716394E+02  0.93389633274E+02  0.87877234359E+02 0.  0.
         11    1    3    3    0    0 -0.16456438842E+02 -0.40643270455E+02 -0.26685781023E+02  0.51330504787E+02  0.51100000000E-03 0.  1.
         22    1    1    0    0    0  0.29338346585E+02  0.37392605018E+01  0.11157716394E+02  0.31610366726E+02  0.00000000000E+00 0.  1.
</event>
<event>
 5    1  0.1626333E-003  0.9118800E+02  0.7818608E-02  0.1130116E+00
         25   -1    0    0    0    0  0.00000000000E+00  0.00000000000E+00  0.99999998245E-14  0.12500000000E+03  0.12500000000E+03 0.  0.
        -11    1    3    3    0    0 -0.15470314426E+02  0.96445620061E+01 -0.29514270637E+02  0.34690638164E+02  0.51100000000E-03 0. -1.
         23    2    1    0    0    0  0.15410197072E+02 -0.21275835967E+02  0.13026282677E+02  0.95677322593E+02  0.91073215867E+02 0.  0.
         11    1    3    3    0    0  0.30880511498E+02 -0.30920397974E+02  0.42540553314E+02  0.60986684430E+02  0.51100000000E-03 0.  1.
         22    1    1    0    0    0 -0.15410197072E+02  0.21275835967E+02 -0.13026282677E+02  0.29322677407E+02  0.00000000000E+00 0.  1.
</event>
<event>
 5    1  0.1626333E-003  0.9118800E+02  0.7818608E-02  0.1130116E+00
         25   -1    0    0    0    0  0.00000000000E+00  0.00000000000E+00  0.99999998245E-14  0.12500000000E+03  0.12500000000E+03 0.  0.
        -11    1    3    3    0    0 -0.32287236917E+02  0.36205089823E+02 -0.10695150033E+02  0.49675551646E+02  0.51100000000E-03 0.  1.
         23    2    1    0    0    0  0.92213271612E+01  0.18660029792E+02 -0.20490676561E+02  0.95792168646E+02  0.91230708435E+02 0.  0.
         11    1    3    3    0    0  0.41508564079E+02 -0.17545060030E+02 -0.97955265280E+01  0.46116617000E+02  0.51100000000E-03 0. -1.
         22    1    1    0    0    0 -0.92213271612E+01 -0.18660029792E+02  0.20490676561E+02  0.29207831354E+02  0.00000000000E+00 0. -1.
</event>
<event>
 5    1  0.1626333E-003  0.9118800E+02  0.7818608E-02  0.1130116E+00
         25   -1    0    0    0    0  0.00000000000E+00  0.00000000000E+00  0.99999998245E-14  0.12500000000E+03  0.12500000000E+03 0.  0.
        -11    1    3    3    0    0  0.26414984961E+02  0.36346862184E+02 -0.33230164407E+02  0.55884610116E+02  0.51100000000E-03 0.  1.
         23    2    1    0    0    0  0.28145880903E+02  0.94818553157E+01 -0.50200908704E+01  0.94878620477E+02  0.89970301318E+02 0.  0.
         11    1    3    3    0    0  0.17308959422E+01 -0.26865006868E+02  0.28210073537E+02  0.38994010360E+02  0.51100000000E-03 0. -1.
         22    1    1    0    0    0 -0.28145880903E+02 -0.94818553157E+01  0.50200908704E+01  0.30121379523E+02  0.00000000000E+00 0. -1.
</event>
<event>
 5    1  0.1626333E-003  0.9118800E+02  0.7818608E-02  0.1130116E+00
         25   -1    0    0    0    0  0.00000000000E+00  0.00000000000E+00  0.99999998245E-14  0.12500000000E+03  0.12500000000E+03 0.  0.
        -11    1    3    3    0    0  0.49542217825E+02 -0.30691811277E+02  0.21058720636E+02  0.61966832593E+02  0.51100000000E-03 0.  1.
         23    2    1    0    0    0  0.19028888055E+02 -0.17766555590E+02  0.12083725749E+02  0.96298684593E+02  0.91922092819E+02 0.  0.
         11    1    3    3    0    0 -0.30513329770E+02  0.12925255688E+02 -0.89749948873E+01  0.34331852000E+02  0.51100000000E-03 0. -1.
         22    1    1    0    0    0 -0.19028888055E+02  0.17766555590E+02 -0.12083725749E+02  0.28701315407E+02  0.00000000000E+00 0.  1.
</event>
<event>
 5    1  0.1626333E-003  0.9118800E+02  0.7818608E-02  0.1130116E+00
         25   -1    0    0    0    0  0.00000000000E+00  0.00000000000E+00  0.99999998245E-14  0.12500000000E+03  0.12500000000E+03 0.  0.
        -11    1    3    3    0    0 -0.45830301057E+02 -0.18959617695E+02 -0.22518908340E+02  0.54470036086E+02  0.51100000000E-03 0.  1.
         23    2    1    0    0    0 -0.18628082142E+02 -0.20780375674E+02  0.85571260083E+01  0.95810038319E+02  0.91255189330E+02 0.  0.
         11    1    3    3    0    0  0.27202218915E+02 -0.18207579790E+01  0.31076034349E+02  0.41340002233E+02  0.51100000000E-03 0. -1.
         22    1    1    0    0    0  0.18628082142E+02  0.20780375674E+02 -0.85571260083E+01  0.29189961681E+02  0.00000000000E+00 0.  1.
</event>
<event>
 5    1  0.1626333E-003  0.9118800E+02  0.7818608E-02  0.1130116E+00
         25   -1    0    0    0    0  0.00000000000E+00  0.00000000000E+00  0.99999998245E-14  0.12500000000E+03  0.12500000000E+03 0.  0.
        -11    1    3    3    0    0 -0.29021748300E+02  0.25756061421E+02 -0.14908513879E+02  0.41568020889E+02  0.51100000000E-03 0.  1.
         23    2    1    0    0    0 -0.82104628860E+01 -0.25035262003E+02 -0.10511092811E+02  0.96633486001E+02  0.92376249655E+02 0.  0.
         11    1    3    3    0    0  0.20811285414E+02 -0.50791323424E+02  0.43974210679E+01  0.55065465112E+02  0.51100000000E-03 0. -1.
         22    1    1    0    0    0  0.82104628860E+01  0.25035262003E+02  0.10511092811E+02  0.28366513999E+02  0.00000000000E+00 0. -1.
</event>
<event>
 5    1  0.1626333E-003  0.9118800E+02  0.7818608E-02  0.1130116E+00
         25   -1    0    0    0    0  0.00000000000E+00  0.00000000000E+00  0.99999998245E-14  0.12500000000E+03  0.12500000000E+03 0.  0.
        -11    1    3    3    0    0 -0.14351592649E+02  0.36631521833E+02 -0.18837212935E+02  0.43619688155E+02  0.51100000000E-03 0.  1.
         23    2    1    0    0    0  0.26467446003E+02  0.74280282873E+01  0.75864047735E+00  0.97499512050E+02  0.93540782616E+02 0.  0.
         11    1    3    3    0    0  0.40819038652E+02 -0.29203493545E+02  0.19595853412E+02  0.53879823894E+02  0.51100000000E-03 0. -1.
         22    1    1    0    0    0 -0.26467446003E+02 -0.74280282873E+01 -0.75864047735E+00  0.27500487950E+02  0.00000000000E+00 0.  1.
</event>
<event>
 5    1  0.1626333E-003  0.9118800E+02  0.7818608E-02  0.1130116E+00
         25   -1    0    0    0    0  0.00000000000E+00  0.00000000000E+00  0.99999998245E-14  0.12500000000E+03  0.12500000000E+03 0.  0.
        -11    1    3    3    0    0  0.10794317236E+02 -0.40647054823E+02 -0.46024763851E+02  0.62345643297E+02  0.51100000000E-03 0.  1.
         23    2    1    0    0    0  0.69145079134E+01 -0.16723945061E+02 -0.22549623734E+02  0.96086572521E+02  0.91633198843E+02 0.  0.
         11    1    3    3    0    0 -0.38798093230E+01  0.23923109762E+02  0.23475140117E+02  0.33740929223E+02  0.51100000000E-03 0. -1.
         22    1    1    0    0    0 -0.69145079134E+01  0.16723945061E+02  0.22549623734E+02  0.28913427479E+02  0.00000000000E+00 0.  1.
</event>
<event>
 5    1  0.1626333E-003  0.9118800E+02  0.7818608E-02  0.1130116E+00
         25   -1    0    0    0    0  0.00000000000E+00  0.00000000000E+00  0.99999998245E-14  0.12500000000E+03  0.12500000000E+03 0.  0.
        -11    1    3    3    0    0  0.21199588799E+02  0.28324049341E+02 -0.99904810978E+00  0.35393112801E+02  0.51100000000E-03 0. -1.
         23    2    1    0    0    0 -0.17776550831E+02 -0.15526623215E+02 -0.16652528809E+02  0.96114216236E+02  0.91670900831E+02 0.  0.
         11    1    3    3    0    0 -0.38976139631E+02 -0.43850672556E+02 -0.15653480699E+02  0.60721103435E+02  0.51100000000E-03 0.  1.
         22    1    1    0    0    0  0.17776550831E+02  0.15526623215E+02  0.16652528809E+02  0.28885783764E+02  0.00000000000E+00 0.  1.
</event>
<event>
 5    1  0.1626333E-003  0.9118800E+02  0.7818608E-02  0.1130116E+00
         25   -1    0    0    0    0  0.00000000000E+00  0.00000000000E+00  0.99999998245E-14  0.12500000000E+03  0.12500000000E+03 0.  0.
        -11    1    3    3    0    0 -0.26727535713E+02 -0.49990012171E+02 -0.13555605740E+02  0.58284791579E+02  0.51100000000E-03 0.  1.
         23    2    1    0    0    0 -0.16810657694E+02 -0.21920574053E+02  0.93385090016E+01  0.95839795452E+02  0.91295941109E+02 0.  0.
         11    1    3    3    0    0  0.99168780192E+01  0.28069438118E+02  0.22894114741E+02  0.37555003873E+02  0.51100000000E-03 0. -1.
         22    1    1    0    0    0  0.16810657694E+02  0.21920574053E+02 -0.93385090016E+01  0.29160204548E+02  0.00000000000E+00 0.  1.
</event>
<event>
 5    1  0.1626333E-003  0.9118800E+02  0.7818608E-02  0.1130116E+00
         25   -1    0    0    0    0  0.00000000000E+00  0.00000000000E+00  0.99999998245E-14  0.12500000000E+03  0.12500000000E+03 0.  0.
        -11    1    3    3    0    0 -0.54679109700E+02  0.15375446429E+01 -0.27848336556E+02  0.61381584619E+02  0.51100000000E-03 0.  1.
         23    2    1    0    0    0 -0.29221946324E+02 -0.73857883517E+01 -0.12985669367E+02  0.92180804010E+02  0.86140588589E+02 0.  0.
         11    1    3    3    0    0  0.25457163376E+02 -0.89233329946E+01  0.14862667189E+02  0.30799219391E+02  0.51100000000E-03 0. -1.
         22    1    1    0    0    0  0.29221946324E+02  0.73857883517E+01  0.12985669367E+02  0.32819195990E+02  0.00000000000E+00 0.  1.
</event>
<event>
 5    1  0.1626333E-003  0.9118800E+02  0.7818608E-02  0.1130116E+00
         25   -1    0    0    0    0  0.00000000000E+00  0.00000000000E+00  0.99999998245E-14  0.12500000000E+03  0.12500000000E+03 0.  0.
        -11    1    3    3    0    0  0.13910308091E+02  0.82713556565E+01 -0.38560511606E+02  0.41818955644E+02  0.51100000000E-03 0.  1.
         23    2    1    0    0    0 -0.27973238374E+02 -0.61128689558E+01 -0.93129749925E+01  0.94890188722E+02  0.89986372193E+02 0.  0.
         11    1    3    3    0    0 -0.41883546465E+02 -0.14384224612E+02  0.29247536614E+02  0.53071233078E+02  0.51100000000E-03 0. -1.
         22    1    1    0    0    0  0.27973238374E+02  0.61128689558E+01  0.93129749925E+01  0.30109811278E+02  0.00000000000E+00 0. -1.
</event>
<event>
 5    1  0.1626333E-003  0.9118800E+02  0.7818608E-02  0.1130116E+00
         25   -1    0    0    0    0  0.00000000000E+00  0.00000000000E+00  0.99999998245E-14  0.12500000000E+03  0.12500000000E+03 0.  0.
        -11    1    3    3    0    0  0.56124533949E+02  0.31232141933E+01 -0.10617824621E+02  0.57205384169E+02  0.51100000000E-03 0.  1.
         23    2    1    0    0    0  0.21209633683E+02 -0.11728520248E+02 -0.16610047526E+02  0.95618025475E+02  0.90991792864E+02 0.  0.
         11    1    3    3    0    0 -0.34914900266E+02 -0.14851734441E+02 -0.59922229059E+01  0.38412641306E+02  0.51100000000E-03 0. -1.
         22    1    1    0    0    0 -0.21209633683E+02  0.11728520248E+02  0.16610047526E+02  0.29381974525E+02  0.00000000000E+00 0.  1.
</event>
<event>
 5    1  0.1626333E-003  0.9118800E+02  0.7818608E-02  0.1130116E+00
         25   -1    0    0    0    0  0.00000000000E+00  0.00000000000E+00  0.99999998245E-14  0.12500000000E+03  0.12500000000E+03 0.  0.
        -11    1    3    3    0    0  0.42126991672E+01 -0.32737376673E+02 -0.13750795757E+02  0.35757055946E+02  0.51100000000E-03 0.  1.
         23    2    1    0    0    0  0.15389036647E+02  0.15649603110E+02  0.19597094485E+02  0.95575883383E+02  0.90933881726E+02 0.  0.
         11    1    3    3    0    0  0.11176337480E+02  0.48386979784E+02  0.33347890242E+02  0.59818827437E+02  0.51100000000E-03 0. -1.
         22    1    1    0    0    0 -0.15389036647E+02 -0.15649603110E+02 -0.19597094485E+02  0.29424116617E+02  0.00000000000E+00 0. -1.
</event>
<event>
 5    1  0.1626333E-003  0.9118800E+02  0.7818608E-02  0.1130116E+00
         25   -1    0    0    0    0  0.00000000000E+00  0.00000000000E+00  0.99999998245E-14  0.12500000000E+03  0.12500000000E+03 0.  0.
        -11    1    3    3    0    0 -0.44807723913E+02 -0.50020231581E+01 -0.24755035538E+02  0.51435047804E+02  0.51100000000E-03 0.  1.
         23    2    1    0    0    0 -0.29153225568E+02  0.15221897503E+02  0.61418256066E+01  0.91543479763E+02  0.85210738412E+02 0.  0.
         11    1    3    3    0    0  0.15654498345E+02  0.20223920661E+02  0.30896861144E+02  0.40108431958E+02  0.51100000000E-03 0. -1.
         22    1    1    0    0    0  0.29153225568E+02 -0.15221897503E+02 -0.61418256066E+01  0.33456520237E+02  0.00000000000E+00 0.  1.
</event>
<event>
 5    1  0.1626333E-003  0.9118800E+02  0.7818608E-02  0.1130116E+00
         25   -1    0    0    0    0  0.00000000000E+00  0.00000000000E+00  0.99999998245E-14  0.12500000000E+03  0.12500000000E+03 0.  0.
        -11    1    3    3    0    0  0.44077823864E+02  0.36900168884E+02 -0.38673912504E+01  0.57614527123E+02  0.51100000000E-03 0.  1.
         23    2    1    0    0    0  0.26108364846E+02  0.25843523338E+01  0.70003630220E+01  0.97846166489E+02  0.94002880925E+02 0.  0.
         11    1    3    3    0    0 -0.17969459018E+02 -0.34315816550E+02  0.10867754272E+02  0.40231639366E+02  0.51100000000E-03 0. -1.
         22    1    1    0    0    0 -0.26108364846E+02 -0.25843523338E+01 -0.70003630220E+01  0.27153833511E+02  0.00000000000E+00 0.  1.
</event>
<event>
 5    1  0.1626333E-003  0.9118800E+02  0.7818608E-02  0.1130116E+00
         25   -1    0    0    0    0  0.00000000000E+00  0.00000000000E+00  0.99999998245E-14  0.12500000000E+03  0.12500000000E+03 0.  0.
        -11    1    3    3    0    0 -0.17677955461E+02  0.13865763668E+02  0.26425880845E+02  0.34685684224E+02  0.51100000000E-03 0. -1.
         23    2    1    0    0    0  0.32037090481E+01 -0.18066158428E+02 -0.22010971792E+02  0.96344586703E+02  0.91984491496E+02 0.  0.
         11    1    3    3    0    0  0.20881664509E+02 -0.31931922096E+02 -0.48436852636E+02  0.61658902480E+02  0.51100000000E-03 0.  1.
         22    1    1    0    0    0 -0.32037090481E+01  0.18066158428E+02  0.22010971792E+02  0.28655413297E+02  0.00000000000E+00 0.  1.
</event>
<event>
 5    1  0.1626333E-003  0.9118800E+02  0.7818608E-02  0.1130116E+00
         25   -1    0    0    0    0  0.00000000000E+00  0.00000000000E+00  0.99999998245E-14  0.12500000000E+03  0.12500000000E+03 0.  0.
        -11    1    3    3    0    0  0.29631746269E+02  0.27941662546E+02  0.27084465322E+01  0.40818042281E+02  0.51100000000E-03 0.  1.
         23    2    1    0    0    0 -0.22932934016E+02  0.15066899461E+02 -0.88722920336E+01  0.96161683685E+02  0.91735603346E+02 0.  0.
         11    1    3    3    0    0 -0.52564680284E+02 -0.12874763085E+02 -0.11580738566E+02  0.55343641404E+02  0.51100000000E-03 0. -1.
         22    1    1    0    0    0  0.22932934016E+02 -0.15066899461E+02  0.88722920336E+01  0.28838316315E+02  0.00000000000E+00 0. -1.
</event>
<event>
 5    1  0.1626333E-003  0.9118800E+02  0.7818608E-02  0.1130116E+00
         25   -1    0    0    0    0  0.00000000000E+00  0.00000000000E+00  0.99999998245E-14  0.12500000000E+03  0.12500000000E+03 0.  0.
        -11    1    3    3    0    0  0.41501908718E+02  0.34263880545E+02  0.14751319394E+02  0.55803435032E+02  0.51100000000E-03 0.  1.
         23    2    1    0    0    0  0.28832291693E+02 -0.16271711026E+01  0.15835742086E+01  0.96078443380E+02  0.91622108931E+02 0.  0.
         11    1    3    3    0    0 -0.12669617025E+02 -0.35891051648E+02 -0.13167745185E+02  0.40275008348E+02  0.51100000000E-03 0. -1.
         22    1    1    0    0    0 -0.28832291693E+02  0.16271711026E+01 -0.15835742086E+01  0.28921556620E+02  0.00000000000E+00 0.  1.
</event>
<event>
 5    1  0.1626333E-003  0.9118800E+02  0.7818608E-02  0.1130116E+00
         25   -1    0    0    0    0  0.00000000000E+00  0.00000000000E+00  0.99999998245E-14  0.12500000000E+03  0.12500000000E+03 0.  0.
        -11    1    3    3    0    0 -0.19396756332E+02 -0.36601767142E+01  0.54711266380E+02  0.58163164623E+02  0.51100000000E-03 0. -1.
         23    2    1    0    0    0 -0.22093094695E+02 -0.70792950885E+01  0.16720006815E+02  0.96403149124E+02  0.92064039022E+02 0.  0.
         11    1    3    3    0    0 -0.26963383626E+01 -0.34191183743E+01 -0.37991259565E+02  0.38239984501E+02  0.51100000000E-03 0.  1.
         22    1    1    0    0    0  0.22093094695E+02  0.70792950885E+01 -0.16720006815E+02  0.28596850876E+02  0.00000000000E+00 0. -1.
</event>
<event>
 5    1  0.1626333E-003  0.9118800E+02  0.7818608E-02  0.1130116E+00
         25   -1    0    0    0    0  0.00000000000E+00  0.00000000000E+00  0.99999998245E-14  0.12500000000E+03  0.12500000000E+03 0.  0.
        -11    1    3    3    0    0 -0.31780169110E+01  0.36013169562E+02 -0.30547460683E+01  0.36281946573E+02  0.51100000000E-03 0.  1.
         23    2    1    0    0    0 -0.89015171409E+01 -0.22221971160E+02 -0.15992524590E+02  0.96210872670E+02  0.91802604361E+02 0.  0.
         11    1    3    3    0    0 -0.57235002299E+01 -0.58235140722E+02 -0.12937778522E+02  0.59928926097E+02  0.51100000000E-03 0. -1.
         22    1    1    0    0    0  0.89015171409E+01  0.22221971160E+02  0.15992524590E+02  0.28789127330E+02  0.00000000000E+00 0. -1.
</event>
<event>
 5    1  0.1626333E-003  0.9118800E+02  0.7818608E-02  0.1130116E+00
         25   -1    0    0    0    0  0.00000000000E+00  0.00000000000E+00  0.99999998245E-14  0.12500000000E+03  0.12500000000E+03 0.  0.
        -11    1    3    3    0    0  0.22183363784E+02 -0.20635538962E+02  0.13572258355E+02  0.33198392945E+02  0.51100000000E-03 0. -1.
         23    2    1    0    0    0 -0.28929713091E+02  0.97777114137E+01 -0.10431524029E+01  0.94444802292E+02  0.89365544663E+02 0.  0.
         11    1    3    3    0    0 -0.51113076875E+02  0.30413250375E+02 -0.14615410758E+02  0.61246409347E+02  0.51100000000E-03 0.  1.
         22    1    1    0    0    0  0.28929713091E+02 -0.97777114137E+01  0.10431524029E+01  0.30555197708E+02  0.00000000000E+00 0.  1.
</event>
<event>
 5    1  0.1626333E-003  0.9118800E+02  0.7818608E-02  0.1130116E+00
         25   -1    0    0    0    0  0.00000000000E+00  0.00000000000E+00  0.99999998245E-14  0.12500000000E+03  0.12500000000E+03 0.  0.
        -11    1    3    3    0    0  0.58612773678E+01  0.33280703708E+02 -0.16979126353E+02  0.37818653382E+02  0.51100000000E-03 0.  1.
         23    2    1    0    0    0  0.85262050089E+01 -0.23792986767E+02 -0.16236947676E+02  0.94959346528E+02  0.90082388024E+02 0.  0.
         11    1    3    3    0    0  0.26649276412E+01 -0.57073690475E+02  0.74217867710E+00  0.57140693146E+02  0.51100000000E-03 0. -1.
         22    1    1    0    0    0 -0.85262050089E+01  0.23792986767E+02  0.16236947676E+02  0.30040653472E+02  0.00000000000E+00 0.  1.
</event>
<event>
 5    1  0.1626333E-003  0.9118800E+02  0.7818608E-02  0.1130116E+00
         25   -1    0    0    0    0  0.00000000000E+00  0.00000000000E+00  0.99999998245E-14  0.12500000000E+03  0.12500000000E+03 0.  0.
        -11    1    3    3    0    0 -0.63813135151E+01 -0.29665369255E+02 -0.44571785323E+02  0.53920305474E+02  0.51100000000E-03 0.  1.
         23    2    1    0    0    0 -0.21407473658E+02 -0.23282226368E+02 -0.10546104810E+02  0.91659899224E+02  0.85381349287E+02 0.  0.
         11    1    3    3    0    0 -0.15026160143E+02  0.63831428864E+01  0.34025680514E+02  0.37739593750E+02  0.51100000000E-03 0. -1.
         22    1    1    0    0    0  0.21407473658E+02  0.23282226368E+02  0.10546104810E+02  0.33340100776E+02  0.00000000000E+00 0.  1.
</event>
<event>
 5    1  0.1626333E-003  0.9118800E+02  0.7818608E-02  0.1130116E+00
         25   -1    0    0    0    0  0.00000000000E+00  0.00000000000E+00  0.99999998245E-14  0.12500000000E+03  0.12500000000E+03 0.  0.
        -11    1    3    3    0    0 -0.10016888319E+02 -0.54295921840E+02 -0.13974643188E+02  0.56953277628E+02  0.51100000000E-03 0.  1.
         23    2    1    0    0    0 -0.21379175160E+02 -0.17270636541E+02 -0.94068386365E+01  0.95951202604E+02  0.91448349635E+02 0.  0.
         11    1    3    3    0    0 -0.11362286840E+02  0.37025285299E+02  0.45678045513E+01  0.38997924976E+02  0.51100000000E-03 0. -1.
         22    1    1    0    0    0  0.21379175160E+02  0.17270636541E+02  0.94068386365E+01  0.29048797396E+02  0.00000000000E+00 0.  1.
</event>
<event>
 5    1  0.1626333E-003  0.9118800E+02  0.7818608E-02  0.1130116E+00
         25   -1    0    0    0    0  0.00000000000E+00  0.00000000000E+00  0.99999998245E-14  0.12500000000E+03  0.12500000000E+03 0.  0.
        -11    1    3    3    0    0  0.32185486702E+02 -0.17938329696E+02  0.15283444618E+02  0.39890762166E+02  0.51100000000E-03 0. -1.
         23    2    1    0    0    0 -0.55824243190E+01 -0.74896037385E+01 -0.26336762455E+02  0.97055721837E+02  0.92945846917E+02 0.  0.
         11    1    3    3    0    0 -0.37767911021E+02  0.10448725957E+02 -0.41620207074E+02  0.57164959671E+02  0.51100000000E-03 0.  1.
         22    1    1    0    0    0  0.55824243190E+01  0.74896037385E+01  0.26336762455E+02  0.27944278163E+02  0.00000000000E+00 0.  1.
</event>
<event>
 5    1  0.1626333E-003  0.9118800E+02  0.7818608E-02  0.1130116E+00
         25   -1    0    0    0    0  0.00000000000E+00  0.00000000000E+00  0.99999998245E-14  0.12500000000E+03  0.12500000000E+03 0.  0.
        -11    1    3    3    0    0  0.25119788895E+02  0.30355660784E+02 -0.18642829235E+02  0.43589276409E+02  0.51100000000E-03 0. -1.
         23    2    1    0    0    0  0.42172691839E+01  0.14680272631E+02  0.25727197419E+02  0.95080366798E+02  0.90250161770E+02 0.  0.
         11    1    3    3    0    0 -0.20902519711E+02 -0.15675388153E+02  0.44370026653E+02  0.51491090389E+02  0.51100000000E-03 0.  1.
         22    1    1    0    0    0 -0.42172691839E+01 -0.14680272631E+02 -0.25727197419E+02  0.29919633202E+02  0.00000000000E+00 0. -1.
</event>
<event>
 5    1  0.1626333E-003  0.9118800E+02  0.7818608E-02  0.1130116E+00
         25   -1    0    0    0    0  0.00000000000E+00  0.00000000000E+00  0.99999998245E-14  0.12500000000E+03  0.12500000000E+03 0.  0.
        -11    1    3    3    0    0  0.43800195685E+02  0.12171537449E+02  0.93341526553E+01  0.46408295293E+02  0.51100000000E-03 0. -1.
         23    2    1    0    0    0 -0.34426473939E+00  0.16872733438E+02 -0.19397465778E+02  0.99288731449E+02  0.95901943996E+02 0.  0.
         11    1    3    3    0    0 -0.44144460425E+02  0.47011959892E+01 -0.28731618434E+02  0.52880436156E+02  0.51100000000E-03 0.  1.
         22    1    1    0    0    0  0.34426473939E+00 -0.16872733438E+02  0.19397465778E+02  0.25711268551E+02  0.00000000000E+00 0.  1.
</event>
<event>
 5    1  0.1626333E-003  0.9118800E+02  0.7818608E-02  0.1130116E+00
         25   -1    0    0    0    0  0.00000000000E+00  0.00000000000E+00  0.99999998245E-14  0.12500000000E+03  0.12500000000E+03 0.  0.
        -11    1    3    3    0    0 -0.34733719652E+02 -0.31215549276E+02  0.14316621985E+02  0.48844728096E+02  0.51100000000E-03 0.  1.
         23    2    1    0    0    0 -0.27076174872E+02  0.97680794815E+01 -0.65680276711E+01  0.95475880878E+02  0.90796311706E+02 0.  0.
         11    1    3    3    0    0  0.76575447805E+01  0.40983628758E+02 -0.20884649656E+02  0.46631152781E+02  0.51100000000E-03 0. -1.
         22    1    1    0    0    0  0.27076174872E+02 -0.97680794815E+01  0.65680276711E+01  0.29524119122E+02  0.00000000000E+00 0.  1.
</event>
<event>
 5    1  0.1626333E-003  0.9118800E+02  0.7818608E-02  0.1130116E+00
         25   -1    0    0    0    0  0.00000000000E+00  0.00000000000E+00  0.99999998245E-14  0.12500000000E+03  0.12500000000E+03 0.  0.
        -11    1    3    3    0    0  0.72183177711E+01  0.21537220039E+01 -0.59280942304E+02  0.59757616675E+02  0.51100000000E-03 0. -1.
         23    2    1    0    0    0 -0.75964358296E+01  0.71640348148E+01 -0.33492327019E+02  0.89917736656E+02  0.82791510218E+02 0.  0.
         11    1    3    3    0    0 -0.14814753601E+02  0.50103128110E+01  0.25788615285E+02  0.30160119981E+02  0.51100000000E-03 0.  1.
         22    1    1    0    0    0  0.75964358296E+01 -0.71640348148E+01  0.33492327019E+02  0.35082263344E+02  0.00000000000E+00 0. -1.
</event>
<event>
 5    1  0.1626333E-003  0.9118800E+02  0.7818608E-02  0.1130116E+00
         25   -1    0    0    0    0  0.00000000000E+00  0.00000000000E+00  0.99999998245E-14  0.12500000000E+03  0.12500000000E+03 0.  0.
        -11    1    3    3    0    0 -0.46466782457E+02 -0.10355156103E+02 -0.35784375919E+02  0.59555962674E+02  0.51100000000E-03 0. -1.
         23    2    1    0    0    0 -0.22095597383E+02  0.87610791677E+01 -0.16942128054E+02  0.95810830178E+02  0.91256274001E+02 0.  0.
         11    1    3    3    0    0  0.24371185074E+02  0.19116235271E+02  0.18842247865E+02  0.36254867504E+02  0.51100000000E-03 0.  1.
         22    1    1    0    0    0  0.22095597383E+02 -0.87610791677E+01  0.16942128054E+02  0.29189169822E+02  0.00000000000E+00 0. -1.
</event>
<event>
 5    1  0.1626333E-003  0.9118800E+02  0.7818608E-02  0.1130116E+00
         25   -1    0    0    0    0  0.00000000000E+00  0.00000000000E+00  0.99999998245E-14  0.12500000000E+03  0.12500000000E+03 0.  0.
        -11    1    3    3    0    0 -0.56516849445E+02  0.24199968432E+02 -0.25831458351E+01  0.61534261887E+02  0.51100000000E-03 0. -1.
         23    2    1    0    0    0 -0.24714414168E+02  0.11631798415E+02 -0.88246695012E+01  0.96295021445E+02  0.91917111363E+02 0.  0.
         11    1    3    3    0    0  0.31802435277E+02 -0.12568170017E+02 -0.62415236661E+01  0.34760759558E+02  0.51100000000E-03 0.  1.
         22    1    1    0    0    0  0.24714414168E+02 -0.11631798415E+02  0.88246695012E+01  0.28704978555E+02  0.00000000000E+00 0. -1.
</event>
<event>
 5    1  0.1626333E-003  0.9118800E+02  0.7818608E-02  0.1130116E+00
         25   -1    0    0    0    0  0.00000000000E+00  0.00000000000E+00  0.99999998245E-14  0.12500000000E+03  0.12500000000E+03 0.  0.
        -11    1    3    3    0    0 -0.32820927394E+02  0.24060046795E+01 -0.90832999100E+01  0.34139544095E+02  0.51100000000E-03 0.  1.
         23    2    1    0    0    0  0.15758822726E+02  0.30166773729E+02  0.78852638056E+00  0.90955962272E+02  0.84344475623E+02 0.  0.
         11    1    3    3    0    0  0.48579750120E+02  0.27760769050E+02  0.98718262906E+01  0.56816418177E+02  0.51100000000E-03 0. -1.
         22    1    1    0    0    0 -0.15758822726E+02 -0.30166773729E+02 -0.78852638056E+00  0.34044037728E+02  0.00000000000E+00 0. -1.
</event>
<event>
 5    1  0.1626333E-003  0.9118800E+02  0.7818608E-02  0.1130116E+00
         25   -1    0    0    0    0  0.00000000000E+00  0.00000000000E+00  0.99999998245E-14  0.12500000000E+03  0.12500000000E+03 0.  0.
        -11    1    3    3    0    0 -0.14623052894E+02  0.72780873454E+00  0.48112654115E+02  0.50291061509E+02  0.51100000000E-03 0.  1.
         23    2    1    0    0    0 -0.65381412631E+01 -0.25901257446E+02  0.12448712926E+02  0.95528100130E+02  0.90868173925E+02 0.  0.
         11    1    3    3    0    0  0.80849116312E+01 -0.26629066180E+02 -0.35663941189E+02  0.45237038620E+02  0.51100000000E-03 0. -1.
         22    1    1    0    0    0  0.65381412631E+01  0.25901257446E+02 -0.12448712926E+02  0.29471899870E+02  0.00000000000E+00 0.  1.
</event>
<event>
 5    1  0.1626333E-003  0.9118800E+02  0.7818608E-02  0.1130116E+00
         25   -1    0    0    0    0  0.00000000000E+00  0.00000000000E+00  0.99999998245E-14  0.12500000000E+03  0.12500000000E+03 0.  0.
        -11    1    3    3    0    0 -0.44108612948E+02 -0.31489618319E+02 -0.22820305349E+02  0.58804184668E+02  0.51100000000E-03 0. -1.
         23    2    1    0    0    0 -0.20315080927E+02 -0.21397668256E+02  0.30065430265E+01  0.95341914748E+02  0.90611691779E+02 0.  0.
         11    1    3    3    0    0  0.23793532021E+02  0.10091950064E+02  0.25826848375E+02  0.36537730080E+02  0.51100000000E-03 0.  1.
         22    1    1    0    0    0  0.20315080927E+02  0.21397668256E+02 -0.30065430265E+01  0.29658085252E+02  0.00000000000E+00 0. -1.
</event>
<event>
 5    1  0.1626333E-003  0.9118800E+02  0.7818608E-02  0.1130116E+00
         25   -1    0    0    0    0  0.00000000000E+00  0.00000000000E+00  0.99999998245E-14  0.12500000000E+03  0.12500000000E+03 0.  0.
        -11    1    3    3    0    0  0.18219491686E+02 -0.15549230376E+02 -0.27540558395E+02  0.36499463004E+02  0.51100000000E-03 0.  1.
         23    2    1    0    0    0  0.81070993854E+01  0.14336067818E+02  0.23379815926E+02  0.96401683727E+02  0.92062049356E+02 0.  0.
         11    1    3    3    0    0 -0.10112392301E+02  0.29885298195E+02  0.50920374321E+02  0.59902220723E+02  0.51100000000E-03 0. -1.
         22    1    1    0    0    0 -0.81070993854E+01 -0.14336067818E+02 -0.23379815926E+02  0.28598316273E+02  0.00000000000E+00 0. -1.
</event>
<event>
 5    1  0.1626333E-003  0.9118800E+02  0.7818608E-02  0.1130116E+00
         25   -1    0    0    0    0  0.00000000000E+00  0.00000000000E+00  0.99999998245E-14  0.12500000000E+03  0.12500000000E+03 0.  0.
        -11    1    3    3    0    0  0.10457294687E+02  0.41177742826E+02 -0.19665136837E+02  0.46815372726E+02  0.51100000000E-03 0. -1.
         23    2    1    0    0    0 -0.25570157522E+02  0.13339999897E+02 -0.66108635452E+00  0.96151679631E+02  0.91721970693E+02 0.  0.
         11    1    3    3    0    0 -0.36027452208E+02 -0.27837742929E+02  0.19004050483E+02  0.49336306905E+02  0.51100000000E-03 0.  1.
         22    1    1    0    0    0  0.25570157522E+02 -0.13339999897E+02  0.66108635452E+00  0.28848320369E+02  0.00000000000E+00 0. -1.
</event>
<event>
 5    1  0.1626333E-003  0.9118800E+02  0.7818608E-02  0.1130116E+00
         25   -1    0    0    0    0  0.00000000000E+00  0.00000000000E+00  0.99999998245E-14  0.12500000000E+03  0.12500000000E+03 0.  0.
        -11    1    3    3    0    0 -0.10547074222E+02  0.36794886589E+02  0.45469519689E+02  0.59435525359E+02  0.51100000000E-03 0.  1.
         23    2    1    0    0    0  0.62328064106E+01  0.23798552476E+02  0.16380978589E+02  0.95444028772E+02  0.90752450066E+02 0.  0.
         11    1    3    3    0    0  0.16779880633E+02 -0.12996334113E+02 -0.29088541100E+02  0.36008503413E+02  0.51100000000E-03 0. -1.
         22    1    1    0    0    0 -0.62328064106E+01 -0.23798552476E+02 -0.16380978589E+02  0.29555971228E+02  0.00000000000E+00 0.  1.
</event>
<event>
 5    1  0.1626333E-003  0.9118800E+02  0.7818608E-02  0.1130116E+00
         25   -1    0    0    0    0  0.00000000000E+00  0.00000000000E+00  0.99999998245E-14  0.12500000000E+03  0.12500000000E+03 0.  0.
        -11    1    3    3    0    0  0.10893980966E+01 -0.31104218649E+02 -0.21685133436E+02  0.37932890984E+02  0.51100000000E-03 0.  1.
         23    2    1    0    0    0 -0.42941562354E+01  0.19455784327E+01  0.27314682802E+02  0.97281469198E+02  0.93248953343E+02 0.  0.
         11    1    3    3    0    0 -0.53835543320E+01  0.33049797082E+02  0.48999816239E+02  0.59348578214E+02  0.51100000000E-03 0. -1.
         22    1    1    0    0    0  0.42941562354E+01 -0.19455784327E+01 -0.27314682802E+02  0.27718530802E+02  0.00000000000E+00 0. -1.
</event>
<event>
 5    1  0.1626333E-003  0.9118800E+02  0.7818608E-02  0.1130116E+00
         25   -1    0    0    0    0  0.00000000000E+00  0.00000000000E+00  0.99999998245E-14  0.12500000000E+03  0.12500000000E+03 0.  0.
        -11    1    3    3    0    0  0.12367393719E+02  0.33275998540E+02  0.43932062961E+02  0.56482481023E+02  0.51100000000E-03 0.  1.
         23    2    1    0    0    0  0.93367968181E+01  0.26342585564E+02  0.44299551147E+01  0.96702790043E+02  0.92469981674E+02 0.  0.
         11    1    3    3    0    0 -0.30305969008E+01 -0.69334129754E+01 -0.39502107847E+02  0.40220309020E+02  0.51100000000E-03 0. -1.
         22    1    1    0    0    0 -0.93367968181E+01 -0.26342585564E+02 -0.44299551147E+01  0.28297209957E+02  0.00000000000E+00 0.  1.
</event>
<event>
 5    1  0.1626333E-003  0.9118800E+02  0.7818608E-02  0.1130116E+00
         25   -1    0    0    0    0  0.00000000000E+00  0.00000000000E+00  0.99999998245E-14  0.12500000000E+03  0.12500000000E+03 0.  0.
        -11    1    3    3    0    0 -0.38670930395E+02 -0.38870712126E+02 -0.26143624366E+02  0.60744236056E+02  0.51100000000E-03 0.  1.
         23    2    1    0    0    0 -0.10618712372E+02 -0.25385069762E+02 -0.10882318480E+02  0.95409736825E+02  0.90705204957E+02 0.  0.
         11    1    3    3    0    0  0.28052218023E+02  0.13485642364E+02  0.15261305887E+02  0.34665500769E+02  0.51100000000E-03 0. -1.
         22    1    1    0    0    0  0.10618712372E+02  0.25385069762E+02  0.10882318480E+02  0.29590263175E+02  0.00000000000E+00 0.  1.
</event>
<event>
 5    1  0.1626333E-003  0.9118800E+02  0.7818608E-02  0.1130116E+00
         25   -1    0    0    0    0  0.00000000000E+00  0.00000000000E+00  0.99999998245E-14  0.12500000000E+03  0.12500000000E+03 0.  0.
        -11    1    3    3    0    0 -0.42064165616E+02 -0.21875849951E+02  0.13312840557E+02  0.49246102018E+02  0.51100000000E-03 0.  1.
         23    2    1    0    0    0 -0.13271108565E+02 -0.14873987391E+02  0.34140773686E+02  0.85465834380E+02  0.75772413152E+02 0.  0.
         11    1    3    3    0    0  0.28793057051E+02  0.70018625601E+01  0.20827933128E+02  0.36219732361E+02  0.51100000000E-03 0. -1.
         22    1    1    0    0    0  0.13271108565E+02  0.14873987391E+02 -0.34140773686E+02  0.39534165620E+02  0.00000000000E+00 0.  1.
</event>
<event>
 5    1  0.1626333E-003  0.9118800E+02  0.7818608E-02  0.1130116E+00
         25   -1    0    0    0    0  0.00000000000E+00  0.00000000000E+00  0.99999998245E-14  0.12500000000E+03  0.12500000000E+03 0.  0.
        -11    1    3    3    0    0  0.10838652312E+02 -0.58148489504E+02 -0.46391392238E+01  0.59331651153E+02  0.51100000000E-03 0.  1.
         23    2    1    0    0    0 -0.38350728054E+01 -0.37031291471E+02 -0.11659475127E+02  0.85987595669E+02  0.76628316681E+02 0.  0.
         11    1    3    3    0    0 -0.14673725118E+02  0.21117198033E+02 -0.70203359031E+01  0.26655944516E+02  0.51100000000E-03 0. -1.
         22    1    1    0    0    0  0.38350728054E+01  0.37031291471E+02  0.11659475127E+02  0.39012404331E+02  0.00000000000E+00 0.  1.
</event>
<event>
 5    1  0.1626333E-003  0.9118800E+02  0.7818608E-02  0.1130116E+00
         25   -1    0    0    0    0  0.00000000000E+00  0.00000000000E+00  0.99999998245E-14  0.12500000000E+03  0.12500000000E+03 0.  0.
        -11    1    3    3    0    0  0.24865726636E+01 -0.25521876188E+02 -0.26097999389E+02  0.36587631519E+02  0.51100000000E-03 0.  1.
         23    2    1    0    0    0 -0.50529281643E+01  0.25079513877E+02  0.81464355431E+01  0.98150819167E+02  0.94407122569E+02 0.  0.
         11    1    3    3    0    0 -0.75395008279E+01  0.50601390065E+02  0.34244434932E+02  0.61563187648E+02  0.51100000000E-03 0. -1.
         22    1    1    0    0    0  0.50529281643E+01 -0.25079513877E+02 -0.81464355431E+01  0.26849180833E+02  0.00000000000E+00 0. -1.
</event>
<event>
 5    1  0.1626333E-003  0.9118800E+02  0.7818608E-02  0.1130116E+00
         25   -1    0    0    0    0  0.00000000000E+00  0.00000000000E+00  0.99999998245E-14  0.12500000000E+03  0.12500000000E+03 0.  0.
        -11    1    3    3    0    0  0.71383320861E+01  0.27638988429E+02 -0.54668751812E+00  0.28551152934E+02  0.51100000000E-03 0. -1.
         23    2    1    0    0    0 -0.25593689677E+02 -0.18802315766E+02  0.18219240707E+02  0.88387095698E+02  0.80447336342E+02 0.  0.
         11    1    3    3    0    0 -0.32732021764E+02 -0.46441304195E+02  0.18765928225E+02  0.59835942764E+02  0.51100000000E-03 0.  1.
         22    1    1    0    0    0  0.25593689677E+02  0.18802315766E+02 -0.18219240707E+02  0.36612904302E+02  0.00000000000E+00 0.  1.
</event>
<event>
 5    1  0.1626333E-003  0.9118800E+02  0.7818608E-02  0.1130116E+00
         25   -1    0    0    0    0  0.00000000000E+00  0.00000000000E+00  0.99999998245E-14  0.12500000000E+03  0.12500000000E+03 0.  0.
        -11    1    3    3    0    0  0.39703175983E+02  0.23695608496E+02  0.14891558856E+02  0.48575534691E+02  0.51100000000E-03 0. -1.
         23    2    1    0    0    0  0.30758129895E+02  0.41716466421E+01 -0.18933003827E+02  0.88641729631E+02  0.80842021298E+02 0.  0.
         11    1    3    3    0    0 -0.89450460876E+01 -0.19523961854E+02 -0.33824562682E+02  0.40066194939E+02  0.51100000000E-03 0.  1.
         22    1    1    0    0    0 -0.30758129895E+02 -0.41716466421E+01  0.18933003827E+02  0.36358270369E+02  0.00000000000E+00 0. -1.
</event>
<event>
 5    1  0.1626333E-003  0.9118800E+02  0.7818608E-02  0.1130116E+00
         25   -1    0    0    0    0  0.00000000000E+00  0.00000000000E+00  0.99999998245E-14  0.12500000000E+03  0.12500000000E+03 0.  0.
        -11    1    3    3    0    0  0.22666156382E+02  0.41572777296E+02  0.16378962458E+02  0.50103102386E+02  0.51100000000E-03 0.  1.
         23    2    1    0    0    0  0.17144841538E+01  0.23354551364E+01  0.28617006363E+02  0.96236709858E+02  0.91837777981E+02 0.  0.
         11    1    3    3    0    0 -0.20951672228E+02 -0.39237322160E+02  0.12238043906E+02  0.46133607472E+02  0.51100000000E-03 0. -1.
         22    1    1    0    0    0 -0.17144841538E+01 -0.23354551364E+01 -0.28617006363E+02  0.28763290142E+02  0.00000000000E+00 0.  1.
</event>
<event>
 5    1  0.1626333E-003  0.9118800E+02  0.7818608E-02  0.1130116E+00
         25   -1    0    0    0    0  0.00000000000E+00  0.00000000000E+00  0.99999998245E-14  0.12500000000E+03  0.12500000000E+03 0.  0.
        -11    1    3    3    0    0  0.28248203122E+01 -0.21010671378E+02 -0.24859878190E+02  0.32671722719E+02  0.51100000000E-03 0. -1.
         23    2    1    0    0    0 -0.19780038235E+02  0.97268070458E+01  0.22508908196E+02  0.93495847321E+02  0.88028187703E+02 0.  0.
         11    1    3    3    0    0 -0.22604858547E+02  0.30737478423E+02  0.47368786385E+02  0.60824124602E+02  0.51100000000E-03 0.  1.
         22    1    1    0    0    0  0.19780038235E+02 -0.97268070458E+01 -0.22508908196E+02  0.31504152679E+02  0.00000000000E+00 0.  1.
</event>
<event>
 5    1  0.1626333E-003  0.9118800E+02  0.7818608E-02  0.1130116E+00
         25   -1    0    0    0    0  0.00000000000E+00  0.00000000000E+00  0.99999998245E-14  0.12500000000E+03  0.12500000000E+03 0.  0.
        -11    1    3    3    0    0  0.36331456909E+02  0.76285757434E+01 -0.12317115187E+02  0.39113696524E+02  0.51100000000E-03 0.  1.
         23    2    1    0    0    0 -0.37256168114E+01 -0.20190802331E+02  0.18961610151E+02  0.97051987925E+02  0.92940825159E+02 0.  0.
         11    1    3    3    0    0 -0.40057073720E+02 -0.27819378075E+02  0.31278725338E+02  0.57938291401E+02  0.51100000000E-03 0. -1.
         22    1    1    0    0    0  0.37256168114E+01  0.20190802331E+02 -0.18961610151E+02  0.27948012075E+02  0.00000000000E+00 0. -1.
</event>
<event>
 5    1  0.1626333E-003  0.9118800E+02  0.7818608E-02  0.1130116E+00
         25   -1    0    0    0    0  0.00000000000E+00  0.00000000000E+00  0.99999998245E-14  0.12500000000E+03  0.12500000000E+03 0.  0.
        -11    1    3    3    0    0 -0.27216019637E+02 -0.32276517279E+02 -0.10586987238E+02  0.43526653806E+02  0.51100000000E-03 0.  1.
         23    2    1    0    0    0  0.12929403783E+02 -0.12929400014E+01 -0.25495690534E+02  0.96384070663E+02  0.92038131585E+02 0.  0.
         11    1    3    3    0    0  0.40145423420E+02  0.30983577278E+02 -0.14908703296E+02  0.52857416856E+02  0.51100000000E-03 0. -1.
         22    1    1    0    0    0 -0.12929403783E+02  0.12929400014E+01  0.25495690534E+02  0.28615929337E+02  0.00000000000E+00 0. -1.
</event>
<event>
 5    1  0.1626333E-003  0.9118800E+02  0.7818608E-02  0.1130116E+00
         25   -1    0    0    0    0  0.00000000000E+00  0.00000000000E+00  0.99999998245E-14  0.12500000000E+03  0.12500000000E+03 0.  0.
        -11    1    3    3    0    0  0.24903135079E+02  0.79716487563E+01  0.49249232742E+02  0.55760203071E+02  0.51100000000E-03 0. -1.
         23    2    1    0    0    0 -0.58847278711E+01  0.18790628568E+01  0.33612214646E+02  0.90824835440E+02  0.84149918954E+02 0.  0.
         11    1    3    3    0    0 -0.30787862950E+02 -0.60925858996E+01 -0.15637018096E+02  0.35064632368E+02  0.51100000000E-03 0.  1.
         22    1    1    0    0    0  0.58847278711E+01 -0.18790628568E+01 -0.33612214646E+02  0.34175164560E+02  0.00000000000E+00 0.  1.
</event>
<event>
 5    1  0.1626333E-003  0.9118800E+02  0.7818608E-02  0.1130116E+00
         25   -1    0    0    0    0  0.00000000000E+00  0.00000000000E+00  0.99999998245E-14  0.12500000000E+03  0.12500000000E+03 0.  0.
        -11    1    3    3    0    0  0.28694735570E+02  0.16566191388E+02 -0.26605739069E+02  0.42493433589E+02  0.51100000000E-03 0. -1.
         23    2    1    0    0    0  0.16006030835E+02 -0.25064515195E+02  0.29693674333E+01  0.95112877555E+02  0.90295179211E+02 0.  0.
         11    1    3    3    0    0 -0.12688704735E+02 -0.41630706583E+02  0.29575106502E+02  0.52619443966E+02  0.51100000000E-03 0.  1.
         22    1    1    0    0    0 -0.16006030835E+02  0.25064515195E+02 -0.29693674333E+01  0.29887122445E+02  0.00000000000E+00 0.  1.
</event>
<event>
 5    1  0.1626333E-003  0.9118800E+02  0.7818608E-02  0.1130116E+00
         25   -1    0    0    0    0  0.00000000000E+00  0.00000000000E+00  0.99999998245E-14  0.12500000000E+03  0.12500000000E+03 0.  0.
        -11    1    3    3    0    0  0.41416214280E+02 -0.50811631186E+01 -0.41194865291E+02  0.58635637206E+02  0.51100000000E-03 0.  1.
         23    2    1    0    0    0  0.27148740474E+02 -0.12476346123E+02 -0.10414317149E+02  0.93358708566E+02  0.87833234834E+02 0.  0.
         11    1    3    3    0    0 -0.14267473806E+02 -0.73951830048E+01  0.30780548142E+02  0.34723071360E+02  0.51100000000E-03 0. -1.
         22    1    1    0    0    0 -0.27148740474E+02  0.12476346123E+02  0.10414317149E+02  0.31641291434E+02  0.00000000000E+00 0.  1.
</event>
<event>
 5    1  0.1626333E-003  0.9118800E+02  0.7818608E-02  0.1130116E+00
         25   -1    0    0    0    0  0.00000000000E+00  0.00000000000E+00  0.99999998245E-14  0.12500000000E+03  0.12500000000E+03 0.  0.
        -11    1    3    3    0    0 -0.25591194200E+01 -0.32938291190E+02  0.17761723998E+01  0.33085267226E+02  0.51100000000E-03 0.  1.
         23    2    1    0    0    0  0.44066567177E+01  0.28304035741E+02  0.85818868253E+01  0.95097059607E+02  0.90273279002E+02 0.  0.
         11    1    3    3    0    0  0.69657761377E+01  0.61242326932E+02  0.68057144255E+01  0.62011792381E+02  0.51100000000E-03 0. -1.
         22    1    1    0    0    0 -0.44066567177E+01 -0.28304035741E+02 -0.85818868253E+01  0.29902940393E+02  0.00000000000E+00 0. -1.
</event>
<event>
 5    1  0.1626333E-003  0.9118800E+02  0.7818608E-02  0.1130116E+00
         25   -1    0    0    0    0  0.00000000000E+00  0.00000000000E+00  0.99999998245E-14  0.12500000000E+03  0.12500000000E+03 0.  0.
        -11    1    3    3    0    0  0.23137865717E+02 -0.90972172000E+01 -0.27920376320E+02  0.37385392934E+02  0.51100000000E-03 0. -1.
         23    2    1    0    0    0  0.18650302103E+01 -0.10199644161E+02  0.26884977546E+02  0.96184846064E+02  0.91767159246E+02 0.  0.
         11    1    3    3    0    0 -0.21272835506E+02 -0.11024269607E+01  0.54805353867E+02  0.58799453130E+02  0.51100000000E-03 0.  1.
         22    1    1    0    0    0 -0.18650302103E+01  0.10199644161E+02 -0.26884977546E+02  0.28815153936E+02  0.00000000000E+00 0.  1.
</event>
<event>
 5    1  0.1626333E-003  0.9118800E+02  0.7818608E-02  0.1130116E+00
         25   -1    0    0    0    0  0.00000000000E+00  0.00000000000E+00  0.99999998245E-14  0.12500000000E+03  0.12500000000E+03 0.  0.
        -11    1    3    3    0    0  0.15927737289E+02 -0.97295715160E+01 -0.25957035809E+02  0.31970691035E+02  0.51100000000E-03 0.  1.
         23    2    1    0    0    0 -0.12634851527E+02  0.11016174031E+02  0.25566716394E+02  0.94427912231E+02  0.89341916577E+02 0.  0.
         11    1    3    3    0    0 -0.28562588816E+02  0.20745745547E+02  0.51523752202E+02  0.62457221196E+02  0.51100000000E-03 0. -1.
         22    1    1    0    0    0  0.12634851527E+02 -0.11016174031E+02 -0.25566716394E+02  0.30572087769E+02  0.00000000000E+00 0. -1.
</event>
<event>
 5    1  0.1626333E-003  0.9118800E+02  0.7818608E-02  0.1130116E+00
         25   -1    0    0    0    0  0.00000000000E+00  0.00000000000E+00  0.99999998245E-14  0.12500000000E+03  0.12500000000E+03 0.  0.
        -11    1    3    3    0    0 -0.37879515611E+02  0.24270614730E+02  0.16445292025E+02  0.47899562340E+02  0.51100000000E-03 0.  1.
         23    2    1    0    0    0 -0.23589299508E+02 -0.11092445295E+02 -0.12797383616E+02  0.95960881189E+02  0.91461578256E+02 0.  0.
         11    1    3    3    0    0  0.14290216102E+02 -0.35363060026E+02 -0.29242675640E+02  0.48061318849E+02  0.51100000000E-03 0. -1.
         22    1    1    0    0    0  0.23589299508E+02  0.11092445295E+02  0.12797383616E+02  0.29039118811E+02  0.00000000000E+00 0. -1.
</event>
<event>
 5    1  0.1626333E-003  0.9118800E+02  0.7818608E-02  0.1130116E+00
         25   -1    0    0    0    0  0.00000000000E+00  0.00000000000E+00  0.99999998245E-14  0.12500000000E+03  0.12500000000E+03 0.  0.
        -11    1    3    3    0    0 -0.20899558802E+02  0.27690192117E+02  0.46710745044E+02  0.58184465284E+02  0.51100000000E-03 0.  1.
         23    2    1    0    0    0 -0.75219158097E+01 -0.16143635594E+01  0.29105357777E+02  0.94895062889E+02  0.89993142640E+02 0.  0.
         11    1    3    3    0    0  0.13377642992E+02 -0.29304555676E+02 -0.17605387267E+02  0.36710597605E+02  0.51100000000E-03 0. -1.
         22    1    1    0    0    0  0.75219158097E+01  0.16143635594E+01 -0.29105357777E+02  0.30104937111E+02  0.00000000000E+00 0.  1.
</event>
<event>
 5    1  0.1626333E-003  0.9118800E+02  0.7818608E-02  0.1130116E+00
         25   -1    0    0    0    0  0.00000000000E+00  0.00000000000E+00  0.99999998245E-14  0.12500000000E+03  0.12500000000E+03 0.  0.
        -11    1    3    3    0    0 -0.14857364492E+02 -0.50331158090E+02 -0.26070926014E+02  0.58597439687E+02  0.51100000000E-03 0. -1.
         23    2    1    0    0    0 -0.22313516036E+02 -0.20467278936E+02 -0.12293741323E+02  0.92320670437E+02  0.86343312476E+02 0.  0.
         11    1    3    3    0    0 -0.74561515439E+01  0.29863879154E+02  0.13777184691E+02  0.33723230750E+02  0.51100000000E-03 0.  1.
         22    1    1    0    0    0  0.22313516036E+02  0.20467278936E+02  0.12293741323E+02  0.32679329563E+02  0.00000000000E+00 0. -1.
</event>
<event>
 5    1  0.1626333E-003  0.9118800E+02  0.7818608E-02  0.1130116E+00
         25   -1    0    0    0    0  0.00000000000E+00  0.00000000000E+00  0.99999998245E-14  0.12500000000E+03  0.12500000000E+03 0.  0.
        -11    1    3    3    0    0 -0.18105713426E+02 -0.12760154015E+01 -0.57651409086E+02  0.60441128744E+02  0.51100000000E-03 0. -1.
         23    2    1    0    0    0 -0.13891869764E+02 -0.91836594813E+01 -0.20859701372E+02  0.98308226205E+02  0.94615308229E+02 0.  0.
         11    1    3    3    0    0  0.42138436621E+01 -0.79076440798E+01  0.36791707715E+02  0.37867097461E+02  0.51100000000E-03 0.  1.
         22    1    1    0    0    0  0.13891869764E+02  0.91836594813E+01  0.20859701372E+02  0.26691773795E+02  0.00000000000E+00 0. -1.
</event>
<event>
 5    1  0.1626333E-003  0.9118800E+02  0.7818608E-02  0.1130116E+00
         25   -1    0    0    0    0  0.00000000000E+00  0.00000000000E+00  0.99999998245E-14  0.12500000000E+03  0.12500000000E+03 0.  0.
        -11    1    3    3    0    0 -0.46343522636E+02  0.18036535010E+02 -0.34120490186E+01  0.49846572242E+02  0.51100000000E-03 0. -1.
         23    2    1    0    0    0 -0.15315492831E+02 -0.10730693745E+02 -0.22055444221E+02  0.96083659832E+02  0.91629225458E+02 0.  0.
         11    1    3    3    0    0  0.31028029805E+02 -0.28767228756E+02 -0.18643395202E+02  0.46237087590E+02  0.51100000000E-03 0.  1.
         22    1    1    0    0    0  0.15315492831E+02  0.10730693745E+02  0.22055444221E+02  0.28916340168E+02  0.00000000000E+00 0. -1.
</event>
<event>
 5    1  0.1626333E-003  0.9118800E+02  0.7818608E-02  0.1130116E+00
         25   -1    0    0    0    0  0.00000000000E+00  0.00000000000E+00  0.99999998245E-14  0.12500000000E+03  0.12500000000E+03 0.  0.
        -11    1    3    3    0    0  0.34257591922E+02  0.26645696889E+02  0.38243889881E+02  0.57846096502E+02  0.51100000000E-03 0. -1.
         23    2    1    0    0    0  0.98548825171E+01  0.25667112947E+02  0.87321756505E+01  0.96152638110E+02  0.91723276912E+02 0.  0.
         11    1    3    3    0    0 -0.24402709405E+02 -0.97858394243E+00 -0.29511714231E+02  0.38306541608E+02  0.51100000000E-03 0.  1.
         22    1    1    0    0    0 -0.98548825171E+01 -0.25667112947E+02 -0.87321756505E+01  0.28847361890E+02  0.00000000000E+00 0. -1.
</event>
<event>
 5    1  0.1626333E-003  0.9118800E+02  0.7818608E-02  0.1130116E+00
         25   -1    0    0    0    0  0.00000000000E+00  0.00000000000E+00  0.99999998245E-14  0.12500000000E+03  0.12500000000E+03 0.  0.
        -11    1    3    3    0    0  0.42989036359E+02  0.23741067739E+02 -0.14723354238E+02  0.51268632756E+02  0.51100000000E-03 0. -1.
         23    2    1    0    0    0  0.16557894408E+02  0.11260274227E+02  0.20028526021E+02  0.96678638849E+02  0.92437328565E+02 0.  0.
         11    1    3    3    0    0 -0.26431141951E+02 -0.12480793512E+02  0.34751880259E+02  0.45410006092E+02  0.51100000000E-03 0.  1.
         22    1    1    0    0    0 -0.16557894408E+02 -0.11260274227E+02 -0.20028526021E+02  0.28321361151E+02  0.00000000000E+00 0. -1.
</event>
<event>
 5    1  0.1626333E-003  0.9118800E+02  0.7818608E-02  0.1130116E+00
         25   -1    0    0    0    0  0.00000000000E+00  0.00000000000E+00  0.99999998245E-14  0.12500000000E+03  0.12500000000E+03 0.  0.
        -11    1    3    3    0    0  0.53185602346E+02 -0.87385305136E+00 -0.29015240774E+02  0.60591716542E+02  0.51100000000E-03 0. -1.
         23    2    1    0    0    0  0.32332559229E+02  0.26243739532E+01 -0.57048933091E+01  0.92063279875E+02  0.85969878263E+02 0.  0.
         11    1    3    3    0    0 -0.20853043117E+02  0.34982270045E+01  0.23310347464E+02  0.31471563333E+02  0.51100000000E-03 0.  1.
         22    1    1    0    0    0 -0.32332559229E+02 -0.26243739532E+01  0.57048933091E+01  0.32936720125E+02  0.00000000000E+00 0. -1.
</event>
<event>
 5    1  0.1626333E-003  0.9118800E+02  0.7818608E-02  0.1130116E+00
         25   -1    0    0    0    0  0.00000000000E+00  0.00000000000E+00  0.99999998245E-14  0.12500000000E+03  0.12500000000E+03 0.  0.
        -11    1    3    3    0    0 -0.87472762257E+01  0.47848394063E+02 -0.19754592346E+02  0.52499786426E+02  0.51100000000E-03 0. -1.
         23    2    1    0    0    0 -0.20443493391E+02  0.62240009434E+01 -0.19991364024E+02  0.95736896177E+02  0.91154945254E+02 0.  0.
         11    1    3    3    0    0 -0.11696217166E+02 -0.41624393120E+02 -0.23677167853E+00  0.43237109751E+02  0.51100000000E-03 0.  1.
         22    1    1    0    0    0  0.20443493391E+02 -0.62240009434E+01  0.19991364024E+02  0.29263103823E+02  0.00000000000E+00 0. -1.
</event>
<event>
 5    1  0.1626333E-003  0.9118800E+02  0.7818608E-02  0.1130116E+00
         25   -1    0    0    0    0  0.00000000000E+00  0.00000000000E+00  0.99999998245E-14  0.12500000000E+03  0.12500000000E+03 0.  0.
        -11    1    3    3    0    0  0.37862622961E+02 -0.20821185240E+02  0.32118227469E+02  0.53839395504E+02  0.51100000000E-03 0. -1.
         23    2    1    0    0    0 -0.27323070899E+01 -0.10634798404E+02  0.26810637757E+02  0.96028035343E+02  0.91553311441E+02 0.  0.
         11    1    3    3    0    0 -0.40594930051E+02  0.10186386835E+02 -0.53075897113E+01  0.42188639839E+02  0.51100000000E-03 0.  1.
         22    1    1    0    0    0  0.27323070899E+01  0.10634798404E+02 -0.26810637757E+02  0.28971964657E+02  0.00000000000E+00 0. -1.
</event>
<event>
 5    1  0.1626333E-003  0.9118800E+02  0.7818608E-02  0.1130116E+00
         25   -1    0    0    0    0  0.00000000000E+00  0.00000000000E+00  0.99999998245E-14  0.12500000000E+03  0.12500000000E+03 0.  0.
        -11    1    3    3    0    0  0.22948624205E+02 -0.19526276029E+02 -0.12760939174E+02  0.32722413990E+02  0.51100000000E-03 0.  1.
         23    2    1    0    0    0 -0.10101180801E+02  0.29163803452E+02  0.39203785691E+01  0.93888416088E+02  0.88583881277E+02 0.  0.
         11    1    3    3    0    0 -0.33049805005E+02  0.48690079481E+02  0.16681317744E+02  0.61166002099E+02  0.51100000000E-03 0. -1.
         22    1    1    0    0    0  0.10101180801E+02 -0.29163803452E+02 -0.39203785691E+01  0.31111583912E+02  0.00000000000E+00 0. -1.
</event>
<event>
 5    1  0.1626333E-003  0.9118800E+02  0.7818608E-02  0.1130116E+00
         25   -1    0    0    0    0  0.00000000000E+00  0.00000000000E+00  0.99999998245E-14  0.12500000000E+03  0.12500000000E+03 0.  0.
        -11    1    3    3    0    0  0.30115652589E+02 -0.26036393912E+02  0.33397617286E+02  0.51963902658E+02  0.51100000000E-03 0.  1.
         23    2    1    0    0    0 -0.10124378427E+02 -0.22212558032E+02  0.10435999510E+02  0.98451725882E+02  0.94804701733E+02 0.  0.
         11    1    3    3    0    0 -0.40240031016E+02  0.38238358797E+01 -0.22961617776E+02  0.46487823225E+02  0.51100000000E-03 0. -1.
         22    1    1    0    0    0  0.10124378427E+02  0.22212558032E+02 -0.10435999510E+02  0.26548274118E+02  0.00000000000E+00 0. -1.
</event>
<event>
 5    1  0.1626333E-003  0.9118800E+02  0.7818608E-02  0.1130116E+00
         25   -1    0    0    0    0  0.00000000000E+00  0.00000000000E+00  0.99999998245E-14  0.12500000000E+03  0.12500000000E+03 0.  0.
        -11    1    3    3    0    0  0.42268867874E+02 -0.38563119960E+02 -0.91495780592E+01  0.57943819268E+02  0.51100000000E-03 0.  1.
         23    2    1    0    0    0  0.24121013958E+02 -0.17178295155E+02  0.11976072270E+02  0.93057184754E+02  0.87403067386E+02 0.  0.
         11    1    3    3    0    0 -0.18147853916E+02  0.21384824804E+02  0.21125650329E+02  0.35113365486E+02  0.51100000000E-03 0. -1.
         22    1    1    0    0    0 -0.24121013958E+02  0.17178295155E+02 -0.11976072270E+02  0.31942815246E+02  0.00000000000E+00 0.  1.
</event>
<event>
 5    1  0.1626333E-003  0.9118800E+02  0.7818608E-02  0.1130116E+00
         25   -1    0    0    0    0  0.00000000000E+00  0.00000000000E+00  0.99999998245E-14  0.12500000000E+03  0.12500000000E+03 0.  0.
        -11    1    3    3    0    0  0.12688658432E+02 -0.33526773723E+02  0.17572423802E+02  0.39922884259E+02  0.51100000000E-03 0. -1.
         23    2    1    0    0    0 -0.29784365957E+02 -0.55662862052E+01  0.15855756991E+02  0.90802090308E+02  0.84116125547E+02 0.  0.
         11    1    3    3    0    0 -0.42473024389E+02  0.27960487517E+02 -0.17166668112E+01  0.50879206048E+02  0.51100000000E-03 0.  1.
         22    1    1    0    0    0  0.29784365957E+02  0.55662862052E+01 -0.15855756991E+02  0.34197909692E+02  0.00000000000E+00 0.  1.
</event>
<event>
 5    1  0.1626333E-003  0.9118800E+02  0.7818608E-02  0.1130116E+00
         25   -1    0    0    0    0  0.00000000000E+00  0.00000000000E+00  0.99999998245E-14  0.12500000000E+03  0.12500000000E+03 0.  0.
        -11    1    3    3    0    0  0.55622436062E+02 -0.18235135272E+02  0.13088225011E+02  0.59980640094E+02  0.51100000000E-03 0. -1.
         23    2    1    0    0    0  0.21232066067E+02 -0.11121791990E+02  0.17426525606E+02  0.95365920273E+02  0.90644801662E+02 0.  0.
         11    1    3    3    0    0 -0.34390369995E+02  0.71133432822E+01  0.43383005952E+01  0.35385280179E+02  0.51100000000E-03 0.  1.
         22    1    1    0    0    0 -0.21232066067E+02  0.11121791990E+02 -0.17426525606E+02  0.29634079727E+02  0.00000000000E+00 0. -1.
</event>
<event>
 5    1  0.1626333E-003  0.9118800E+02  0.7818608E-02  0.1130116E+00
         25   -1    0    0    0    0  0.00000000000E+00  0.00000000000E+00  0.99999998245E-14  0.12500000000E+03  0.12500000000E+03 0.  0.
        -11    1    3    3    0    0  0.32670407176E+02 -0.52615695060E+02  0.12037453070E+01  0.61945265151E+02  0.51100000000E-03 0. -1.
         23    2    1    0    0    0  0.84306781323E+01 -0.24511683294E+02  0.10160941168E+01  0.99059078680E+02  0.95602142601E+02 0.  0.
         11    1    3    3    0    0 -0.24239729043E+02  0.28104011765E+02 -0.18765119023E+00  0.37113813528E+02  0.51100000000E-03 0.  1.
         22    1    1    0    0    0 -0.84306781323E+01  0.24511683294E+02 -0.10160941168E+01  0.25940921320E+02  0.00000000000E+00 0. -1.
</event>
<event>
 5    1  0.1626333E-003  0.9118800E+02  0.7818608E-02  0.1130116E+00
         25   -1    0    0    0    0  0.00000000000E+00  0.00000000000E+00  0.99999998245E-14  0.12500000000E+03  0.12500000000E+03 0.  0.
        -11    1    3    3    0    0  0.31663027475E+02  0.17537955247E+02 -0.46805560959E+02  0.59168299959E+02  0.51100000000E-03 0.  1.
         23    2    1    0    0    0  0.10633368949E+02 -0.48527660395E+01 -0.26625585304E+02  0.95921835233E+02  0.91408198803E+02 0.  0.
         11    1    3    3    0    0 -0.21029658527E+02 -0.22390721286E+02  0.20179975655E+02  0.36753535274E+02  0.51100000000E-03 0. -1.
         22    1    1    0    0    0 -0.10633368949E+02  0.48527660395E+01  0.26625585304E+02  0.29078164767E+02  0.00000000000E+00 0.  1.
</event>
<event>
 5    1  0.1626333E-003  0.9118800E+02  0.7818608E-02  0.1130116E+00
         25   -1    0    0    0    0  0.00000000000E+00  0.00000000000E+00  0.99999998245E-14  0.12500000000E+03  0.12500000000E+03 0.  0.
        -11    1    3    3    0    0  0.37805890361E+02  0.70518011176E+01 -0.11494388842E+02  0.40138936459E+02  0.51100000000E-03 0.  1.
         23    2    1    0    0    0 -0.16619303005E+02  0.32140935237E+01 -0.23532864061E+02  0.96011600243E+02  0.91530869442E+02 0.  0.
         11    1    3    3    0    0 -0.54425193366E+02 -0.38377075939E+01 -0.12038475219E+02  0.55872663784E+02  0.51100000000E-03 0. -1.
         22    1    1    0    0    0  0.16619303005E+02 -0.32140935237E+01  0.23532864061E+02  0.28988399757E+02  0.00000000000E+00 0. -1.
</event>
<event>
 5    1  0.1626333E-003  0.9118800E+02  0.7818608E-02  0.1130116E+00
         25   -1    0    0    0    0  0.00000000000E+00  0.00000000000E+00  0.99999998245E-14  0.12500000000E+03  0.12500000000E+03 0.  0.
        -11    1    3    3    0    0 -0.50404488352E+02  0.81797618392E+01  0.86276195874E+01  0.51787612127E+02  0.51100000000E-03 0.  1.
         23    2    1    0    0    0 -0.18091783899E+02 -0.21827928424E+02  0.39751858251E+00  0.96646356055E+02  0.92393663278E+02 0.  0.
         11    1    3    3    0    0  0.32312704454E+02 -0.30007690263E+02 -0.82301010049E+01  0.44858743929E+02  0.51100000000E-03 0. -1.
         22    1    1    0    0    0  0.18091783899E+02  0.21827928424E+02 -0.39751858251E+00  0.28353643945E+02  0.00000000000E+00 0.  1.
</event>
<event>
 5    1  0.1626333E-003  0.9118800E+02  0.7818608E-02  0.1130116E+00
         25   -1    0    0    0    0  0.00000000000E+00  0.00000000000E+00  0.99999998245E-14  0.12500000000E+03  0.12500000000E+03 0.  0.
        -11    1    3    3    0    0 -0.83005193853E+01 -0.30274281803E+02 -0.20626205736E+02  0.37561564452E+02  0.51100000000E-03 0.  1.
         23    2    1    0    0    0 -0.98126983782E+01  0.26310653342E+02 -0.10231222476E+02  0.95113256416E+02  0.90295703685E+02 0.  0.
         11    1    3    3    0    0 -0.15121789929E+01  0.56584935145E+02  0.10394983260E+02  0.57551691964E+02  0.51100000000E-03 0. -1.
         22    1    1    0    0    0  0.98126983782E+01 -0.26310653342E+02  0.10231222476E+02  0.29886743584E+02  0.00000000000E+00 0. -1.
</event>
<event>
 5    1  0.1626333E-003  0.9118800E+02  0.7818608E-02  0.1130116E+00
         25   -1    0    0    0    0  0.00000000000E+00  0.00000000000E+00  0.99999998245E-14  0.12500000000E+03  0.12500000000E+03 0.  0.
        -11    1    3    3    0    0 -0.27730268346E+01  0.40003622862E+02 -0.28565351760E+02  0.49233716510E+02  0.51100000000E-03 0.  1.
         23    2    1    0    0    0 -0.16899868126E+02  0.22603204663E+02  0.11002617654E+02  0.94708615104E+02  0.89733793946E+02 0.  0.
         11    1    3    3    0    0 -0.14126841291E+02 -0.17400418199E+02  0.39567969414E+02  0.45474898594E+02  0.51100000000E-03 0. -1.
         22    1    1    0    0    0  0.16899868126E+02 -0.22603204663E+02 -0.11002617654E+02  0.30291384896E+02  0.00000000000E+00 0.  1.
</event>
<event>
 5    1  0.1626333E-003  0.9118800E+02  0.7818608E-02  0.1130116E+00
         25   -1    0    0    0    0  0.00000000000E+00  0.00000000000E+00  0.99999998245E-14  0.12500000000E+03  0.12500000000E+03 0.  0.
        -11    1    3    3    0    0 -0.32831296136E+02 -0.36893408753E+02 -0.25210387161E+02  0.55448906540E+02  0.51100000000E-03 0.  1.
         23    2    1    0    0    0 -0.84962383608E+01 -0.40142967637E+01 -0.27018561936E+02  0.96393998290E+02  0.92051613633E+02 0.  0.
         11    1    3    3    0    0  0.24335057775E+02  0.32879111989E+02 -0.18081747750E+01  0.40945091750E+02  0.51100000000E-03 0. -1.
         22    1    1    0    0    0  0.84962383608E+01  0.40142967637E+01  0.27018561936E+02  0.28606001710E+02  0.00000000000E+00 0.  1.
</event>
<event>
 5    1  0.1626333E-003  0.9118800E+02  0.7818608E-02  0.1130116E+00
         25   -1    0    0    0    0  0.00000000000E+00  0.00000000000E+00  0.99999998245E-14  0.12500000000E+03  0.12500000000E+03 0.  0.
        -11    1    3    3    0    0 -0.23013140183E+02  0.29792142432E+02  0.43241312012E+02  0.57332254766E+02  0.51100000000E-03 0. -1.
         23    2    1    0    0    0  0.52500613676E+01  0.22155570638E+02  0.18538808886E+02  0.95638121832E+02  0.91019396054E+02 0.  0.
         11    1    3    3    0    0  0.28263201551E+02 -0.76365717944E+01 -0.24702503127E+02  0.38305867066E+02  0.51100000000E-03 0.  1.
         22    1    1    0    0    0 -0.52500613676E+01 -0.22155570638E+02 -0.18538808886E+02  0.29361878168E+02  0.00000000000E+00 0. -1.
</event>
<event>
 5    1  0.1626333E-003  0.9118800E+02  0.7818608E-02  0.1130116E+00
         25   -1    0    0    0    0  0.00000000000E+00  0.00000000000E+00  0.99999998245E-14  0.12500000000E+03  0.12500000000E+03 0.  0.
        -11    1    3    3    0    0  0.19693680903E+02 -0.52443825501E+01 -0.47809221616E+02  0.51971783572E+02  0.51100000000E-03 0. -1.
         23    2    1    0    0    0 -0.74753137339E+01 -0.21621976778E+02 -0.14807448461E+02  0.97748381238E+02  0.93872761276E+02 0.  0.
         11    1    3    3    0    0 -0.27168994637E+02 -0.16377594228E+02  0.33001773155E+02  0.45776597666E+02  0.51100000000E-03 0.  1.
         22    1    1    0    0    0  0.74753137339E+01  0.21621976778E+02  0.14807448461E+02  0.27251618762E+02  0.00000000000E+00 0.  1.
</event>
<event>
 5    1  0.1626333E-003  0.9118800E+02  0.7818608E-02  0.1130116E+00
         25   -1    0    0    0    0  0.00000000000E+00  0.00000000000E+00  0.99999998245E-14  0.12500000000E+03  0.12500000000E+03 0.  0.
        -11    1    3    3    0    0  0.16507298242E+01  0.29619111183E+02  0.17015236962E+02  0.34198464079E+02  0.51100000000E-03 0. -1.
         23    2    1    0    0    0 -0.47097347561E+01 -0.12580603402E+02 -0.26588180982E+02  0.95210999490E+02  0.90430912152E+02 0.  0.
         11    1    3    3    0    0 -0.63604645804E+01 -0.42199714585E+02 -0.43603417944E+02  0.61012535412E+02  0.51100000000E-03 0.  1.
         22    1    1    0    0    0  0.47097347561E+01  0.12580603402E+02  0.26588180982E+02  0.29789000510E+02  0.00000000000E+00 0.  1.
</event>
<event>
 5    1  0.1626333E-003  0.9118800E+02  0.7818608E-02  0.1130116E+00
         25   -1    0    0    0    0  0.00000000000E+00  0.00000000000E+00  0.99999998245E-14  0.12500000000E+03  0.12500000000E+03 0.  0.
        -11    1    3    3    0    0 -0.94051349213E+01  0.19061067802E+02  0.23998897207E+02  0.32058196082E+02  0.51100000000E-03 0.  1.
         23    2    1    0    0    0  0.17654963933E+02 -0.16420244234E+02 -0.19209891936E+02  0.94172380559E+02  0.88983679064E+02 0.  0.
         11    1    3    3    0    0  0.27060098854E+02 -0.35481312036E+02 -0.43208789143E+02  0.62114184477E+02  0.51100000000E-03 0. -1.
         22    1    1    0    0    0 -0.17654963933E+02  0.16420244234E+02  0.19209891936E+02  0.30827619441E+02  0.00000000000E+00 0. -1.
</event>
<event>
 5    1  0.1626333E-003  0.9118800E+02  0.7818608E-02  0.1130116E+00
         25   -1    0    0    0    0  0.00000000000E+00  0.00000000000E+00  0.99999998245E-14  0.12500000000E+03  0.12500000000E+03 0.  0.
        -11    1    3    3    0    0  0.16693457763E+02  0.24503117396E+02 -0.42093404160E+02  0.51487172852E+02  0.51100000000E-03 0. -1.
         23    2    1    0    0    0  0.55169522707E+01  0.28337724761E+02  0.94162685354E+00  0.96114881546E+02  0.91671808024E+02 0.  0.
         11    1    3    3    0    0 -0.11176505492E+02  0.38346073648E+01  0.43035031014E+02  0.44627708694E+02  0.51100000000E-03 0.  1.
         22    1    1    0    0    0 -0.55169522707E+01 -0.28337724761E+02 -0.94162685354E+00  0.28885118454E+02  0.00000000000E+00 0.  1.
</event>
<event>
 5    1  0.1626333E-003  0.9118800E+02  0.7818608E-02  0.1130116E+00
         25   -1    0    0    0    0  0.00000000000E+00  0.00000000000E+00  0.99999998245E-14  0.12500000000E+03  0.12500000000E+03 0.  0.
        -11    1    3    3    0    0  0.40333070849E+02  0.26950931132E+02  0.24525623498E+02  0.54356374982E+02  0.51100000000E-03 0.  1.
         23    2    1    0    0    0  0.27080145912E+02 -0.84928199677E+01  0.11538440583E+02  0.94363454752E+02  0.89251687312E+02 0.  0.
         11    1    3    3    0    0 -0.13252924936E+02 -0.35443751100E+02 -0.12987182915E+02  0.40007079770E+02  0.51100000000E-03 0. -1.
         22    1    1    0    0    0 -0.27080145912E+02  0.84928199677E+01 -0.11538440583E+02  0.30636545248E+02  0.00000000000E+00 0.  1.
</event>
<event>
 5    1  0.1626333E-003  0.9118800E+02  0.7818608E-02  0.1130116E+00
         25   -1    0    0    0    0  0.00000000000E+00  0.00000000000E+00  0.99999998245E-14  0.12500000000E+03  0.12500000000E+03 0.  0.
        -11    1    3    3    0    0  0.49674328506E+02  0.16370929921E+02 -0.92478114213E+01  0.53113729631E+02  0.51100000000E-03 0. -1.
         23    2    1    0    0    0  0.75195477806E+01  0.26198487614E+02 -0.86536119628E+01  0.96402983511E+02  0.92063814160E+02 0.  0.
         11    1    3    3    0    0 -0.42154780725E+02  0.98275576927E+01  0.59419945852E+00  0.43289253879E+02  0.51100000000E-03 0.  1.
         22    1    1    0    0    0 -0.75195477806E+01 -0.26198487614E+02  0.86536119628E+01  0.28597016489E+02  0.00000000000E+00 0. -1.
</event>
<event>
 5    1  0.1626333E-003  0.9118800E+02  0.7818608E-02  0.1130116E+00
         25   -1    0    0    0    0  0.00000000000E+00  0.00000000000E+00  0.99999998245E-14  0.12500000000E+03  0.12500000000E+03 0.  0.
        -11    1    3    3    0    0  0.12647173128E+02  0.26326910260E+02 -0.27955542645E+02  0.40429810249E+02  0.51100000000E-03 0.  1.
         23    2    1    0    0    0  0.32248288344E+01  0.13747445674E+02  0.25338210683E+02  0.95992816335E+02  0.91505213424E+02 0.  0.
         11    1    3    3    0    0 -0.94223442931E+01 -0.12579464586E+02  0.53293753328E+02  0.55563006085E+02  0.51100000000E-03 0. -1.
         22    1    1    0    0    0 -0.32248288344E+01 -0.13747445674E+02 -0.25338210683E+02  0.29007183665E+02  0.00000000000E+00 0. -1.
</event>
<event>
 5    1  0.1626333E-003  0.9118800E+02  0.7818608E-02  0.1130116E+00
         25   -1    0    0    0    0  0.00000000000E+00  0.00000000000E+00  0.99999998245E-14  0.12500000000E+03  0.12500000000E+03 0.  0.
        -11    1    3    3    0    0 -0.48391609837E+02 -0.31365744996E+02 -0.16916423473E+02  0.60097614305E+02  0.51100000000E-03 0.  1.
         23    2    1    0    0    0 -0.25191596194E+02 -0.49103327844E+01 -0.14855742801E+02  0.95344967020E+02  0.90615902330E+02 0.  0.
         11    1    3    3    0    0  0.23200013643E+02  0.26455412212E+02  0.20606806718E+01  0.35247352715E+02  0.51100000000E-03 0. -1.
         22    1    1    0    0    0  0.25191596194E+02  0.49103327844E+01  0.14855742801E+02  0.29655032980E+02  0.00000000000E+00 0.  1.
</event>
<event>
 5    1  0.1626333E-003  0.9118800E+02  0.7818608E-02  0.1130116E+00
         25   -1    0    0    0    0  0.00000000000E+00  0.00000000000E+00  0.99999998245E-14  0.12500000000E+03  0.12500000000E+03 0.  0.
        -11    1    3    3    0    0  0.78091964043E+01  0.19624600793E+02  0.55798814885E+02  0.59662519622E+02  0.51100000000E-03 0. -1.
         23    2    1    0    0    0  0.66114303611E+01  0.20707403363E+02  0.20112097042E+02  0.95385746458E+02  0.90672138027E+02 0.  0.
         11    1    3    3    0    0 -0.11977660431E+01  0.10828025702E+01 -0.35686717843E+02  0.35723226836E+02  0.51100000000E-03 0.  1.
         22    1    1    0    0    0 -0.66114303611E+01 -0.20707403363E+02 -0.20112097042E+02  0.29614253542E+02  0.00000000000E+00 0. -1.
</event>
<event>
 5    1  0.1626333E-003  0.9118800E+02  0.7818608E-02  0.1130116E+00
         25   -1    0    0    0    0  0.00000000000E+00  0.00000000000E+00  0.99999998245E-14  0.12500000000E+03  0.12500000000E+03 0.  0.
        -11    1    3    3    0    0  0.25157637047E+02 -0.27602718694E+02 -0.32590127390E+02  0.49567460947E+02  0.51100000000E-03 0. -1.
         23    2    1    0    0    0 -0.16570914579E+02 -0.17411453151E+02 -0.18135691682E+02  0.94889250697E+02  0.89985069174E+02 0.  0.
         11    1    3    3    0    0 -0.41728551627E+02  0.10191265544E+02  0.14454435709E+02  0.45321789750E+02  0.51100000000E-03 0.  1.
         22    1    1    0    0    0  0.16570914579E+02  0.17411453151E+02  0.18135691682E+02  0.30110749303E+02  0.00000000000E+00 0. -1.
</event>
<event>
 5    1  0.1626333E-003  0.9118800E+02  0.7818608E-02  0.1130116E+00
         25   -1    0    0    0    0  0.00000000000E+00  0.00000000000E+00  0.99999998245E-14  0.12500000000E+03  0.12500000000E+03 0.  0.
        -11    1    3    3    0    0 -0.30495440242E+02  0.33137859434E+02 -0.40134645589E+02  0.60323124755E+02  0.51100000000E-03 0.  1.
         23    2    1    0    0    0 -0.49104044332E+01  0.22354045916E+02 -0.16496965368E+02  0.96787142881E+02  0.92583938781E+02 0.  0.
         11    1    3    3    0    0  0.25585035809E+02 -0.10783813518E+02  0.23637680221E+02  0.36464018125E+02  0.51100000000E-03 0. -1.
         22    1    1    0    0    0  0.49104044332E+01 -0.22354045916E+02  0.16496965368E+02  0.28212857119E+02  0.00000000000E+00 0.  1.
</event>
<event>
 5    1  0.1626333E-003  0.9118800E+02  0.7818608E-02  0.1130116E+00
         25   -1    0    0    0    0  0.00000000000E+00  0.00000000000E+00  0.99999998245E-14  0.12500000000E+03  0.12500000000E+03 0.  0.
        -11    1    3    3    0    0 -0.18773306351E+02  0.43233950106E+02 -0.61671395963E+01  0.47535724294E+02  0.51100000000E-03 0.  1.
         23    2    1    0    0    0 -0.30395032168E+02  0.86446224734E+01 -0.21142883040E+02  0.86978835086E+02  0.78228567490E+02 0.  0.
         11    1    3    3    0    0 -0.11621725817E+02 -0.34589327632E+02 -0.14975743443E+02  0.39443110792E+02  0.51100000000E-03 0. -1.
         22    1    1    0    0    0  0.30395032168E+02 -0.86446224734E+01  0.21142883040E+02  0.38021164914E+02  0.00000000000E+00 0. -1.
</event>
<event>
 5    1  0.1626333E-003  0.9118800E+02  0.7818608E-02  0.1130116E+00
         25   -1    0    0    0    0  0.00000000000E+00  0.00000000000E+00  0.99999998245E-14  0.12500000000E+03  0.12500000000E+03 0.  0.
        -11    1    3    3    0    0 -0.77181210404E+00  0.84492276586E+01  0.39007891778E+02  0.39919929399E+02  0.51100000000E-03 0.  1.
         23    2    1    0    0    0 -0.10267162672E+02  0.18357047599E+02 -0.17231568512E+02  0.97809509397E+02  0.93954123641E+02 0.  0.
         11    1    3    3    0    0 -0.94953505681E+01  0.99078199399E+01 -0.56239460290E+02  0.57889579998E+02  0.51100000000E-03 0. -1.
         22    1    1    0    0    0  0.10267162672E+02 -0.18357047599E+02  0.17231568512E+02  0.27190490603E+02  0.00000000000E+00 0. -1.
</event>
<event>
 5    1  0.1626333E-003  0.9118800E+02  0.7818608E-02  0.1130116E+00
         25   -1    0    0    0    0  0.00000000000E+00  0.00000000000E+00  0.99999998245E-14  0.12500000000E+03  0.12500000000E+03 0.  0.
        -11    1    3    3    0    0  0.38696191237E+01 -0.43615321526E+02 -0.30953226930E+02  0.53622499771E+02  0.51100000000E-03 0.  1.
         23    2    1    0    0    0 -0.20731268518E+02 -0.20164656623E+02 -0.68781893770E+01  0.95272767364E+02  0.90516251806E+02 0.  0.
         11    1    3    3    0    0 -0.24600887642E+02  0.23450664903E+02  0.24075037553E+02  0.41650267593E+02  0.51100000000E-03 0. -1.
         22    1    1    0    0    0  0.20731268518E+02  0.20164656623E+02  0.68781893770E+01  0.29727232636E+02  0.00000000000E+00 0.  1.
</event>
<event>
 5    1  0.1626333E-003  0.9118800E+02  0.7818608E-02  0.1130116E+00
         25   -1    0    0    0    0  0.00000000000E+00  0.00000000000E+00  0.99999998245E-14  0.12500000000E+03  0.12500000000E+03 0.  0.
        -11    1    3    3    0    0  0.25585059222E+01  0.18723264937E+02 -0.48091275115E+02  0.51670855856E+02  0.51100000000E-03 0. -1.
         23    2    1    0    0    0  0.25677905092E+02  0.38740293194E+01 -0.13865726166E+02  0.95561568058E+02  0.90914201390E+02 0.  0.
         11    1    3    3    0    0  0.23119399170E+02 -0.14849235618E+02  0.34225548949E+02  0.43890712201E+02  0.51100000000E-03 0.  1.
         22    1    1    0    0    0 -0.25677905092E+02 -0.38740293194E+01  0.13865726166E+02  0.29438431942E+02  0.00000000000E+00 0.  1.
</event>
<event>
 5    1  0.1626333E-003  0.9118800E+02  0.7818608E-02  0.1130116E+00
         25   -1    0    0    0    0  0.00000000000E+00  0.00000000000E+00  0.99999998245E-14  0.12500000000E+03  0.12500000000E+03 0.  0.
        -11    1    3    3    0    0 -0.20317054879E+02 -0.43488290638E+02 -0.58777911098E+01  0.48358686605E+02  0.51100000000E-03 0. -1.
         23    2    1    0    0    0  0.20583954661E+02 -0.18737463847E+02 -0.74286132758E+01  0.96190695321E+02  0.91775126425E+02 0.  0.
         11    1    3    3    0    0  0.40901009539E+02  0.24750826791E+02 -0.15508221659E+01  0.47832008716E+02  0.51100000000E-03 0.  1.
         22    1    1    0    0    0 -0.20583954661E+02  0.18737463847E+02  0.74286132758E+01  0.28809304679E+02  0.00000000000E+00 0. -1.
</event>
<event>
 5    1  0.1626333E-003  0.9118800E+02  0.7818608E-02  0.1130116E+00
         25   -1    0    0    0    0  0.00000000000E+00  0.00000000000E+00  0.99999998245E-14  0.12500000000E+03  0.12500000000E+03 0.  0.
        -11    1    3    3    0    0 -0.63980080488E+01 -0.74424228994E+01  0.39231793703E+02  0.40440793798E+02  0.51100000000E-03 0.  1.
         23    2    1    0    0    0  0.29077455557E+02 -0.17810202599E+00 -0.26440702527E+01  0.95802033470E+02  0.91244223749E+02 0.  0.
         11    1    3    3    0    0  0.35475463605E+02  0.72643208734E+01 -0.41875863956E+02  0.55361239672E+02  0.51100000000E-03 0. -1.
         22    1    1    0    0    0 -0.29077455557E+02  0.17810202599E+00  0.26440702527E+01  0.29197966530E+02  0.00000000000E+00 0. -1.
</event>
<event>
 5    1  0.1626333E-003  0.9118800E+02  0.7818608E-02  0.1130116E+00
         25   -1    0    0    0    0  0.00000000000E+00  0.00000000000E+00  0.99999998245E-14  0.12500000000E+03  0.12500000000E+03 0.  0.
        -11    1    3    3    0    0  0.71529568999E+01  0.53111947556E+02 -0.17330186160E+02  0.56323876981E+02  0.51100000000E-03 0. -1.
         23    2    1    0    0    0  0.21974078008E+02  0.18892106744E+02 -0.50566100672E+01  0.95583319241E+02  0.90944102669E+02 0.  0.
         11    1    3    3    0    0  0.14821121108E+02 -0.34219840813E+02  0.12273576092E+02  0.39259442259E+02  0.51100000000E-03 0.  1.
         22    1    1    0    0    0 -0.21974078008E+02 -0.18892106744E+02  0.50566100672E+01  0.29416680759E+02  0.00000000000E+00 0. -1.
</event>
<event>
 5    1  0.1626333E-003  0.9118800E+02  0.7818608E-02  0.1130116E+00
         25   -1    0    0    0    0  0.00000000000E+00  0.00000000000E+00  0.99999998245E-14  0.12500000000E+03  0.12500000000E+03 0.  0.
        -11    1    3    3    0    0  0.33075331434E+02 -0.66645198495E+01  0.25663672447E+02  0.42391242704E+02  0.51100000000E-03 0. -1.
         23    2    1    0    0    0  0.15266967854E+02 -0.17516745811E+02 -0.21111985502E+02  0.93605213441E+02  0.88183350811E+02 0.  0.
         11    1    3    3    0    0 -0.17808363581E+02 -0.10852225961E+02 -0.46775657949E+02  0.51213970736E+02  0.51100000000E-03 0.  1.
         22    1    1    0    0    0 -0.15266967854E+02  0.17516745811E+02  0.21111985502E+02  0.31394786559E+02  0.00000000000E+00 0.  1.
</event>
<event>
 5    1  0.1626333E-003  0.9118800E+02  0.7818608E-02  0.1130116E+00
         25   -1    0    0    0    0  0.00000000000E+00  0.00000000000E+00  0.99999998245E-14  0.12500000000E+03  0.12500000000E+03 0.  0.
        -11    1    3    3    0    0 -0.25629151416E+02  0.47832430183E+02  0.13343422238E+02  0.55882391652E+02  0.51100000000E-03 0. -1.
         23    2    1    0    0    0 -0.29884742751E+02  0.12967288824E+02  0.84464314137E+01  0.91346016100E+02  0.84920574803E+02 0.  0.
         11    1    3    3    0    0 -0.42555913353E+01 -0.34865141359E+02 -0.48969908239E+01  0.35463624448E+02  0.51100000000E-03 0.  1.
         22    1    1    0    0    0  0.29884742751E+02 -0.12967288824E+02 -0.84464314137E+01  0.33653983900E+02  0.00000000000E+00 0. -1.
</event>
<event>
 5    1  0.1626333E-003  0.9118800E+02  0.7818608E-02  0.1130116E+00
         25   -1    0    0    0    0  0.00000000000E+00  0.00000000000E+00  0.99999998245E-14  0.12500000000E+03  0.12500000000E+03 0.  0.
        -11    1    3    3    0    0 -0.19006133376E+02  0.12785766007E+02 -0.54959418095E+02  0.59541973061E+02  0.51100000000E-03 0. -1.
         23    2    1    0    0    0 -0.11502892172E+01 -0.59025545661E+01 -0.25801624308E+02  0.98506847439E+02  0.94877351669E+02 0.  0.
         11    1    3    3    0    0  0.17855844159E+02 -0.18688320573E+02  0.29157793787E+02  0.38964874378E+02  0.51100000000E-03 0.  1.
         22    1    1    0    0    0  0.11502892172E+01  0.59025545661E+01  0.25801624308E+02  0.26493152561E+02  0.00000000000E+00 0. -1.
</event>
<event>
 5    1  0.1626333E-003  0.9118800E+02  0.7818608E-02  0.1130116E+00
         25   -1    0    0    0    0  0.00000000000E+00  0.00000000000E+00  0.99999998245E-14  0.12500000000E+03  0.12500000000E+03 0.  0.
        -11    1    3    3    0    0  0.12978612476E+02  0.45730914691E+02  0.38150656950E+02  0.60952715824E+02  0.51100000000E-03 0.  1.
         23    2    1    0    0    0  0.10758652954E+02  0.15110335364E+02  0.57695526105E+01  0.10557428031E+03  0.10377172099E+03 0.  0.
         11    1    3    3    0    0 -0.22199595220E+01 -0.30620579327E+02 -0.32381104340E+02  0.44621564486E+02  0.51100000000E-03 0. -1.
         22    1    1    0    0    0 -0.10758652954E+02 -0.15110335364E+02 -0.57695526105E+01  0.19425719691E+02  0.00000000000E+00 0.  1.
</event>
<event>
 5    1  0.1626333E-003  0.9118800E+02  0.7818608E-02  0.1130116E+00
         25   -1    0    0    0    0  0.00000000000E+00  0.00000000000E+00  0.99999998245E-14  0.12500000000E+03  0.12500000000E+03 0.  0.
        -11    1    3    3    0    0 -0.27490000144E+02  0.32546271479E+02  0.36098566276E+02  0.55839648840E+02  0.51100000000E-03 0.  1.
         23    2    1    0    0    0 -0.23916086959E+02  0.19755432595E+02  0.34748332276E+00  0.93977797030E+02  0.88709916343E+02 0.  0.
         11    1    3    3    0    0  0.35739131855E+01 -0.12790838883E+02 -0.35751082953E+02  0.38138148190E+02  0.51100000000E-03 0. -1.
         22    1    1    0    0    0  0.23916086959E+02 -0.19755432595E+02 -0.34748332276E+00  0.31022202970E+02  0.00000000000E+00 0.  1.
</event>
<event>
 5    1  0.1626333E-003  0.9118800E+02  0.7818608E-02  0.1130116E+00
         25   -1    0    0    0    0  0.00000000000E+00  0.00000000000E+00  0.99999998245E-14  0.12500000000E+03  0.12500000000E+03 0.  0.
        -11    1    3    3    0    0  0.78692222271E+01 -0.33881735743E+02 -0.24890638737E+02  0.42771960119E+02  0.51100000000E-03 0. -1.
         23    2    1    0    0    0  0.24784520977E+02 -0.66554916732E+01  0.16022847905E+02  0.94746079519E+02  0.89785967054E+02 0.  0.
         11    1    3    3    0    0  0.16915298750E+02  0.27226244070E+02  0.40913486642E+02  0.51974119400E+02  0.51100000000E-03 0.  1.
         22    1    1    0    0    0 -0.24784520977E+02  0.66554916732E+01 -0.16022847905E+02  0.30253920481E+02  0.00000000000E+00 0.  1.
</event>
<event>
 5    1  0.1626333E-003  0.9118800E+02  0.7818608E-02  0.1130116E+00
         25   -1    0    0    0    0  0.00000000000E+00  0.00000000000E+00  0.99999998245E-14  0.12500000000E+03  0.12500000000E+03 0.  0.
        -11    1    3    3    0    0 -0.48434627192E+02  0.16720592566E+02  0.23775882385E+02  0.56487024266E+02  0.51100000000E-03 0.  1.
         23    2    1    0    0    0 -0.10911621624E+02  0.48232731263E+00  0.25343631362E+02  0.97402975220E+02  0.93411689873E+02 0.  0.
         11    1    3    3    0    0  0.37523005569E+02 -0.16238265253E+02  0.15677489776E+01  0.40915950954E+02  0.51100000000E-03 0. -1.
         22    1    1    0    0    0  0.10911621624E+02 -0.48232731263E+00 -0.25343631362E+02  0.27597024780E+02  0.00000000000E+00 0.  1.
</event>
<event>
 5    1  0.1626333E-003  0.9118800E+02  0.7818608E-02  0.1130116E+00
         25   -1    0    0    0    0  0.00000000000E+00  0.00000000000E+00  0.99999998245E-14  0.12500000000E+03  0.12500000000E+03 0.  0.
        -11    1    3    3    0    0 -0.22409042698E+02 -0.26592677420E+02 -0.40992356771E+02  0.53756013625E+02  0.51100000000E-03 0. -1.
         23    2    1    0    0    0 -0.28978509929E+02 -0.83034829709E+01 -0.53041314954E+01  0.94392228470E+02  0.89291976781E+02 0.  0.
         11    1    3    3    0    0 -0.65694672310E+01  0.18289194449E+02  0.35688225275E+02  0.40636214844E+02  0.51100000000E-03 0.  1.
         22    1    1    0    0    0  0.28978509929E+02  0.83034829709E+01  0.53041314954E+01  0.30607771530E+02  0.00000000000E+00 0.  1.
</event>
<event>
 5    1  0.1626333E-003  0.9118800E+02  0.7818608E-02  0.1130116E+00
         25   -1    0    0    0    0  0.00000000000E+00  0.00000000000E+00  0.99999998245E-14  0.12500000000E+03  0.12500000000E+03 0.  0.
        -11    1    3    3    0    0 -0.24071301528E+02 -0.23551742378E+02  0.35403398083E+02  0.48862180900E+02  0.51100000000E-03 0. -1.
         23    2    1    0    0    0  0.90056107908E+01 -0.26827578231E+02  0.10232746768E+01  0.96682742532E+02  0.92442877676E+02 0.  0.
         11    1    3    3    0    0  0.33076912319E+02 -0.32758358531E+01 -0.34380123406E+02  0.47820561632E+02  0.51100000000E-03 0.  1.
         22    1    1    0    0    0 -0.90056107908E+01  0.26827578231E+02 -0.10232746768E+01  0.28317257468E+02  0.00000000000E+00 0. -1.
</event>
<event>
 5    1  0.1626333E-003  0.9118800E+02  0.7818608E-02  0.1130116E+00
         25   -1    0    0    0    0  0.00000000000E+00  0.00000000000E+00  0.99999998245E-14  0.12500000000E+03  0.12500000000E+03 0.  0.
        -11    1    3    3    0    0  0.33797824716E+02 -0.39805049355E+02  0.13926088714E+02  0.54043231369E+02  0.51100000000E-03 0. -1.
         23    2    1    0    0    0  0.15448599805E+01 -0.16050369646E+02  0.24680998492E+02  0.95518605109E+02  0.90855111454E+02 0.  0.
         11    1    3    3    0    0 -0.32252964735E+02  0.23754679709E+02  0.10754909779E+02  0.41475373740E+02  0.51100000000E-03 0.  1.
         22    1    1    0    0    0 -0.15448599805E+01  0.16050369646E+02 -0.24680998492E+02  0.29481394891E+02  0.00000000000E+00 0. -1.
</event>
<event>
 5    1  0.1626333E-003  0.9118800E+02  0.7818608E-02  0.1130116E+00
         25   -1    0    0    0    0  0.00000000000E+00  0.00000000000E+00  0.99999998245E-14  0.12500000000E+03  0.12500000000E+03 0.  0.
        -11    1    3    3    0    0  0.16409398110E+02 -0.48702405793E+02 -0.23133277928E+02  0.56359038532E+02  0.51100000000E-03 0. -1.
         23    2    1    0    0    0  0.22755976522E+02 -0.17646887154E+02  0.98130431219E+00  0.96186634146E+02  0.91769594836E+02 0.  0.
         11    1    3    3    0    0  0.63465784122E+01  0.31055518638E+02  0.24114582241E+02  0.39827595613E+02  0.51100000000E-03 0.  1.
         22    1    1    0    0    0 -0.22755976522E+02  0.17646887154E+02 -0.98130431219E+00  0.28813365854E+02  0.00000000000E+00 0. -1.
</event>
<event>
 5    1  0.1626333E-003  0.9118800E+02  0.7818608E-02  0.1130116E+00
         25   -1    0    0    0    0  0.00000000000E+00  0.00000000000E+00  0.99999998245E-14  0.12500000000E+03  0.12500000000E+03 0.  0.
        -11    1    3    3    0    0  0.28685055390E+02 -0.19956172503E+02 -0.40980273062E+02  0.53855956070E+02  0.51100000000E-03 0.  1.
         23    2    1    0    0    0  0.22400745684E+02  0.12073259382E+02 -0.16246011780E+02  0.94809109022E+02  0.89873673873E+02 0.  0.
         11    1    3    3    0    0 -0.62843097063E+01  0.32029431884E+02  0.24734261282E+02  0.40953152952E+02  0.51100000000E-03 0. -1.
         22    1    1    0    0    0 -0.22400745684E+02 -0.12073259382E+02  0.16246011780E+02  0.30190890978E+02  0.00000000000E+00 0.  1.
</event>
<event>
 5    1  0.1626333E-003  0.9118800E+02  0.7818608E-02  0.1130116E+00
         25   -1    0    0    0    0  0.00000000000E+00  0.00000000000E+00  0.99999998245E-14  0.12500000000E+03  0.12500000000E+03 0.  0.
        -11    1    3    3    0    0  0.30087134354E+02  0.70744115074E+01 -0.22877182724E+02  0.38453198066E+02  0.51100000000E-03 0.  1.
         23    2    1    0    0    0 -0.23339799657E+02  0.14036983254E+02  0.17804703893E+01  0.97706168798E+02  0.93816534787E+02 0.  0.
         11    1    3    3    0    0 -0.53426934011E+02  0.69625717469E+01  0.24657653114E+02  0.59252970731E+02  0.51100000000E-03 0. -1.
         22    1    1    0    0    0  0.23339799657E+02 -0.14036983254E+02 -0.17804703893E+01  0.27293831202E+02  0.00000000000E+00 0. -1.
</event>
<event>
 5    1  0.1626333E-003  0.9118800E+02  0.7818608E-02  0.1130116E+00
         25   -1    0    0    0    0  0.00000000000E+00  0.00000000000E+00  0.99999998245E-14  0.12500000000E+03  0.12500000000E+03 0.  0.
        -11    1    3    3    0    0  0.14939880037E+02 -0.19761665329E+02 -0.13343931698E+02  0.28138655716E+02  0.51100000000E-03 0.  1.
         23    2    1    0    0    0  0.47895869281E+01  0.30265466550E+02 -0.30279514414E+02  0.81921146700E+02  0.69679887163E+02 0.  0.
         11    1    3    3    0    0 -0.10150293108E+02  0.50027131879E+02 -0.16935582716E+02  0.53782490984E+02  0.51100000000E-03 0. -1.
         22    1    1    0    0    0 -0.47895869281E+01 -0.30265466550E+02  0.30279514414E+02  0.43078853300E+02  0.00000000000E+00 0. -1.
</event>
<event>
 5    1  0.1626333E-003  0.9118800E+02  0.7818608E-02  0.1130116E+00
         25   -1    0    0    0    0  0.00000000000E+00  0.00000000000E+00  0.99999998245E-14  0.12500000000E+03  0.12500000000E+03 0.  0.
        -11    1    3    3    0    0  0.52914587105E+01 -0.27701434332E+02  0.25016550764E+02  0.37698764060E+02  0.51100000000E-03 0. -1.
         23    2    1    0    0    0  0.22076150357E+02  0.14625159332E+02 -0.11562086350E+02  0.96104783426E+02  0.91658037600E+02 0.  0.
         11    1    3    3    0    0  0.16784691646E+02  0.42326593664E+02 -0.36578637113E+02  0.58406019366E+02  0.51100000000E-03 0.  1.
         22    1    1    0    0    0 -0.22076150357E+02 -0.14625159332E+02  0.11562086350E+02  0.28895216574E+02  0.00000000000E+00 0.  1.
</event>
<event>
 5    1  0.1626333E-003  0.9118800E+02  0.7818608E-02  0.1130116E+00
         25   -1    0    0    0    0  0.00000000000E+00  0.00000000000E+00  0.99999998245E-14  0.12500000000E+03  0.12500000000E+03 0.  0.
        -11    1    3    3    0    0 -0.27945824437E+02 -0.52877154867E+02 -0.14891164927E+02  0.61633671021E+02  0.51100000000E-03 0. -1.
         23    2    1    0    0    0 -0.10617213237E+02 -0.22098422157E+02 -0.13566607276E+02  0.96980037264E+02  0.92844005277E+02 0.  0.
         11    1    3    3    0    0  0.17328611200E+02  0.30778732710E+02  0.13245576508E+01  0.35346366243E+02  0.51100000000E-03 0.  1.
         22    1    1    0    0    0  0.10617213237E+02  0.22098422157E+02  0.13566607276E+02  0.28019962736E+02  0.00000000000E+00 0. -1.
</event>
<event>
 5    1  0.1626333E-003  0.9118800E+02  0.7818608E-02  0.1130116E+00
         25   -1    0    0    0    0  0.00000000000E+00  0.00000000000E+00  0.99999998245E-14  0.12500000000E+03  0.12500000000E+03 0.  0.
        -11    1    3    3    0    0  0.69312674278E+01 -0.27672388863E+01 -0.33599150908E+02  0.34418062427E+02  0.51100000000E-03 0.  1.
         23    2    1    0    0    0 -0.87515627594E+01  0.88355219071E+01  0.25486662120E+02  0.96641117015E+02  0.92386575073E+02 0.  0.
         11    1    3    3    0    0 -0.15682830187E+02  0.11602760793E+02  0.59085813029E+02  0.62223054588E+02  0.51100000000E-03 0. -1.
         22    1    1    0    0    0  0.87515627594E+01 -0.88355219071E+01 -0.25486662120E+02  0.28358882985E+02  0.00000000000E+00 0. -1.
</event>
<event>
 5    1  0.1626333E-003  0.9118800E+02  0.7818608E-02  0.1130116E+00
         25   -1    0    0    0    0  0.00000000000E+00  0.00000000000E+00  0.99999998245E-14  0.12500000000E+03  0.12500000000E+03 0.  0.
        -11    1    3    3    0    0  0.53698243832E+02 -0.73227153519E+01 -0.79971755184E+01  0.54782098968E+02  0.51100000000E-03 0.  1.
         23    2    1    0    0    0  0.15037379995E+02 -0.23450465684E+02 -0.38698272183E+01  0.96874874211E+02  0.92702311475E+02 0.  0.
         11    1    3    3    0    0 -0.38660863837E+02 -0.16127750332E+02  0.41273483001E+01  0.42092775243E+02  0.51100000000E-03 0. -1.
         22    1    1    0    0    0 -0.15037379995E+02  0.23450465684E+02  0.38698272183E+01  0.28125125789E+02  0.00000000000E+00 0. -1.
</event>
<event>
 5    1  0.1626333E-003  0.9118800E+02  0.7818608E-02  0.1130116E+00
         25   -1    0    0    0    0  0.00000000000E+00  0.00000000000E+00  0.99999998245E-14  0.12500000000E+03  0.12500000000E+03 0.  0.
        -11    1    3    3    0    0  0.14374049533E+02 -0.32103028082E+02  0.40999792741E+00  0.35176495144E+02  0.51100000000E-03 0.  1.
         23    2    1    0    0    0 -0.16708609083E+02  0.17126484352E+02  0.16922312225E+02  0.95693708273E+02  0.91095702797E+02 0.  0.
         11    1    3    3    0    0 -0.31082658616E+02  0.49229512434E+02  0.16512314298E+02  0.60517213129E+02  0.51100000000E-03 0. -1.
         22    1    1    0    0    0  0.16708609083E+02 -0.17126484352E+02 -0.16922312225E+02  0.29306291727E+02  0.00000000000E+00 0. -1.
</event>
<event>
 5    1  0.1626333E-003  0.9118800E+02  0.7818608E-02  0.1130116E+00
         25   -1    0    0    0    0  0.00000000000E+00  0.00000000000E+00  0.99999998245E-14  0.12500000000E+03  0.12500000000E+03 0.  0.
        -11    1    3    3    0    0  0.18157617038E+00 -0.17834751392E+01  0.60424948141E+02  0.60451535229E+02  0.51100000000E-03 0. -1.
         23    2    1    0    0    0  0.29397680630E+01 -0.11369535253E+02  0.41827658780E+02  0.81555073862E+02  0.69020058428E+02 0.  0.
         11    1    3    3    0    0  0.27581918926E+01 -0.95860601136E+01 -0.18597289360E+02  0.21103538633E+02  0.51100000000E-03 0.  1.
         22    1    1    0    0    0 -0.29397680630E+01  0.11369535253E+02 -0.41827658780E+02  0.43444926138E+02  0.00000000000E+00 0. -1.
</event>
<event>
 5    1  0.1626333E-003  0.9118800E+02  0.7818608E-02  0.1130116E+00
         25   -1    0    0    0    0  0.00000000000E+00  0.00000000000E+00  0.99999998245E-14  0.12500000000E+03  0.12500000000E+03 0.  0.
        -11    1    3    3    0    0 -0.34769158526E+02  0.94335721848E+01 -0.16371143806E+02  0.39571467227E+02  0.51100000000E-03 0. -1.
         23    2    1    0    0    0  0.19360218285E+01 -0.97876672072E+01  0.24975208185E+02  0.98105620777E+02  0.94347258542E+02 0.  0.
         11    1    3    3    0    0  0.36705180354E+02 -0.19221239392E+02  0.41346351991E+02  0.58534153550E+02  0.51100000000E-03 0.  1.
         22    1    1    0    0    0 -0.19360218285E+01  0.97876672072E+01 -0.24975208185E+02  0.26894379223E+02  0.00000000000E+00 0.  1.
</event>
<event>
 5    1  0.1626333E-003  0.9118800E+02  0.7818608E-02  0.1130116E+00
         25   -1    0    0    0    0  0.00000000000E+00  0.00000000000E+00  0.99999998245E-14  0.12500000000E+03  0.12500000000E+03 0.  0.
        -11    1    3    3    0    0  0.63710929840E+00 -0.34655400315E+02  0.10219387128E+02  0.36136388209E+02  0.51100000000E-03 0.  1.
         23    2    1    0    0    0  0.17020350598E+02  0.21939834310E+02  0.11187651698E+02  0.95063196321E+02  0.90226376854E+02 0.  0.
         11    1    3    3    0    0  0.16383241299E+02  0.56595234625E+02  0.96826456991E+00  0.58926808112E+02  0.51100000000E-03 0. -1.
         22    1    1    0    0    0 -0.17020350598E+02 -0.21939834310E+02 -0.11187651698E+02  0.29936803679E+02  0.00000000000E+00 0. -1.
</event>
<event>
 5    1  0.1626333E-003  0.9118800E+02  0.7818608E-02  0.1130116E+00
         25   -1    0    0    0    0  0.00000000000E+00  0.00000000000E+00  0.99999998245E-14  0.12500000000E+03  0.12500000000E+03 0.  0.
        -11    1    3    3    0    0  0.18418199058E+02  0.18517076090E+02 -0.27588581789E+02  0.37990025123E+02  0.51100000000E-03 0. -1.
         23    2    1    0    0    0 -0.28434928244E+02 -0.34807866000E+01 -0.63934212367E+00  0.96345684829E+02  0.91985983754E+02 0.  0.
         11    1    3    3    0    0 -0.46853127301E+02 -0.21997862690E+02  0.26949239665E+02  0.58355659706E+02  0.51100000000E-03 0.  1.
         22    1    1    0    0    0  0.28434928244E+02  0.34807866000E+01  0.63934212367E+00  0.28654315171E+02  0.00000000000E+00 0.  1.
</event>
<event>
 5    1  0.1626333E-003  0.9118800E+02  0.7818608E-02  0.1130116E+00
         25   -1    0    0    0    0  0.00000000000E+00  0.00000000000E+00  0.99999998245E-14  0.12500000000E+03  0.12500000000E+03 0.  0.
        -11    1    3    3    0    0 -0.34525693977E+02 -0.93579237407E+01 -0.12092519978E+02  0.37760075755E+02  0.51100000000E-03 0.  1.
         23    2    1    0    0    0  0.79163465213E+01  0.27787668148E+02  0.24405517545E+01  0.96003804797E+02  0.91520222898E+02 0.  0.
         11    1    3    3    0    0  0.42442040499E+02  0.37145591889E+02  0.14533071733E+02  0.58243729042E+02  0.51100000000E-03 0. -1.
         22    1    1    0    0    0 -0.79163465213E+01 -0.27787668148E+02 -0.24405517545E+01  0.28996195203E+02  0.00000000000E+00 0. -1.
</event>
<event>
 5    1  0.1626333E-003  0.9118800E+02  0.7818608E-02  0.1130116E+00
         25   -1    0    0    0    0  0.00000000000E+00  0.00000000000E+00  0.99999998245E-14  0.12500000000E+03  0.12500000000E+03 0.  0.
        -11    1    3    3    0    0  0.15133173652E+02 -0.75754412094E+01 -0.37363129931E+02  0.41017115121E+02  0.51100000000E-03 0.  1.
         23    2    1    0    0    0  0.14345604175E+02  0.24847393702E+02  0.65129948321E+01  0.95578775780E+02  0.90937857601E+02 0.  0.
         11    1    3    3    0    0 -0.78756947678E+00  0.32422834911E+02  0.43876124764E+02  0.54561660659E+02  0.51100000000E-03 0. -1.
         22    1    1    0    0    0 -0.14345604175E+02 -0.24847393702E+02 -0.65129948321E+01  0.29421224220E+02  0.00000000000E+00 0. -1.
</event>
<event>
 5    1  0.1626333E-003  0.9118800E+02  0.7818608E-02  0.1130116E+00
         25   -1    0    0    0    0  0.00000000000E+00  0.00000000000E+00  0.99999998245E-14  0.12500000000E+03  0.12500000000E+03 0.  0.
        -11    1    3    3    0    0  0.21219341980E+02  0.13660037743E+02  0.12016155030E+02  0.27950761835E+02  0.51100000000E-03 0. -1.
         23    2    1    0    0    0 -0.32212365415E+02  0.56882112736E+01 -0.15753721875E+02  0.88693361681E+02  0.80921816714E+02 0.  0.
         11    1    3    3    0    0 -0.53431707395E+02 -0.79718264694E+01 -0.27769876906E+02  0.60742599846E+02  0.51100000000E-03 0.  1.
         22    1    1    0    0    0  0.32212365415E+02 -0.56882112736E+01  0.15753721875E+02  0.36306638319E+02  0.00000000000E+00 0.  1.
</event>
<event>
 5    1  0.1626333E-003  0.9118800E+02  0.7818608E-02  0.1130116E+00
         25   -1    0    0    0    0  0.00000000000E+00  0.00000000000E+00  0.99999998245E-14  0.12500000000E+03  0.12500000000E+03 0.  0.
        -11    1    3    3    0    0  0.20462875928E+02 -0.31910859110E+02  0.46088787007E+02  0.59675862025E+02  0.51100000000E-03 0.  1.
         23    2    1    0    0    0  0.18380619087E+02 -0.18617204168E+02  0.12209840008E+02  0.96129121211E+02  0.91691222604E+02 0.  0.
         11    1    3    3    0    0 -0.20822568413E+01  0.13293654942E+02 -0.33878946999E+02  0.36453259186E+02  0.51100000000E-03 0. -1.
         22    1    1    0    0    0 -0.18380619087E+02  0.18617204168E+02 -0.12209840008E+02  0.28870878789E+02  0.00000000000E+00 0.  1.
</event>
<event>
 5    1  0.1626333E-003  0.9118800E+02  0.7818608E-02  0.1130116E+00
         25   -1    0    0    0    0  0.00000000000E+00  0.00000000000E+00  0.99999998245E-14  0.12500000000E+03  0.12500000000E+03 0.  0.
        -11    1    3    3    0    0  0.13166883488E+02  0.23448009813E+02  0.29766579906E+02  0.40115150063E+02  0.51100000000E-03 0.  1.
         23    2    1    0    0    0  0.16833561504E+02 -0.21000707605E+02 -0.61650282943E+01  0.97388298012E+02  0.93392047322E+02 0.  0.
         11    1    3    3    0    0  0.36666780166E+01 -0.44448717418E+02 -0.35931608201E+02  0.57273147949E+02  0.51100000000E-03 0. -1.
         22    1    1    0    0    0 -0.16833561504E+02  0.21000707605E+02  0.61650282943E+01  0.27611701988E+02  0.00000000000E+00 0. -1.
</event>
<event>
 5    1  0.1626333E-003  0.9118800E+02  0.7818608E-02  0.1130116E+00
         25   -1    0    0    0    0  0.00000000000E+00  0.00000000000E+00  0.99999998245E-14  0.12500000000E+03  0.12500000000E+03 0.  0.
        -11    1    3    3    0    0  0.75244731603E+01  0.34567533197E+02  0.36338989067E+02  0.50715423437E+02  0.51100000000E-03 0. -1.
         23    2    1    0    0    0  0.20517230341E+02  0.22063080941E+02 -0.37166647396E+01  0.94642959989E+02  0.89642289112E+02 0.  0.
         11    1    3    3    0    0  0.12992757180E+02 -0.12504452256E+02 -0.40055653807E+02  0.43927536552E+02  0.51100000000E-03 0.  1.
         22    1    1    0    0    0 -0.20517230341E+02 -0.22063080941E+02  0.37166647396E+01  0.30357040011E+02  0.00000000000E+00 0. -1.
</event>
<event>
 5    1  0.1626333E-003  0.9118800E+02  0.7818608E-02  0.1130116E+00
         25   -1    0    0    0    0  0.00000000000E+00  0.00000000000E+00  0.99999998245E-14  0.12500000000E+03  0.12500000000E+03 0.  0.
        -11    1    3    3    0    0 -0.35039167135E+02  0.90761992137E+01  0.15338463114E+02  0.39311436970E+02  0.51100000000E-03 0. -1.
         23    2    1    0    0    0  0.19605323307E+02 -0.32870118298E+01  0.21551355541E+02  0.95680483046E+02  0.91077553555E+02 0.  0.
         11    1    3    3    0    0  0.54644490442E+02 -0.12363211044E+02  0.62128924265E+01  0.56369046076E+02  0.51100000000E-03 0.  1.
         22    1    1    0    0    0 -0.19605323307E+02  0.32870118298E+01 -0.21551355541E+02  0.29319516954E+02  0.00000000000E+00 0.  1.
</event>
<event>
 5    1  0.1626333E-003  0.9118800E+02  0.7818608E-02  0.1130116E+00
         25   -1    0    0    0    0  0.00000000000E+00  0.00000000000E+00  0.99999998245E-14  0.12500000000E+03  0.12500000000E+03 0.  0.
        -11    1    3    3    0    0  0.16912544151E+02 -0.46789389478E+01  0.31013028098E+02  0.35633334553E+02  0.51100000000E-03 0.  1.
         23    2    1    0    0    0  0.13291136908E+02 -0.18195956783E+02 -0.23812236895E+02  0.92216318244E+02  0.86192108461E+02 0.  0.
         11    1    3    3    0    0 -0.36214072436E+01 -0.13517017836E+02 -0.54825264992E+02  0.56582983691E+02  0.51100000000E-03 0. -1.
         22    1    1    0    0    0 -0.13291136908E+02  0.18195956783E+02  0.23812236895E+02  0.32783681756E+02  0.00000000000E+00 0. -1.
</event>
<event>
 5    1  0.1626333E-003  0.9118800E+02  0.7818608E-02  0.1130116E+00
         25   -1    0    0    0    0  0.00000000000E+00  0.00000000000E+00  0.99999998245E-14  0.12500000000E+03  0.12500000000E+03 0.  0.
        -11    1    3    3    0    0 -0.28863992249E+02 -0.24384954650E+02 -0.36839838256E+02  0.52772433570E+02  0.51100000000E-03 0.  1.
         23    2    1    0    0    0  0.91709884860E+01 -0.11091143507E+02 -0.27240580672E+02  0.94191401696E+02  0.89010395034E+02 0.  0.
         11    1    3    3    0    0  0.38034980735E+02  0.13293811143E+02  0.95992575848E+01  0.41418968127E+02  0.51100000000E-03 0. -1.
         22    1    1    0    0    0 -0.91709884860E+01  0.11091143507E+02  0.27240580672E+02  0.30808598304E+02  0.00000000000E+00 0.  1.
</event>
<event>
 5    1  0.1626333E-003  0.9118800E+02  0.7818608E-02  0.1130116E+00
         25   -1    0    0    0    0  0.00000000000E+00  0.00000000000E+00  0.99999998245E-14  0.12500000000E+03  0.12500000000E+03 0.  0.
        -11    1    3    3    0    0  0.23034850319E+02  0.36897422613E+02 -0.36768539141E+02  0.56955680977E+02  0.51100000000E-03 0.  1.
         23    2    1    0    0    0  0.15891808032E+01  0.40034436837E+01 -0.27318232385E+02  0.97344279478E+02  0.93333112396E+02 0.  0.
         11    1    3    3    0    0 -0.21445669516E+02 -0.32893978930E+02  0.94503067567E+01  0.40388598501E+02  0.51100000000E-03 0. -1.
         22    1    1    0    0    0 -0.15891808032E+01 -0.40034436837E+01  0.27318232385E+02  0.27655720522E+02  0.00000000000E+00 0.  1.
</event>
<event>
 5    1  0.1626333E-003  0.9118800E+02  0.7818608E-02  0.1130116E+00
         25   -1    0    0    0    0  0.00000000000E+00  0.00000000000E+00  0.99999998245E-14  0.12500000000E+03  0.12500000000E+03 0.  0.
        -11    1    3    3    0    0  0.27796399819E+02 -0.47082122822E+02  0.22503735668E+02  0.59125157519E+02  0.51100000000E-03 0.  1.
         23    2    1    0    0    0  0.25053952935E+02 -0.15899013158E+02  0.52577872655E+01  0.94864912411E+02  0.89951254036E+02 0.  0.
         11    1    3    3    0    0 -0.27424468841E+01  0.31183109664E+02 -0.17245948403E+02  0.35739754892E+02  0.51100000000E-03 0. -1.
         22    1    1    0    0    0 -0.25053952935E+02  0.15899013158E+02 -0.52577872655E+01  0.30135087589E+02  0.00000000000E+00 0.  1.
</event>
<event>
 5    1  0.1626333E-003  0.9118800E+02  0.7818608E-02  0.1130116E+00
         25   -1    0    0    0    0  0.00000000000E+00  0.00000000000E+00  0.99999998245E-14  0.12500000000E+03  0.12500000000E+03 0.  0.
        -11    1    3    3    0    0  0.52387057358E+02 -0.86915318986E+01 -0.24473641616E+02  0.58471408736E+02  0.51100000000E-03 0.  1.
         23    2    1    0    0    0  0.16002018467E+02 -0.76907004501E+01 -0.24342938361E+02  0.94870444469E+02  0.89958941286E+02 0.  0.
         11    1    3    3    0    0 -0.36385038891E+02  0.10008314485E+01  0.13070325490E+00  0.36399035733E+02  0.51100000000E-03 0. -1.
         22    1    1    0    0    0 -0.16002018467E+02  0.76907004501E+01  0.24342938361E+02  0.30129555531E+02  0.00000000000E+00 0.  1.
</event>
<event>
 5    1  0.1626333E-003  0.9118800E+02  0.7818608E-02  0.1130116E+00
         25   -1    0    0    0    0  0.00000000000E+00  0.00000000000E+00  0.99999998245E-14  0.12500000000E+03  0.12500000000E+03 0.  0.
        -11    1    3    3    0    0 -0.94144312699E+01  0.57203983495E+02  0.41697672392E+01  0.58123267311E+02  0.51100000000E-03 0. -1.
         23    2    1    0    0    0 -0.18628317531E+02  0.21499104109E+02 -0.49907097575E+01  0.96118641386E+02  0.91676934649E+02 0.  0.
         11    1    3    3    0    0 -0.92138862607E+01 -0.35704879387E+02 -0.91604769967E+01  0.37995374075E+02  0.51100000000E-03 0.  1.
         22    1    1    0    0    0  0.18628317531E+02 -0.21499104109E+02  0.49907097575E+01  0.28881358614E+02  0.00000000000E+00 0. -1.
</event>
<event>
 5    1  0.1626333E-003  0.9118800E+02  0.7818608E-02  0.1130116E+00
         25   -1    0    0    0    0  0.00000000000E+00  0.00000000000E+00  0.99999998245E-14  0.12500000000E+03  0.12500000000E+03 0.  0.
        -11    1    3    3    0    0 -0.15296281444E+02 -0.38499649232E+02 -0.35037675432E+02  0.54257146229E+02  0.51100000000E-03 0. -1.
         23    2    1    0    0    0  0.14485432328E+01 -0.41034224499E+02 -0.13244742962E+02  0.81856876865E+02  0.69564496808E+02 0.  0.
         11    1    3    3    0    0  0.16744824677E+02 -0.25345752671E+01  0.21792932470E+02  0.27599730635E+02  0.51100000000E-03 0.  1.
         22    1    1    0    0    0 -0.14485432328E+01  0.41034224499E+02  0.13244742962E+02  0.43143123135E+02  0.00000000000E+00 0.  1.
</event>
<event>
 5    1  0.1626333E-003  0.9118800E+02  0.7818608E-02  0.1130116E+00
         25   -1    0    0    0    0  0.00000000000E+00  0.00000000000E+00  0.99999998245E-14  0.12500000000E+03  0.12500000000E+03 0.  0.
        -11    1    3    3    0    0  0.21013485127E+02  0.21036894861E+02  0.30820304820E+02  0.42825327694E+02  0.51100000000E-03 0.  1.
         23    2    1    0    0    0 -0.18261227608E+02  0.12987854658E+02  0.35323133836E+02  0.83168425963E+02  0.71882588232E+02 0.  0.
         11    1    3    3    0    0 -0.39274712735E+02 -0.80490402029E+01  0.45028290158E+01  0.40343098270E+02  0.51100000000E-03 0. -1.
         22    1    1    0    0    0  0.18261227608E+02 -0.12987854658E+02 -0.35323133836E+02  0.41831574037E+02  0.00000000000E+00 0.  1.
</event>
<event>
 5    1  0.1626333E-003  0.9118800E+02  0.7818608E-02  0.1130116E+00
         25   -1    0    0    0    0  0.00000000000E+00  0.00000000000E+00  0.99999998245E-14  0.12500000000E+03  0.12500000000E+03 0.  0.
        -11    1    3    3    0    0 -0.54000849859E+01 -0.35219059814E+02  0.48542020817E+02  0.60215204702E+02  0.51100000000E-03 0.  1.
         23    2    1    0    0    0 -0.42091150375E+01 -0.24915611091E+02  0.14360366786E+02  0.95935856117E+02  0.91427370241E+02 0.  0.
         11    1    3    3    0    0  0.11909699485E+01  0.10303448723E+02 -0.34181654030E+02  0.35720651415E+02  0.51100000000E-03 0. -1.
         22    1    1    0    0    0  0.42091150375E+01  0.24915611091E+02 -0.14360366786E+02  0.29064143883E+02  0.00000000000E+00 0.  1.
</event>
<event>
 5    1  0.1626333E-003  0.9118800E+02  0.7818608E-02  0.1130116E+00
         25   -1    0    0    0    0  0.00000000000E+00  0.00000000000E+00  0.99999998245E-14  0.12500000000E+03  0.12500000000E+03 0.  0.
        -11    1    3    3    0    0 -0.29091192797E+01  0.30745451611E+02  0.71146560051E+01  0.31691703963E+02  0.51100000000E-03 0.  1.
         23    2    1    0    0    0 -0.16008116509E+02 -0.27483330155E+02 -0.55744423516E+01  0.92709635522E+02  0.86904596429E+02 0.  0.
         11    1    3    3    0    0 -0.13098997229E+02 -0.58228781766E+02 -0.12689098357E+02  0.61017931559E+02  0.51100000000E-03 0. -1.
         22    1    1    0    0    0  0.16008116509E+02  0.27483330155E+02  0.55744423516E+01  0.32290364478E+02  0.00000000000E+00 0. -1.
</event>
<event>
 5    1  0.1626333E-003  0.9118800E+02  0.7818608E-02  0.1130116E+00
         25   -1    0    0    0    0  0.00000000000E+00  0.00000000000E+00  0.99999998245E-14  0.12500000000E+03  0.12500000000E+03 0.  0.
        -11    1    3    3    0    0 -0.14089474576E+01  0.52294301051E+02 -0.20577517854E+02  0.56214885010E+02  0.51100000000E-03 0. -1.
         23    2    1    0    0    0  0.55399215070E+01  0.32750441672E+02  0.73284673577E+01  0.90985464962E+02  0.84388187803E+02 0.  0.
         11    1    3    3    0    0  0.69488689646E+01 -0.19543859379E+02  0.27905985212E+02  0.34770579952E+02  0.51100000000E-03 0.  1.
         22    1    1    0    0    0 -0.55399215070E+01 -0.32750441672E+02 -0.73284673577E+01  0.34014535038E+02  0.00000000000E+00 0. -1.
</event>
<event>
 5    1  0.1626333E-003  0.9118800E+02  0.7818608E-02  0.1130116E+00
         25   -1    0    0    0    0  0.00000000000E+00  0.00000000000E+00  0.99999998245E-14  0.12500000000E+03  0.12500000000E+03 0.  0.
        -11    1    3    3    0    0 -0.33557194734E+01 -0.52776039986E+02 -0.16943420477E+02  0.55530628913E+02  0.51100000000E-03 0. -1.
         23    2    1    0    0    0  0.74952352587E+01 -0.25921516730E+02  0.11078208071E+02  0.95831004899E+02  0.91283904521E+02 0.  0.
         11    1    3    3    0    0  0.10850954732E+02  0.26854523256E+02  0.28021628548E+02  0.40300375986E+02  0.51100000000E-03 0.  1.
         22    1    1    0    0    0 -0.74952352587E+01  0.25921516730E+02 -0.11078208071E+02  0.29168995101E+02  0.00000000000E+00 0. -1.
</event>
<event>
 5    1  0.1626333E-003  0.9118800E+02  0.7818608E-02  0.1130116E+00
         25   -1    0    0    0    0  0.00000000000E+00  0.00000000000E+00  0.99999998245E-14  0.12500000000E+03  0.12500000000E+03 0.  0.
        -11    1    3    3    0    0 -0.54036051903E+02  0.34283284273E+01  0.28061226347E+02  0.60984266540E+02  0.51100000000E-03 0.  1.
         23    2    1    0    0    0 -0.22405196487E+02  0.10694333068E+02  0.15170218215E+02  0.95905376612E+02  0.91385688995E+02 0.  0.
         11    1    3    3    0    0  0.31630855415E+02  0.72660046406E+01 -0.12891008133E+02  0.34921110072E+02  0.51100000000E-03 0. -1.
         22    1    1    0    0    0  0.22405196487E+02 -0.10694333068E+02 -0.15170218215E+02  0.29094623388E+02  0.00000000000E+00 0.  1.
</event>
<event>
 5    1  0.1626333E-003  0.9118800E+02  0.7818608E-02  0.1130116E+00
         25   -1    0    0    0    0  0.00000000000E+00  0.00000000000E+00  0.99999998245E-14  0.12500000000E+03  0.12500000000E+03 0.  0.
        -11    1    3    3    0    0  0.51554302062E+02 -0.26100202052E+02  0.16074707534E+02  0.59978853197E+02  0.51100000000E-03 0.  1.
         23    2    1    0    0    0  0.24531342819E+02  0.17279556214E+00  0.11370803776E+02  0.97960920553E+02  0.94155351087E+02 0.  0.
         11    1    3    3    0    0 -0.27022959243E+02  0.26272997614E+02 -0.47039037580E+01  0.37982067357E+02  0.51100000000E-03 0. -1.
         22    1    1    0    0    0 -0.24531342819E+02 -0.17279556214E+00 -0.11370803776E+02  0.27039079447E+02  0.00000000000E+00 0.  1.
</event>
<event>
 5    1  0.1626333E-003  0.9118800E+02  0.7818608E-02  0.1130116E+00
         25   -1    0    0    0    0  0.00000000000E+00  0.00000000000E+00  0.99999998245E-14  0.12500000000E+03  0.12500000000E+03 0.  0.
        -11    1    3    3    0    0 -0.33250981110E+01  0.41876538687E+00  0.53488443789E+02  0.53593332245E+02  0.51100000000E-03 0. -1.
         23    2    1    0    0    0 -0.51122188909E+01  0.23339008257E+02  0.22479704425E+02  0.92194799201E+02  0.86160894844E+02 0.  0.
         11    1    3    3    0    0 -0.17871207799E+01  0.22920242870E+02 -0.31008739364E+02  0.38601466956E+02  0.51100000000E-03 0.  1.
         22    1    1    0    0    0  0.51122188909E+01 -0.23339008257E+02 -0.22479704425E+02  0.32805200799E+02  0.00000000000E+00 0. -1.
</event>
<event>
 5    1  0.1626333E-003  0.9118800E+02  0.7818608E-02  0.1130116E+00
         25   -1    0    0    0    0  0.00000000000E+00  0.00000000000E+00  0.99999998245E-14  0.12500000000E+03  0.12500000000E+03 0.  0.
        -11    1    3    3    0    0 -0.16588229337E+02  0.54957516260E+02 -0.39944425870E+01  0.57545230192E+02  0.51100000000E-03 0.  1.
         23    2    1    0    0    0 -0.10772133949E+02  0.23443143072E+02  0.15351553368E+02  0.94978507403E+02  0.90108972089E+02 0.  0.
         11    1    3    3    0    0  0.58160953885E+01 -0.31514373188E+02  0.19345995955E+02  0.37433277211E+02  0.51100000000E-03 0. -1.
         22    1    1    0    0    0  0.10772133949E+02 -0.23443143072E+02 -0.15351553368E+02  0.30021492597E+02  0.00000000000E+00 0.  1.
</event>
<event>
 5    1  0.1626333E-003  0.9118800E+02  0.7818608E-02  0.1130116E+00
         25   -1    0    0    0    0  0.00000000000E+00  0.00000000000E+00  0.99999998245E-14  0.12500000000E+03  0.12500000000E+03 0.  0.
        -11    1    3    3    0    0 -0.52008982719E+01  0.32855032435E+02 -0.36019038629E+02  0.49029314121E+02  0.51100000000E-03 0. -1.
         23    2    1    0    0    0  0.23227712176E+02  0.37773782772E+00 -0.17092549044E+02  0.96158631592E+02  0.91731444435E+02 0.  0.
         11    1    3    3    0    0  0.28428610448E+02 -0.32477294608E+02  0.18926489585E+02  0.47129317471E+02  0.51100000000E-03 0.  1.
         22    1    1    0    0    0 -0.23227712176E+02 -0.37773782772E+00  0.17092549044E+02  0.28841368408E+02  0.00000000000E+00 0.  1.
</event>
<event>
 5    1  0.1626333E-003  0.9118800E+02  0.7818608E-02  0.1130116E+00
         25   -1    0    0    0    0  0.00000000000E+00  0.00000000000E+00  0.99999998245E-14  0.12500000000E+03  0.12500000000E+03 0.  0.
        -11    1    3    3    0    0 -0.15750120842E+00  0.24254952863E+02 -0.24756303531E+02  0.34658362769E+02  0.51100000000E-03 0.  1.
         23    2    1    0    0    0  0.19704542844E+02 -0.18807173691E+02  0.12562376356E+02  0.95003465355E+02  0.90143587342E+02 0.  0.
         11    1    3    3    0    0  0.19862044053E+02 -0.43062126555E+02  0.37318679888E+02  0.60345102587E+02  0.51100000000E-03 0. -1.
         22    1    1    0    0    0 -0.19704542844E+02  0.18807173691E+02 -0.12562376356E+02  0.29996534645E+02  0.00000000000E+00 0. -1.
</event>
<event>
 5    1  0.1626333E-003  0.9118800E+02  0.7818608E-02  0.1130116E+00
         25   -1    0    0    0    0  0.00000000000E+00  0.00000000000E+00  0.99999998245E-14  0.12500000000E+03  0.12500000000E+03 0.  0.
        -11    1    3    3    0    0  0.39825870234E+02 -0.32652166142E+02  0.32283089267E+02  0.60782084092E+02  0.51100000000E-03 0.  1.
         23    2    1    0    0    0  0.20660700754E+02 -0.10894814574E+02  0.25221785543E+02  0.90624136284E+02  0.83851261594E+02 0.  0.
         11    1    3    3    0    0 -0.19165169480E+02  0.21757351568E+02 -0.70613037240E+01  0.29842052191E+02  0.51100000000E-03 0. -1.
         22    1    1    0    0    0 -0.20660700754E+02  0.10894814574E+02 -0.25221785543E+02  0.34375863716E+02  0.00000000000E+00 0.  1.
</event>
<event>
 5    1  0.1626333E-003  0.9118800E+02  0.7818608E-02  0.1130116E+00
         25   -1    0    0    0    0  0.00000000000E+00  0.00000000000E+00  0.99999998245E-14  0.12500000000E+03  0.12500000000E+03 0.  0.
        -11    1    3    3    0    0  0.24808234287E+02  0.22706237776E+01 -0.28869565076E+02  0.38132086341E+02  0.51100000000E-03 0.  1.
         23    2    1    0    0    0  0.87356959404E+01 -0.87690283713E+01  0.25913684487E+02  0.96281934504E+02  0.91899312435E+02 0.  0.
         11    1    3    3    0    0 -0.16072538347E+02 -0.11039652149E+02  0.54783249563E+02  0.58149848163E+02  0.51100000000E-03 0. -1.
         22    1    1    0    0    0 -0.87356959404E+01  0.87690283713E+01 -0.25913684487E+02  0.28718065496E+02  0.00000000000E+00 0. -1.
</event>
<event>
 5    1  0.1626333E-003  0.9118800E+02  0.7818608E-02  0.1130116E+00
         25   -1    0    0    0    0  0.00000000000E+00  0.00000000000E+00  0.99999998245E-14  0.12500000000E+03  0.12500000000E+03 0.  0.
        -11    1    3    3    0    0  0.38599276963E+02  0.24185119735E+02  0.29520297058E+02  0.54279573850E+02  0.51100000000E-03 0.  1.
         23    2    1    0    0    0  0.23269460698E+02 -0.11108341869E+02  0.11997042430E+02  0.96560729839E+02  0.92277746286E+02 0.  0.
         11    1    3    3    0    0 -0.15329816265E+02 -0.35293461604E+02 -0.17523254628E+02  0.42281155989E+02  0.51100000000E-03 0. -1.
         22    1    1    0    0    0 -0.23269460698E+02  0.11108341869E+02 -0.11997042430E+02  0.28439270161E+02  0.00000000000E+00 0.  1.
</event>
<event>
 5    1  0.1626333E-003  0.9118800E+02  0.7818608E-02  0.1130116E+00
         25   -1    0    0    0    0  0.00000000000E+00  0.00000000000E+00  0.99999998245E-14  0.12500000000E+03  0.12500000000E+03 0.  0.
        -11    1    3    3    0    0 -0.42481739952E+02 -0.16380738691E+01  0.36727264241E+02  0.56180721375E+02  0.51100000000E-03 0. -1.
         23    2    1    0    0    0 -0.53813104414E+01 -0.66467153250E+01  0.29469422216E+02  0.94314756439E+02  0.89183457601E+02 0.  0.
         11    1    3    3    0    0  0.37100429510E+02 -0.50086414559E+01 -0.72578420251E+01  0.38134035063E+02  0.51100000000E-03 0.  1.
         22    1    1    0    0    0  0.53813104414E+01  0.66467153250E+01 -0.29469422216E+02  0.30685243561E+02  0.00000000000E+00 0. -1.
</event>
<event>
 5    1  0.1626333E-003  0.9118800E+02  0.7818608E-02  0.1130116E+00
         25   -1    0    0    0    0  0.00000000000E+00  0.00000000000E+00  0.99999998245E-14  0.12500000000E+03  0.12500000000E+03 0.  0.
        -11    1    3    3    0    0  0.15939660579E+02 -0.33915113845E+02 -0.25200810969E+02  0.45159590346E+02  0.51100000000E-03 0. -1.
         23    2    1    0    0    0  0.23377176733E+02 -0.45437568007E+01  0.16005916011E+02  0.96306316632E+02  0.91932470640E+02 0.  0.
         11    1    3    3    0    0  0.74375161548E+01  0.29371357044E+02  0.41206726979E+02  0.51146726286E+02  0.51100000000E-03 0.  1.
         22    1    1    0    0    0 -0.23377176733E+02  0.45437568007E+01 -0.16005916011E+02  0.28693683368E+02  0.00000000000E+00 0.  1.
</event>
<event>
 5    1  0.1626333E-003  0.9118800E+02  0.7818608E-02  0.1130116E+00
         25   -1    0    0    0    0  0.00000000000E+00  0.00000000000E+00  0.99999998245E-14  0.12500000000E+03  0.12500000000E+03 0.  0.
        -11    1    3    3    0    0  0.29704519850E+02  0.32561761626E+02  0.27492861460E+02  0.51946936880E+02  0.51100000000E-03 0.  1.
         23    2    1    0    0    0  0.29227708925E+02 -0.13656424245E+00 -0.16158309821E+01  0.95727341621E+02  0.91141842231E+02 0.  0.
         11    1    3    3    0    0 -0.47681092458E+00 -0.32698325869E+02 -0.29108692442E+02  0.43780404740E+02  0.51100000000E-03 0. -1.
         22    1    1    0    0    0 -0.29227708925E+02  0.13656424245E+00  0.16158309821E+01  0.29272658379E+02  0.00000000000E+00 0.  1.
</event>
<event>
 5    1  0.1626333E-003  0.9118800E+02  0.7818608E-02  0.1130116E+00
         25   -1    0    0    0    0  0.00000000000E+00  0.00000000000E+00  0.99999998245E-14  0.12500000000E+03  0.12500000000E+03 0.  0.
        -11    1    3    3    0    0 -0.18907502603E+02  0.26146458141E+02  0.18276617458E+02  0.37083226316E+02  0.51100000000E-03 0. -1.
         23    2    1    0    0    0 -0.75022537781E+01 -0.24162177193E+02 -0.12107907202E+02  0.96951897831E+02  0.92806112179E+02 0.  0.
         11    1    3    3    0    0  0.11405248825E+02 -0.50308635334E+02 -0.30384524661E+02  0.59868671516E+02  0.51100000000E-03 0.  1.
         22    1    1    0    0    0  0.75022537781E+01  0.24162177193E+02  0.12107907202E+02  0.28048102169E+02  0.00000000000E+00 0.  1.
</event>
<event>
 5    1  0.1626333E-003  0.9118800E+02  0.7818608E-02  0.1130116E+00
         25   -1    0    0    0    0  0.00000000000E+00  0.00000000000E+00  0.99999998245E-14  0.12500000000E+03  0.12500000000E+03 0.  0.
        -11    1    3    3    0    0  0.19793005300E+02  0.22196463882E+02 -0.39266031653E+01  0.29997737920E+02  0.51100000000E-03 0. -1.
         23    2    1    0    0    0 -0.70677895330E+01 -0.32317014471E+02  0.54005610664E+01  0.91481212238E+02  0.85119345976E+02 0.  0.
         11    1    3    3    0    0 -0.26860794833E+02 -0.54513478354E+02  0.93271642317E+01  0.61483474317E+02  0.51100000000E-03 0.  1.
         22    1    1    0    0    0  0.70677895330E+01  0.32317014471E+02 -0.54005610664E+01  0.33518787762E+02  0.00000000000E+00 0.  1.
</event>
<event>
 5    1  0.1626333E-003  0.9118800E+02  0.7818608E-02  0.1130116E+00
         25   -1    0    0    0    0  0.00000000000E+00  0.00000000000E+00  0.99999998245E-14  0.12500000000E+03  0.12500000000E+03 0.  0.
        -11    1    3    3    0    0  0.37515180395E+01  0.10844362710E+02  0.53216979557E+02  0.54440067998E+02  0.51100000000E-03 0.  1.
         23    2    1    0    0    0  0.12716932848E+02  0.22442423244E+02  0.15498545975E+02  0.94907016275E+02  0.90009744300E+02 0.  0.
         11    1    3    3    0    0  0.89654148080E+01  0.11598060534E+02 -0.37718433582E+02  0.40466948278E+02  0.51100000000E-03 0. -1.
         22    1    1    0    0    0 -0.12716932848E+02 -0.22442423244E+02 -0.15498545975E+02  0.30092983725E+02  0.00000000000E+00 0.  1.
</event>
<event>
 5    1  0.1626333E-003  0.9118800E+02  0.7818608E-02  0.1130116E+00
         25   -1    0    0    0    0  0.00000000000E+00  0.00000000000E+00  0.99999998245E-14  0.12500000000E+03  0.12500000000E+03 0.  0.
        -11    1    3    3    0    0  0.48863342291E+02 -0.16338389737E+02 -0.19598310526E+02  0.55124068924E+02  0.51100000000E-03 0.  1.
         23    2    1    0    0    0  0.22834464798E+02 -0.28059057599E+02 -0.17691887152E+01  0.88780481441E+02  0.81056278968E+02 0.  0.
         11    1    3    3    0    0 -0.26028877493E+02 -0.11720667862E+02  0.17829121810E+02  0.33656412516E+02  0.51100000000E-03 0. -1.
         22    1    1    0    0    0 -0.22834464798E+02  0.28059057599E+02  0.17691887152E+01  0.36219518559E+02  0.00000000000E+00 0.  1.
</event>
<event>
 5    1  0.1626333E-003  0.9118800E+02  0.7818608E-02  0.1130116E+00
         25   -1    0    0    0    0  0.00000000000E+00  0.00000000000E+00  0.99999998245E-14  0.12500000000E+03  0.12500000000E+03 0.  0.
        -11    1    3    3    0    0  0.28418060511E+02 -0.14344801361E+02 -0.47555897832E+02  0.57226942153E+02  0.51100000000E-03 0. -1.
         23    2    1    0    0    0  0.82514520887E+00 -0.20052094944E+02 -0.21162490543E+02  0.95834637286E+02  0.91288878411E+02 0.  0.
         11    1    3    3    0    0 -0.27592915302E+02 -0.57072935825E+01  0.26393407289E+02  0.38607695133E+02  0.51100000000E-03 0.  1.
         22    1    1    0    0    0 -0.82514520887E+00  0.20052094944E+02  0.21162490543E+02  0.29165362714E+02  0.00000000000E+00 0. -1.
</event>
<event>
 5    1  0.1626333E-003  0.9118800E+02  0.7818608E-02  0.1130116E+00
         25   -1    0    0    0    0  0.00000000000E+00  0.00000000000E+00  0.99999998245E-14  0.12500000000E+03  0.12500000000E+03 0.  0.
        -11    1    3    3    0    0  0.14124632468E+02 -0.31964412029E+02 -0.32543413251E+01  0.35097287878E+02  0.51100000000E-03 0.  1.
         23    2    1    0    0    0 -0.31458565585E+02 -0.12215069816E+02 -0.17781131803E+02  0.86855302760E+02  0.78030927779E+02 0.  0.
         11    1    3    3    0    0 -0.45583198054E+02  0.19749342213E+02 -0.14526790478E+02  0.51758014882E+02  0.51100000000E-03 0. -1.
         22    1    1    0    0    0  0.31458565585E+02  0.12215069816E+02  0.17781131803E+02  0.38144697240E+02  0.00000000000E+00 0. -1.
</event>
<event>
 5    1  0.1626333E-003  0.9118800E+02  0.7818608E-02  0.1130116E+00
         25   -1    0    0    0    0  0.00000000000E+00  0.00000000000E+00  0.99999998245E-14  0.12500000000E+03  0.12500000000E+03 0.  0.
        -11    1    3    3    0    0 -0.15144240783E+02 -0.37136999096E+02 -0.12217187380E+02  0.41925700930E+02  0.51100000000E-03 0. -1.
         23    2    1    0    0    0  0.50679502373E+01  0.25306590152E+01  0.24636533332E+02  0.99720618495E+02  0.96463229387E+02 0.  0.
         11    1    3    3    0    0  0.20212191020E+02  0.39667658111E+02  0.36853720712E+02  0.57794917565E+02  0.51100000000E-03 0.  1.
         22    1    1    0    0    0 -0.50679502373E+01 -0.25306590152E+01 -0.24636533332E+02  0.25279381505E+02  0.00000000000E+00 0.  1.
</event>
<event>
 5    1  0.1626333E-003  0.9118800E+02  0.7818608E-02  0.1130116E+00
         25   -1    0    0    0    0  0.00000000000E+00  0.00000000000E+00  0.99999998245E-14  0.12500000000E+03  0.12500000000E+03 0.  0.
        -11    1    3    3    0    0 -0.20096639625E+02  0.30744621005E+01 -0.50557534547E+02  0.54492123661E+02  0.51100000000E-03 0.  1.
         23    2    1    0    0    0  0.98384203162E+01  0.13580396940E+02 -0.23135510891E+02  0.96425998538E+02  0.92095057601E+02 0.  0.
         11    1    3    3    0    0  0.29935059941E+02  0.10505934840E+02  0.27422023656E+02  0.41933874877E+02  0.51100000000E-03 0. -1.
         22    1    1    0    0    0 -0.98384203162E+01 -0.13580396940E+02  0.23135510891E+02  0.28574001462E+02  0.00000000000E+00 0. -1.
</event>
<event>
 5    1  0.1626333E-003  0.9118800E+02  0.7818608E-02  0.1130116E+00
         25   -1    0    0    0    0  0.00000000000E+00  0.00000000000E+00  0.99999998245E-14  0.12500000000E+03  0.12500000000E+03 0.  0.
        -11    1    3    3    0    0  0.40233593064E+02  0.95862735338E+01 -0.40605846625E+02  0.57960964722E+02  0.51100000000E-03 0.  1.
         23    2    1    0    0    0  0.19743826924E+02  0.19781479313E+02 -0.12028716521E+02  0.94572781156E+02  0.89544376089E+02 0.  0.
         11    1    3    3    0    0 -0.20489766140E+02  0.10195205779E+02  0.28577130104E+02  0.36611816434E+02  0.51100000000E-03 0. -1.
         22    1    1    0    0    0 -0.19743826924E+02 -0.19781479313E+02  0.12028716521E+02  0.30427218844E+02  0.00000000000E+00 0.  1.
</event>
<event>
 5    1  0.1626333E-003  0.9118800E+02  0.7818608E-02  0.1130116E+00
         25   -1    0    0    0    0  0.00000000000E+00  0.00000000000E+00  0.99999998245E-14  0.12500000000E+03  0.12500000000E+03 0.  0.
        -11    1    3    3    0    0  0.35551933002E+02 -0.44873101826E+02 -0.92726391161E+01  0.57995836438E+02  0.51100000000E-03 0.  1.
         23    2    1    0    0    0  0.50939692390E+01 -0.21112545919E+02 -0.17035185675E+02  0.97397723485E+02  0.93404661936E+02 0.  0.
         11    1    3    3    0    0 -0.30457963763E+02  0.23760555907E+02 -0.77625465594E+01  0.39401887048E+02  0.51100000000E-03 0. -1.
         22    1    1    0    0    0 -0.50939692390E+01  0.21112545919E+02  0.17035185675E+02  0.27602276515E+02  0.00000000000E+00 0.  1.
</event>
<event>
 5    1  0.1626333E-003  0.9118800E+02  0.7818608E-02  0.1130116E+00
         25   -1    0    0    0    0  0.00000000000E+00  0.00000000000E+00  0.99999998245E-14  0.12500000000E+03  0.12500000000E+03 0.  0.
        -11    1    3    3    0    0  0.86295958855E+01 -0.32180558533E+02 -0.33034313107E+02  0.46918270592E+02  0.51100000000E-03 0.  1.
         23    2    1    0    0    0  0.28141897636E+02 -0.75331624089E+01  0.41091240785E+01  0.95578921856E+02  0.90938058392E+02 0.  0.
         11    1    3    3    0    0  0.19512301751E+02  0.24647396124E+02  0.37143437185E+02  0.48660651265E+02  0.51100000000E-03 0. -1.
         22    1    1    0    0    0 -0.28141897636E+02  0.75331624089E+01 -0.41091240785E+01  0.29421078144E+02  0.00000000000E+00 0.  1.
</event>
<event>
 5    1  0.1626333E-003  0.9118800E+02  0.7818608E-02  0.1130116E+00
         25   -1    0    0    0    0  0.00000000000E+00  0.00000000000E+00  0.99999998245E-14  0.12500000000E+03  0.12500000000E+03 0.  0.
        -11    1    3    3    0    0  0.52241451031E+01 -0.31161032535E+02  0.20494955714E+02  0.37660919409E+02  0.51100000000E-03 0. -1.
         23    2    1    0    0    0 -0.79575861501E+01 -0.14164612978E+01 -0.27887424339E+02  0.95964883740E+02  0.91467048357E+02 0.  0.
         11    1    3    3    0    0 -0.13181731253E+02  0.29744571237E+02 -0.48382380053E+02  0.58303964332E+02  0.51100000000E-03 0.  1.
         22    1    1    0    0    0  0.79575861501E+01  0.14164612978E+01  0.27887424339E+02  0.29035116260E+02  0.00000000000E+00 0.  1.
</event>
<event>
 5    1  0.1626333E-003  0.9118800E+02  0.7818608E-02  0.1130116E+00
         25   -1    0    0    0    0  0.00000000000E+00  0.00000000000E+00  0.99999998245E-14  0.12500000000E+03  0.12500000000E+03 0.  0.
        -11    1    3    3    0    0  0.34928563833E+02  0.12342302748E+02 -0.73666858070E+01  0.37770425846E+02  0.51100000000E-03 0.  1.
         23    2    1    0    0    0 -0.77509970383E+01 -0.13630155959E+02  0.23685134804E+02  0.96594987815E+02  0.92324140688E+02 0.  0.
         11    1    3    3    0    0 -0.42679560871E+02 -0.25972458706E+02  0.31051820611E+02  0.58824561969E+02  0.51100000000E-03 0. -1.
         22    1    1    0    0    0  0.77509970383E+01  0.13630155959E+02 -0.23685134804E+02  0.28405012185E+02  0.00000000000E+00 0. -1.
</event>
<event>
 5    1  0.1626333E-003  0.9118800E+02  0.7818608E-02  0.1130116E+00
         25   -1    0    0    0    0  0.00000000000E+00  0.00000000000E+00  0.99999998245E-14  0.12500000000E+03  0.12500000000E+03 0.  0.
        -11    1    3    3    0    0  0.23419592040E+02  0.55270777810E+02  0.15465556567E+02  0.61988060231E+02  0.51100000000E-03 0.  1.
         23    2    1    0    0    0  0.12217788119E+02  0.19758109081E+02  0.10323554602E+02  0.99578886716E+02  0.96279393844E+02 0.  0.
         11    1    3    3    0    0 -0.11201803920E+02 -0.35512668729E+02 -0.51420019653E+01  0.37590826485E+02  0.51100000000E-03 0. -1.
         22    1    1    0    0    0 -0.12217788119E+02 -0.19758109081E+02 -0.10323554602E+02  0.25421113284E+02  0.00000000000E+00 0.  1.
</event>
<event>
 5    1  0.1626333E-003  0.9118800E+02  0.7818608E-02  0.1130116E+00
         25   -1    0    0    0    0  0.00000000000E+00  0.00000000000E+00  0.99999998245E-14  0.12500000000E+03  0.12500000000E+03 0.  0.
        -11    1    3    3    0    0 -0.43067441866E+02 -0.46907591340E+01  0.10536151612E+02  0.44584955547E+02  0.51100000000E-03 0.  1.
         23    2    1    0    0    0  0.16918216919E+01  0.16817092241E+02  0.23636124762E+02  0.95942415003E+02  0.91436337147E+02 0.  0.
         11    1    3    3    0    0  0.44759263557E+02  0.21507851375E+02  0.13099973150E+02  0.51357459456E+02  0.51100000000E-03 0. -1.
         22    1    1    0    0    0 -0.16918216919E+01 -0.16817092241E+02 -0.23636124762E+02  0.29057584997E+02  0.00000000000E+00 0.  1.
</event>
<event>
 5    1  0.1626333E-003  0.9118800E+02  0.7818608E-02  0.1130116E+00
         25   -1    0    0    0    0  0.00000000000E+00  0.00000000000E+00  0.99999998245E-14  0.12500000000E+03  0.12500000000E+03 0.  0.
        -11    1    3    3    0    0 -0.27177929817E+01  0.32443738337E+02  0.10352017933E+02  0.34163530723E+02  0.51100000000E-03 0.  1.
         23    2    1    0    0    0  0.17234811869E+02 -0.24471298505E+02  0.31305050119E+01  0.94905428192E+02  0.90007538840E+02 0.  0.
         11    1    3    3    0    0  0.19952604851E+02 -0.56915036841E+02 -0.72215129209E+01  0.60741897469E+02  0.51100000000E-03 0. -1.
         22    1    1    0    0    0 -0.17234811869E+02  0.24471298505E+02 -0.31305050119E+01  0.30094571808E+02  0.00000000000E+00 0. -1.
</event>
<event>
 5    1  0.1626333E-003  0.9118800E+02  0.7818608E-02  0.1130116E+00
         25   -1    0    0    0    0  0.00000000000E+00  0.00000000000E+00  0.99999998245E-14  0.12500000000E+03  0.12500000000E+03 0.  0.
        -11    1    3    3    0    0 -0.20344333529E+02  0.13330161218E+02 -0.91588397336E+01  0.25989795120E+02  0.51100000000E-03 0.  1.
         23    2    1    0    0    0  0.33236666046E+02  0.26303588380E+02  0.32211815499E+01  0.82491992024E+02  0.70696520466E+02 0.  0.
         11    1    3    3    0    0  0.53580999575E+02  0.12973427162E+02  0.12380021283E+02  0.56502196904E+02  0.51100000000E-03 0. -1.
         22    1    1    0    0    0 -0.33236666046E+02 -0.26303588380E+02 -0.32211815499E+01  0.42508007976E+02  0.00000000000E+00 0. -1.
</event>
<event>
 5    1  0.1626333E-003  0.9118800E+02  0.7818608E-02  0.1130116E+00
         25   -1    0    0    0    0  0.00000000000E+00  0.00000000000E+00  0.99999998245E-14  0.12500000000E+03  0.12500000000E+03 0.  0.
        -11    1    3    3    0    0  0.43229407744E+02 -0.30694937260E+02 -0.29356009068E+02  0.60603103353E+02  0.51100000000E-03 0. -1.
         23    2    1    0    0    0  0.26982541801E+02 -0.11949127573E+02 -0.55737055759E+01  0.94968260030E+02  0.90094755716E+02 0.  0.
         11    1    3    3    0    0 -0.16246865943E+02  0.18745809688E+02  0.23782303492E+02  0.34365156677E+02  0.51100000000E-03 0.  1.
         22    1    1    0    0    0 -0.26982541801E+02  0.11949127573E+02  0.55737055759E+01  0.30031739970E+02  0.00000000000E+00 0. -1.
</event>
<event>
 5    1  0.1626333E-003  0.9118800E+02  0.7818608E-02  0.1130116E+00
         25   -1    0    0    0    0  0.00000000000E+00  0.00000000000E+00  0.99999998245E-14  0.12500000000E+03  0.12500000000E+03 0.  0.
        -11    1    3    3    0    0  0.39590325533E+02  0.15736715761E+01  0.28742393027E+01  0.39725704146E+02  0.51100000000E-03 0. -1.
         23    2    1    0    0    0 -0.11592101096E+02  0.22815888573E+02  0.13369701680E+02  0.96126300857E+02  0.91687377616E+02 0.  0.
         11    1    3    3    0    0 -0.51182426629E+02  0.21242216997E+02  0.10495462378E+02  0.56400596711E+02  0.51100000000E-03 0.  1.
         22    1    1    0    0    0  0.11592101096E+02 -0.22815888573E+02 -0.13369701680E+02  0.28873699143E+02  0.00000000000E+00 0.  1.
</event>
<event>
 5    1  0.1626333E-003  0.9118800E+02  0.7818608E-02  0.1130116E+00
         25   -1    0    0    0    0  0.00000000000E+00  0.00000000000E+00  0.99999998245E-14  0.12500000000E+03  0.12500000000E+03 0.  0.
        -11    1    3    3    0    0 -0.89473184147E+00  0.13092280000E+02 -0.35678904199E+02  0.38015688154E+02  0.51100000000E-03 0.  1.
         23    2    1    0    0    0 -0.13091068650E+01 -0.29963341381E+02  0.15950105331E+01  0.94965692182E+02  0.90091192941E+02 0.  0.
         11    1    3    3    0    0 -0.41437502355E+00 -0.43055621381E+02  0.37273914732E+02  0.56950004029E+02  0.51100000000E-03 0. -1.
         22    1    1    0    0    0  0.13091068650E+01  0.29963341381E+02 -0.15950105331E+01  0.30034307818E+02  0.00000000000E+00 0. -1.
</event>
<event>
 5    1  0.1626333E-003  0.9118800E+02  0.7818608E-02  0.1130116E+00
         25   -1    0    0    0    0  0.00000000000E+00  0.00000000000E+00  0.99999998245E-14  0.12500000000E+03  0.12500000000E+03 0.  0.
        -11    1    3    3    0    0  0.31113917576E+02 -0.30050749615E+01  0.53335943898E+02  0.61820945109E+02  0.51100000000E-03 0. -1.
         23    2    1    0    0    0  0.11846468300E+02  0.45249987298E+01  0.25698940643E+02  0.96342540677E+02  0.91981711058E+02 0.  0.
         11    1    3    3    0    0 -0.19267449276E+02  0.75300736913E+01 -0.27637003255E+02  0.34521595568E+02  0.51100000000E-03 0.  1.
         22    1    1    0    0    0 -0.11846468300E+02 -0.45249987298E+01 -0.25698940643E+02  0.28657459323E+02  0.00000000000E+00 0. -1.
</event>
<event>
 5    1  0.1626333E-003  0.9118800E+02  0.7818608E-02  0.1130116E+00
         25   -1    0    0    0    0  0.00000000000E+00  0.00000000000E+00  0.99999998245E-14  0.12500000000E+03  0.12500000000E+03 0.  0.
        -11    1    3    3    0    0  0.93256341707E+01 -0.35145584268E+02  0.29758560223E+02  0.46986715708E+02  0.51100000000E-03 0.  1.
         23    2    1    0    0    0 -0.18155894911E+02 -0.10361180335E+02 -0.10446708504E+02  0.10163069756E+03  0.98907403111E+02 0.  0.
         11    1    3    3    0    0 -0.27481529081E+02  0.24784403933E+02 -0.40205268727E+02  0.54643981852E+02  0.51100000000E-03 0. -1.
         22    1    1    0    0    0  0.18155894911E+02  0.10361180335E+02  0.10446708504E+02  0.23369302439E+02  0.00000000000E+00 0. -1.
</event>
<event>
 5    1  0.1626333E-003  0.9118800E+02  0.7818608E-02  0.1130116E+00
         25   -1    0    0    0    0  0.00000000000E+00  0.00000000000E+00  0.99999998245E-14  0.12500000000E+03  0.12500000000E+03 0.  0.
        -11    1    3    3    0    0 -0.18046344109E+02 -0.17098148110E+01  0.42274463539E+02  0.45997002839E+02  0.51100000000E-03 0.  1.
         23    2    1    0    0    0 -0.50207325637E+01 -0.27735551819E+02  0.62565044261E+00  0.96806737885E+02  0.92610390731E+02 0.  0.
         11    1    3    3    0    0  0.13025611545E+02 -0.26025737008E+02 -0.41648813096E+02  0.50809735047E+02  0.51100000000E-03 0. -1.
         22    1    1    0    0    0  0.50207325637E+01  0.27735551819E+02 -0.62565044261E+00  0.28193262115E+02  0.00000000000E+00 0.  1.
</event>
<event>
 5    1  0.1626333E-003  0.9118800E+02  0.7818608E-02  0.1130116E+00
         25   -1    0    0    0    0  0.00000000000E+00  0.00000000000E+00  0.99999998245E-14  0.12500000000E+03  0.12500000000E+03 0.  0.
        -11    1    3    3    0    0 -0.33371867641E+02 -0.49302428110E+01 -0.18969504092E+02  0.38701820755E+02  0.51100000000E-03 0. -1.
         23    2    1    0    0    0 -0.44160466070E-01  0.32994342587E+02 -0.12982770054E+02  0.89543252952E+02  0.82224164563E+02 0.  0.
         11    1    3    3    0    0  0.33327707175E+02  0.37924585398E+02  0.59867340377E+01  0.50841432197E+02  0.51100000000E-03 0.  1.
         22    1    1    0    0    0  0.44160466070E-01 -0.32994342587E+02  0.12982770054E+02  0.35456747048E+02  0.00000000000E+00 0.  1.
</event>
<event>
 5    1  0.1626333E-003  0.9118800E+02  0.7818608E-02  0.1130116E+00
         25   -1    0    0    0    0  0.00000000000E+00  0.00000000000E+00  0.99999998245E-14  0.12500000000E+03  0.12500000000E+03 0.  0.
        -11    1    3    3    0    0 -0.73254066200E+01  0.39369194098E+02 -0.47967035043E+02  0.62485450124E+02  0.51100000000E-03 0.  1.
         23    2    1    0    0    0 -0.40687366705E+01  0.17609545261E+02 -0.22479898215E+02  0.96155650013E+02  0.91727381426E+02 0.  0.
         11    1    3    3    0    0  0.32566699495E+01 -0.21759648837E+02  0.25487136828E+02  0.33670199890E+02  0.51100000000E-03 0. -1.
         22    1    1    0    0    0  0.40687366705E+01 -0.17609545261E+02  0.22479898215E+02  0.28844349987E+02  0.00000000000E+00 0.  1.
</event>
<event>
 5    1  0.1626333E-003  0.9118800E+02  0.7818608E-02  0.1130116E+00
         25   -1    0    0    0    0  0.00000000000E+00  0.00000000000E+00  0.99999998245E-14  0.12500000000E+03  0.12500000000E+03 0.  0.
        -11    1    3    3    0    0 -0.17603909085E+02 -0.54223842627E+02 -0.18853009325E+02  0.60046304509E+02  0.51100000000E-03 0. -1.
         23    2    1    0    0    0 -0.79250881170E+01 -0.28370786376E+02  0.31875121882E+01  0.95371149614E+02  0.90652012683E+02 0.  0.
         11    1    3    3    0    0  0.96788209677E+01  0.25853056251E+02  0.22040521513E+02  0.35324845105E+02  0.51100000000E-03 0.  1.
         22    1    1    0    0    0  0.79250881170E+01  0.28370786376E+02 -0.31875121882E+01  0.29628850386E+02  0.00000000000E+00 0. -1.
</event>
<event>
 5    1  0.1626333E-003  0.9118800E+02  0.7818608E-02  0.1130116E+00
         25   -1    0    0    0    0  0.00000000000E+00  0.00000000000E+00  0.99999998245E-14  0.12500000000E+03  0.12500000000E+03 0.  0.
        -11    1    3    3    0    0 -0.23987702165E+01 -0.39729904473E+01 -0.39491560792E+02  0.39763326391E+02  0.51100000000E-03 0.  1.
         23    2    1    0    0    0  0.27692550306E+02  0.88133594718E+00  0.79703892844E+01  0.96169786667E+02  0.91746643899E+02 0.  0.
         11    1    3    3    0    0  0.30091320522E+02  0.48543263944E+01  0.47461950076E+02  0.56406460276E+02  0.51100000000E-03 0. -1.
         22    1    1    0    0    0 -0.27692550306E+02 -0.88133594718E+00 -0.79703892844E+01  0.28830213333E+02  0.00000000000E+00 0. -1.
</event>
<event>
 5    1  0.1626333E-003  0.9118800E+02  0.7818608E-02  0.1130116E+00
         25   -1    0    0    0    0  0.00000000000E+00  0.00000000000E+00  0.99999998245E-14  0.12500000000E+03  0.12500000000E+03 0.  0.
        -11    1    3    3    0    0  0.17951538990E+02 -0.10029600612E+02 -0.27297472234E+02  0.34176053476E+02  0.51100000000E-03 0. -1.
         23    2    1    0    0    0 -0.30348436469E+02 -0.88791563536E+01  0.59502549283E+01  0.92824348532E+02  0.87069438571E+02 0.  0.
         11    1    3    3    0    0 -0.48299975459E+02  0.11504442585E+01  0.33247727162E+02  0.58648295056E+02  0.51100000000E-03 0.  1.
         22    1    1    0    0    0  0.30348436469E+02  0.88791563536E+01 -0.59502549283E+01  0.32175651468E+02  0.00000000000E+00 0.  1.
</event>
<event>
 5    1  0.1626333E-003  0.9118800E+02  0.7818608E-02  0.1130116E+00
         25   -1    0    0    0    0  0.00000000000E+00  0.00000000000E+00  0.99999998245E-14  0.12500000000E+03  0.12500000000E+03 0.  0.
        -11    1    3    3    0    0 -0.57964959053E+01 -0.26863822807E+02  0.37625115389E+01  0.27738436040E+02  0.51100000000E-03 0.  1.
         23    2    1    0    0    0  0.68544088512E+01  0.32362635417E+02  0.13853301466E+02  0.89135852814E+02  0.81602470573E+02 0.  0.
         11    1    3    3    0    0  0.12650904757E+02  0.59226458224E+02  0.10090789927E+02  0.61397416775E+02  0.51100000000E-03 0. -1.
         22    1    1    0    0    0 -0.68544088512E+01 -0.32362635417E+02 -0.13853301466E+02  0.35864147186E+02  0.00000000000E+00 0. -1.
</event>
<event>
 5    1  0.1626333E-003  0.9118800E+02  0.7818608E-02  0.1130116E+00
         25   -1    0    0    0    0  0.00000000000E+00  0.00000000000E+00  0.99999998245E-14  0.12500000000E+03  0.12500000000E+03 0.  0.
        -11    1    3    3    0    0 -0.53175320041E+02  0.28315136241E+02  0.10521836249E+02  0.61156116948E+02  0.51100000000E-03 0. -1.
         23    2    1    0    0    0 -0.22077929143E+02  0.21555541104E+02  0.21124239930E+01  0.94072041084E+02  0.88842615175E+02 0.  0.
         11    1    3    3    0    0  0.31097390897E+02 -0.67595951372E+01 -0.84094122556E+01  0.32915924137E+02  0.51100000000E-03 0.  1.
         22    1    1    0    0    0  0.22077929143E+02 -0.21555541104E+02 -0.21124239930E+01  0.30927958916E+02  0.00000000000E+00 0. -1.
</event>
<event>
 5    1  0.1626333E-003  0.9118800E+02  0.7818608E-02  0.1130116E+00
         25   -1    0    0    0    0  0.00000000000E+00  0.00000000000E+00  0.99999998245E-14  0.12500000000E+03  0.12500000000E+03 0.  0.
        -11    1    3    3    0    0 -0.21709258861E+02 -0.19860716804E+02  0.45426642962E+02  0.54123191732E+02  0.51100000000E-03 0.  1.
         23    2    1    0    0    0 -0.10295831869E+02  0.12742684730E+02  0.27371270792E+02  0.93100679745E+02  0.87465249878E+02 0.  0.
         11    1    3    3    0    0  0.11413426993E+02  0.32603401534E+02 -0.18055372170E+02  0.38977488012E+02  0.51100000000E-03 0. -1.
         22    1    1    0    0    0  0.10295831869E+02 -0.12742684730E+02 -0.27371270792E+02  0.31899320255E+02  0.00000000000E+00 0.  1.
</event>
<event>
 5    1  0.1626333E-003  0.9118800E+02  0.7818608E-02  0.1130116E+00
         25   -1    0    0    0    0  0.00000000000E+00  0.00000000000E+00  0.99999998245E-14  0.12500000000E+03  0.12500000000E+03 0.  0.
        -11    1    3    3    0    0 -0.30535657294E+02  0.11638693391E+02  0.27750254711E+02  0.42871461219E+02  0.51100000000E-03 0.  1.
         23    2    1    0    0    0  0.57313605575E+01 -0.24853710173E+02  0.12880885283E+02  0.96426015173E+02  0.92095080180E+02 0.  0.
         11    1    3    3    0    0  0.36267017852E+02 -0.36492403564E+02 -0.14869369428E+02  0.53554553954E+02  0.51100000000E-03 0. -1.
         22    1    1    0    0    0 -0.57313605575E+01  0.24853710173E+02 -0.12880885283E+02  0.28573984827E+02  0.00000000000E+00 0.  1.
</event>
<event>
 5    1  0.1626333E-003  0.9118800E+02  0.7818608E-02  0.1130116E+00
         25   -1    0    0    0    0  0.00000000000E+00  0.00000000000E+00  0.99999998245E-14  0.12500000000E+03  0.12500000000E+03 0.  0.
        -11    1    3    3    0    0  0.24626301592E+02 -0.69822419268E+01  0.85964017697E+01  0.27001936154E+02  0.51100000000E-03 0.  1.
         23    2    1    0    0    0 -0.15098951603E+02  0.29220337463E+02 -0.18574919566E+02  0.87226542416E+02  0.78623378228E+02 0.  0.
         11    1    3    3    0    0 -0.39725253196E+02  0.36202579390E+02 -0.27171321336E+02  0.60224606261E+02  0.51100000000E-03 0. -1.
         22    1    1    0    0    0  0.15098951603E+02 -0.29220337463E+02  0.18574919566E+02  0.37773457584E+02  0.00000000000E+00 0. -1.
</event>
<event>
 5    1  0.1626333E-003  0.9118800E+02  0.7818608E-02  0.1130116E+00
         25   -1    0    0    0    0  0.00000000000E+00  0.00000000000E+00  0.99999998245E-14  0.12500000000E+03  0.12500000000E+03 0.  0.
        -11    1    3    3    0    0  0.30587862753E+02 -0.14474997474E+02  0.59447836295E+01  0.34358162820E+02  0.51100000000E-03 0.  1.
         23    2    1    0    0    0 -0.24652752523E+02  0.13205402275E+02  0.70594294634E+01  0.96155998881E+02  0.91727856839E+02 0.  0.
         11    1    3    3    0    0 -0.55240615276E+02  0.27680399749E+02  0.11146458339E+01  0.61797836062E+02  0.51100000000E-03 0. -1.
         22    1    1    0    0    0  0.24652752523E+02 -0.13205402275E+02 -0.70594294634E+01  0.28844001119E+02  0.00000000000E+00 0. -1.
</event>
<event>
 5    1  0.1626333E-003  0.9118800E+02  0.7818608E-02  0.1130116E+00
         25   -1    0    0    0    0  0.00000000000E+00  0.00000000000E+00  0.99999998245E-14  0.12500000000E+03  0.12500000000E+03 0.  0.
        -11    1    3    3    0    0 -0.26921296254E+02  0.33844570382E+02 -0.43803747042E+02  0.61554686186E+02  0.51100000000E-03 0.  1.
         23    2    1    0    0    0 -0.72617266539E+01  0.10650688293E+02 -0.23749626564E+02  0.97977516823E+02  0.94177381603E+02 0.  0.
         11    1    3    3    0    0  0.19659569600E+02 -0.23193882088E+02  0.20054120478E+02  0.36422830636E+02  0.51100000000E-03 0. -1.
         22    1    1    0    0    0  0.72617266539E+01 -0.10650688293E+02  0.23749626564E+02  0.27022483177E+02  0.00000000000E+00 0.  1.
</event>
<event>
 5    1  0.1626333E-003  0.9118800E+02  0.7818608E-02  0.1130116E+00
         25   -1    0    0    0    0  0.00000000000E+00  0.00000000000E+00  0.99999998245E-14  0.12500000000E+03  0.12500000000E+03 0.  0.
        -11    1    3    3    0    0  0.53017830955E+01 -0.30060465217E+02  0.28885700397E+02  0.42025280020E+02  0.51100000000E-03 0. -1.
         23    2    1    0    0    0  0.16442853365E+02 -0.14929814874E+02 -0.20444695113E+02  0.94813043260E+02  0.89879145607E+02 0.  0.
         11    1    3    3    0    0  0.11141070270E+02  0.15130650343E+02 -0.49330395510E+02  0.52787763241E+02  0.51100000000E-03 0.  1.
         22    1    1    0    0    0 -0.16442853365E+02  0.14929814874E+02  0.20444695113E+02  0.30186956740E+02  0.00000000000E+00 0. -1.
</event>
<event>
 5    1  0.1626333E-003  0.9118800E+02  0.7818608E-02  0.1130116E+00
         25   -1    0    0    0    0  0.00000000000E+00  0.00000000000E+00  0.99999998245E-14  0.12500000000E+03  0.12500000000E+03 0.  0.
        -11    1    3    3    0    0  0.27122428350E+02 -0.55715460035E+02  0.34371887604E+01  0.62061686034E+02  0.51100000000E-03 0.  1.
         23    2    1    0    0    0  0.16675391876E+02 -0.26077399551E+02 -0.21185514602E+01  0.93974402152E+02  0.88705132535E+02 0.  0.
         11    1    3    3    0    0 -0.10447036474E+02  0.29638060484E+02 -0.55557402206E+01  0.31912716118E+02  0.51100000000E-03 0. -1.
         22    1    1    0    0    0 -0.16675391876E+02  0.26077399551E+02  0.21185514602E+01  0.31025597848E+02  0.00000000000E+00 0.  1.
</event>
<event>
 5    1  0.1626333E-003  0.9118800E+02  0.7818608E-02  0.1130116E+00
         25   -1    0    0    0    0  0.00000000000E+00  0.00000000000E+00  0.99999998245E-14  0.12500000000E+03  0.12500000000E+03 0.  0.
        -11    1    3    3    0    0  0.24674859618E+02 -0.30115189802E+02 -0.25534016629E+02  0.46559202736E+02  0.51100000000E-03 0.  1.
         23    2    1    0    0    0 -0.19808049310E+02 -0.20794015305E+02 -0.10091663829E+02  0.94560033364E+02  0.89526578965E+02 0.  0.
         11    1    3    3    0    0 -0.44482908928E+02  0.93211744976E+01  0.15442352800E+02  0.48000830628E+02  0.51100000000E-03 0. -1.
         22    1    1    0    0    0  0.19808049310E+02  0.20794015305E+02  0.10091663829E+02  0.30439966636E+02  0.00000000000E+00 0.  1.
</event>
<event>
 5    1  0.1626333E-003  0.9118800E+02  0.7818608E-02  0.1130116E+00
         25   -1    0    0    0    0  0.00000000000E+00  0.00000000000E+00  0.99999998245E-14  0.12500000000E+03  0.12500000000E+03 0.  0.
        -11    1    3    3    0    0 -0.22326965981E+02 -0.27665512935E+02 -0.34366074583E+01  0.35716722791E+02  0.51100000000E-03 0.  1.
         23    2    1    0    0    0  0.19394134011E+02  0.13396271108E+02  0.14965723619E+02  0.97079301637E+02  0.92977553255E+02 0.  0.
         11    1    3    3    0    0  0.41721099991E+02  0.41061784043E+02  0.18402331077E+02  0.61362578846E+02  0.51100000000E-03 0. -1.
         22    1    1    0    0    0 -0.19394134011E+02 -0.13396271108E+02 -0.14965723619E+02  0.27920698363E+02  0.00000000000E+00 0. -1.
</event>
<event>
 5    1  0.1626333E-003  0.9118800E+02  0.7818608E-02  0.1130116E+00
         25   -1    0    0    0    0  0.00000000000E+00  0.00000000000E+00  0.99999998245E-14  0.12500000000E+03  0.12500000000E+03 0.  0.
        -11    1    3    3    0    0  0.48115461163E+02  0.66758775967E+01 -0.22258024235E+02  0.53432991566E+02  0.51100000000E-03 0.  1.
         23    2    1    0    0    0  0.25261593398E+02 -0.13027988749E+02  0.72803380148E+01  0.95659244839E+02  0.91048400368E+02 0.  0.
         11    1    3    3    0    0 -0.22853867765E+02 -0.19703866346E+02  0.29538362250E+02  0.42226253273E+02  0.51100000000E-03 0. -1.
         22    1    1    0    0    0 -0.25261593398E+02  0.13027988749E+02 -0.72803380148E+01  0.29340755161E+02  0.00000000000E+00 0.  1.
</event>
<event>
 5    1  0.1626333E-003  0.9118800E+02  0.7818608E-02  0.1130116E+00
         25   -1    0    0    0    0  0.00000000000E+00  0.00000000000E+00  0.99999998245E-14  0.12500000000E+03  0.12500000000E+03 0.  0.
        -11    1    3    3    0    0  0.25636153511E+02  0.48824556157E+02  0.26467352584E+02  0.61168377482E+02  0.51100000000E-03 0. -1.
         23    2    1    0    0    0  0.14287197856E+02  0.30081321756E+02  0.59803023912E+01  0.91165491612E+02  0.84654432271E+02 0.  0.
         11    1    3    3    0    0 -0.11348955655E+02 -0.18743234401E+02 -0.20487050192E+02  0.29997114130E+02  0.51100000000E-03 0.  1.
         22    1    1    0    0    0 -0.14287197856E+02 -0.30081321756E+02 -0.59803023912E+01  0.33834508388E+02  0.00000000000E+00 0. -1.
</event>
<event>
 5    1  0.1626333E-003  0.9118800E+02  0.7818608E-02  0.1130116E+00
         25   -1    0    0    0    0  0.00000000000E+00  0.00000000000E+00  0.99999998245E-14  0.12500000000E+03  0.12500000000E+03 0.  0.
        -11    1    3    3    0    0 -0.22750321206E+01 -0.43046722084E+02 -0.26999123700E+01  0.43191267409E+02  0.51100000000E-03 0.  1.
         23    2    1    0    0    0  0.21097526345E+02 -0.23535937616E+01  0.20454761911E+02  0.95520476491E+02  0.90857686096E+02 0.  0.
         11    1    3    3    0    0  0.23372558466E+02  0.40693128322E+02  0.23154674281E+02  0.52329209082E+02  0.51100000000E-03 0. -1.
         22    1    1    0    0    0 -0.21097526345E+02  0.23535937616E+01 -0.20454761911E+02  0.29479523509E+02  0.00000000000E+00 0. -1.
</event>
<event>
 5    1  0.1626333E-003  0.9118800E+02  0.7818608E-02  0.1130116E+00
         25   -1    0    0    0    0  0.00000000000E+00  0.00000000000E+00  0.99999998245E-14  0.12500000000E+03  0.12500000000E+03 0.  0.
        -11    1    3    3    0    0  0.23014018456E+02 -0.50827508321E+02  0.26192874652E+02  0.61637223578E+02  0.51100000000E-03 0.  1.
         23    2    1    0    0    0  0.51792117437E+01 -0.25838799326E+02  0.74195701868E+01  0.97622677146E+02  0.93705225502E+02 0.  0.
         11    1    3    3    0    0 -0.17834806712E+02  0.24988708995E+02 -0.18773304465E+02  0.35985453568E+02  0.51100000000E-03 0. -1.
         22    1    1    0    0    0 -0.51792117437E+01  0.25838799326E+02 -0.74195701868E+01  0.27377322854E+02  0.00000000000E+00 0.  1.
</event>
<event>
 5    1  0.1626333E-003  0.9118800E+02  0.7818608E-02  0.1130116E+00
         25   -1    0    0    0    0  0.00000000000E+00  0.00000000000E+00  0.99999998245E-14  0.12500000000E+03  0.12500000000E+03 0.  0.
        -11    1    3    3    0    0 -0.33464507605E+02 -0.92020912754E+01 -0.42910770298E+02  0.55189545758E+02  0.51100000000E-03 0.  1.
         23    2    1    0    0    0 -0.21497564154E+02  0.13889196860E+02 -0.91214222153E+01  0.97829144342E+02  0.93980243059E+02 0.  0.
         11    1    3    3    0    0  0.11966943451E+02  0.23091288135E+02  0.33789348083E+02  0.42639598584E+02  0.51100000000E-03 0. -1.
         22    1    1    0    0    0  0.21497564154E+02 -0.13889196860E+02  0.91214222153E+01  0.27170855658E+02  0.00000000000E+00 0.  1.
</event>
<event>
 5    1  0.1626333E-003  0.9118800E+02  0.7818608E-02  0.1130116E+00
         25   -1    0    0    0    0  0.00000000000E+00  0.00000000000E+00  0.99999998245E-14  0.12500000000E+03  0.12500000000E+03 0.  0.
        -11    1    3    3    0    0 -0.40002361285E+02  0.82558944527E+01 -0.39998724925E+01  0.41040805083E+02  0.51100000000E-03 0.  1.
         23    2    1    0    0    0  0.31416434970E+01  0.29453094378E+02  0.13828977425E+02  0.92310623914E+02  0.86328766807E+02 0.  0.
         11    1    3    3    0    0  0.43144004782E+02  0.21197199925E+02  0.17828849918E+02  0.51269818831E+02  0.51100000000E-03 0. -1.
         22    1    1    0    0    0 -0.31416434970E+01 -0.29453094378E+02 -0.13828977425E+02  0.32689376086E+02  0.00000000000E+00 0. -1.
</event>
<event>
 5    1  0.1626333E-003  0.9118800E+02  0.7818608E-02  0.1130116E+00
         25   -1    0    0    0    0  0.00000000000E+00  0.00000000000E+00  0.99999998245E-14  0.12500000000E+03  0.12500000000E+03 0.  0.
        -11    1    3    3    0    0 -0.11024491168E+02 -0.32210099437E+02  0.45544772907E+02  0.56862608546E+02  0.51100000000E-03 0.  1.
         23    2    1    0    0    0 -0.22899060446E+02 -0.93653455037E+01  0.19356881199E+02  0.93587175939E+02  0.88157778924E+02 0.  0.
         11    1    3    3    0    0 -0.11874569278E+02  0.22844753933E+02 -0.26187891708E+02  0.36724567393E+02  0.51100000000E-03 0. -1.
         22    1    1    0    0    0  0.22899060446E+02  0.93653455037E+01 -0.19356881199E+02  0.31412824061E+02  0.00000000000E+00 0.  1.
</event>
<event>
 5    1  0.1626333E-003  0.9118800E+02  0.7818608E-02  0.1130116E+00
         25   -1    0    0    0    0  0.00000000000E+00  0.00000000000E+00  0.99999998245E-14  0.12500000000E+03  0.12500000000E+03 0.  0.
        -11    1    3    3    0    0  0.12173928869E+02 -0.36182718157E+02  0.40825478680E+02  0.55893768409E+02  0.51100000000E-03 0.  1.
         23    2    1    0    0    0  0.24455429892E+02 -0.12853627855E+02  0.12235448388E+02  0.94784275658E+02  0.89839127971E+02 0.  0.
         11    1    3    3    0    0  0.12281501024E+02  0.23329090302E+02 -0.28590030292E+02  0.38890507249E+02  0.51100000000E-03 0. -1.
         22    1    1    0    0    0 -0.24455429892E+02  0.12853627855E+02 -0.12235448388E+02  0.30215724342E+02  0.00000000000E+00 0.  1.
</event>
<event>
 5    1  0.1626333E-003  0.9118800E+02  0.7818608E-02  0.1130116E+00
         25   -1    0    0    0    0  0.00000000000E+00  0.00000000000E+00  0.99999998245E-14  0.12500000000E+03  0.12500000000E+03 0.  0.
        -11    1    3    3    0    0 -0.38928168342E+01  0.21167669321E+02 -0.44380878266E+02  0.49324300333E+02  0.51100000000E-03 0.  1.
         23    2    1    0    0    0 -0.95650330097E+01 -0.18297454108E+02 -0.21026288676E+02  0.95531516856E+02  0.90872873917E+02 0.  0.
         11    1    3    3    0    0 -0.56722161754E+01 -0.39465123429E+02  0.23354589590E+02  0.46207216523E+02  0.51100000000E-03 0. -1.
         22    1    1    0    0    0  0.95650330097E+01  0.18297454108E+02  0.21026288676E+02  0.29468483144E+02  0.00000000000E+00 0.  1.
</event>
<event>
 5    1  0.1626333E-003  0.9118800E+02  0.7818608E-02  0.1130116E+00
         25   -1    0    0    0    0  0.00000000000E+00  0.00000000000E+00  0.99999998245E-14  0.12500000000E+03  0.12500000000E+03 0.  0.
        -11    1    3    3    0    0 -0.26864628423E+02  0.13561006763E+02 -0.42478377352E+02  0.52057868833E+02  0.51100000000E-03 0.  1.
         23    2    1    0    0    0  0.64934159907E+00  0.27134509913E+02 -0.11934402060E+02  0.95349819137E+02  0.90622595329E+02 0.  0.
         11    1    3    3    0    0  0.27513970022E+02  0.13573503150E+02  0.30543975292E+02  0.43291950303E+02  0.51100000000E-03 0. -1.
         22    1    1    0    0    0 -0.64934159907E+00 -0.27134509913E+02  0.11934402060E+02  0.29650180863E+02  0.00000000000E+00 0.  1.
</event>
<event>
 5    1  0.1626333E-003  0.9118800E+02  0.7818608E-02  0.1130116E+00
         25   -1    0    0    0    0  0.00000000000E+00  0.00000000000E+00  0.99999998245E-14  0.12500000000E+03  0.12500000000E+03 0.  0.
        -11    1    3    3    0    0  0.23107370924E+02  0.52432731433E+02 -0.11957871981E+02  0.58533175372E+02  0.51100000000E-03 0.  1.
         23    2    1    0    0    0 -0.64998269940E+00  0.26639567947E+02 -0.16135262052E+02  0.93848182406E+02  0.88527089648E+02 0.  0.
         11    1    3    3    0    0 -0.23757353623E+02 -0.25793163486E+02 -0.41773900716E+01  0.35315007035E+02  0.51100000000E-03 0. -1.
         22    1    1    0    0    0  0.64998269940E+00 -0.26639567947E+02  0.16135262052E+02  0.31151817594E+02  0.00000000000E+00 0.  1.
</event>
<event>
 5    1  0.1626333E-003  0.9118800E+02  0.7818608E-02  0.1130116E+00
         25   -1    0    0    0    0  0.00000000000E+00  0.00000000000E+00  0.99999998245E-14  0.12500000000E+03  0.12500000000E+03 0.  0.
        -11    1    3    3    0    0  0.31395788211E+02 -0.20731052664E+02  0.19164612315E+02  0.42222676696E+02  0.51100000000E-03 0.  1.
         23    2    1    0    0    0  0.16852889770E+02  0.20732272071E+02 -0.11610996679E+02  0.95868191908E+02  0.91334812514E+02 0.  0.
         11    1    3    3    0    0 -0.14542898441E+02  0.41463324735E+02 -0.30775608994E+02  0.53645515212E+02  0.51100000000E-03 0. -1.
         22    1    1    0    0    0 -0.16852889770E+02 -0.20732272071E+02  0.11610996679E+02  0.29131808092E+02  0.00000000000E+00 0. -1.
</event>
<event>
 5    1  0.1626333E-003  0.9118800E+02  0.7818608E-02  0.1130116E+00
         25   -1    0    0    0    0  0.00000000000E+00  0.00000000000E+00  0.99999998245E-14  0.12500000000E+03  0.12500000000E+03 0.  0.
        -11    1    3    3    0    0  0.20302858136E+02  0.16381390993E+02 -0.23698711860E+02  0.35244644465E+02  0.51100000000E-03 0.  1.
         23    2    1    0    0    0 -0.18512683025E+02 -0.23426559829E+02 -0.15251647983E+01  0.95102687983E+02  0.90281072190E+02 0.  0.
         11    1    3    3    0    0 -0.38815541160E+02 -0.39807950822E+02  0.22173547062E+02  0.59858043518E+02  0.51100000000E-03 0. -1.
         22    1    1    0    0    0  0.18512683025E+02  0.23426559829E+02  0.15251647983E+01  0.29897312017E+02  0.00000000000E+00 0. -1.
</event>
<event>
 5    1  0.1626333E-003  0.9118800E+02  0.7818608E-02  0.1130116E+00
         25   -1    0    0    0    0  0.00000000000E+00  0.00000000000E+00  0.99999998245E-14  0.12500000000E+03  0.12500000000E+03 0.  0.
        -11    1    3    3    0    0 -0.34706005472E+02  0.40173016438E+01  0.35777745299E+02  0.50006925393E+02  0.51100000000E-03 0.  1.
         23    2    1    0    0    0 -0.25339439467E+02  0.10786436646E+02 -0.88237334376E+01  0.96081274582E+02  0.91625971457E+02 0.  0.
         11    1    3    3    0    0  0.93665660054E+01  0.67691350023E+01 -0.44601478737E+02  0.46074349189E+02  0.51100000000E-03 0. -1.
         22    1    1    0    0    0  0.25339439467E+02 -0.10786436646E+02  0.88237334376E+01  0.28918725418E+02  0.00000000000E+00 0. -1.
</event>
<event>
 5    1  0.1626333E-003  0.9118800E+02  0.7818608E-02  0.1130116E+00
         25   -1    0    0    0    0  0.00000000000E+00  0.00000000000E+00  0.99999998245E-14  0.12500000000E+03  0.12500000000E+03 0.  0.
        -11    1    3    3    0    0 -0.99454376833E+01 -0.48998787010E+02 -0.26893855398E+02  0.56772108624E+02  0.51100000000E-03 0.  1.
         23    2    1    0    0    0  0.13074266231E+02 -0.25252067351E+02 -0.58613195410E+01  0.95966253949E+02  0.91468920882E+02 0.  0.
         11    1    3    3    0    0  0.23019703915E+02  0.23746719659E+02  0.21032535857E+02  0.39194145325E+02  0.51100000000E-03 0. -1.
         22    1    1    0    0    0 -0.13074266231E+02  0.25252067351E+02  0.58613195410E+01  0.29033746051E+02  0.00000000000E+00 0. -1.
</event>
<event>
 5    1  0.1626333E-003  0.9118800E+02  0.7818608E-02  0.1130116E+00
         25   -1    0    0    0    0  0.00000000000E+00  0.00000000000E+00  0.99999998245E-14  0.12500000000E+03  0.12500000000E+03 0.  0.
        -11    1    3    3    0    0  0.21879652404E+02  0.32158511002E+02  0.25654157449E+02  0.46594257306E+02  0.51100000000E-03 0.  1.
         23    2    1    0    0    0  0.65110201300E+01 -0.15025841359E+02  0.23617955946E+02  0.96260182068E+02  0.91869720349E+02 0.  0.
         11    1    3    3    0    0 -0.15368632274E+02 -0.47184352361E+02 -0.20362015030E+01  0.49665924763E+02  0.51100000000E-03 0. -1.
         22    1    1    0    0    0 -0.65110201300E+01  0.15025841359E+02 -0.23617955946E+02  0.28739817932E+02  0.00000000000E+00 0. -1.
</event>
<event>
 5    1  0.1626333E-003  0.9118800E+02  0.7818608E-02  0.1130116E+00
         25   -1    0    0    0    0  0.00000000000E+00  0.00000000000E+00  0.99999998245E-14  0.12500000000E+03  0.12500000000E+03 0.  0.
        -11    1    3    3    0    0 -0.38302797118E+02 -0.79932211898E+01 -0.84774333131E+01  0.40035768107E+02  0.51100000000E-03 0.  1.
         23    2    1    0    0    0  0.41177103466E+01  0.27506007854E+02 -0.10197336646E+02  0.95377007558E+02  0.90660089838E+02 0.  0.
         11    1    3    3    0    0  0.42420507465E+02  0.35499229044E+02 -0.17199033330E+01  0.55341239451E+02  0.51100000000E-03 0. -1.
         22    1    1    0    0    0 -0.41177103466E+01 -0.27506007854E+02  0.10197336646E+02  0.29622992442E+02  0.00000000000E+00 0. -1.
</event>
<event>
 5    1  0.1626333E-003  0.9118800E+02  0.7818608E-02  0.1130116E+00
         25   -1    0    0    0    0  0.00000000000E+00  0.00000000000E+00  0.99999998245E-14  0.12500000000E+03  0.12500000000E+03 0.  0.
        -11    1    3    3    0    0 -0.15166143036E+02  0.33195656649E+02  0.13581973324E+02  0.38941411307E+02  0.51100000000E-03 0.  1.
         23    2    1    0    0    0  0.22535297634E+02  0.47293323586E+01 -0.18005257479E+02  0.95769955167E+02  0.91200267499E+02 0.  0.
         11    1    3    3    0    0  0.37701440670E+02 -0.28466324290E+02 -0.31587230803E+02  0.56828543860E+02  0.51100000000E-03 0. -1.
         22    1    1    0    0    0 -0.22535297634E+02 -0.47293323586E+01  0.18005257479E+02  0.29230044833E+02  0.00000000000E+00 0. -1.
</event>
<event>
 5    1  0.1626333E-003  0.9118800E+02  0.7818608E-02  0.1130116E+00
         25   -1    0    0    0    0  0.00000000000E+00  0.00000000000E+00  0.99999998245E-14  0.12500000000E+03  0.12500000000E+03 0.  0.
        -11    1    3    3    0    0  0.60826111264E+01 -0.26403164040E+02 -0.20311542312E+02  0.33862722584E+02  0.51100000000E-03 0. -1.
         23    2    1    0    0    0 -0.22293822012E+02  0.17024718919E+02  0.11463152270E+02  0.94697204517E+02  0.89717897485E+02 0.  0.
         11    1    3    3    0    0 -0.28376433138E+02  0.43427882959E+02  0.31774694582E+02  0.60834481932E+02  0.51100000000E-03 0.  1.
         22    1    1    0    0    0  0.22293822012E+02 -0.17024718919E+02 -0.11463152270E+02  0.30302795483E+02  0.00000000000E+00 0.  1.
</event>
<event>
 5    1  0.1626333E-003  0.9118800E+02  0.7818608E-02  0.1130116E+00
         25   -1    0    0    0    0  0.00000000000E+00  0.00000000000E+00  0.99999998245E-14  0.12500000000E+03  0.12500000000E+03 0.  0.
        -11    1    3    3    0    0  0.44219954500E+02  0.73638787903E+01 -0.29608439162E+02  0.53724210154E+02  0.51100000000E-03 0. -1.
         23    2    1    0    0    0  0.61031257367E+01  0.20087374937E+02 -0.21939964528E+02  0.94633689405E+02  0.89629360989E+02 0.  0.
         11    1    3    3    0    0 -0.38116828763E+02  0.12723496147E+02  0.76684746336E+01  0.40909479251E+02  0.51100000000E-03 0.  1.
         22    1    1    0    0    0 -0.61031257367E+01 -0.20087374937E+02  0.21939964528E+02  0.30366310595E+02  0.00000000000E+00 0. -1.
</event>
<event>
 5    1  0.1626333E-003  0.9118800E+02  0.7818608E-02  0.1130116E+00
         25   -1    0    0    0    0  0.00000000000E+00  0.00000000000E+00  0.99999998245E-14  0.12500000000E+03  0.12500000000E+03 0.  0.
        -11    1    3    3    0    0 -0.12935859823E+02  0.33619131507E+02 -0.19469160971E+02  0.40946681207E+02  0.51100000000E-03 0. -1.
         23    2    1    0    0    0 -0.23037990023E+02 -0.14672190959E+02  0.68166562135E+01  0.96848819319E+02  0.92667172341E+02 0.  0.
         11    1    3    3    0    0 -0.10102130200E+02 -0.48291322466E+02  0.26285817185E+02  0.55902138112E+02  0.51100000000E-03 0.  1.
         22    1    1    0    0    0  0.23037990023E+02  0.14672190959E+02 -0.68166562135E+01  0.28151180681E+02  0.00000000000E+00 0.  1.
</event>
<event>
 5    1  0.1626333E-003  0.9118800E+02  0.7818608E-02  0.1130116E+00
         25   -1    0    0    0    0  0.00000000000E+00  0.00000000000E+00  0.99999998245E-14  0.12500000000E+03  0.12500000000E+03 0.  0.
        -11    1    3    3    0    0 -0.81868347283E+01  0.54154570348E+02  0.28104929938E+02  0.61559961335E+02  0.51100000000E-03 0.  1.
         23    2    1    0    0    0  0.29630451744E+01  0.22639100219E+02  0.68990726498E+01  0.10114825585E+03  0.98295798299E+02 0.  0.
         11    1    3    3    0    0  0.11149879903E+02 -0.31515470129E+02 -0.21205857288E+02  0.39588294518E+02  0.51100000000E-03 0. -1.
         22    1    1    0    0    0 -0.29630451744E+01 -0.22639100219E+02 -0.68990726498E+01  0.23851744147E+02  0.00000000000E+00 0.  1.
</event>
<event>
 5    1  0.1626333E-003  0.9118800E+02  0.7818608E-02  0.1130116E+00
         25   -1    0    0    0    0  0.00000000000E+00  0.00000000000E+00  0.99999998245E-14  0.12500000000E+03  0.12500000000E+03 0.  0.
        -11    1    3    3    0    0  0.29733245482E+02  0.13470922189E+02 -0.26626726825E+02  0.42124983242E+02  0.51100000000E-03 0.  1.
         23    2    1    0    0    0  0.10319428348E+02 -0.28368095652E+02 -0.12080558367E+01  0.94789093836E+02  0.89845831618E+02 0.  0.
         11    1    3    3    0    0 -0.19413817134E+02 -0.41839017840E+02  0.25418670989E+02  0.52664110594E+02  0.51100000000E-03 0. -1.
         22    1    1    0    0    0 -0.10319428348E+02  0.28368095652E+02  0.12080558367E+01  0.30210906164E+02  0.00000000000E+00 0. -1.
</event>
<event>
 5    1  0.1626333E-003  0.9118800E+02  0.7818608E-02  0.1130116E+00
         25   -1    0    0    0    0  0.00000000000E+00  0.00000000000E+00  0.99999998245E-14  0.12500000000E+03  0.12500000000E+03 0.  0.
        -11    1    3    3    0    0 -0.24095999550E+02 -0.46022901913E+02 -0.91028723223E+01  0.52740752550E+02  0.51100000000E-03 0.  1.
         23    2    1    0    0    0  0.13482388751E+02 -0.25517246351E+02 -0.43767540861E+01  0.95809922164E+02  0.91255030222E+02 0.  0.
         11    1    3    3    0    0  0.37578388301E+02  0.20505655562E+02  0.47261182362E+01  0.43069169614E+02  0.51100000000E-03 0. -1.
         22    1    1    0    0    0 -0.13482388751E+02  0.25517246351E+02  0.43767540861E+01  0.29190077836E+02  0.00000000000E+00 0.  1.
</event>
<event>
 5    1  0.1626333E-003  0.9118800E+02  0.7818608E-02  0.1130116E+00
         25   -1    0    0    0    0  0.00000000000E+00  0.00000000000E+00  0.99999998245E-14  0.12500000000E+03  0.12500000000E+03 0.  0.
        -11    1    3    3    0    0 -0.41002230458E+01 -0.33093511721E+02  0.15068744954E+02  0.36593160861E+02  0.51100000000E-03 0.  1.
         23    2    1    0    0    0 -0.84978825890E+01  0.25657563271E+02  0.11531329979E+02  0.95614695296E+02  0.90987217915E+02 0.  0.
         11    1    3    3    0    0 -0.43976595432E+01  0.58751074991E+02 -0.35374149745E+01  0.59021534435E+02  0.51100000000E-03 0. -1.
         22    1    1    0    0    0  0.84978825890E+01 -0.25657563271E+02 -0.11531329979E+02  0.29385304704E+02  0.00000000000E+00 0. -1.
</event>
<event>
 5    1  0.1626333E-003  0.9118800E+02  0.7818608E-02  0.1130116E+00
         25   -1    0    0    0    0  0.00000000000E+00  0.00000000000E+00  0.99999998245E-14  0.12500000000E+03  0.12500000000E+03 0.  0.
        -11    1    3    3    0    0 -0.31778727439E+02  0.13306804906E+02 -0.13088419002E+02  0.36854650815E+02  0.51100000000E-03 0. -1.
         23    2    1    0    0    0  0.22713954822E+02  0.18868652083E+02  0.60125677647E+01  0.94865290010E+02  0.89951778762E+02 0.  0.
         11    1    3    3    0    0  0.54492682261E+02  0.55618471771E+01  0.19100986767E+02  0.58010639195E+02  0.51100000000E-03 0.  1.
         22    1    1    0    0    0 -0.22713954822E+02 -0.18868652083E+02 -0.60125677647E+01  0.30134709990E+02  0.00000000000E+00 0.  1.
</event>
<event>
 5    1  0.1626333E-003  0.9118800E+02  0.7818608E-02  0.1130116E+00
         25   -1    0    0    0    0  0.00000000000E+00  0.00000000000E+00  0.99999998245E-14  0.12500000000E+03  0.12500000000E+03 0.  0.
        -11    1    3    3    0    0 -0.59809488652E+02  0.23520610218E+01  0.39404377288E+00  0.59857016253E+02  0.51100000000E-03 0. -1.
         23    2    1    0    0    0 -0.28506036322E+02 -0.10229685936E+02 -0.58147035466E+01  0.94160879415E+02  0.88967521342E+02 0.  0.
         11    1    3    3    0    0  0.31303452330E+02 -0.12581746958E+02 -0.62087473195E+01  0.34303863162E+02  0.51100000000E-03 0.  1.
         22    1    1    0    0    0  0.28506036322E+02  0.10229685936E+02  0.58147035466E+01  0.30839120585E+02  0.00000000000E+00 0. -1.
</event>
<event>
 5    1  0.1626333E-003  0.9118800E+02  0.7818608E-02  0.1130116E+00
         25   -1    0    0    0    0  0.00000000000E+00  0.00000000000E+00  0.99999998245E-14  0.12500000000E+03  0.12500000000E+03 0.  0.
        -11    1    3    3    0    0 -0.74571550077E+01 -0.60394850853E+02  0.83575589703E+01  0.61424717847E+02  0.51100000000E-03 0.  1.
         23    2    1    0    0    0 -0.11334692192E+02 -0.25635846949E+02  0.44961191368E+01  0.96611851361E+02  0.92346969849E+02 0.  0.
         11    1    3    3    0    0 -0.38775371844E+01  0.34759003905E+02 -0.38614398335E+01  0.35187133514E+02  0.51100000000E-03 0. -1.
         22    1    1    0    0    0  0.11334692192E+02  0.25635846949E+02 -0.44961191368E+01  0.28388148639E+02  0.00000000000E+00 0.  1.
</event>
<event>
 5    1  0.1626333E-003  0.9118800E+02  0.7818608E-02  0.1130116E+00
         25   -1    0    0    0    0  0.00000000000E+00  0.00000000000E+00  0.99999998245E-14  0.12500000000E+03  0.12500000000E+03 0.  0.
        -11    1    3    3    0    0  0.28434879252E+02  0.10607446750E+02 -0.16783970436E+02  0.34680858531E+02  0.51100000000E-03 0.  1.
         23    2    1    0    0    0 -0.18973472529E+02  0.12478947787E+02  0.20018877480E+02  0.94726707261E+02  0.89758992950E+02 0.  0.
         11    1    3    3    0    0 -0.47408351781E+02  0.18715010378E+01  0.36802847916E+02  0.60045848730E+02  0.51100000000E-03 0. -1.
         22    1    1    0    0    0  0.18973472529E+02 -0.12478947787E+02 -0.20018877480E+02  0.30273292739E+02  0.00000000000E+00 0. -1.
</event>
<event>
 5    1  0.1626333E-003  0.9118800E+02  0.7818608E-02  0.1130116E+00
         25   -1    0    0    0    0  0.00000000000E+00  0.00000000000E+00  0.99999998245E-14  0.12500000000E+03  0.12500000000E+03 0.  0.
        -11    1    3    3    0    0  0.11954547665E+02 -0.41678083374E+02  0.80826547600E+01  0.44105590936E+02  0.51100000000E-03 0. -1.
         23    2    1    0    0    0 -0.10653005696E+02 -0.42925526820E+02 -0.16746198103E+02  0.77708113444E+02  0.61660590014E+02 0.  0.
         11    1    3    3    0    0 -0.22607553360E+02 -0.12474434459E+01 -0.24828852863E+02  0.33602522507E+02  0.51100000000E-03 0.  1.
         22    1    1    0    0    0  0.10653005696E+02  0.42925526820E+02  0.16746198103E+02  0.47291886556E+02  0.00000000000E+00 0. -1.
</event>
<event>
 5    1  0.1626333E-003  0.9118800E+02  0.7818608E-02  0.1130116E+00
         25   -1    0    0    0    0  0.00000000000E+00  0.00000000000E+00  0.99999998245E-14  0.12500000000E+03  0.12500000000E+03 0.  0.
        -11    1    3    3    0    0  0.12400226893E+02 -0.58602136834E+02 -0.17823465300E+02  0.62495215690E+02  0.51100000000E-03 0.  1.
         23    2    1    0    0    0  0.55566572957E+01 -0.26851320618E+02 -0.87131538446E+01  0.96228679051E+02  0.91826846635E+02 0.  0.
         11    1    3    3    0    0 -0.68435695977E+01  0.31750816217E+02  0.91103114558E+01  0.33733463361E+02  0.51100000000E-03 0. -1.
         22    1    1    0    0    0 -0.55566572957E+01  0.26851320618E+02  0.87131538446E+01  0.28771320949E+02  0.00000000000E+00 0.  1.
</event>
<event>
 5    1  0.1626333E-003  0.9118800E+02  0.7818608E-02  0.1130116E+00
         25   -1    0    0    0    0  0.00000000000E+00  0.00000000000E+00  0.99999998245E-14  0.12500000000E+03  0.12500000000E+03 0.  0.
        -11    1    3    3    0    0 -0.34624444205E+02  0.18313705614E+02 -0.34132677064E+02  0.51954630147E+02  0.51100000000E-03 0.  1.
         23    2    1    0    0    0 -0.13033213113E+02  0.23000288693E+02  0.61130625368E+01  0.97866119747E+02  0.94029409956E+02 0.  0.
         11    1    3    3    0    0  0.21591231092E+02  0.46865830787E+01  0.40245739601E+02  0.45911489600E+02  0.51100000000E-03 0. -1.
         22    1    1    0    0    0  0.13033213113E+02 -0.23000288693E+02 -0.61130625368E+01  0.27133880253E+02  0.00000000000E+00 0.  1.
</event>
<event>
 5    1  0.1626333E-003  0.9118800E+02  0.7818608E-02  0.1130116E+00
         25   -1    0    0    0    0  0.00000000000E+00  0.00000000000E+00  0.99999998245E-14  0.12500000000E+03  0.12500000000E+03 0.  0.
        -11    1    3    3    0    0 -0.41585676609E+01  0.77502143384E+01  0.37235649056E+02  0.38260332829E+02  0.51100000000E-03 0.  1.
         23    2    1    0    0    0 -0.22873479132E+02  0.64662026038E+01 -0.17083834256E+02  0.95727739810E+02  0.91142388341E+02 0.  0.
         11    1    3    3    0    0 -0.18714911471E+02 -0.12840117347E+01 -0.54319483313E+02  0.57467406981E+02  0.51100000000E-03 0. -1.
         22    1    1    0    0    0  0.22873479132E+02 -0.64662026038E+01  0.17083834256E+02  0.29272260190E+02  0.00000000000E+00 0. -1.
</event>
<event>
 5    1  0.1626333E-003  0.9118800E+02  0.7818608E-02  0.1130116E+00
         25   -1    0    0    0    0  0.00000000000E+00  0.00000000000E+00  0.99999998245E-14  0.12500000000E+03  0.12500000000E+03 0.  0.
        -11    1    3    3    0    0  0.87553796844E+01  0.34313708855E+02 -0.59064168693E+01  0.35902270810E+02  0.51100000000E-03 0.  1.
         23    2    1    0    0    0 -0.24924099789E+02 -0.14534401572E+02  0.33518214711E+01  0.95953583930E+02  0.91451604592E+02 0.  0.
         11    1    3    3    0    0 -0.33679479474E+02 -0.48848110427E+02  0.92582383404E+01  0.60051313119E+02  0.51100000000E-03 0. -1.
         22    1    1    0    0    0  0.24924099789E+02  0.14534401572E+02 -0.33518214711E+01  0.29046416070E+02  0.00000000000E+00 0. -1.
</event>
<event>
 5    1  0.1626333E-003  0.9118800E+02  0.7818608E-02  0.1130116E+00
         25   -1    0    0    0    0  0.00000000000E+00  0.00000000000E+00  0.99999998245E-14  0.12500000000E+03  0.12500000000E+03 0.  0.
        -11    1    3    3    0    0 -0.47673649353E+02  0.30675738410E+02  0.21496215257E+02  0.60628912577E+02  0.51100000000E-03 0.  1.
         23    2    1    0    0    0 -0.20194174287E+02  0.25799411382E+02  0.11239983503E+02  0.90362570362E+02  0.83460425295E+02 0.  0.
         11    1    3    3    0    0  0.27479475066E+02 -0.48763270280E+01 -0.10256231754E+02  0.29733657785E+02  0.51100000000E-03 0. -1.
         22    1    1    0    0    0  0.20194174287E+02 -0.25799411382E+02 -0.11239983503E+02  0.34637429638E+02  0.00000000000E+00 0.  1.
</event>
<event>
 5    1  0.1626333E-003  0.9118800E+02  0.7818608E-02  0.1130116E+00
         25   -1    0    0    0    0  0.00000000000E+00  0.00000000000E+00  0.99999998245E-14  0.12500000000E+03  0.12500000000E+03 0.  0.
        -11    1    3    3    0    0  0.49164050173E+01 -0.32700903693E+02 -0.34586893102E+02  0.47851575892E+02  0.51100000000E-03 0.  1.
         23    2    1    0    0    0  0.26628439662E+02 -0.14240456828E+02  0.25864425371E+01  0.94692342642E+02  0.89711123394E+02 0.  0.
         11    1    3    3    0    0  0.21712034645E+02  0.18460446865E+02  0.37173335639E+02  0.46840766750E+02  0.51100000000E-03 0. -1.
         22    1    1    0    0    0 -0.26628439662E+02  0.14240456828E+02 -0.25864425371E+01  0.30307657358E+02  0.00000000000E+00 0. -1.
</event>
<event>
 5    1  0.1626333E-003  0.9118800E+02  0.7818608E-02  0.1130116E+00
         25   -1    0    0    0    0  0.00000000000E+00  0.00000000000E+00  0.99999998245E-14  0.12500000000E+03  0.12500000000E+03 0.  0.
        -11    1    3    3    0    0 -0.10553385372E+02 -0.13596528409E+02  0.37933175926E+02  0.41655316152E+02  0.51100000000E-03 0. -1.
         23    2    1    0    0    0  0.29264017424E+02 -0.62067183220E+01  0.33717318354E+01  0.94895604247E+02  0.89993894580E+02 0.  0.
         11    1    3    3    0    0  0.39817402796E+02  0.73898100870E+01 -0.34561444091E+02  0.53240288095E+02  0.51100000000E-03 0.  1.
         22    1    1    0    0    0 -0.29264017424E+02  0.62067183220E+01 -0.33717318354E+01  0.30104395753E+02  0.00000000000E+00 0. -1.
</event>
<event>
 5    1  0.1626333E-003  0.9118800E+02  0.7818608E-02  0.1130116E+00
         25   -1    0    0    0    0  0.00000000000E+00  0.00000000000E+00  0.99999998245E-14  0.12500000000E+03  0.12500000000E+03 0.  0.
        -11    1    3    3    0    0  0.10535520699E+02  0.37078844252E+02  0.15017176048E+02  0.41368508122E+02  0.51100000000E-03 0.  1.
         23    2    1    0    0    0 -0.12031887650E+02  0.92993817535E+01 -0.25425470247E+02  0.95374008730E+02  0.90655955031E+02 0.  0.
         11    1    3    3    0    0 -0.22567408349E+02 -0.27779462499E+02 -0.40442646296E+02  0.54005500608E+02  0.51100000000E-03 0. -1.
         22    1    1    0    0    0  0.12031887650E+02 -0.92993817535E+01  0.25425470247E+02  0.29625991270E+02  0.00000000000E+00 0.  1.
</event>
<event>
 5    1  0.1626333E-003  0.9118800E+02  0.7818608E-02  0.1130116E+00
         25   -1    0    0    0    0  0.00000000000E+00  0.00000000000E+00  0.99999998245E-14  0.12500000000E+03  0.12500000000E+03 0.  0.
        -11    1    3    3    0    0 -0.15962067791E+02 -0.38908023755E+02  0.11892003086E+02  0.43704023365E+02  0.51100000000E-03 0. -1.
         23    2    1    0    0    0  0.26201169833E+02 -0.12211253330E+02 -0.33874145520E+01  0.95895179336E+02  0.91371739800E+02 0.  0.
         11    1    3    3    0    0  0.42163237624E+02  0.26696770425E+02 -0.15279417638E+02  0.52191155971E+02  0.51100000000E-03 0.  1.
         22    1    1    0    0    0 -0.26201169833E+02  0.12211253330E+02  0.33874145520E+01  0.29104820664E+02  0.00000000000E+00 0.  1.
</event>
<event>
 5    1  0.1626333E-003  0.9118800E+02  0.7818608E-02  0.1130116E+00
         25   -1    0    0    0    0  0.00000000000E+00  0.00000000000E+00  0.99999998245E-14  0.12500000000E+03  0.12500000000E+03 0.  0.
        -11    1    3    3    0    0  0.10398339844E+02  0.44801726961E+02 -0.12930816504E+02  0.47775791211E+02  0.51100000000E-03 0. -1.
         23    2    1    0    0    0  0.28233812080E+02  0.45488012493E+01  0.61308094284E+01  0.95752323825E+02  0.91176098602E+02 0.  0.
         11    1    3    3    0    0  0.17835472236E+02 -0.40252925711E+02  0.19061625932E+02  0.47976532614E+02  0.51100000000E-03 0.  1.
         22    1    1    0    0    0 -0.28233812080E+02 -0.45488012493E+01 -0.61308094284E+01  0.29247676175E+02  0.00000000000E+00 0.  1.
</event>
<event>
 5    1  0.1626333E-003  0.9118800E+02  0.7818608E-02  0.1130116E+00
         25   -1    0    0    0    0  0.00000000000E+00  0.00000000000E+00  0.99999998245E-14  0.12500000000E+03  0.12500000000E+03 0.  0.
        -11    1    3    3    0    0 -0.27567531026E+02 -0.17886760205E+02 -0.12063663449E+02  0.35006241352E+02  0.51100000000E-03 0. -1.
         23    2    1    0    0    0  0.72646580813E+01  0.26457282807E+02  0.10336251149E+02  0.95681044384E+02  0.91078323964E+02 0.  0.
         11    1    3    3    0    0  0.34832189107E+02  0.44344043013E+02  0.22399914599E+02  0.60674803032E+02  0.51100000000E-03 0.  1.
         22    1    1    0    0    0 -0.72646580813E+01 -0.26457282807E+02 -0.10336251149E+02  0.29318955616E+02  0.00000000000E+00 0.  1.
</event>
<event>
 5    1  0.1626333E-003  0.9118800E+02  0.7818608E-02  0.1130116E+00
         25   -1    0    0    0    0  0.00000000000E+00  0.00000000000E+00  0.99999998245E-14  0.12500000000E+03  0.12500000000E+03 0.  0.
        -11    1    3    3    0    0  0.24969450888E+02  0.29161858050E+01  0.48597826501E+02  0.54714955526E+02  0.51100000000E-03 0.  1.
         23    2    1    0    0    0  0.18457271826E+02 -0.17618394739E+02  0.12902436790E+02  0.96407140899E+02  0.92069458697E+02 0.  0.
         11    1    3    3    0    0 -0.65121790617E+01 -0.20534580544E+02 -0.35695389712E+02  0.41692185373E+02  0.51100000000E-03 0. -1.
         22    1    1    0    0    0 -0.18457271826E+02  0.17618394739E+02 -0.12902436790E+02  0.28592859101E+02  0.00000000000E+00 0.  1.
</event>
<event>
 5    1  0.1626333E-003  0.9118800E+02  0.7818608E-02  0.1130116E+00
         25   -1    0    0    0    0  0.00000000000E+00  0.00000000000E+00  0.99999998245E-14  0.12500000000E+03  0.12500000000E+03 0.  0.
        -11    1    3    3    0    0  0.38337502703E+02  0.35495856669E+02 -0.33441184968E+02  0.62032514107E+02  0.51100000000E-03 0. -1.
         23    2    1    0    0    0  0.20490169280E+02  0.17755539190E+02 -0.11031349566E+02  0.95728907053E+02  0.91143989178E+02 0.  0.
         11    1    3    3    0    0 -0.17847333422E+02 -0.17740317479E+02  0.22409835402E+02  0.33696392946E+02  0.51100000000E-03 0.  1.
         22    1    1    0    0    0 -0.20490169280E+02 -0.17755539190E+02  0.11031349566E+02  0.29271092947E+02  0.00000000000E+00 0. -1.
</event>
<event>
 5    1  0.1626333E-003  0.9118800E+02  0.7818608E-02  0.1130116E+00
         25   -1    0    0    0    0  0.00000000000E+00  0.00000000000E+00  0.99999998245E-14  0.12500000000E+03  0.12500000000E+03 0.  0.
        -11    1    3    3    0    0  0.42917816031E+02  0.14546646071E+02  0.64243010317E+01  0.45769154338E+02  0.51100000000E-03 0. -1.
         23    2    1    0    0    0  0.86963695664E+01  0.77766781324E+01 -0.27930899732E+02  0.94730564487E+02  0.89764364432E+02 0.  0.
         11    1    3    3    0    0 -0.34221446465E+02 -0.67699679388E+01 -0.34355200764E+02  0.48961410149E+02  0.51100000000E-03 0.  1.
         22    1    1    0    0    0 -0.86963695664E+01 -0.77766781324E+01  0.27930899732E+02  0.30269435513E+02  0.00000000000E+00 0. -1.
</event>
<event>
 5    1  0.1626333E-003  0.9118800E+02  0.7818608E-02  0.1130116E+00
         25   -1    0    0    0    0  0.00000000000E+00  0.00000000000E+00  0.99999998245E-14  0.12500000000E+03  0.12500000000E+03 0.  0.
        -11    1    3    3    0    0 -0.44809569593E+02  0.91186559534E+01 -0.10407817262E+02  0.46897442083E+02  0.51100000000E-03 0.  1.
         23    2    1    0    0    0 -0.19838275048E+02 -0.19551150038E+02  0.15707823822E+02  0.93022815104E+02  0.87353899603E+02 0.  0.
         11    1    3    3    0    0  0.24971294545E+02 -0.28669805991E+02  0.26115641084E+02  0.46125373021E+02  0.51100000000E-03 0. -1.
         22    1    1    0    0    0  0.19838275048E+02  0.19551150038E+02 -0.15707823822E+02  0.31977184896E+02  0.00000000000E+00 0.  1.
</event>
<event>
 5    1  0.1626333E-003  0.9118800E+02  0.7818608E-02  0.1130116E+00
         25   -1    0    0    0    0  0.00000000000E+00  0.00000000000E+00  0.99999998245E-14  0.12500000000E+03  0.12500000000E+03 0.  0.
        -11    1    3    3    0    0 -0.25616401820E+02  0.15536868251E+02 -0.34827761014E+02  0.45940910469E+02  0.51100000000E-03 0.  1.
         23    2    1    0    0    0  0.14091771018E+02  0.24929470291E+02 -0.64403885679E+01  0.95648081761E+02  0.91033073332E+02 0.  0.
         11    1    3    3    0    0  0.39708172838E+02  0.93926020405E+01  0.28387372446E+02  0.49707171292E+02  0.51100000000E-03 0. -1.
         22    1    1    0    0    0 -0.14091771018E+02 -0.24929470291E+02  0.64403885679E+01  0.29351918239E+02  0.00000000000E+00 0.  1.
</event>
<event>
 5    1  0.1626333E-003  0.9118800E+02  0.7818608E-02  0.1130116E+00
         25   -1    0    0    0    0  0.00000000000E+00  0.00000000000E+00  0.99999998245E-14  0.12500000000E+03  0.12500000000E+03 0.  0.
        -11    1    3    3    0    0  0.53976391554E+01 -0.45615850261E+02 -0.16484510753E+02  0.48802452792E+02  0.51100000000E-03 0. -1.
         23    2    1    0    0    0 -0.25291535758E+02 -0.10561858070E+02 -0.23401645091E+01  0.97491983045E+02  0.93530720949E+02 0.  0.
         11    1    3    3    0    0 -0.30689174913E+02  0.35053992191E+02  0.14144346243E+02  0.48689530253E+02  0.51100000000E-03 0.  1.
         22    1    1    0    0    0  0.25291535758E+02  0.10561858070E+02  0.23401645091E+01  0.27508016955E+02  0.00000000000E+00 0. -1.
</event>
<event>
 5    1  0.1626333E-003  0.9118800E+02  0.7818608E-02  0.1130116E+00
         25   -1    0    0    0    0  0.00000000000E+00  0.00000000000E+00  0.99999998245E-14  0.12500000000E+03  0.12500000000E+03 0.  0.
        -11    1    3    3    0    0 -0.81493001815E+01 -0.58669270992E+02 -0.66959369501E+01  0.59609814830E+02  0.51100000000E-03 0. -1.
         23    2    1    0    0    0 -0.75788846500E+01 -0.27003832255E+02  0.97633619897E+01  0.95302025551E+02  0.90556647397E+02 0.  0.
         11    1    3    3    0    0  0.57041553144E+00  0.31665438737E+02  0.16459298940E+02  0.35692210721E+02  0.51100000000E-03 0.  1.
         22    1    1    0    0    0  0.75788846500E+01  0.27003832255E+02 -0.97633619897E+01  0.29697974449E+02  0.00000000000E+00 0. -1.
</event>
<event>
 5    1  0.1626333E-003  0.9118800E+02  0.7818608E-02  0.1130116E+00
         25   -1    0    0    0    0  0.00000000000E+00  0.00000000000E+00  0.99999998245E-14  0.12500000000E+03  0.12500000000E+03 0.  0.
        -11    1    3    3    0    0 -0.55406290113E+01  0.60841567401E+00  0.39657896156E+02  0.40047689911E+02  0.51100000000E-03 0.  1.
         23    2    1    0    0    0 -0.21774821988E+01 -0.28024210615E+02 -0.80248256261E+01  0.95768242686E+02  0.91197920324E+02 0.  0.
         11    1    3    3    0    0  0.33631468125E+01 -0.28632626290E+02 -0.47682721782E+02  0.55720552775E+02  0.51100000000E-03 0. -1.
         22    1    1    0    0    0  0.21774821988E+01  0.28024210615E+02  0.80248256261E+01  0.29231757314E+02  0.00000000000E+00 0. -1.
</event>
<event>
 5    1  0.1626333E-003  0.9118800E+02  0.7818608E-02  0.1130116E+00
         25   -1    0    0    0    0  0.00000000000E+00  0.00000000000E+00  0.99999998245E-14  0.12500000000E+03  0.12500000000E+03 0.  0.
        -11    1    3    3    0    0  0.12286193312E+02 -0.43059570573E+02  0.10316591233E+02  0.45951161236E+02  0.51100000000E-03 0. -1.
         23    2    1    0    0    0 -0.84779997958E+01  0.38510213715E+01  0.24177492845E+02  0.99091352671E+02  0.95644331603E+02 0.  0.
         11    1    3    3    0    0 -0.20764193108E+02  0.46910591944E+02  0.13860901612E+02  0.53140191435E+02  0.51100000000E-03 0.  1.
         22    1    1    0    0    0  0.84779997958E+01 -0.38510213715E+01 -0.24177492845E+02  0.25908647329E+02  0.00000000000E+00 0.  1.
</event>
<event>
 5    1  0.1626333E-003  0.9118800E+02  0.7818608E-02  0.1130116E+00
         25   -1    0    0    0    0  0.00000000000E+00  0.00000000000E+00  0.99999998245E-14  0.12500000000E+03  0.12500000000E+03 0.  0.
        -11    1    3    3    0    0  0.25072321336E+02 -0.49911923472E+01  0.43674544130E+02  0.50606314858E+02  0.51100000000E-03 0.  1.
         23    2    1    0    0    0  0.23575509848E+02 -0.25323115781E+02  0.11797105014E+02  0.88445430598E+02  0.80537926777E+02 0.  0.
         11    1    3    3    0    0 -0.14968114879E+01 -0.20331923434E+02 -0.31877439116E+02  0.37839115740E+02  0.51100000000E-03 0. -1.
         22    1    1    0    0    0 -0.23575509848E+02  0.25323115781E+02 -0.11797105014E+02  0.36554569402E+02  0.00000000000E+00 0.  1.
</event>
<event>
 5    1  0.1626333E-003  0.9118800E+02  0.7818608E-02  0.1130116E+00
         25   -1    0    0    0    0  0.00000000000E+00  0.00000000000E+00  0.99999998245E-14  0.12500000000E+03  0.12500000000E+03 0.  0.
        -11    1    3    3    0    0  0.19010263867E+02  0.38184516705E+02 -0.55380894375E+01  0.43012996677E+02  0.51100000000E-03 0. -1.
         23    2    1    0    0    0  0.46340120114E+00  0.17649434821E+01  0.28646850565E+02  0.96295090778E+02  0.91917205649E+02 0.  0.
         11    1    3    3    0    0 -0.18546862666E+02 -0.36419573223E+02  0.34184940003E+02  0.53282094100E+02  0.51100000000E-03 0.  1.
         22    1    1    0    0    0 -0.46340120114E+00 -0.17649434821E+01 -0.28646850565E+02  0.28704909222E+02  0.00000000000E+00 0.  1.
</event>
<event>
 5    1  0.1626333E-003  0.9118800E+02  0.7818608E-02  0.1130116E+00
         25   -1    0    0    0    0  0.00000000000E+00  0.00000000000E+00  0.99999998245E-14  0.12500000000E+03  0.12500000000E+03 0.  0.
        -11    1    3    3    0    0  0.13099247099E+02 -0.20567784299E+02 -0.48129268751E+02  0.53954152169E+02  0.51100000000E-03 0.  1.
         23    2    1    0    0    0 -0.13277940546E+02  0.28099766000E+01 -0.26278138734E+02  0.95423992004E+02  0.90724847760E+02 0.  0.
         11    1    3    3    0    0 -0.26377187645E+02  0.23377760899E+02  0.21851130017E+02  0.41469839836E+02  0.51100000000E-03 0. -1.
         22    1    1    0    0    0  0.13277940546E+02 -0.28099766000E+01  0.26278138734E+02  0.29576007996E+02  0.00000000000E+00 0.  1.
</event>
<event>
 5    1  0.1626333E-003  0.9118800E+02  0.7818608E-02  0.1130116E+00
         25   -1    0    0    0    0  0.00000000000E+00  0.00000000000E+00  0.99999998245E-14  0.12500000000E+03  0.12500000000E+03 0.  0.
        -11    1    3    3    0    0  0.14608721010E+02 -0.32169273643E+02  0.63050869684E+01  0.35889149032E+02  0.51100000000E-03 0. -1.
         23    2    1    0    0    0  0.90219499667E+01  0.24777286313E+02 -0.12087959647E+02  0.95992617032E+02  0.91504941167E+02 0.  0.
         11    1    3    3    0    0 -0.55867710434E+01  0.56946559956E+02 -0.18393046615E+02  0.60103468000E+02  0.51100000000E-03 0.  1.
         22    1    1    0    0    0 -0.90219499667E+01 -0.24777286313E+02  0.12087959647E+02  0.29007382968E+02  0.00000000000E+00 0.  1.
</event>
<event>
 5    1  0.1626333E-003  0.9118800E+02  0.7818608E-02  0.1130116E+00
         25   -1    0    0    0    0  0.00000000000E+00  0.00000000000E+00  0.99999998245E-14  0.12500000000E+03  0.12500000000E+03 0.  0.
        -11    1    3    3    0    0  0.20481689170E+02 -0.24658834972E+02 -0.16892245448E+02  0.36234040486E+02  0.51100000000E-03 0.  1.
         23    2    1    0    0    0 -0.61921860763E+01  0.27636559907E+02 -0.33519382492E+01  0.96480566241E+02  0.92169092218E+02 0.  0.
         11    1    3    3    0    0 -0.26673875246E+02  0.52295394879E+02  0.13540307199E+02  0.60246525755E+02  0.51100000000E-03 0. -1.
         22    1    1    0    0    0  0.61921860763E+01 -0.27636559907E+02  0.33519382492E+01  0.28519433759E+02  0.00000000000E+00 0. -1.
</event>
<event>
 5    1  0.1626333E-003  0.9118800E+02  0.7818608E-02  0.1130116E+00
         25   -1    0    0    0    0  0.00000000000E+00  0.00000000000E+00  0.99999998245E-14  0.12500000000E+03  0.12500000000E+03 0.  0.
        -11    1    3    3    0    0  0.49981012050E+02 -0.25684594202E+02  0.25211693776E+01  0.56250833240E+02  0.51100000000E-03 0.  1.
         23    2    1    0    0    0  0.24856737151E+02 -0.13170338531E+00 -0.14818632832E+02  0.96060984699E+02  0.91598286964E+02 0.  0.
         11    1    3    3    0    0 -0.25124274899E+02  0.25552890816E+02 -0.17339802210E+02  0.39810151459E+02  0.51100000000E-03 0. -1.
         22    1    1    0    0    0 -0.24856737151E+02  0.13170338531E+00  0.14818632832E+02  0.28939015301E+02  0.00000000000E+00 0.  1.
</event>
<event>
 5    1  0.1626333E-003  0.9118800E+02  0.7818608E-02  0.1130116E+00
         25   -1    0    0    0    0  0.00000000000E+00  0.00000000000E+00  0.99999998245E-14  0.12500000000E+03  0.12500000000E+03 0.  0.
        -11    1    3    3    0    0  0.24415215057E+02  0.16797909197E+02  0.29482660328E+02  0.41803106821E+02  0.51100000000E-03 0.  1.
         23    2    1    0    0    0 -0.14217939330E+02  0.20771311825E+02 -0.10666029872E+02  0.97662088833E+02  0.93757784788E+02 0.  0.
         11    1    3    3    0    0 -0.38633154387E+02  0.39734026274E+01 -0.40148690200E+02  0.55858982012E+02  0.51100000000E-03 0. -1.
         22    1    1    0    0    0  0.14217939330E+02 -0.20771311825E+02  0.10666029872E+02  0.27337911167E+02  0.00000000000E+00 0. -1.
</event>
<event>
 5    1  0.1626333E-003  0.9118800E+02  0.7818608E-02  0.1130116E+00
         25   -1    0    0    0    0  0.00000000000E+00  0.00000000000E+00  0.99999998245E-14  0.12500000000E+03  0.12500000000E+03 0.  0.
        -11    1    3    3    0    0  0.28104049918E+02  0.32599628510E+02  0.31515672987E+02  0.53346143674E+02  0.51100000000E-03 0. -1.
         23    2    1    0    0    0  0.28237579980E+02 -0.18172576302E+01  0.63021068212E+01  0.96010693371E+02  0.91529630955E+02 0.  0.
         11    1    3    3    0    0  0.13353006190E+00 -0.34416886140E+02 -0.25213566165E+02  0.42664549697E+02  0.51100000000E-03 0.  1.
         22    1    1    0    0    0 -0.28237579980E+02  0.18172576302E+01 -0.63021068212E+01  0.28989306629E+02  0.00000000000E+00 0. -1.
</event>
<event>
 5    1  0.1626333E-003  0.9118800E+02  0.7818608E-02  0.1130116E+00
         25   -1    0    0    0    0  0.00000000000E+00  0.00000000000E+00  0.99999998245E-14  0.12500000000E+03  0.12500000000E+03 0.  0.
        -11    1    3    3    0    0  0.23337751198E+02 -0.26990329514E+02  0.12822211547E+02  0.37914873434E+02  0.51100000000E-03 0.  1.
         23    2    1    0    0    0  0.11045559186E+02  0.25636424709E+02 -0.82046099766E+01  0.95904531720E+02  0.91384533319E+02 0.  0.
         11    1    3    3    0    0 -0.12292192013E+02  0.52626754223E+02 -0.21026821524E+02  0.57989658286E+02  0.51100000000E-03 0. -1.
         22    1    1    0    0    0 -0.11045559186E+02 -0.25636424709E+02  0.82046099766E+01  0.29095468280E+02  0.00000000000E+00 0.  1.
</event>
<event>
 5    1  0.1626333E-003  0.9118800E+02  0.7818608E-02  0.1130116E+00
         25   -1    0    0    0    0  0.00000000000E+00  0.00000000000E+00  0.99999998245E-14  0.12500000000E+03  0.12500000000E+03 0.  0.
        -11    1    3    3    0    0  0.13125245756E+02 -0.56696066630E+02  0.21485713123E+02  0.62035086171E+02  0.51100000000E-03 0.  1.
         23    2    1    0    0    0  0.10105483717E+02 -0.27506624748E+02  0.65070466108E+01  0.94982057669E+02  0.90113896915E+02 0.  0.
         11    1    3    3    0    0 -0.30197620385E+01  0.29189441882E+02 -0.14978666512E+02  0.32946971498E+02  0.51100000000E-03 0. -1.
         22    1    1    0    0    0 -0.10105483717E+02  0.27506624748E+02 -0.65070466108E+01  0.30017942331E+02  0.00000000000E+00 0.  1.
</event>
<event>
 5    1  0.1626333E-003  0.9118800E+02  0.7818608E-02  0.1130116E+00
         25   -1    0    0    0    0  0.00000000000E+00  0.00000000000E+00  0.99999998245E-14  0.12500000000E+03  0.12500000000E+03 0.  0.
        -11    1    3    3    0    0 -0.21735627014E+01  0.28411496245E+02  0.33474080256E+02  0.43959658131E+02  0.51100000000E-03 0.  1.
         23    2    1    0    0    0 -0.10669052365E+02 -0.20172059839E+02  0.18846637722E+02  0.95403776762E+02  0.90696991078E+02 0.  0.
         11    1    3    3    0    0 -0.84954896635E+01 -0.48583556084E+02 -0.14627442534E+02  0.51444118632E+02  0.51100000000E-03 0. -1.
         22    1    1    0    0    0  0.10669052365E+02  0.20172059839E+02 -0.18846637722E+02  0.29596223238E+02  0.00000000000E+00 0.  1.
</event>
<event>
 5    1  0.1626333E-003  0.9118800E+02  0.7818608E-02  0.1130116E+00
         25   -1    0    0    0    0  0.00000000000E+00  0.00000000000E+00  0.99999998245E-14  0.12500000000E+03  0.12500000000E+03 0.  0.
        -11    1    3    3    0    0  0.46233792099E+02  0.10065784618E+02 -0.25212815734E+02  0.53615013096E+02  0.51100000000E-03 0. -1.
         23    2    1    0    0    0  0.13846047962E+02 -0.12737258571E+02 -0.25604334195E+02  0.93226855213E+02  0.87645386663E+02 0.  0.
         11    1    3    3    0    0 -0.32387744137E+02 -0.22803043188E+02 -0.39151846107E+00  0.39611842117E+02  0.51100000000E-03 0.  1.
         22    1    1    0    0    0 -0.13846047962E+02  0.12737258571E+02  0.25604334195E+02  0.31773144787E+02  0.00000000000E+00 0. -1.
</event>
<event>
 5    1  0.1626333E-003  0.9118800E+02  0.7818608E-02  0.1130116E+00
         25   -1    0    0    0    0  0.00000000000E+00  0.00000000000E+00  0.99999998245E-14  0.12500000000E+03  0.12500000000E+03 0.  0.
        -11    1    3    3    0    0  0.52648278507E+02  0.28248069236E+02 -0.12762668150E+02  0.61095665507E+02  0.51100000000E-03 0. -1.
         23    2    1    0    0    0  0.20300987566E+02  0.16223621340E+02 -0.13708877823E+02  0.95618554891E+02  0.90992520148E+02 0.  0.
         11    1    3    3    0    0 -0.32347290941E+02 -0.12024447896E+02 -0.94620967301E+00  0.34522889384E+02  0.51100000000E-03 0.  1.
         22    1    1    0    0    0 -0.20300987566E+02 -0.16223621340E+02  0.13708877823E+02  0.29381445109E+02  0.00000000000E+00 0. -1.
</event>
<event>
 5    1  0.1626333E-003  0.9118800E+02  0.7818608E-02  0.1130116E+00
         25   -1    0    0    0    0  0.00000000000E+00  0.00000000000E+00  0.99999998245E-14  0.12500000000E+03  0.12500000000E+03 0.  0.
        -11    1    3    3    0    0  0.94035986610E+01  0.10103349110E+01 -0.16214398390E+02  0.18771125694E+02  0.51100000000E-03 0.  1.
         23    2    1    0    0    0 -0.16660780544E+02  0.12565300152E+02  0.38918600755E+02  0.80839770597E+02  0.67712204581E+02 0.  0.
         11    1    3    3    0    0 -0.26064379205E+02  0.11554965241E+02  0.55132999145E+02  0.62068644903E+02  0.51100000000E-03 0. -1.
         22    1    1    0    0    0  0.16660780544E+02 -0.12565300152E+02 -0.38918600755E+02  0.44160229403E+02  0.00000000000E+00 0. -1.
</event>
<event>
 5    1  0.1626333E-003  0.9118800E+02  0.7818608E-02  0.1130116E+00
         25   -1    0    0    0    0  0.00000000000E+00  0.00000000000E+00  0.99999998245E-14  0.12500000000E+03  0.12500000000E+03 0.  0.
        -11    1    3    3    0    0 -0.31402205638E+02  0.12411915532E+02 -0.30004176437E+02  0.45170839820E+02  0.51100000000E-03 0.  1.
         23    2    1    0    0    0  0.70214132553E+01 -0.13838510251E+02 -0.29453576128E+02  0.91708593350E+02  0.85452608722E+02 0.  0.
         11    1    3    3    0    0  0.38423618893E+02 -0.26250425783E+02  0.55060030936E+00  0.46537753530E+02  0.51100000000E-03 0. -1.
         22    1    1    0    0    0 -0.70214132553E+01  0.13838510251E+02  0.29453576128E+02  0.33291406650E+02  0.00000000000E+00 0.  1.
</event>
<event>
 5    1  0.1626333E-003  0.9118800E+02  0.7818608E-02  0.1130116E+00
         25   -1    0    0    0    0  0.00000000000E+00  0.00000000000E+00  0.99999998245E-14  0.12500000000E+03  0.12500000000E+03 0.  0.
        -11    1    3    3    0    0 -0.73747347425E+01 -0.22694142255E+02  0.30562403696E+02  0.38774622179E+02  0.51100000000E-03 0. -1.
         23    2    1    0    0    0  0.21177737862E+02 -0.82742119562E+01 -0.17361245161E+02  0.96392798145E+02  0.92049983901E+02 0.  0.
         11    1    3    3    0    0  0.28552472604E+02  0.14419930299E+02 -0.47923648857E+02  0.57618175966E+02  0.51100000000E-03 0.  1.
         22    1    1    0    0    0 -0.21177737862E+02  0.82742119562E+01  0.17361245161E+02  0.28607201855E+02  0.00000000000E+00 0.  1.
</event>
<event>
 5    1  0.1626333E-003  0.9118800E+02  0.7818608E-02  0.1130116E+00
         25   -1    0    0    0    0  0.00000000000E+00  0.00000000000E+00  0.99999998245E-14  0.12500000000E+03  0.12500000000E+03 0.  0.
        -11    1    3    3    0    0  0.22610354085E+02 -0.19373126987E+01  0.44043983419E+02  0.49546480885E+02  0.51100000000E-03 0. -1.
         23    2    1    0    0    0 -0.23128355505E+01 -0.26010738726E+02  0.23742584899E+02  0.89706685123E+02  0.82472245517E+02 0.  0.
         11    1    3    3    0    0 -0.24923189635E+02 -0.24073426027E+02 -0.20301398520E+02  0.40160204238E+02  0.51100000000E-03 0.  1.
         22    1    1    0    0    0  0.23128355505E+01  0.26010738726E+02 -0.23742584899E+02  0.35293314877E+02  0.00000000000E+00 0. -1.
</event>
<event>
 5    1  0.1626333E-003  0.9118800E+02  0.7818608E-02  0.1130116E+00
         25   -1    0    0    0    0  0.00000000000E+00  0.00000000000E+00  0.99999998245E-14  0.12500000000E+03  0.12500000000E+03 0.  0.
        -11    1    3    3    0    0 -0.20105960827E+02 -0.29837576184E+02  0.13570946487E+02  0.38453884097E+02  0.51100000000E-03 0. -1.
         23    2    1    0    0    0  0.23476398246E+02 -0.45812359380E+01 -0.15389819582E+02  0.96557504609E+02  0.92273377267E+02 0.  0.
         11    1    3    3    0    0  0.43582359073E+02  0.25256340246E+02 -0.28960766069E+02  0.58103620512E+02  0.51100000000E-03 0.  1.
         22    1    1    0    0    0 -0.23476398246E+02  0.45812359380E+01  0.15389819582E+02  0.28442495391E+02  0.00000000000E+00 0.  1.
</event>
<event>
 5    1  0.1626333E-003  0.9118800E+02  0.7818608E-02  0.1130116E+00
         25   -1    0    0    0    0  0.00000000000E+00  0.00000000000E+00  0.99999998245E-14  0.12500000000E+03  0.12500000000E+03 0.  0.
        -11    1    3    3    0    0  0.13303056353E+02 -0.17360835677E+02 -0.36913096979E+02  0.42906254236E+02  0.51100000000E-03 0. -1.
         23    2    1    0    0    0  0.17834156787E+02 -0.18471336136E+02  0.15156518787E+02  0.95184442506E+02  0.90394195756E+02 0.  0.
         11    1    3    3    0    0  0.45311004335E+01 -0.11105004584E+01  0.52069615766E+02  0.52278188269E+02  0.51100000000E-03 0.  1.
         22    1    1    0    0    0 -0.17834156787E+02  0.18471336136E+02 -0.15156518787E+02  0.29815557494E+02  0.00000000000E+00 0.  1.
</event>
<event>
 5    1  0.1626333E-003  0.9118800E+02  0.7818608E-02  0.1130116E+00
         25   -1    0    0    0    0  0.00000000000E+00  0.00000000000E+00  0.99999998245E-14  0.12500000000E+03  0.12500000000E+03 0.  0.
        -11    1    3    3    0    0  0.11209604820E+02  0.37910268516E+01  0.32104372628E+02  0.34215754659E+02  0.51100000000E-03 0. -1.
         23    2    1    0    0    0 -0.33930001445E+02  0.12124199333E+02  0.24039726672E+01  0.88888778861E+02  0.81223116878E+02 0.  0.
         11    1    3    3    0    0 -0.45139606265E+02  0.83331724817E+01 -0.29700399961E+02  0.54673024202E+02  0.51100000000E-03 0.  1.
         22    1    1    0    0    0  0.33930001445E+02 -0.12124199333E+02 -0.24039726672E+01  0.36111221139E+02  0.00000000000E+00 0.  1.
</event>
<event>
 5    1  0.1626333E-003  0.9118800E+02  0.7818608E-02  0.1130116E+00
         25   -1    0    0    0    0  0.00000000000E+00  0.00000000000E+00  0.99999998245E-14  0.12500000000E+03  0.12500000000E+03 0.  0.
        -11    1    3    3    0    0  0.49378645973E+02 -0.20162172011E+02  0.37090765324E+00  0.53337617411E+02  0.51100000000E-03 0. -1.
         23    2    1    0    0    0  0.93075263011E+01 -0.29087663948E+02  0.16996558550E+01  0.94412239869E+02  0.89319986382E+02 0.  0.
         11    1    3    3    0    0 -0.40071119672E+02 -0.89254919373E+01  0.13287482018E+01  0.41074622458E+02  0.51100000000E-03 0.  1.
         22    1    1    0    0    0 -0.93075263011E+01  0.29087663948E+02 -0.16996558550E+01  0.30587760131E+02  0.00000000000E+00 0. -1.
</event>
<event>
 5    1  0.1626333E-003  0.9118800E+02  0.7818608E-02  0.1130116E+00
         25   -1    0    0    0    0  0.00000000000E+00  0.00000000000E+00  0.99999998245E-14  0.12500000000E+03  0.12500000000E+03 0.  0.
        -11    1    3    3    0    0  0.42829877207E+02  0.36280635290E+02  0.21379142764E+02  0.60064553808E+02  0.51100000000E-03 0. -1.
         23    2    1    0    0    0  0.15210518531E+02  0.25683284061E+02  0.27502140881E+01  0.95024099152E+02  0.90172195204E+02 0.  0.
         11    1    3    3    0    0 -0.27619358676E+02 -0.10597351229E+02 -0.18628928676E+02  0.34959545343E+02  0.51100000000E-03 0.  1.
         22    1    1    0    0    0 -0.15210518531E+02 -0.25683284061E+02 -0.27502140881E+01  0.29975900848E+02  0.00000000000E+00 0.  1.
</event>
<event>
 5    1  0.1626333E-003  0.9118800E+02  0.7818608E-02  0.1130116E+00
         25   -1    0    0    0    0  0.00000000000E+00  0.00000000000E+00  0.99999998245E-14  0.12500000000E+03  0.12500000000E+03 0.  0.
        -11    1    3    3    0    0 -0.10452329645E+02 -0.92370731607E+01 -0.31491814210E+02  0.34442837835E+02  0.51100000000E-03 0. -1.
         23    2    1    0    0    0 -0.82189977191E+01  0.18946459828E+02  0.21924857174E+02  0.94879913254E+02  0.89972097416E+02 0.  0.
         11    1    3    3    0    0  0.22333319259E+01  0.28183532989E+02  0.53416671384E+02  0.60437075419E+02  0.51100000000E-03 0.  1.
         22    1    1    0    0    0  0.82189977191E+01 -0.18946459828E+02 -0.21924857174E+02  0.30120086746E+02  0.00000000000E+00 0.  1.
</event>
<event>
 5    1  0.1626333E-003  0.9118800E+02  0.7818608E-02  0.1130116E+00
         25   -1    0    0    0    0  0.00000000000E+00  0.00000000000E+00  0.99999998245E-14  0.12500000000E+03  0.12500000000E+03 0.  0.
        -11    1    3    3    0    0 -0.13076490629E+02  0.48855067532E+02 -0.75021088350E+01  0.51128210099E+02  0.51100000000E-03 0.  1.
         23    2    1    0    0    0 -0.28463675282E+02  0.10486026304E+02 -0.11272948040E+02  0.92639268924E+02  0.86803325000E+02 0.  0.
         11    1    3    3    0    0 -0.15387184653E+02 -0.38369041227E+02 -0.37708392048E+01  0.41511058825E+02  0.51100000000E-03 0. -1.
         22    1    1    0    0    0  0.28463675282E+02 -0.10486026304E+02  0.11272948040E+02  0.32360731076E+02  0.00000000000E+00 0.  1.
</event>
<event>
 5    1  0.1626333E-003  0.9118800E+02  0.7818608E-02  0.1130116E+00
         25   -1    0    0    0    0  0.00000000000E+00  0.00000000000E+00  0.99999998245E-14  0.12500000000E+03  0.12500000000E+03 0.  0.
        -11    1    3    3    0    0 -0.16403469680E+02 -0.55475900117E+02 -0.10094101174E+02  0.58724272581E+02  0.51100000000E-03 0.  1.
         23    2    1    0    0    0 -0.66333971356E+01 -0.22666905035E+02 -0.19662147923E+02  0.94269061154E+02  0.89119387837E+02 0.  0.
         11    1    3    3    0    0  0.97700725442E+01  0.32808995083E+02 -0.95680467491E+01  0.35544788573E+02  0.51100000000E-03 0. -1.
         22    1    1    0    0    0  0.66333971356E+01  0.22666905035E+02  0.19662147923E+02  0.30730938846E+02  0.00000000000E+00 0.  1.
</event>
<event>
 5    1  0.1626333E-003  0.9118800E+02  0.7818608E-02  0.1130116E+00
         25   -1    0    0    0    0  0.00000000000E+00  0.00000000000E+00  0.99999998245E-14  0.12500000000E+03  0.12500000000E+03 0.  0.
        -11    1    3    3    0    0 -0.21694846047E+02 -0.23226843293E+02  0.17230640113E+02  0.36153112637E+02  0.51100000000E-03 0. -1.
         23    2    1    0    0    0  0.28417468119E+02  0.51288590989E+01  0.47734126426E+00  0.96119460797E+02  0.91678051896E+02 0.  0.
         11    1    3    3    0    0  0.50112314166E+02  0.28355702391E+02 -0.16753298849E+02  0.59966348161E+02  0.51100000000E-03 0.  1.
         22    1    1    0    0    0 -0.28417468119E+02 -0.51288590989E+01 -0.47734126426E+00  0.28880539203E+02  0.00000000000E+00 0.  1.
</event>
<event>
 5    1  0.1626333E-003  0.9118800E+02  0.7818608E-02  0.1130116E+00
         25   -1    0    0    0    0  0.00000000000E+00  0.00000000000E+00  0.99999998245E-14  0.12500000000E+03  0.12500000000E+03 0.  0.
        -11    1    3    3    0    0  0.18166843200E+02 -0.58053582822E+02 -0.11734956468E+02  0.61951286297E+02  0.51100000000E-03 0. -1.
         23    2    1    0    0    0  0.28965356260E+01 -0.28604414760E+02 -0.63146370698E+01  0.95564016855E+02  0.90917568234E+02 0.  0.
         11    1    3    3    0    0 -0.15270307574E+02  0.29449168061E+02  0.54203193984E+01  0.33612730558E+02  0.51100000000E-03 0.  1.
         22    1    1    0    0    0 -0.28965356260E+01  0.28604414760E+02  0.63146370698E+01  0.29435983145E+02  0.00000000000E+00 0. -1.
</event>
<event>
 5    1  0.1626333E-003  0.9118800E+02  0.7818608E-02  0.1130116E+00
         25   -1    0    0    0    0  0.00000000000E+00  0.00000000000E+00  0.99999998245E-14  0.12500000000E+03  0.12500000000E+03 0.  0.
        -11    1    3    3    0    0 -0.24914102722E+02  0.23567209421E+02  0.14136263829E+01  0.34323814097E+02  0.51100000000E-03 0. -1.
         23    2    1    0    0    0  0.36754527608E+01 -0.27904968556E+02 -0.11487975888E+02  0.94599838600E+02  0.89582139124E+02 0.  0.
         11    1    3    3    0    0  0.28589555483E+02 -0.51472177977E+02 -0.12901602271E+02  0.60276024503E+02  0.51100000000E-03 0.  1.
         22    1    1    0    0    0 -0.36754527608E+01  0.27904968556E+02  0.11487975888E+02  0.30400161400E+02  0.00000000000E+00 0.  1.
</event>
<event>
 5    1  0.1626333E-003  0.9118800E+02  0.7818608E-02  0.1130116E+00
         25   -1    0    0    0    0  0.00000000000E+00  0.00000000000E+00  0.99999998245E-14  0.12500000000E+03  0.12500000000E+03 0.  0.
        -11    1    3    3    0    0  0.53470448636E+01 -0.35581809920E+02 -0.19728487846E+02  0.41034976775E+02  0.51100000000E-03 0.  1.
         23    2    1    0    0    0  0.36194799383E+02 -0.15299766588E+02 -0.25144436570E+02  0.78348214928E+02  0.62944846746E+02 0.  0.
         11    1    3    3    0    0  0.30847754519E+02  0.20282043332E+02 -0.54159487244E+01  0.37313238153E+02  0.51100000000E-03 0. -1.
         22    1    1    0    0    0 -0.36194799383E+02  0.15299766588E+02  0.25144436570E+02  0.46651785072E+02  0.00000000000E+00 0. -1.
</event>
<event>
 5    1  0.1626333E-003  0.9118800E+02  0.7818608E-02  0.1130116E+00
         25   -1    0    0    0    0  0.00000000000E+00  0.00000000000E+00  0.99999998245E-14  0.12500000000E+03  0.12500000000E+03 0.  0.
        -11    1    3    3    0    0  0.91431708216E+01  0.17877264299E+02 -0.30635497027E+02  0.36629603190E+02  0.51100000000E-03 0. -1.
         23    2    1    0    0    0 -0.16534216801E+02  0.14995792685E+02  0.20989612080E+02  0.94359863924E+02  0.89246658094E+02 0.  0.
         11    1    3    3    0    0 -0.25677387623E+02 -0.28814716137E+01  0.51625109107E+02  0.57730260734E+02  0.51100000000E-03 0.  1.
         22    1    1    0    0    0  0.16534216801E+02 -0.14995792685E+02 -0.20989612080E+02  0.30640136076E+02  0.00000000000E+00 0.  1.
</event>
<event>
 5    1  0.1626333E-003  0.9118800E+02  0.7818608E-02  0.1130116E+00
         25   -1    0    0    0    0  0.00000000000E+00  0.00000000000E+00  0.99999998245E-14  0.12500000000E+03  0.12500000000E+03 0.  0.
        -11    1    3    3    0    0  0.26815870307E+02 -0.15373577489E+01 -0.20466297360E+02  0.33768679231E+02  0.51100000000E-03 0.  1.
         23    2    1    0    0    0 -0.49635363634E+01 -0.38655435689E+02 -0.20986023887E+01  0.85970734910E+02  0.76600807616E+02 0.  0.
         11    1    3    3    0    0 -0.31779406670E+02 -0.37118077940E+02  0.18367694971E+02  0.52202055678E+02  0.51100000000E-03 0. -1.
         22    1    1    0    0    0  0.49635363634E+01  0.38655435689E+02  0.20986023887E+01  0.39029265090E+02  0.00000000000E+00 0. -1.
</event>
<event>
 5    1  0.1626333E-003  0.9118800E+02  0.7818608E-02  0.1130116E+00
         25   -1    0    0    0    0  0.00000000000E+00  0.00000000000E+00  0.99999998245E-14  0.12500000000E+03  0.12500000000E+03 0.  0.
        -11    1    3    3    0    0  0.28424416810E+02 -0.35154471547E+02  0.11409746983E+02  0.46625815459E+02  0.51100000000E-03 0. -1.
         23    2    1    0    0    0 -0.60713803291E+01 -0.19611631775E+02 -0.20401078090E+02  0.96057267800E+02  0.91593214541E+02 0.  0.
         11    1    3    3    0    0 -0.34495797139E+02  0.15542839772E+02 -0.31810825073E+02  0.49431452341E+02  0.51100000000E-03 0.  1.
         22    1    1    0    0    0  0.60713803291E+01  0.19611631775E+02  0.20401078090E+02  0.28942732200E+02  0.00000000000E+00 0.  1.
</event>
<event>
 5    1  0.1626333E-003  0.9118800E+02  0.7818608E-02  0.1130116E+00
         25   -1    0    0    0    0  0.00000000000E+00  0.00000000000E+00  0.99999998245E-14  0.12500000000E+03  0.12500000000E+03 0.  0.
        -11    1    3    3    0    0 -0.11332853601E+02  0.15034793800E+02  0.38144874660E+02  0.42538336338E+02  0.51100000000E-03 0. -1.
         23    2    1    0    0    0  0.67785570671E+01 -0.25936163675E+02  0.64070123326E+01  0.97437648338E+02  0.93458076615E+02 0.  0.
         11    1    3    3    0    0  0.18111410668E+02 -0.40970957474E+02 -0.31737862327E+02  0.54899312000E+02  0.51100000000E-03 0.  1.
         22    1    1    0    0    0 -0.67785570671E+01  0.25936163675E+02 -0.64070123326E+01  0.27562351662E+02  0.00000000000E+00 0.  1.
</event>
<event>
 5    1  0.1626333E-003  0.9118800E+02  0.7818608E-02  0.1130116E+00
         25   -1    0    0    0    0  0.00000000000E+00  0.00000000000E+00  0.99999998245E-14  0.12500000000E+03  0.12500000000E+03 0.  0.
        -11    1    3    3    0    0  0.12259637323E+02 -0.31402086263E+02 -0.80275653802E+01  0.34653016249E+02  0.51100000000E-03 0.  1.
         23    2    1    0    0    0 -0.17430328307E+02  0.14878214428E+02  0.18353902117E+02  0.95639425544E+02  0.91021186468E+02 0.  0.
         11    1    3    3    0    0 -0.29689965630E+02  0.46280300691E+02  0.26381467497E+02  0.60986409295E+02  0.51100000000E-03 0. -1.
         22    1    1    0    0    0  0.17430328307E+02 -0.14878214428E+02 -0.18353902117E+02  0.29360574456E+02  0.00000000000E+00 0. -1.
</event>
<event>
 5    1  0.1626333E-003  0.9118800E+02  0.7818608E-02  0.1130116E+00
         25   -1    0    0    0    0  0.00000000000E+00  0.00000000000E+00  0.99999998245E-14  0.12500000000E+03  0.12500000000E+03 0.  0.
        -11    1    3    3    0    0  0.24636334459E+02 -0.19572605846E+02  0.17994525849E+02  0.36246914848E+02  0.51100000000E-03 0.  1.
         23    2    1    0    0    0 -0.21479873937E+02  0.17478192011E+02  0.41924351834E+01  0.96991988769E+02  0.92860094725E+02 0.  0.
         11    1    3    3    0    0 -0.46116208397E+02  0.37050797857E+02 -0.13802090666E+02  0.60745073921E+02  0.51100000000E-03 0. -1.
         22    1    1    0    0    0  0.21479873937E+02 -0.17478192011E+02 -0.41924351834E+01  0.28008011231E+02  0.00000000000E+00 0. -1.
</event>
<event>
 5    1  0.1626333E-003  0.9118800E+02  0.7818608E-02  0.1130116E+00
         25   -1    0    0    0    0  0.00000000000E+00  0.00000000000E+00  0.99999998245E-14  0.12500000000E+03  0.12500000000E+03 0.  0.
        -11    1    3    3    0    0  0.12040947239E+02  0.46512027963E+02  0.20273200341E+01  0.48088077342E+02  0.51100000000E-03 0. -1.
         23    2    1    0    0    0 -0.16855512006E+02  0.15606101385E+02 -0.18864808835E+02  0.95275604332E+02  0.90520169482E+02 0.  0.
         11    1    3    3    0    0 -0.28896459245E+02 -0.30905926578E+02 -0.20892128869E+02  0.47187526991E+02  0.51100000000E-03 0.  1.
         22    1    1    0    0    0  0.16855512006E+02 -0.15606101385E+02  0.18864808835E+02  0.29724395668E+02  0.00000000000E+00 0.  1.
</event>
<event>
 5    1  0.1626333E-003  0.9118800E+02  0.7818608E-02  0.1130116E+00
         25   -1    0    0    0    0  0.00000000000E+00  0.00000000000E+00  0.99999998245E-14  0.12500000000E+03  0.12500000000E+03 0.  0.
        -11    1    3    3    0    0  0.26925504803E+02 -0.25586757366E+02  0.21524204608E+01  0.37206153731E+02  0.51100000000E-03 0. -1.
         23    2    1    0    0    0 -0.25990422864E+02  0.39822980244E+01  0.62904861051E+01  0.97964264507E+02  0.94159790392E+02 0.  0.
         11    1    3    3    0    0 -0.52915927667E+02  0.29569055390E+02  0.41380656443E+01  0.60758110776E+02  0.51100000000E-03 0.  1.
         22    1    1    0    0    0  0.25990422864E+02 -0.39822980244E+01 -0.62904861051E+01  0.27035735493E+02  0.00000000000E+00 0.  1.
</event>
<event>
 5    1  0.1626333E-003  0.9118800E+02  0.7818608E-02  0.1130116E+00
         25   -1    0    0    0    0  0.00000000000E+00  0.00000000000E+00  0.99999998245E-14  0.12500000000E+03  0.12500000000E+03 0.  0.
        -11    1    3    3    0    0  0.29595763921E+02  0.40579562318E+02  0.21673116933E+02  0.54702231379E+02  0.51100000000E-03 0. -1.
         23    2    1    0    0    0  0.18959833960E+02  0.20407890680E+02 -0.11422081426E+02  0.94893169382E+02  0.89990512530E+02 0.  0.
         11    1    3    3    0    0 -0.10635929961E+02 -0.20171671639E+02 -0.33095198359E+02  0.40190938003E+02  0.51100000000E-03 0.  1.
         22    1    1    0    0    0 -0.18959833960E+02 -0.20407890680E+02  0.11422081426E+02  0.30106830618E+02  0.00000000000E+00 0. -1.
</event>
<event>
 5    1  0.1626333E-003  0.9118800E+02  0.7818608E-02  0.1130116E+00
         25   -1    0    0    0    0  0.00000000000E+00  0.00000000000E+00  0.99999998245E-14  0.12500000000E+03  0.12500000000E+03 0.  0.
        -11    1    3    3    0    0 -0.45184155251E+02 -0.10273502649E+02 -0.24370174381E+02  0.52355115720E+02  0.51100000000E-03 0.  1.
         23    2    1    0    0    0 -0.14302786955E+02 -0.24671397772E+02  0.33590165989E+01  0.96285359567E+02  0.91903971033E+02 0.  0.
         11    1    3    3    0    0  0.30881368296E+02 -0.14397895123E+02  0.27729190980E+02  0.43930243847E+02  0.51100000000E-03 0. -1.
         22    1    1    0    0    0  0.14302786955E+02  0.24671397772E+02 -0.33590165989E+01  0.28714640433E+02  0.00000000000E+00 0. -1.
</event>
<event>
 5    1  0.1626333E-003  0.9118800E+02  0.7818608E-02  0.1130116E+00
         25   -1    0    0    0    0  0.00000000000E+00  0.00000000000E+00  0.99999998245E-14  0.12500000000E+03  0.12500000000E+03 0.  0.
        -11    1    3    3    0    0 -0.19480343539E+02 -0.53532916680E+01  0.24451014168E+02  0.31717402324E+02  0.51100000000E-03 0.  1.
         23    2    1    0    0    0  0.36671258444E+01  0.17183160469E+02 -0.27187565231E+02  0.92629140900E+02  0.86788739045E+02 0.  0.
         11    1    3    3    0    0  0.23147469383E+02  0.22536452137E+02 -0.51638579399E+02  0.60911738576E+02  0.51100000000E-03 0. -1.
         22    1    1    0    0    0 -0.36671258444E+01 -0.17183160469E+02  0.27187565231E+02  0.32370859100E+02  0.00000000000E+00 0. -1.
</event>
<event>
 5    1  0.1626333E-003  0.9118800E+02  0.7818608E-02  0.1130116E+00
         25   -1    0    0    0    0  0.00000000000E+00  0.00000000000E+00  0.99999998245E-14  0.12500000000E+03  0.12500000000E+03 0.  0.
        -11    1    3    3    0    0  0.17268989370E+02  0.93005814935E+01  0.50235947174E+02  0.53929298148E+02  0.51100000000E-03 0.  1.
         23    2    1    0    0    0 -0.15639375495E+02  0.34106843879E+01  0.22606559449E+02  0.97300191986E+02  0.93274047819E+02 0.  0.
         11    1    3    3    0    0 -0.32908364866E+02 -0.58898971056E+01 -0.27629387724E+02  0.43370893838E+02  0.51100000000E-03 0. -1.
         22    1    1    0    0    0  0.15639375495E+02 -0.34106843879E+01 -0.22606559449E+02  0.27699808014E+02  0.00000000000E+00 0. -1.
</event>
<event>
 5    1  0.1626333E-003  0.9118800E+02  0.7818608E-02  0.1130116E+00
         25   -1    0    0    0    0  0.00000000000E+00  0.00000000000E+00  0.99999998245E-14  0.12500000000E+03  0.12500000000E+03 0.  0.
        -11    1    3    3    0    0  0.48061124144E+01  0.20419368777E+02  0.41703476206E+02  0.46682215733E+02  0.51100000000E-03 0.  1.
         23    2    1    0    0    0  0.25245463686E+02  0.12503966003E+02 -0.31968732055E+01  0.96646823797E+02  0.92394296086E+02 0.  0.
         11    1    3    3    0    0  0.20439351271E+02 -0.79154027739E+01 -0.44900349411E+02  0.49964608064E+02  0.51100000000E-03 0. -1.
         22    1    1    0    0    0 -0.25245463686E+02 -0.12503966003E+02  0.31968732055E+01  0.28353176203E+02  0.00000000000E+00 0.  1.
</event>
<event>
 5    1  0.1626333E-003  0.9118800E+02  0.7818608E-02  0.1130116E+00
         25   -1    0    0    0    0  0.00000000000E+00  0.00000000000E+00  0.99999998245E-14  0.12500000000E+03  0.12500000000E+03 0.  0.
        -11    1    3    3    0    0 -0.39334315868E+02 -0.15180630992E+02  0.28463992584E+02  0.50870805342E+02  0.51100000000E-03 0. -1.
         23    2    1    0    0    0  0.35518851834E+01  0.13102455619E+01  0.27923005984E+02  0.96821517163E+02  0.92630336774E+02 0.  0.
         11    1    3    3    0    0  0.42886201051E+02  0.16490876554E+02 -0.54098659985E+00  0.45950711821E+02  0.51100000000E-03 0.  1.
         22    1    1    0    0    0 -0.35518851834E+01 -0.13102455619E+01 -0.27923005984E+02  0.28178482837E+02  0.00000000000E+00 0. -1.
</event>
<event>
 5    1  0.1626333E-003  0.9118800E+02  0.7818608E-02  0.1130116E+00
         25   -1    0    0    0    0  0.00000000000E+00  0.00000000000E+00  0.99999998245E-14  0.12500000000E+03  0.12500000000E+03 0.  0.
        -11    1    3    3    0    0 -0.27705818054E+02  0.31327619146E+02 -0.43979223389E+02  0.60689407359E+02  0.51100000000E-03 0.  1.
         23    2    1    0    0    0 -0.36955851032E+01  0.19485466938E+02 -0.22452859176E+02  0.95042168699E+02  0.90197240395E+02 0.  0.
         11    1    3    3    0    0  0.24010232951E+02 -0.11842152208E+02  0.21526364213E+02  0.34352761341E+02  0.51100000000E-03 0. -1.
         22    1    1    0    0    0  0.36955851032E+01 -0.19485466938E+02  0.22452859176E+02  0.29957831301E+02  0.00000000000E+00 0.  1.
</event>
<event>
 5    1  0.1626333E-003  0.9118800E+02  0.7818608E-02  0.1130116E+00
         25   -1    0    0    0    0  0.00000000000E+00  0.00000000000E+00  0.99999998245E-14  0.12500000000E+03  0.12500000000E+03 0.  0.
        -11    1    3    3    0    0  0.62511004514E+01 -0.20858252657E+02  0.19040888877E+02  0.28925739580E+02  0.51100000000E-03 0. -1.
         23    2    1    0    0    0  0.35801538970E+02  0.17478899152E+02 -0.79901956100E+01  0.84366204533E+02  0.73936128742E+02 0.  0.
         11    1    3    3    0    0  0.29550438518E+02  0.38337151809E+02 -0.27031084487E+02  0.55440464953E+02  0.51100000000E-03 0.  1.
         22    1    1    0    0    0 -0.35801538970E+02 -0.17478899152E+02  0.79901956100E+01  0.40633795467E+02  0.00000000000E+00 0.  1.
</event>
<event>
 5    1  0.1626333E-003  0.9118800E+02  0.7818608E-02  0.1130116E+00
         25   -1    0    0    0    0  0.00000000000E+00  0.00000000000E+00  0.99999998245E-14  0.12500000000E+03  0.12500000000E+03 0.  0.
        -11    1    3    3    0    0 -0.41643552372E+02 -0.45271795649E+02  0.36020823532E+01  0.61617334680E+02  0.51100000000E-03 0. -1.
         23    2    1    0    0    0 -0.26012014734E+02 -0.20778743748E+02 -0.34865287394E+01  0.91525577154E+02  0.85184472109E+02 0.  0.
         11    1    3    3    0    0  0.15631537639E+02  0.24493051902E+02 -0.70886110925E+01  0.29908242474E+02  0.51100000000E-03 0.  1.
         22    1    1    0    0    0  0.26012014734E+02  0.20778743748E+02  0.34865287394E+01  0.33474422846E+02  0.00000000000E+00 0. -1.
</event>
<event>
 5    1  0.1626333E-003  0.9118800E+02  0.7818608E-02  0.1130116E+00
         25   -1    0    0    0    0  0.00000000000E+00  0.00000000000E+00  0.99999998245E-14  0.12500000000E+03  0.12500000000E+03 0.  0.
        -11    1    3    3    0    0  0.36652009361E+02  0.19535223979E+02 -0.18891827938E+02  0.45627797768E+02  0.51100000000E-03 0. -1.
         23    2    1    0    0    0  0.20480858590E+02 -0.18767365663E+02  0.91222067475E+01  0.95761425506E+02  0.91188575910E+02 0.  0.
         11    1    3    3    0    0 -0.16171150771E+02 -0.38302589642E+02  0.28014034685E+02  0.50133627737E+02  0.51100000000E-03 0.  1.
         22    1    1    0    0    0 -0.20480858590E+02  0.18767365663E+02 -0.91222067475E+01  0.29238574494E+02  0.00000000000E+00 0.  1.
</event>
<event>
 5    1  0.1626333E-003  0.9118800E+02  0.7818608E-02  0.1130116E+00
         25   -1    0    0    0    0  0.00000000000E+00  0.00000000000E+00  0.99999998245E-14  0.12500000000E+03  0.12500000000E+03 0.  0.
        -11    1    3    3    0    0  0.52249140658E+01 -0.42743247970E+02 -0.36436583296E+02  0.56408417604E+02  0.51100000000E-03 0.  1.
         23    2    1    0    0    0  0.89883321115E+01 -0.30167247811E+02 -0.17753398441E+01  0.93472158555E+02  0.87994543232E+02 0.  0.
         11    1    3    3    0    0  0.37634180458E+01  0.12576000159E+02  0.34661243452E+02  0.37063740951E+02  0.51100000000E-03 0. -1.
         22    1    1    0    0    0 -0.89883321115E+01  0.30167247811E+02  0.17753398441E+01  0.31527841445E+02  0.00000000000E+00 0.  1.
</event>
<event>
 5    1  0.1626333E-003  0.9118800E+02  0.7818608E-02  0.1130116E+00
         25   -1    0    0    0    0  0.00000000000E+00  0.00000000000E+00  0.99999998245E-14  0.12500000000E+03  0.12500000000E+03 0.  0.
        -11    1    3    3    0    0  0.48564692302E+02  0.22304594993E+02 -0.54865106386E+01  0.53722677665E+02  0.51100000000E-03 0.  1.
         23    2    1    0    0    0  0.24385672900E+02 -0.12108736902E+02 -0.99391791337E+01  0.96016041782E+02  0.91536934870E+02 0.  0.
         11    1    3    3    0    0 -0.24179019402E+02 -0.34413331895E+02 -0.44526684951E+01  0.42293364117E+02  0.51100000000E-03 0. -1.
         22    1    1    0    0    0 -0.24385672900E+02  0.12108736902E+02  0.99391791337E+01  0.28983958218E+02  0.00000000000E+00 0.  1.
</event>
<event>
 5    1  0.1626333E-003  0.9118800E+02  0.7818608E-02  0.1130116E+00
         25   -1    0    0    0    0  0.00000000000E+00  0.00000000000E+00  0.99999998245E-14  0.12500000000E+03  0.12500000000E+03 0.  0.
        -11    1    3    3    0    0  0.25354887933E+02  0.28971231844E+02 -0.73631393333E+00  0.38506425114E+02  0.51100000000E-03 0.  1.
         23    2    1    0    0    0  0.31196341697E+02 -0.18610316354E+02  0.93401121897E+01  0.87492756622E+02  0.79045487889E+02 0.  0.
         11    1    3    3    0    0  0.58414537646E+01 -0.47581548197E+02  0.10076426123E+02  0.48986331508E+02  0.51100000000E-03 0. -1.
         22    1    1    0    0    0 -0.31196341697E+02  0.18610316354E+02 -0.93401121897E+01  0.37507243378E+02  0.00000000000E+00 0. -1.
</event>
<event>
 5    1  0.1626333E-003  0.9118800E+02  0.7818608E-02  0.1130116E+00
         25   -1    0    0    0    0  0.00000000000E+00  0.00000000000E+00  0.99999998245E-14  0.12500000000E+03  0.12500000000E+03 0.  0.
        -11    1    3    3    0    0  0.39137090213E+02  0.42414106334E+02 -0.12395851285E+02  0.59028174424E+02  0.51100000000E-03 0. -1.
         23    2    1    0    0    0  0.22994978601E+02  0.17179870588E+02  0.79204871642E+01  0.95223312622E+02  0.90447930631E+02 0.  0.
         11    1    3    3    0    0 -0.16142111611E+02 -0.25234235746E+02  0.20316338449E+02  0.36195138198E+02  0.51100000000E-03 0.  1.
         22    1    1    0    0    0 -0.22994978601E+02 -0.17179870588E+02 -0.79204871642E+01  0.29776687378E+02  0.00000000000E+00 0. -1.
</event>
<event>
 5    1  0.1626333E-003  0.9118800E+02  0.7818608E-02  0.1130116E+00
         25   -1    0    0    0    0  0.00000000000E+00  0.00000000000E+00  0.99999998245E-14  0.12500000000E+03  0.12500000000E+03 0.  0.
        -11    1    3    3    0    0  0.36898670363E+02  0.97514283344E+01 -0.23801098629E+02  0.44978823077E+02  0.51100000000E-03 0.  1.
         23    2    1    0    0    0 -0.13396358584E+02  0.17571969854E+02 -0.18552443786E+02  0.96148141857E+02  0.91717149237E+02 0.  0.
         11    1    3    3    0    0 -0.50295028948E+02  0.78205415200E+01  0.52486548433E+01  0.51169318780E+02  0.51100000000E-03 0. -1.
         22    1    1    0    0    0  0.13396358584E+02 -0.17571969854E+02  0.18552443786E+02  0.28851858143E+02  0.00000000000E+00 0. -1.
</event>
<event>
 5    1  0.1626333E-003  0.9118800E+02  0.7818608E-02  0.1130116E+00
         25   -1    0    0    0    0  0.00000000000E+00  0.00000000000E+00  0.99999998245E-14  0.12500000000E+03  0.12500000000E+03 0.  0.
        -11    1    3    3    0    0  0.21807328009E+01 -0.14950044001E+02  0.44462668464E+02  0.46959432475E+02  0.51100000000E-03 0.  1.
         23    2    1    0    0    0 -0.16388129048E+01  0.24471944533E+02  0.16672557271E+02  0.95343028763E+02  0.90613228564E+02 0.  0.
         11    1    3    3    0    0 -0.38195457057E+01  0.39421988534E+02 -0.27790111193E+02  0.48383596288E+02  0.51100000000E-03 0. -1.
         22    1    1    0    0    0  0.16388129048E+01 -0.24471944533E+02 -0.16672557271E+02  0.29656971237E+02  0.00000000000E+00 0.  1.
</event>
<event>
 5    1  0.1626333E-003  0.9118800E+02  0.7818608E-02  0.1130116E+00
         25   -1    0    0    0    0  0.00000000000E+00  0.00000000000E+00  0.99999998245E-14  0.12500000000E+03  0.12500000000E+03 0.  0.
        -11    1    3    3    0    0 -0.28586042268E+02 -0.35904557409E+02 -0.85030397835E+01  0.46675483298E+02  0.51100000000E-03 0.  1.
         23    2    1    0    0    0 -0.21688467500E+02  0.10404011143E+02  0.12386145310E+02  0.97943583644E+02  0.94132331912E+02 0.  0.
         11    1    3    3    0    0  0.68975747681E+01  0.46308568552E+02  0.20889185094E+02  0.51268100347E+02  0.51100000000E-03 0. -1.
         22    1    1    0    0    0  0.21688467500E+02 -0.10404011143E+02 -0.12386145310E+02  0.27056416356E+02  0.00000000000E+00 0. -1.
</event>
<event>
 5    1  0.1626333E-003  0.9118800E+02  0.7818608E-02  0.1130116E+00
         25   -1    0    0    0    0  0.00000000000E+00  0.00000000000E+00  0.99999998245E-14  0.12500000000E+03  0.12500000000E+03 0.  0.
        -11    1    3    3    0    0  0.16477547737E+01  0.45230198352E+02  0.11073052859E+02  0.46595047362E+02  0.51100000000E-03 0. -1.
         23    2    1    0    0    0  0.22929819974E+01 -0.78537336382E+00  0.28937699172E+02  0.95960974342E+02  0.91461705569E+02 0.  0.
         11    1    3    3    0    0  0.64522722366E+00 -0.46015571716E+02  0.17864646313E+02  0.49365926981E+02  0.51100000000E-03 0.  1.
         22    1    1    0    0    0 -0.22929819974E+01  0.78537336382E+00 -0.28937699172E+02  0.29039025658E+02  0.00000000000E+00 0.  1.
</event>
<event>
 5    1  0.1626333E-003  0.9118800E+02  0.7818608E-02  0.1130116E+00
         25   -1    0    0    0    0  0.00000000000E+00  0.00000000000E+00  0.99999998245E-14  0.12500000000E+03  0.12500000000E+03 0.  0.
        -11    1    3    3    0    0  0.19992083421E+02 -0.26752143128E+02 -0.47749188264E+02  0.58269593628E+02  0.51100000000E-03 0. -1.
         23    2    1    0    0    0  0.82176042129E+01 -0.25511284096E+02 -0.12552928067E+02  0.95403874607E+02  0.90697125929E+02 0.  0.
         11    1    3    3    0    0 -0.11774479208E+02  0.12408590320E+01  0.35196260197E+02  0.37134280979E+02  0.51100000000E-03 0.  1.
         22    1    1    0    0    0 -0.82176042129E+01  0.25511284096E+02  0.12552928067E+02  0.29596125393E+02  0.00000000000E+00 0. -1.
</event>
<event>
 5    1  0.1626333E-003  0.9118800E+02  0.7818608E-02  0.1130116E+00
         25   -1    0    0    0    0  0.00000000000E+00  0.00000000000E+00  0.99999998245E-14  0.12500000000E+03  0.12500000000E+03 0.  0.
        -11    1    3    3    0    0 -0.61450174703E+01 -0.32454373626E+02  0.13486942899E+02  0.35678358093E+02  0.51100000000E-03 0.  1.
         23    2    1    0    0    0  0.21811472291E+02  0.85254547986E+01 -0.18886471742E+02  0.94914745840E+02  0.90020478003E+02 0.  0.
         11    1    3    3    0    0  0.27956489761E+02  0.40979828425E+02 -0.32373414641E+02  0.59236387747E+02  0.51100000000E-03 0. -1.
         22    1    1    0    0    0 -0.21811472291E+02 -0.85254547986E+01  0.18886471742E+02  0.30085254160E+02  0.00000000000E+00 0. -1.
</event>
<event>
 5    1  0.1626333E-003  0.9118800E+02  0.7818608E-02  0.1130116E+00
         25   -1    0    0    0    0  0.00000000000E+00  0.00000000000E+00  0.99999998245E-14  0.12500000000E+03  0.12500000000E+03 0.  0.
        -11    1    3    3    0    0 -0.44872775830E+02  0.73368016148E+01  0.47126951679E+01  0.45712188360E+02  0.51100000000E-03 0.  1.
         23    2    1    0    0    0 -0.87031048318E+01 -0.25776830316E+02 -0.84952731834E+01  0.96498093374E+02  0.92192859503E+02 0.  0.
         11    1    3    3    0    0  0.36169670999E+02 -0.33113631931E+02 -0.13207968351E+02  0.50785905014E+02  0.51100000000E-03 0. -1.
         22    1    1    0    0    0  0.87031048318E+01  0.25776830316E+02  0.84952731834E+01  0.28501906626E+02  0.00000000000E+00 0.  1.
</event>
<event>
 5    1  0.1626333E-003  0.9118800E+02  0.7818608E-02  0.1130116E+00
         25   -1    0    0    0    0  0.00000000000E+00  0.00000000000E+00  0.99999998245E-14  0.12500000000E+03  0.12500000000E+03 0.  0.
        -11    1    3    3    0    0  0.10668951449E+01  0.46528349061E+02  0.40003180678E+02  0.61370025226E+02  0.51100000000E-03 0.  1.
         23    2    1    0    0    0  0.87901096732E+01  0.19872201565E+02  0.17413383633E+02  0.97154060392E+02  0.93078005447E+02 0.  0.
         11    1    3    3    0    0  0.77232145283E+01 -0.26656147496E+02 -0.22589797045E+02  0.35784035166E+02  0.51100000000E-03 0. -1.
         22    1    1    0    0    0 -0.87901096732E+01 -0.19872201565E+02 -0.17413383633E+02  0.27845939608E+02  0.00000000000E+00 0.  1.
</event>
<event>
 5    1  0.1626333E-003  0.9118800E+02  0.7818608E-02  0.1130116E+00
         25   -1    0    0    0    0  0.00000000000E+00  0.00000000000E+00  0.99999998245E-14  0.12500000000E+03  0.12500000000E+03 0.  0.
        -11    1    3    3    0    0 -0.10268114015E+02 -0.59920889761E+02 -0.14003936919E+02  0.62386356238E+02  0.51100000000E-03 0.  1.
         23    2    1    0    0    0 -0.18231544913E+01 -0.25990650409E+02 -0.54904982184E+01  0.98373258335E+02  0.94701185757E+02 0.  0.
         11    1    3    3    0    0  0.84449595236E+01  0.33930239351E+02  0.85134387009E+01  0.35986902097E+02  0.51100000000E-03 0. -1.
         22    1    1    0    0    0  0.18231544913E+01  0.25990650409E+02  0.54904982184E+01  0.26626741665E+02  0.00000000000E+00 0.  1.
</event>
<event>
 5    1  0.1626333E-003  0.9118800E+02  0.7818608E-02  0.1130116E+00
         25   -1    0    0    0    0  0.00000000000E+00  0.00000000000E+00  0.99999998245E-14  0.12500000000E+03  0.12500000000E+03 0.  0.
        -11    1    3    3    0    0 -0.13111379197E+02 -0.26327127322E+02  0.16501912210E+02  0.33724457065E+02  0.51100000000E-03 0.  1.
         23    2    1    0    0    0  0.62668028456E+01  0.27389248553E+02 -0.78833521232E+01  0.95817967944E+02  0.91266050567E+02 0.  0.
         11    1    3    3    0    0  0.19378182042E+02  0.53716375875E+02 -0.24385264334E+02  0.62093510879E+02  0.51100000000E-03 0. -1.
         22    1    1    0    0    0 -0.62668028456E+01 -0.27389248553E+02  0.78833521232E+01  0.29182032056E+02  0.00000000000E+00 0. -1.
</event>
<event>
 5    1  0.1626333E-003  0.9118800E+02  0.7818608E-02  0.1130116E+00
         25   -1    0    0    0    0  0.00000000000E+00  0.00000000000E+00  0.99999998245E-14  0.12500000000E+03  0.12500000000E+03 0.  0.
        -11    1    3    3    0    0 -0.14003909839E+02  0.21221940320E+02  0.43182430912E+02  0.50111900598E+02  0.51100000000E-03 0. -1.
         23    2    1    0    0    0  0.20727598357E+02  0.13336081936E+02  0.24148153544E+02  0.90494670924E+02  0.83658040444E+02 0.  0.
         11    1    3    3    0    0  0.34731508196E+02 -0.78858583845E+01 -0.19034277368E+02  0.40382770326E+02  0.51100000000E-03 0.  1.
         22    1    1    0    0    0 -0.20727598357E+02 -0.13336081936E+02 -0.24148153544E+02  0.34505329076E+02  0.00000000000E+00 0. -1.
</event>
<event>
 5    1  0.1626333E-003  0.9118800E+02  0.7818608E-02  0.1130116E+00
         25   -1    0    0    0    0  0.00000000000E+00  0.00000000000E+00  0.99999998245E-14  0.12500000000E+03  0.12500000000E+03 0.  0.
        -11    1    3    3    0    0 -0.21267466243E+02 -0.19975909915E+02 -0.18141601253E+02  0.34357819978E+02  0.51100000000E-03 0.  1.
         23    2    1    0    0    0  0.22928858803E+02  0.18158543078E+02  0.83687557573E+00  0.95739692185E+02  0.91158779315E+02 0.  0.
         11    1    3    3    0    0  0.44196325046E+02  0.38134452993E+02  0.18978476828E+02  0.61381872207E+02  0.51100000000E-03 0. -1.
         22    1    1    0    0    0 -0.22928858803E+02 -0.18158543078E+02 -0.83687557573E+00  0.29260307815E+02  0.00000000000E+00 0. -1.
</event>
<event>
 5    1  0.1626333E-003  0.9118800E+02  0.7818608E-02  0.1130116E+00
         25   -1    0    0    0    0  0.00000000000E+00  0.00000000000E+00  0.99999998245E-14  0.12500000000E+03  0.12500000000E+03 0.  0.
        -11    1    3    3    0    0  0.10075878289E+02 -0.27706716847E+02  0.45800730794E+01  0.29835592024E+02  0.51100000000E-03 0. -1.
         23    2    1    0    0    0  0.82056041741E+01  0.32267003972E+02  0.10398509740E+02  0.90119912701E+02  0.83096198320E+02 0.  0.
         11    1    3    3    0    0 -0.18702741148E+01  0.59973720819E+02  0.58184366604E+01  0.60284320677E+02  0.51100000000E-03 0.  1.
         22    1    1    0    0    0 -0.82056041741E+01 -0.32267003972E+02 -0.10398509740E+02  0.34880087299E+02  0.00000000000E+00 0.  1.
</event>
<event>
 5    1  0.1626333E-003  0.9118800E+02  0.7818608E-02  0.1130116E+00
         25   -1    0    0    0    0  0.00000000000E+00  0.00000000000E+00  0.99999998245E-14  0.12500000000E+03  0.12500000000E+03 0.  0.
        -11    1    3    3    0    0  0.34011758118E+02 -0.21758987738E+02  0.36564229337E+02  0.54471975409E+02  0.51100000000E-03 0.  1.
         23    2    1    0    0    0  0.19278281874E+02 -0.22091307894E+02 -0.18553473890E+01  0.95621090041E+02  0.90996002716E+02 0.  0.
         11    1    3    3    0    0 -0.14733476244E+02 -0.33232015582E+00 -0.38419576726E+02  0.41149114632E+02  0.51100000000E-03 0. -1.
         22    1    1    0    0    0 -0.19278281874E+02  0.22091307894E+02  0.18553473890E+01  0.29378909959E+02  0.00000000000E+00 0. -1.
</event>
<event>
 5    1  0.1626333E-003  0.9118800E+02  0.7818608E-02  0.1130116E+00
         25   -1    0    0    0    0  0.00000000000E+00  0.00000000000E+00  0.99999998245E-14  0.12500000000E+03  0.12500000000E+03 0.  0.
        -11    1    3    3    0    0 -0.18906387313E+02 -0.11405764789E+02 -0.41387593014E+02  0.46909229448E+02  0.51100000000E-03 0.  1.
         23    2    1    0    0    0 -0.29899942503E+02 -0.68614626298E+00  0.40019672204E+01  0.94825621796E+02  0.89896637584E+02 0.  0.
         11    1    3    3    0    0 -0.10993555190E+02  0.10719618526E+02  0.45389560235E+02  0.47916392348E+02  0.51100000000E-03 0. -1.
         22    1    1    0    0    0  0.29899942503E+02  0.68614626298E+00 -0.40019672204E+01  0.30174378204E+02  0.00000000000E+00 0. -1.
</event>
<event>
 5    1  0.1626333E-003  0.9118800E+02  0.7818608E-02  0.1130116E+00
         25   -1    0    0    0    0  0.00000000000E+00  0.00000000000E+00  0.99999998245E-14  0.12500000000E+03  0.12500000000E+03 0.  0.
        -11    1    3    3    0    0  0.92800011172E+01  0.32385871578E+01  0.54418365309E+02  0.55298872961E+02  0.51100000000E-03 0. -1.
         23    2    1    0    0    0  0.69292173884E+01 -0.19160190257E+02  0.19865672866E+02  0.96543508601E+02  0.92254415343E+02 0.  0.
         11    1    3    3    0    0 -0.23507837288E+01 -0.22398777415E+02 -0.34552692443E+02  0.41244635641E+02  0.51100000000E-03 0.  1.
         22    1    1    0    0    0 -0.69292173884E+01  0.19160190257E+02 -0.19865672866E+02  0.28456491399E+02  0.00000000000E+00 0. -1.
</event>
<event>
 5    1  0.1626333E-003  0.9118800E+02  0.7818608E-02  0.1130116E+00
         25   -1    0    0    0    0  0.00000000000E+00  0.00000000000E+00  0.99999998245E-14  0.12500000000E+03  0.12500000000E+03 0.  0.
        -11    1    3    3    0    0 -0.11295953549E+02  0.28777442347E+02  0.39644894464E+02  0.50273824322E+02  0.51100000000E-03 0. -1.
         23    2    1    0    0    0  0.10896908903E+02  0.26267977670E+02 -0.88237991733E+00  0.96547796767E+02  0.92260225405E+02 0.  0.
         11    1    3    3    0    0  0.22192862452E+02 -0.25094646777E+01 -0.40527274382E+02  0.46273972445E+02  0.51100000000E-03 0.  1.
         22    1    1    0    0    0 -0.10896908903E+02 -0.26267977670E+02  0.88237991733E+00  0.28452203233E+02  0.00000000000E+00 0.  1.
</event>
<event>
 5    1  0.1626333E-003  0.9118800E+02  0.7818608E-02  0.1130116E+00
         25   -1    0    0    0    0  0.00000000000E+00  0.00000000000E+00  0.99999998245E-14  0.12500000000E+03  0.12500000000E+03 0.  0.
        -11    1    3    3    0    0 -0.70876962002E+01 -0.46535533291E+02  0.27764783588E+02  0.54650475790E+02  0.51100000000E-03 0.  1.
         23    2    1    0    0    0  0.52069110181E+01 -0.76228056222E+01  0.28060157633E+02  0.95460339639E+02  0.90774913438E+02 0.  0.
         11    1    3    3    0    0  0.12294607218E+02  0.38912727669E+02  0.29537404506E+00  0.40809863849E+02  0.51100000000E-03 0. -1.
         22    1    1    0    0    0 -0.52069110181E+01  0.76228056222E+01 -0.28060157633E+02  0.29539660361E+02  0.00000000000E+00 0.  1.
</event>
<event>
 5    1  0.1626333E-003  0.9118800E+02  0.7818608E-02  0.1130116E+00
         25   -1    0    0    0    0  0.00000000000E+00  0.00000000000E+00  0.99999998245E-14  0.12500000000E+03  0.12500000000E+03 0.  0.
        -11    1    3    3    0    0 -0.28244071388E+02 -0.21707565706E+02  0.20703924957E+02  0.41201923333E+02  0.51100000000E-03 0.  1.
         23    2    1    0    0    0  0.11046720171E+02 -0.96466027935E+01 -0.20758690161E+02  0.99583269502E+02  0.96285083868E+02 0.  0.
         11    1    3    3    0    0  0.39290791560E+02  0.12060962913E+02 -0.41462615118E+02  0.58381346169E+02  0.51100000000E-03 0. -1.
         22    1    1    0    0    0 -0.11046720171E+02  0.96466027935E+01  0.20758690161E+02  0.25416730498E+02  0.00000000000E+00 0. -1.
</event>
<event>
 5    1  0.1626333E-003  0.9118800E+02  0.7818608E-02  0.1130116E+00
         25   -1    0    0    0    0  0.00000000000E+00  0.00000000000E+00  0.99999998245E-14  0.12500000000E+03  0.12500000000E+03 0.  0.
        -11    1    3    3    0    0  0.31181114897E+02 -0.20489115815E+02 -0.17322235084E+02  0.41135454558E+02  0.51100000000E-03 0. -1.
         23    2    1    0    0    0  0.37305495005E+00 -0.89690474951E+01  0.27124385236E+02  0.96428768710E+02  0.92098817460E+02 0.  0.
         11    1    3    3    0    0 -0.30808059947E+02  0.11520068320E+02  0.44446620320E+02  0.55293314152E+02  0.51100000000E-03 0.  1.
         22    1    1    0    0    0 -0.37305495005E+00  0.89690474951E+01 -0.27124385236E+02  0.28571231290E+02  0.00000000000E+00 0.  1.
</event>
<event>
 5    1  0.1626333E-003  0.9118800E+02  0.7818608E-02  0.1130116E+00
         25   -1    0    0    0    0  0.00000000000E+00  0.00000000000E+00  0.99999998245E-14  0.12500000000E+03  0.12500000000E+03 0.  0.
        -11    1    3    3    0    0 -0.15153330259E+02 -0.29866196416E+02  0.62199918610E+01  0.34063197227E+02  0.51100000000E-03 0.  1.
         23    2    1    0    0    0  0.72070522370E+01  0.19886861588E+02 -0.21146514394E+02  0.95090069596E+02  0.90263599523E+02 0.  0.
         11    1    3    3    0    0  0.22360382496E+02  0.49753058004E+02 -0.27366506255E+02  0.61026872368E+02  0.51100000000E-03 0. -1.
         22    1    1    0    0    0 -0.72070522370E+01 -0.19886861588E+02  0.21146514394E+02  0.29909930404E+02  0.00000000000E+00 0. -1.
</event>
<event>
 5    1  0.1626333E-003  0.9118800E+02  0.7818608E-02  0.1130116E+00
         25   -1    0    0    0    0  0.00000000000E+00  0.00000000000E+00  0.99999998245E-14  0.12500000000E+03  0.12500000000E+03 0.  0.
        -11    1    3    3    0    0 -0.18031717567E+02 -0.20656564569E+02  0.51398462918E+02  0.58254943900E+02  0.51100000000E-03 0.  1.
         23    2    1    0    0    0 -0.21705469306E+02 -0.13603371228E+01  0.19110514708E+02  0.96048494213E+02  0.91581240183E+02 0.  0.
         11    1    3    3    0    0 -0.36737517392E+01  0.19296227446E+02 -0.32287948209E+02  0.37793550314E+02  0.51100000000E-03 0. -1.
         22    1    1    0    0    0  0.21705469306E+02  0.13603371228E+01 -0.19110514708E+02  0.28951505787E+02  0.00000000000E+00 0.  1.
</event>
<event>
 5    1  0.1626333E-003  0.9118800E+02  0.7818608E-02  0.1130116E+00
         25   -1    0    0    0    0  0.00000000000E+00  0.00000000000E+00  0.99999998245E-14  0.12500000000E+03  0.12500000000E+03 0.  0.
        -11    1    3    3    0    0  0.18795322972E+01 -0.12507818470E+02 -0.52108615857E+02  0.53621693477E+02  0.51100000000E-03 0. -1.
         23    2    1    0    0    0 -0.15709656702E+02  0.62591399252E+00 -0.99883893573E+00  0.10924618265E+03  0.10810432767E+03 0.  0.
         11    1    3    3    0    0 -0.17589188999E+02  0.13133732462E+02  0.51109776922E+02  0.55624489169E+02  0.51100000000E-03 0.  1.
         22    1    1    0    0    0  0.15709656702E+02 -0.62591399252E+00  0.99883893573E+00  0.15753817354E+02  0.00000000000E+00 0.  1.
</event>
<event>
 5    1  0.1626333E-003  0.9118800E+02  0.7818608E-02  0.1130116E+00
         25   -1    0    0    0    0  0.00000000000E+00  0.00000000000E+00  0.99999998245E-14  0.12500000000E+03  0.12500000000E+03 0.  0.
        -11    1    3    3    0    0  0.32203167015E+02 -0.49364753323E+01  0.16860176023E+02  0.36683487979E+02  0.51100000000E-03 0.  1.
         23    2    1    0    0    0 -0.26255270794E+02  0.27763232051E+01 -0.18171632928E+01  0.98535886611E+02  0.94915602789E+02 0.  0.
         11    1    3    3    0    0 -0.58458437809E+02  0.77127985374E+01 -0.18677339316E+02  0.61852398632E+02  0.51100000000E-03 0. -1.
         22    1    1    0    0    0  0.26255270794E+02 -0.27763232051E+01  0.18171632928E+01  0.26464113389E+02  0.00000000000E+00 0. -1.
</event>
<event>
 5    1  0.1626333E-003  0.9118800E+02  0.7818608E-02  0.1130116E+00
         25   -1    0    0    0    0  0.00000000000E+00  0.00000000000E+00  0.99999998245E-14  0.12500000000E+03  0.12500000000E+03 0.  0.
        -11    1    3    3    0    0 -0.16814889183E+02 -0.47659107828E+02 -0.34230366335E+02  0.61039733263E+02  0.51100000000E-03 0. -1.
         23    2    1    0    0    0 -0.38710637785E+01 -0.35108336637E+02 -0.17735745723E+02  0.85476119718E+02  0.75789378738E+02 0.  0.
         11    1    3    3    0    0  0.12943825404E+02  0.12550771191E+02  0.16494620612E+02  0.24436386455E+02  0.51100000000E-03 0.  1.
         22    1    1    0    0    0  0.38710637785E+01  0.35108336637E+02  0.17735745723E+02  0.39523880282E+02  0.00000000000E+00 0. -1.
</event>
<event>
 5    1  0.1626333E-003  0.9118800E+02  0.7818608E-02  0.1130116E+00
         25   -1    0    0    0    0  0.00000000000E+00  0.00000000000E+00  0.99999998245E-14  0.12500000000E+03  0.12500000000E+03 0.  0.
        -11    1    3    3    0    0  0.82165448317E+01 -0.30972659067E+02 -0.41822818399E+02  0.52687430738E+02  0.51100000000E-03 0. -1.
         23    2    1    0    0    0  0.27454260326E+02 -0.94644704292E+01 -0.27909053995E+02  0.84723109536E+02  0.74537087306E+02 0.  0.
         11    1    3    3    0    0  0.19237715494E+02  0.21508188637E+02  0.13913764405E+02  0.32035678798E+02  0.51100000000E-03 0.  1.
         22    1    1    0    0    0 -0.27454260326E+02  0.94644704292E+01  0.27909053995E+02  0.40276890464E+02  0.00000000000E+00 0. -1.
</event>
<event>
 5    1  0.1626333E-003  0.9118800E+02  0.7818608E-02  0.1130116E+00
         25   -1    0    0    0    0  0.00000000000E+00  0.00000000000E+00  0.99999998245E-14  0.12500000000E+03  0.12500000000E+03 0.  0.
        -11    1    3    3    0    0  0.33976843270E+01  0.76558033325E+01  0.34591981529E+02  0.35591582851E+02  0.51100000000E-03 0.  1.
         23    2    1    0    0    0 -0.48596112280E+01  0.16520045796E+02 -0.24021535890E+02  0.95443919054E+02  0.90752298943E+02 0.  0.
         11    1    3    3    0    0 -0.82572955550E+01  0.88642424634E+01 -0.58613517420E+02  0.59852336202E+02  0.51100000000E-03 0. -1.
         22    1    1    0    0    0  0.48596112280E+01 -0.16520045796E+02  0.24021535890E+02  0.29556080946E+02  0.00000000000E+00 0. -1.
</event>
<event>
 5    1  0.1626333E-003  0.9118800E+02  0.7818608E-02  0.1130116E+00
         25   -1    0    0    0    0  0.00000000000E+00  0.00000000000E+00  0.99999998245E-14  0.12500000000E+03  0.12500000000E+03 0.  0.
        -11    1    3    3    0    0 -0.18221806128E+02  0.98355100200E+01  0.67396913672E+00  0.20717763165E+02  0.51100000000E-03 0. -1.
         23    2    1    0    0    0  0.27155770739E+02 -0.18760336359E+02  0.28723694140E+02  0.81245723526E+02  0.68457511505E+02 0.  0.
         11    1    3    3    0    0  0.45377576867E+02 -0.28595846379E+02  0.28049725003E+02  0.60527960361E+02  0.51100000000E-03 0.  1.
         22    1    1    0    0    0 -0.27155770739E+02  0.18760336359E+02 -0.28723694140E+02  0.43754276474E+02  0.00000000000E+00 0.  1.
</event>
<event>
 5    1  0.1626333E-003  0.9118800E+02  0.7818608E-02  0.1130116E+00
         25   -1    0    0    0    0  0.00000000000E+00  0.00000000000E+00  0.99999998245E-14  0.12500000000E+03  0.12500000000E+03 0.  0.
        -11    1    3    3    0    0 -0.32075657648E+02  0.26109639661E+02  0.11859742826E+02  0.43025743421E+02  0.51100000000E-03 0.  1.
         23    2    1    0    0    0  0.18285005433E+02  0.21974192066E+02 -0.43321150441E+01  0.96086789154E+02  0.91633494360E+02 0.  0.
         11    1    3    3    0    0  0.50360663081E+02 -0.41354475950E+01 -0.16191857870E+02  0.53061045733E+02  0.51100000000E-03 0. -1.
         22    1    1    0    0    0 -0.18285005433E+02 -0.21974192066E+02  0.43321150441E+01  0.28913210846E+02  0.00000000000E+00 0. -1.
</event>
<event>
 5    1  0.1626333E-003  0.9118800E+02  0.7818608E-02  0.1130116E+00
         25   -1    0    0    0    0  0.00000000000E+00  0.00000000000E+00  0.99999998245E-14  0.12500000000E+03  0.12500000000E+03 0.  0.
        -11    1    3    3    0    0 -0.46526412293E+02 -0.20184577558E+02 -0.33053710371E+02  0.60536534271E+02  0.51100000000E-03 0. -1.
         23    2    1    0    0    0 -0.29431270379E+02 -0.99496958937E+00 -0.14936049682E+02  0.91980684127E+02  0.85849700243E+02 0.  0.
         11    1    3    3    0    0  0.17095141914E+02  0.19189607969E+02  0.18117660689E+02  0.31444149856E+02  0.51100000000E-03 0.  1.
         22    1    1    0    0    0  0.29431270379E+02  0.99496958937E+00  0.14936049682E+02  0.33019315873E+02  0.00000000000E+00 0. -1.
</event>
<event>
 5    1  0.1626333E-003  0.9118800E+02  0.7818608E-02  0.1130116E+00
         25   -1    0    0    0    0  0.00000000000E+00  0.00000000000E+00  0.99999998245E-14  0.12500000000E+03  0.12500000000E+03 0.  0.
        -11    1    3    3    0    0  0.34854880825E+02 -0.16805827535E+02  0.43071701510E+02  0.57900518372E+02  0.51100000000E-03 0. -1.
         23    2    1    0    0    0  0.12130563528E+02 -0.24581254503E+02  0.21989531165E+02  0.89858455849E+02  0.82701958636E+02 0.  0.
         11    1    3    3    0    0 -0.22724317297E+02 -0.77754269672E+01 -0.21082170345E+02  0.31957937478E+02  0.51100000000E-03 0.  1.
         22    1    1    0    0    0 -0.12130563528E+02  0.24581254503E+02 -0.21989531165E+02  0.35141544151E+02  0.00000000000E+00 0. -1.
</event>
<event>
 5    1  0.1626333E-003  0.9118800E+02  0.7818608E-02  0.1130116E+00
         25   -1    0    0    0    0  0.00000000000E+00  0.00000000000E+00  0.99999998245E-14  0.12500000000E+03  0.12500000000E+03 0.  0.
        -11    1    3    3    0    0  0.45172632436E+02 -0.13651914004E+02 -0.10183024848E+02  0.48276655565E+02  0.51100000000E-03 0. -1.
         23    2    1    0    0    0  0.10992519628E+02 -0.12974213963E+02  0.23316957920E+02  0.96140924437E+02  0.91707312191E+02 0.  0.
         11    1    3    3    0    0 -0.34180112808E+02  0.67770004158E+00  0.33499982768E+02  0.47864268872E+02  0.51100000000E-03 0.  1.
         22    1    1    0    0    0 -0.10992519628E+02  0.12974213963E+02 -0.23316957920E+02  0.28859075563E+02  0.00000000000E+00 0.  1.
</event>
<event>
 5    1  0.1626333E-003  0.9118800E+02  0.7818608E-02  0.1130116E+00
         25   -1    0    0    0    0  0.00000000000E+00  0.00000000000E+00  0.99999998245E-14  0.12500000000E+03  0.12500000000E+03 0.  0.
        -11    1    3    3    0    0 -0.30318273392E+02  0.26112740522E+02 -0.11626656066E+01  0.40030297409E+02  0.51100000000E-03 0. -1.
         23    2    1    0    0    0  0.23571921981E+02  0.18471691118E+02  0.43520082117E+01  0.94738161752E+02  0.89774943264E+02 0.  0.
         11    1    3    3    0    0  0.53890195374E+02 -0.76410494044E+01  0.55146738183E+01  0.54707864343E+02  0.51100000000E-03 0.  1.
         22    1    1    0    0    0 -0.23571921981E+02 -0.18471691118E+02 -0.43520082117E+01  0.30261838248E+02  0.00000000000E+00 0.  1.
</event>
<event>
 5    1  0.1626333E-003  0.9118800E+02  0.7818608E-02  0.1130116E+00
         25   -1    0    0    0    0  0.00000000000E+00  0.00000000000E+00  0.99999998245E-14  0.12500000000E+03  0.12500000000E+03 0.  0.
        -11    1    3    3    0    0 -0.36003048346E+02 -0.73430512514E+00  0.28010613661E+02  0.45621849723E+02  0.51100000000E-03 0. -1.
         23    2    1    0    0    0  0.10105164693E+02  0.17652311135E+02  0.21018864594E+02  0.95750878463E+02  0.91174117027E+02 0.  0.
         11    1    3    3    0    0  0.46108213038E+02  0.18386616261E+02 -0.69917490674E+01  0.50129028740E+02  0.51100000000E-03 0.  1.
         22    1    1    0    0    0 -0.10105164693E+02 -0.17652311135E+02 -0.21018864594E+02  0.29249121537E+02  0.00000000000E+00 0.  1.
</event>
<event>
 5    1  0.1626333E-003  0.9118800E+02  0.7818608E-02  0.1130116E+00
         25   -1    0    0    0    0  0.00000000000E+00  0.00000000000E+00  0.99999998245E-14  0.12500000000E+03  0.12500000000E+03 0.  0.
        -11    1    3    3    0    0 -0.16398067292E+02 -0.53717826675E+02 -0.22544373118E+02  0.60520659887E+02  0.51100000000E-03 0. -1.
         23    2    1    0    0    0 -0.88843226675E+01 -0.27434520447E+02  0.32402966002E+00  0.96160979617E+02  0.91734643970E+02 0.  0.
         11    1    3    3    0    0  0.75137446243E+01  0.26283306228E+02  0.22868402778E+02  0.35640319730E+02  0.51100000000E-03 0.  1.
         22    1    1    0    0    0  0.88843226675E+01  0.27434520447E+02 -0.32402966002E+00  0.28839020383E+02  0.00000000000E+00 0. -1.
</event>
<event>
 5    1  0.1626333E-003  0.9118800E+02  0.7818608E-02  0.1130116E+00
         25   -1    0    0    0    0  0.00000000000E+00  0.00000000000E+00  0.99999998245E-14  0.12500000000E+03  0.12500000000E+03 0.  0.
        -11    1    3    3    0    0  0.53467751547E+02  0.22025712659E+02 -0.20372006260E+02  0.61310285540E+02  0.51100000000E-03 0.  1.
         23    2    1    0    0    0  0.19196550946E+02  0.14196234737E+02 -0.14816489878E+02  0.96900729169E+02  0.92737167804E+02 0.  0.
         11    1    3    3    0    0 -0.34271200601E+02 -0.78294779220E+01  0.55555163818E+01  0.35590443629E+02  0.51100000000E-03 0. -1.
         22    1    1    0    0    0 -0.19196550946E+02 -0.14196234737E+02  0.14816489878E+02  0.28099270831E+02  0.00000000000E+00 0.  1.
</event>
<event>
 5    1  0.1626333E-003  0.9118800E+02  0.7818608E-02  0.1130116E+00
         25   -1    0    0    0    0  0.00000000000E+00  0.00000000000E+00  0.99999998245E-14  0.12500000000E+03  0.12500000000E+03 0.  0.
        -11    1    3    3    0    0 -0.29873548898E+00 -0.49629151796E+02 -0.31365852824E+02  0.58710805432E+02  0.51100000000E-03 0.  1.
         23    2    1    0    0    0 -0.89817327574E+01 -0.13126641204E+02 -0.22805301582E+02  0.97196007250E+02  0.93134321345E+02 0.  0.
         11    1    3    3    0    0 -0.86829972684E+01  0.36502510592E+02  0.85605512422E+01  0.38485201817E+02  0.51100000000E-03 0. -1.
         22    1    1    0    0    0  0.89817327574E+01  0.13126641204E+02  0.22805301582E+02  0.27803992750E+02  0.00000000000E+00 0.  1.
</event>
<event>
 5    1  0.1626333E-003  0.9118800E+02  0.7818608E-02  0.1130116E+00
         25   -1    0    0    0    0  0.00000000000E+00  0.00000000000E+00  0.99999998245E-14  0.12500000000E+03  0.12500000000E+03 0.  0.
        -11    1    3    3    0    0  0.75250063645E-01  0.43491873725E+02 -0.16300819832E+02  0.46446371981E+02  0.51100000000E-03 0. -1.
         23    2    1    0    0    0  0.11688501713E+02  0.15282975277E+02  0.22235548069E+02  0.95595748546E+02  0.90961184780E+02 0.  0.
         11    1    3    3    0    0  0.11613251650E+02 -0.28208898448E+02  0.38536367901E+02  0.49149376566E+02  0.51100000000E-03 0.  1.
         22    1    1    0    0    0 -0.11688501713E+02 -0.15282975277E+02 -0.22235548069E+02  0.29404251454E+02  0.00000000000E+00 0.  1.
</event>
<event>
 5    1  0.1626333E-003  0.9118800E+02  0.7818608E-02  0.1130116E+00
         25   -1    0    0    0    0  0.00000000000E+00  0.00000000000E+00  0.99999998245E-14  0.12500000000E+03  0.12500000000E+03 0.  0.
        -11    1    3    3    0    0 -0.39220171493E+02 -0.38054063754E+02 -0.11525231663E+02  0.55849481513E+02  0.51100000000E-03 0. -1.
         23    2    1    0    0    0 -0.28271694510E+02 -0.12242841742E+02  0.11485085217E+02  0.92120172342E+02  0.86052560017E+02 0.  0.
         11    1    3    3    0    0  0.10948476983E+02  0.25811222012E+02  0.23010316880E+02  0.36270690829E+02  0.51100000000E-03 0.  1.
         22    1    1    0    0    0  0.28271694510E+02  0.12242841742E+02 -0.11485085217E+02  0.32879827658E+02  0.00000000000E+00 0. -1.
</event>
<event>
 5    1  0.1626333E-003  0.9118800E+02  0.7818608E-02  0.1130116E+00
         25   -1    0    0    0    0  0.00000000000E+00  0.00000000000E+00  0.99999998245E-14  0.12500000000E+03  0.12500000000E+03 0.  0.
        -11    1    3    3    0    0  0.29590074718E+02  0.49232139797E+02  0.91787176711E+01  0.58168934743E+02  0.51100000000E-03 0.  1.
         23    2    1    0    0    0  0.23347892333E+02  0.99479524954E+01  0.93706913641E+01  0.97946429221E+02  0.94136110528E+02 0.  0.
         11    1    3    3    0    0 -0.62421823846E+01 -0.39284187301E+02  0.19197369296E+00  0.39777494479E+02  0.51100000000E-03 0. -1.
         22    1    1    0    0    0 -0.23347892333E+02 -0.99479524954E+01 -0.93706913641E+01  0.27053570779E+02  0.00000000000E+00 0.  1.
</event>
<event>
 5    1  0.1626333E-003  0.9118800E+02  0.7818608E-02  0.1130116E+00
         25   -1    0    0    0    0  0.00000000000E+00  0.00000000000E+00  0.99999998245E-14  0.12500000000E+03  0.12500000000E+03 0.  0.
        -11    1    3    3    0    0 -0.35934740267E+02 -0.14698429803E+02 -0.61150251888E+01  0.39303217808E+02  0.51100000000E-03 0.  1.
         23    2    1    0    0    0  0.19978568861E+02 -0.21175947836E+02 -0.35001414481E+00  0.95884943922E+02  0.91357736293E+02 0.  0.
         11    1    3    3    0    0  0.55913309128E+02 -0.64775180327E+01  0.57650110440E+01  0.56581726115E+02  0.51100000000E-03 0. -1.
         22    1    1    0    0    0 -0.19978568861E+02  0.21175947836E+02  0.35001414481E+00  0.29115056078E+02  0.00000000000E+00 0. -1.
</event>
<event>
 5    1  0.1626333E-003  0.9118800E+02  0.7818608E-02  0.1130116E+00
         25   -1    0    0    0    0  0.00000000000E+00  0.00000000000E+00  0.99999998245E-14  0.12500000000E+03  0.12500000000E+03 0.  0.
        -11    1    3    3    0    0 -0.26999931556E+01  0.18220093497E+02 -0.57722579184E+02  0.60590081020E+02  0.51100000000E-03 0. -1.
         23    2    1    0    0    0 -0.11594686237E+02  0.50125641642E+01 -0.26836714917E+02  0.95339052342E+02  0.90607742966E+02 0.  0.
         11    1    3    3    0    0 -0.88946930818E+01 -0.13207529333E+02  0.30885864267E+02  0.34748971322E+02  0.51100000000E-03 0.  1.
         22    1    1    0    0    0  0.11594686237E+02 -0.50125641642E+01  0.26836714917E+02  0.29660947658E+02  0.00000000000E+00 0. -1.
</event>
<event>
 5    1  0.1626333E-003  0.9118800E+02  0.7818608E-02  0.1130116E+00
         25   -1    0    0    0    0  0.00000000000E+00  0.00000000000E+00  0.99999998245E-14  0.12500000000E+03  0.12500000000E+03 0.  0.
        -11    1    3    3    0    0 -0.10253627823E+02  0.50593013261E+02  0.27367608796E+02  0.58427526781E+02  0.51100000000E-03 0.  1.
         23    2    1    0    0    0 -0.19284550649E+02  0.26477072432E+02  0.64241177619E+01  0.91620387250E+02  0.85323483359E+02 0.  0.
         11    1    3    3    0    0 -0.90309228265E+01 -0.24115940828E+02 -0.20943491034E+02  0.33192860468E+02  0.51100000000E-03 0. -1.
         22    1    1    0    0    0  0.19284550649E+02 -0.26477072432E+02 -0.64241177619E+01  0.33379612750E+02  0.00000000000E+00 0.  1.
</event>
<event>
 5    1  0.1626333E-003  0.9118800E+02  0.7818608E-02  0.1130116E+00
         25   -1    0    0    0    0  0.00000000000E+00  0.00000000000E+00  0.99999998245E-14  0.12500000000E+03  0.12500000000E+03 0.  0.
        -11    1    3    3    0    0 -0.35530398686E+02 -0.92096258230E+01 -0.92646143852E+01  0.37855772592E+02  0.51100000000E-03 0. -1.
         23    2    1    0    0    0  0.10190278075E+02  0.20132333109E+02  0.15565761756E+02  0.97587492951E+02  0.93658279067E+02 0.  0.
         11    1    3    3    0    0  0.45720676761E+02  0.29341958932E+02  0.24830376141E+02  0.59731720359E+02  0.51100000000E-03 0.  1.
         22    1    1    0    0    0 -0.10190278075E+02 -0.20132333109E+02 -0.15565761756E+02  0.27412507049E+02  0.00000000000E+00 0.  1.
</event>
<event>
 5    1  0.1626333E-003  0.9118800E+02  0.7818608E-02  0.1130116E+00
         25   -1    0    0    0    0  0.00000000000E+00  0.00000000000E+00  0.99999998245E-14  0.12500000000E+03  0.12500000000E+03 0.  0.
        -11    1    3    3    0    0 -0.12153775667E+02 -0.30414336974E+02  0.48992630836E+02  0.58932368296E+02  0.51100000000E-03 0.  1.
         23    2    1    0    0    0 -0.15084507056E+02 -0.42525427378E+01  0.29169891569E+02  0.91886422014E+02  0.85712341606E+02 0.  0.
         11    1    3    3    0    0 -0.29307313898E+01  0.26161794237E+02 -0.19822739267E+02  0.32954053718E+02  0.51100000000E-03 0. -1.
         22    1    1    0    0    0  0.15084507056E+02  0.42525427378E+01 -0.29169891569E+02  0.33113577986E+02  0.00000000000E+00 0.  1.
</event>
<event>
 5    1  0.1626333E-003  0.9118800E+02  0.7818608E-02  0.1130116E+00
         25   -1    0    0    0    0  0.00000000000E+00  0.00000000000E+00  0.99999998245E-14  0.12500000000E+03  0.12500000000E+03 0.  0.
        -11    1    3    3    0    0  0.24753507351E+02 -0.21713295420E+02 -0.14883424686E+02  0.36134743044E+02  0.51100000000E-03 0. -1.
         23    2    1    0    0    0 -0.13395937548E+02  0.24055355251E+02 -0.35355286223E+00  0.97463909888E+02  0.93493194790E+02 0.  0.
         11    1    3    3    0    0 -0.38149444899E+02  0.45768650671E+02  0.14529871824E+02  0.61329166844E+02  0.51100000000E-03 0.  1.
         22    1    1    0    0    0  0.13395937548E+02 -0.24055355251E+02  0.35355286223E+00  0.27536090112E+02  0.00000000000E+00 0.  1.
</event>
<event>
 5    1  0.1626333E-003  0.9118800E+02  0.7818608E-02  0.1130116E+00
         25   -1    0    0    0    0  0.00000000000E+00  0.00000000000E+00  0.99999998245E-14  0.12500000000E+03  0.12500000000E+03 0.  0.
        -11    1    3    3    0    0 -0.11569225811E+02 -0.75128335972E+01  0.54492382390E+02  0.56211292400E+02  0.51100000000E-03 0.  1.
         23    2    1    0    0    0 -0.21957062625E+02  0.55849063916E+01  0.19046424482E+02  0.95401519227E+02  0.90693879655E+02 0.  0.
         11    1    3    3    0    0 -0.10387836813E+02  0.13097739989E+02 -0.35445957908E+02  0.39190226827E+02  0.51100000000E-03 0. -1.
         22    1    1    0    0    0  0.21957062625E+02 -0.55849063916E+01 -0.19046424482E+02  0.29598480773E+02  0.00000000000E+00 0.  1.
</event>
<event>
 5    1  0.1626333E-003  0.9118800E+02  0.7818608E-02  0.1130116E+00
         25   -1    0    0    0    0  0.00000000000E+00  0.00000000000E+00  0.99999998245E-14  0.12500000000E+03  0.12500000000E+03 0.  0.
        -11    1    3    3    0    0 -0.61312922234E+02 -0.40746094072E+01 -0.99691433845E+01  0.62251591906E+02  0.51100000000E-03 0.  1.
         23    2    1    0    0    0 -0.46517325160E+02 -0.57091068933E+01 -0.97039275227E+01  0.77139560690E+02  0.60497026147E+02 0.  0.
         11    1    3    3    0    0  0.14795597074E+02 -0.16344974861E+01  0.26521586181E+00  0.14887968785E+02  0.51100000000E-03 0. -1.
         22    1    1    0    0    0  0.46517325160E+02  0.57091068933E+01  0.97039275227E+01  0.47860439310E+02  0.00000000000E+00 0.  1.
</event>
<event>
 5    1  0.1626333E-003  0.9118800E+02  0.7818608E-02  0.1130116E+00
         25   -1    0    0    0    0  0.00000000000E+00  0.00000000000E+00  0.99999998245E-14  0.12500000000E+03  0.12500000000E+03 0.  0.
        -11    1    3    3    0    0  0.35169796853E+02 -0.84033125418E+01 -0.13128453975E+01  0.36183612805E+02  0.51100000000E-03 0. -1.
         23    2    1    0    0    0 -0.26216202074E+02 -0.65763698534E+01  0.33052939864E+01  0.97770184357E+02  0.93901789595E+02 0.  0.
         11    1    3    3    0    0 -0.61385998927E+02  0.18269426884E+01  0.46181393839E+01  0.61586571551E+02  0.51100000000E-03 0.  1.
         22    1    1    0    0    0  0.26216202074E+02  0.65763698534E+01 -0.33052939864E+01  0.27229815643E+02  0.00000000000E+00 0.  1.
</event>
<event>
 5    1  0.1626333E-003  0.9118800E+02  0.7818608E-02  0.1130116E+00
         25   -1    0    0    0    0  0.00000000000E+00  0.00000000000E+00  0.99999998245E-14  0.12500000000E+03  0.12500000000E+03 0.  0.
        -11    1    3    3    0    0 -0.23019118602E+01 -0.36451405517E+02  0.84295056574E+01  0.37484134354E+02  0.51100000000E-03 0.  1.
         23    2    1    0    0    0 -0.95264542802E+01  0.10637120135E+02  0.31499021622E+02  0.90415465608E+02  0.83539609779E+02 0.  0.
         11    1    3    3    0    0 -0.72245424200E+01  0.47088525652E+02  0.23069515965E+02  0.52931331255E+02  0.51100000000E-03 0. -1.
         22    1    1    0    0    0  0.95264542802E+01 -0.10637120135E+02 -0.31499021622E+02  0.34584534392E+02  0.00000000000E+00 0. -1.
</event>
<event>
 5    1  0.1626333E-003  0.9118800E+02  0.7818608E-02  0.1130116E+00
         25   -1    0    0    0    0  0.00000000000E+00  0.00000000000E+00  0.99999998245E-14  0.12500000000E+03  0.12500000000E+03 0.  0.
        -11    1    3    3    0    0 -0.34261937576E+02 -0.13950219830E+01  0.32738866484E+01  0.34446259403E+02  0.51100000000E-03 0.  1.
         23    2    1    0    0    0  0.24983166840E+02 -0.69454432184E+01 -0.12798069890E+02  0.96083077623E+02  0.91628431209E+02 0.  0.
         11    1    3    3    0    0  0.59245104416E+02 -0.55504212354E+01 -0.16071956538E+02  0.61636818220E+02  0.51100000000E-03 0. -1.
         22    1    1    0    0    0 -0.24983166840E+02  0.69454432184E+01  0.12798069890E+02  0.28916922377E+02  0.00000000000E+00 0. -1.
</event>
<event>
 5    1  0.1626333E-003  0.9118800E+02  0.7818608E-02  0.1130116E+00
         25   -1    0    0    0    0  0.00000000000E+00  0.00000000000E+00  0.99999998245E-14  0.12500000000E+03  0.12500000000E+03 0.  0.
        -11    1    3    3    0    0 -0.45653381742E+02  0.19944315801E+01 -0.34923408311E+02  0.57513941528E+02  0.51100000000E-03 0. -1.
         23    2    1    0    0    0 -0.15450887891E+02  0.17754804979E+02 -0.16621591359E+02  0.96186108631E+02  0.91768879027E+02 0.  0.
         11    1    3    3    0    0  0.30202493851E+02  0.15760373399E+02  0.18301816951E+02  0.38672167103E+02  0.51100000000E-03 0.  1.
         22    1    1    0    0    0  0.15450887891E+02 -0.17754804979E+02  0.16621591359E+02  0.28813891369E+02  0.00000000000E+00 0. -1.
</event>
<event>
 5    1  0.1626333E-003  0.9118800E+02  0.7818608E-02  0.1130116E+00
         25   -1    0    0    0    0  0.00000000000E+00  0.00000000000E+00  0.99999998245E-14  0.12500000000E+03  0.12500000000E+03 0.  0.
        -11    1    3    3    0    0  0.38955586832E+01 -0.23295247185E+02  0.56526542964E+02  0.61262500590E+02  0.51100000000E-03 0. -1.
         23    2    1    0    0    0 -0.14878303714E+01 -0.19826617246E+02  0.27036484544E+02  0.91439906330E+02  0.85058665534E+02 0.  0.
         11    1    3    3    0    0 -0.53833890546E+01  0.34686299393E+01 -0.29490058419E+02  0.30177405740E+02  0.51100000000E-03 0.  1.
         22    1    1    0    0    0  0.14878303714E+01  0.19826617246E+02 -0.27036484544E+02  0.33560093670E+02  0.00000000000E+00 0. -1.
</event>
<event>
 5    1  0.1626333E-003  0.9118800E+02  0.7818608E-02  0.1130116E+00
         25   -1    0    0    0    0  0.00000000000E+00  0.00000000000E+00  0.99999998245E-14  0.12500000000E+03  0.12500000000E+03 0.  0.
        -11    1    3    3    0    0 -0.45457334233E+02  0.11339528363E+02 -0.23444783446E+02  0.52389044753E+02  0.51100000000E-03 0.  1.
         23    2    1    0    0    0 -0.10173414369E+02 -0.14000794153E+02 -0.23481637473E+02  0.95829674406E+02  0.91282082587E+02 0.  0.
         11    1    3    3    0    0  0.35283919863E+02 -0.25340322517E+02 -0.36854027201E-01  0.43440629653E+02  0.51100000000E-03 0. -1.
         22    1    1    0    0    0  0.10173414369E+02  0.14000794153E+02  0.23481637473E+02  0.29170325594E+02  0.00000000000E+00 0. -1.
</event>
<event>
 5    1  0.1626333E-003  0.9118800E+02  0.7818608E-02  0.1130116E+00
         25   -1    0    0    0    0  0.00000000000E+00  0.00000000000E+00  0.99999998245E-14  0.12500000000E+03  0.12500000000E+03 0.  0.
        -11    1    3    3    0    0  0.22209597996E+02 -0.75524608412E+01 -0.30120842262E+02  0.38178148812E+02  0.51100000000E-03 0. -1.
         23    2    1    0    0    0  0.11474143174E+01 -0.18196194256E+02  0.22613490593E+02  0.95951970776E+02  0.91449399637E+02 0.  0.
         11    1    3    3    0    0 -0.21062183678E+02 -0.10643733414E+02  0.52734332855E+02  0.57773821963E+02  0.51100000000E-03 0.  1.
         22    1    1    0    0    0 -0.11474143174E+01  0.18196194256E+02 -0.22613490593E+02  0.29048029224E+02  0.00000000000E+00 0.  1.
</event>
<event>
 5    1  0.1626333E-003  0.9118800E+02  0.7818608E-02  0.1130116E+00
         25   -1    0    0    0    0  0.00000000000E+00  0.00000000000E+00  0.99999998245E-14  0.12500000000E+03  0.12500000000E+03 0.  0.
        -11    1    3    3    0    0 -0.35392364067E+02  0.31305559874E+02  0.31637496541E+02  0.56864652473E+02  0.51100000000E-03 0.  1.
         23    2    1    0    0    0 -0.26385369176E+02 -0.21032807774E+00  0.75071112502E+01  0.97566650519E+02  0.93630457810E+02 0.  0.
         11    1    3    3    0    0  0.90069948914E+01 -0.31515887952E+02 -0.24130385290E+02  0.40701998045E+02  0.51100000000E-03 0. -1.
         22    1    1    0    0    0  0.26385369176E+02  0.21032807774E+00 -0.75071112502E+01  0.27433349481E+02  0.00000000000E+00 0.  1.
</event>
<event>
 5    1  0.1626333E-003  0.9118800E+02  0.7818608E-02  0.1130116E+00
         25   -1    0    0    0    0  0.00000000000E+00  0.00000000000E+00  0.99999998245E-14  0.12500000000E+03  0.12500000000E+03 0.  0.
        -11    1    3    3    0    0  0.77795612783E+01  0.46154062302E+02  0.17324042365E+02  0.49908330816E+02  0.51100000000E-03 0.  1.
         23    2    1    0    0    0 -0.14997541018E+02  0.22739774164E+02 -0.13302181929E+02  0.94685455476E+02  0.89701526570E+02 0.  0.
         11    1    3    3    0    0 -0.22777102296E+02 -0.23414288138E+02 -0.30626224295E+02  0.44777124660E+02  0.51100000000E-03 0. -1.
         22    1    1    0    0    0  0.14997541018E+02 -0.22739774164E+02  0.13302181929E+02  0.30314544524E+02  0.00000000000E+00 0. -1.
</event>
<event>
 5    1  0.1626333E-003  0.9118800E+02  0.7818608E-02  0.1130116E+00
         25   -1    0    0    0    0  0.00000000000E+00  0.00000000000E+00  0.99999998245E-14  0.12500000000E+03  0.12500000000E+03 0.  0.
        -11    1    3    3    0    0 -0.37356363174E+02  0.58946396609E+01 -0.11162783057E+02  0.39431616402E+02  0.51100000000E-03 0. -1.
         23    2    1    0    0    0  0.18748859767E+02  0.11640047297E+02 -0.18366828522E+02  0.96288489527E+02  0.91908228042E+02 0.  0.
         11    1    3    3    0    0  0.56105222941E+02  0.57454076365E+01 -0.72040454658E+01  0.56856873125E+02  0.51100000000E-03 0.  1.
         22    1    1    0    0    0 -0.18748859767E+02 -0.11640047297E+02  0.18366828522E+02  0.28711510473E+02  0.00000000000E+00 0.  1.
</event>
<event>
 5    1  0.1626333E-003  0.9118800E+02  0.7818608E-02  0.1130116E+00
         25   -1    0    0    0    0  0.00000000000E+00  0.00000000000E+00  0.99999998245E-14  0.12500000000E+03  0.12500000000E+03 0.  0.
        -11    1    3    3    0    0 -0.40140441684E+02 -0.38027189636E+02  0.25950494231E+02  0.61079868707E+02  0.51100000000E-03 0. -1.
         23    2    1    0    0    0 -0.19608737196E+02 -0.24602145843E+02  0.54045913554E+01  0.93078568920E+02  0.87433644725E+02 0.  0.
         11    1    3    3    0    0  0.20531704488E+02  0.13425043793E+02 -0.20545902876E+02  0.31998700212E+02  0.51100000000E-03 0.  1.
         22    1    1    0    0    0  0.19608737196E+02  0.24602145843E+02 -0.54045913554E+01  0.31921431080E+02  0.00000000000E+00 0. -1.
</event>
<event>
 5    1  0.1626333E-003  0.9118800E+02  0.7818608E-02  0.1130116E+00
         25   -1    0    0    0    0  0.00000000000E+00  0.00000000000E+00  0.99999998245E-14  0.12500000000E+03  0.12500000000E+03 0.  0.
        -11    1    3    3    0    0  0.17506422432E+02  0.29172202217E+02 -0.19649853330E+02  0.39288789046E+02  0.51100000000E-03 0. -1.
         23    2    1    0    0    0  0.16680818246E+02 -0.24525854972E+02 -0.85914517554E+01  0.94119904425E+02  0.88909932551E+02 0.  0.
         11    1    3    3    0    0 -0.82560418599E+00 -0.53698057188E+02  0.11058401575E+02  0.54831115379E+02  0.51100000000E-03 0.  1.
         22    1    1    0    0    0 -0.16680818246E+02  0.24525854972E+02  0.85914517554E+01  0.30880095575E+02  0.00000000000E+00 0.  1.
</event>
<event>
 5    1  0.1626333E-003  0.9118800E+02  0.7818608E-02  0.1130116E+00
         25   -1    0    0    0    0  0.00000000000E+00  0.00000000000E+00  0.99999998245E-14  0.12500000000E+03  0.12500000000E+03 0.  0.
        -11    1    3    3    0    0  0.46715108926E+02  0.15654546951E+02 -0.37163524055E+02  0.61712995088E+02  0.51100000000E-03 0.  1.
         23    2    1    0    0    0  0.17941412048E+02  0.12455022293E+02 -0.20096289690E+02  0.95320331775E+02  0.90581912896E+02 0.  0.
         11    1    3    3    0    0 -0.28773696878E+02 -0.31995246579E+01  0.17067234365E+02  0.33607336687E+02  0.51100000000E-03 0. -1.
         22    1    1    0    0    0 -0.17941412048E+02 -0.12455022293E+02  0.20096289690E+02  0.29679668225E+02  0.00000000000E+00 0.  1.
</event>
<event>
 5    1  0.1626333E-003  0.9118800E+02  0.7818608E-02  0.1130116E+00
         25   -1    0    0    0    0  0.00000000000E+00  0.00000000000E+00  0.99999998245E-14  0.12500000000E+03  0.12500000000E+03 0.  0.
        -11    1    3    3    0    0  0.35639744489E+02 -0.35179306630E+01 -0.48484467718E+02  0.60276951097E+02  0.51100000000E-03 0. -1.
         23    2    1    0    0    0  0.21340068961E+02  0.75819762651E+01 -0.16675790810E+02  0.96875866120E+02  0.92703648958E+02 0.  0.
         11    1    3    3    0    0 -0.14299675527E+02  0.11099906928E+02  0.31808676908E+02  0.36598915023E+02  0.51100000000E-03 0.  1.
         22    1    1    0    0    0 -0.21340068961E+02 -0.75819762651E+01  0.16675790810E+02  0.28124133880E+02  0.00000000000E+00 0. -1.
</event>
<event>
 5    1  0.1626333E-003  0.9118800E+02  0.7818608E-02  0.1130116E+00
         25   -1    0    0    0    0  0.00000000000E+00  0.00000000000E+00  0.99999998245E-14  0.12500000000E+03  0.12500000000E+03 0.  0.
        -11    1    3    3    0    0 -0.21701470922E+02  0.19269078684E+02  0.26058204644E+02  0.39003605770E+02  0.51100000000E-03 0.  1.
         23    2    1    0    0    0  0.79585179326E+00  0.97136883700E+01 -0.26390068720E+02  0.96867725849E+02  0.92692672107E+02 0.  0.
         11    1    3    3    0    0  0.22497322716E+02 -0.95553903142E+01 -0.52448273364E+02  0.57864120079E+02  0.51100000000E-03 0. -1.
         22    1    1    0    0    0 -0.79585179326E+00 -0.97136883700E+01  0.26390068720E+02  0.28132274151E+02  0.00000000000E+00 0. -1.
</event>
<event>
 5    1  0.1626333E-003  0.9118800E+02  0.7818608E-02  0.1130116E+00
         25   -1    0    0    0    0  0.00000000000E+00  0.00000000000E+00  0.99999998245E-14  0.12500000000E+03  0.12500000000E+03 0.  0.
        -11    1    3    3    0    0 -0.77241565008E+01  0.30369250683E+02 -0.27570218546E+02  0.41738123240E+02  0.51100000000E-03 0. -1.
         23    2    1    0    0    0 -0.98870980377E+01  0.16543270641E+02  0.23452143822E+02  0.94644809983E+02  0.89644868764E+02 0.  0.
         11    1    3    3    0    0 -0.21629415369E+01 -0.13825980042E+02  0.51022362368E+02  0.52906686743E+02  0.51100000000E-03 0.  1.
         22    1    1    0    0    0  0.98870980377E+01 -0.16543270641E+02 -0.23452143822E+02  0.30355190017E+02  0.00000000000E+00 0.  1.
</event>
<event>
 5    1  0.1626333E-003  0.9118800E+02  0.7818608E-02  0.1130116E+00
         25   -1    0    0    0    0  0.00000000000E+00  0.00000000000E+00  0.99999998245E-14  0.12500000000E+03  0.12500000000E+03 0.  0.
        -11    1    3    3    0    0 -0.25751278783E+02 -0.52299883967E+02  0.21047418190E+01  0.58333833753E+02  0.51100000000E-03 0. -1.
         23    2    1    0    0    0  0.29743126460E+01 -0.30156639155E+02  0.23713074691E+01  0.94604399661E+02  0.89588503254E+02 0.  0.
         11    1    3    3    0    0  0.28725591429E+02  0.22143244812E+02  0.26656565007E+00  0.36270565908E+02  0.51100000000E-03 0.  1.
         22    1    1    0    0    0 -0.29743126460E+01  0.30156639155E+02 -0.23713074691E+01  0.30395600339E+02  0.00000000000E+00 0. -1.
</event>
<event>
 5    1  0.1626333E-003  0.9118800E+02  0.7818608E-02  0.1130116E+00
         25   -1    0    0    0    0  0.00000000000E+00  0.00000000000E+00  0.99999998245E-14  0.12500000000E+03  0.12500000000E+03 0.  0.
        -11    1    3    3    0    0 -0.51136650835E+02 -0.11695498489E+02 -0.76850729977E+01  0.53016998130E+02  0.51100000000E-03 0. -1.
         23    2    1    0    0    0 -0.17638721186E+02  0.80693789021E+01 -0.23083888709E+02  0.94848627247E+02  0.89928620649E+02 0.  0.
         11    1    3    3    0    0  0.33497929648E+02  0.19764877391E+02 -0.15398815711E+02  0.41831629117E+02  0.51100000000E-03 0.  1.
         22    1    1    0    0    0  0.17638721186E+02 -0.80693789021E+01  0.23083888709E+02  0.30151372753E+02  0.00000000000E+00 0. -1.
</event>
<event>
 5    1  0.1626333E-003  0.9118800E+02  0.7818608E-02  0.1130116E+00
         25   -1    0    0    0    0  0.00000000000E+00  0.00000000000E+00  0.99999998245E-14  0.12500000000E+03  0.12500000000E+03 0.  0.
        -11    1    3    3    0    0  0.24151776487E+01 -0.13056651551E+02 -0.31036298785E+02  0.33757385493E+02  0.51100000000E-03 0. -1.
         23    2    1    0    0    0  0.36300751978E+01  0.26128441052E+00  0.29257767219E+02  0.95516739358E+02  0.90852544485E+02 0.  0.
         11    1    3    3    0    0  0.12148975491E+01  0.13317935962E+02  0.60294066003E+02  0.61759353865E+02  0.51100000000E-03 0.  1.
         22    1    1    0    0    0 -0.36300751978E+01 -0.26128441052E+00 -0.29257767219E+02  0.29483260642E+02  0.00000000000E+00 0.  1.
</event>
<event>
 5    1  0.1626333E-003  0.9118800E+02  0.7818608E-02  0.1130116E+00
         25   -1    0    0    0    0  0.00000000000E+00  0.00000000000E+00  0.99999998245E-14  0.12500000000E+03  0.12500000000E+03 0.  0.
        -11    1    3    3    0    0  0.14381794832E+02 -0.54919944953E+02  0.18922852807E+02  0.59842382430E+02  0.51100000000E-03 0.  1.
         23    2    1    0    0    0 -0.55525374245E+01 -0.29223797943E+02  0.73834168025E+01  0.94350760503E+02  0.89233906817E+02 0.  0.
         11    1    3    3    0    0 -0.19934332256E+02  0.25696147010E+02 -0.11539436005E+02  0.34508378073E+02  0.51100000000E-03 0. -1.
         22    1    1    0    0    0  0.55525374245E+01  0.29223797943E+02 -0.73834168025E+01  0.30649239497E+02  0.00000000000E+00 0.  1.
</event>
<event>
 5    1  0.1626333E-003  0.9118800E+02  0.7818608E-02  0.1130116E+00
         25   -1    0    0    0    0  0.00000000000E+00  0.00000000000E+00  0.99999998245E-14  0.12500000000E+03  0.12500000000E+03 0.  0.
        -11    1    3    3    0    0  0.18265036386E+01 -0.52564540141E+02 -0.32056038560E+02  0.61595102112E+02  0.51100000000E-03 0.  1.
         23    2    1    0    0    0 -0.21556742670E+01 -0.27901385446E+02 -0.89651214516E+01  0.95614499426E+02  0.90986948825E+02 0.  0.
         11    1    3    3    0    0 -0.39821779056E+01  0.24663154695E+02  0.23090917109E+02  0.34019397313E+02  0.51100000000E-03 0. -1.
         22    1    1    0    0    0  0.21556742670E+01  0.27901385446E+02  0.89651214516E+01  0.29385500574E+02  0.00000000000E+00 0.  1.
</event>
<event>
 5    1  0.1626333E-003  0.9118800E+02  0.7818608E-02  0.1130116E+00
         25   -1    0    0    0    0  0.00000000000E+00  0.00000000000E+00  0.99999998245E-14  0.12500000000E+03  0.12500000000E+03 0.  0.
        -11    1    3    3    0    0 -0.70790570973E+01 -0.29635352695E+02 -0.15867476208E+02  0.34353223724E+02  0.51100000000E-03 0. -1.
         23    2    1    0    0    0  0.14081390785E+02  0.14786354740E+02  0.20903158346E+02  0.95779050636E+02  0.91212732987E+02 0.  0.
         11    1    3    3    0    0  0.21160447882E+02  0.44421707436E+02  0.36770634553E+02  0.61425826912E+02  0.51100000000E-03 0.  1.
         22    1    1    0    0    0 -0.14081390785E+02 -0.14786354740E+02 -0.20903158346E+02  0.29220949364E+02  0.00000000000E+00 0.  1.
</event>
<event>
 5    1  0.1626333E-003  0.9118800E+02  0.7818608E-02  0.1130116E+00
         25   -1    0    0    0    0  0.00000000000E+00  0.00000000000E+00  0.99999998245E-14  0.12500000000E+03  0.12500000000E+03 0.  0.
        -11    1    3    3    0    0  0.23211214028E+02  0.22581825576E+02 -0.49172010648E+02  0.58877720187E+02  0.51100000000E-03 0.  1.
         23    2    1    0    0    0  0.22095427111E+02  0.12523259016E+02 -0.12941321435E+02  0.96495303614E+02  0.92189076920E+02 0.  0.
         11    1    3    3    0    0 -0.11157869166E+01 -0.10058566561E+02  0.36230689214E+02  0.37617583427E+02  0.51100000000E-03 0. -1.
         22    1    1    0    0    0 -0.22095427111E+02 -0.12523259016E+02  0.12941321435E+02  0.28504696386E+02  0.00000000000E+00 0.  1.
</event>
<event>
 5    1  0.1626333E-003  0.9118800E+02  0.7818608E-02  0.1130116E+00
         25   -1    0    0    0    0  0.00000000000E+00  0.00000000000E+00  0.99999998245E-14  0.12500000000E+03  0.12500000000E+03 0.  0.
        -11    1    3    3    0    0 -0.26594610816E+02  0.39239857828E+01 -0.51873203005E+02  0.58425167344E+02  0.51100000000E-03 0.  1.
         23    2    1    0    0    0 -0.36065041281E+01  0.15147280889E+02 -0.25158587104E+02  0.95412815352E+02  0.90709447347E+02 0.  0.
         11    1    3    3    0    0  0.22988106688E+02  0.11223295106E+02  0.26714615901E+02  0.36987648008E+02  0.51100000000E-03 0. -1.
         22    1    1    0    0    0  0.36065041281E+01 -0.15147280889E+02  0.25158587104E+02  0.29587184648E+02  0.00000000000E+00 0.  1.
</event>
<event>
 5    1  0.1626333E-003  0.9118800E+02  0.7818608E-02  0.1130116E+00
         25   -1    0    0    0    0  0.00000000000E+00  0.00000000000E+00  0.99999998245E-14  0.12500000000E+03  0.12500000000E+03 0.  0.
        -11    1    3    3    0    0 -0.14497860454E+02  0.21384936269E+02 -0.26073643109E+02  0.36706107424E+02  0.51100000000E-03 0.  1.
         23    2    1    0    0    0  0.22934681946E+02  0.80121480504E+01  0.17023455751E+02  0.95335337554E+02  0.90602618000E+02 0.  0.
         11    1    3    3    0    0  0.37432542400E+02 -0.13372788219E+02  0.43097098860E+02  0.58629230130E+02  0.51100000000E-03 0. -1.
         22    1    1    0    0    0 -0.22934681946E+02 -0.80121480504E+01 -0.17023455751E+02  0.29664662446E+02  0.00000000000E+00 0. -1.
</event>
<event>
 5    1  0.1626333E-003  0.9118800E+02  0.7818608E-02  0.1130116E+00
         25   -1    0    0    0    0  0.00000000000E+00  0.00000000000E+00  0.99999998245E-14  0.12500000000E+03  0.12500000000E+03 0.  0.
        -11    1    3    3    0    0 -0.28356955139E+02 -0.14505415716E+02 -0.48853927534E+02  0.58320067092E+02  0.51100000000E-03 0. -1.
         23    2    1    0    0    0 -0.62598851937E+01  0.68146388831E+01 -0.28187281105E+02  0.95332706867E+02  0.90598988497E+02 0.  0.
         11    1    3    3    0    0  0.22097069945E+02  0.21320054599E+02  0.20666646429E+02  0.37012639775E+02  0.51100000000E-03 0.  1.
         22    1    1    0    0    0  0.62598851937E+01 -0.68146388831E+01  0.28187281105E+02  0.29667293133E+02  0.00000000000E+00 0. -1.
</event>
<event>
 5    1  0.1626333E-003  0.9118800E+02  0.7818608E-02  0.1130116E+00
         25   -1    0    0    0    0  0.00000000000E+00  0.00000000000E+00  0.99999998245E-14  0.12500000000E+03  0.12500000000E+03 0.  0.
        -11    1    3    3    0    0 -0.26921290610E+02 -0.43137405225E+02  0.40493393924E+00  0.50850325362E+02  0.51100000000E-03 0.  1.
         23    2    1    0    0    0  0.10217046318E+02 -0.22764270099E+02 -0.14956153784E+02  0.95908995126E+02  0.91390638369E+02 0.  0.
         11    1    3    3    0    0  0.37138336928E+02  0.20373135126E+02 -0.15361087723E+02  0.45058669764E+02  0.51100000000E-03 0. -1.
         22    1    1    0    0    0 -0.10217046318E+02  0.22764270099E+02  0.14956153784E+02  0.29091004874E+02  0.00000000000E+00 0.  1.
</event>
<event>
 5    1  0.1626333E-003  0.9118800E+02  0.7818608E-02  0.1130116E+00
         25   -1    0    0    0    0  0.00000000000E+00  0.00000000000E+00  0.99999998245E-14  0.12500000000E+03  0.12500000000E+03 0.  0.
        -11    1    3    3    0    0  0.15465276425E+02  0.34514721635E+02 -0.14022357750E+02  0.40336922311E+02  0.51100000000E-03 0. -1.
         23    2    1    0    0    0  0.72519840173E+01  0.10759101557E-01  0.28432184262E+02  0.95657530952E+02  0.91046047349E+02 0.  0.
         11    1    3    3    0    0 -0.82132924075E+01 -0.34503962534E+02  0.42454542011E+02  0.55320608640E+02  0.51100000000E-03 0.  1.
         22    1    1    0    0    0 -0.72519840173E+01 -0.10759101557E-01 -0.28432184262E+02  0.29342469048E+02  0.00000000000E+00 0.  1.
</event>
<event>
 5    1  0.1626333E-003  0.9118800E+02  0.7818608E-02  0.1130116E+00
         25   -1    0    0    0    0  0.00000000000E+00  0.00000000000E+00  0.99999998245E-14  0.12500000000E+03  0.12500000000E+03 0.  0.
        -11    1    3    3    0    0  0.61675327400E+01 -0.47141051472E+02  0.15139446536E+02  0.49895090297E+02  0.51100000000E-03 0. -1.
         23    2    1    0    0    0 -0.23035904921E+02 -0.17342345861E+02 -0.41632820783E+01  0.95866809424E+02  0.91332920439E+02 0.  0.
         11    1    3    3    0    0 -0.29203437661E+02  0.29798705611E+02 -0.19302728615E+02  0.45971719127E+02  0.51100000000E-03 0.  1.
         22    1    1    0    0    0  0.23035904921E+02  0.17342345861E+02  0.41632820783E+01  0.29133190576E+02  0.00000000000E+00 0. -1.
</event>
<event>
 5    1  0.1626333E-003  0.9118800E+02  0.7818608E-02  0.1130116E+00
         25   -1    0    0    0    0  0.00000000000E+00  0.00000000000E+00  0.99999998245E-14  0.12500000000E+03  0.12500000000E+03 0.  0.
        -11    1    3    3    0    0  0.26949662187E+02  0.17080140718E+02  0.45001622598E+02  0.55164857796E+02  0.51100000000E-03 0.  1.
         23    2    1    0    0    0  0.30222004769E+00  0.24712624238E+02  0.14647356611E+02  0.96271091400E+02  0.91884562631E+02 0.  0.
         11    1    3    3    0    0 -0.26647442139E+02  0.76324835202E+01 -0.30354265987E+02  0.41106233604E+02  0.51100000000E-03 0. -1.
         22    1    1    0    0    0 -0.30222004769E+00 -0.24712624238E+02 -0.14647356611E+02  0.28728908600E+02  0.00000000000E+00 0.  1.
</event>
<event>
 5    1  0.1626333E-003  0.9118800E+02  0.7818608E-02  0.1130116E+00
         25   -1    0    0    0    0  0.00000000000E+00  0.00000000000E+00  0.99999998245E-14  0.12500000000E+03  0.12500000000E+03 0.  0.
        -11    1    3    3    0    0 -0.43366958151E+02  0.10801056191E+02  0.22318097210E+02  0.49954512683E+02  0.51100000000E-03 0.  1.
         23    2    1    0    0    0 -0.17189149794E+02 -0.23010111099E+02  0.64612079268E+01  0.95560582694E+02  0.90912846582E+02 0.  0.
         11    1    3    3    0    0  0.26177808357E+02 -0.33811167290E+02 -0.15856889283E+02  0.45606070011E+02  0.51100000000E-03 0. -1.
         22    1    1    0    0    0  0.17189149794E+02  0.23010111099E+02 -0.64612079268E+01  0.29439417306E+02  0.00000000000E+00 0. -1.
</event>
<event>
 5    1  0.1626333E-003  0.9118800E+02  0.7818608E-02  0.1130116E+00
         25   -1    0    0    0    0  0.00000000000E+00  0.00000000000E+00  0.99999998245E-14  0.12500000000E+03  0.12500000000E+03 0.  0.
        -11    1    3    3    0    0  0.71323954866E+01 -0.23357287851E+02  0.34519843624E+02  0.42285382406E+02  0.51100000000E-03 0. -1.
         23    2    1    0    0    0 -0.25542732244E+01  0.25283748892E+02  0.14259654560E+02  0.95860164415E+02  0.91323825499E+02 0.  0.
         11    1    3    3    0    0 -0.96866687110E+01  0.48641036743E+02 -0.20260189064E+02  0.53574782009E+02  0.51100000000E-03 0.  1.
         22    1    1    0    0    0  0.25542732244E+01 -0.25283748892E+02 -0.14259654560E+02  0.29139835585E+02  0.00000000000E+00 0. -1.
</event>
<event>
 5    1  0.1626333E-003  0.9118800E+02  0.7818608E-02  0.1130116E+00
         25   -1    0    0    0    0  0.00000000000E+00  0.00000000000E+00  0.99999998245E-14  0.12500000000E+03  0.12500000000E+03 0.  0.
        -11    1    3    3    0    0  0.27771516769E+02  0.19422129251E+02  0.40356092046E+02  0.52698106358E+02  0.51100000000E-03 0. -1.
         23    2    1    0    0    0 -0.47402782216E+01 -0.62692568484E+01  0.27969328723E+02  0.95947338018E+02  0.91443067011E+02 0.  0.
         11    1    3    3    0    0 -0.32511794991E+02 -0.25691386099E+02 -0.12386763323E+02  0.43249231659E+02  0.51100000000E-03 0.  1.
         22    1    1    0    0    0  0.47402782216E+01  0.62692568484E+01 -0.27969328723E+02  0.29052661982E+02  0.00000000000E+00 0. -1.
</event>
<event>
 5    1  0.1626333E-003  0.9118800E+02  0.7818608E-02  0.1130116E+00
         25   -1    0    0    0    0  0.00000000000E+00  0.00000000000E+00  0.99999998245E-14  0.12500000000E+03  0.12500000000E+03 0.  0.
        -11    1    3    3    0    0 -0.21025952254E+02 -0.15482842737E+02  0.21983886544E+02  0.34133566401E+02  0.51100000000E-03 0.  1.
         23    2    1    0    0    0  0.25109694362E+02  0.49149349316E+00 -0.15324377484E+02  0.95579346335E+02  0.90938641862E+02 0.  0.
         11    1    3    3    0    0  0.46135646616E+02  0.15974336230E+02 -0.37308264028E+02  0.61445779934E+02  0.51100000000E-03 0. -1.
         22    1    1    0    0    0 -0.25109694362E+02 -0.49149349316E+00  0.15324377484E+02  0.29420653665E+02  0.00000000000E+00 0. -1.
</event>
<event>
 5    1  0.1626333E-003  0.9118800E+02  0.7818608E-02  0.1130116E+00
         25   -1    0    0    0    0  0.00000000000E+00  0.00000000000E+00  0.99999998245E-14  0.12500000000E+03  0.12500000000E+03 0.  0.
        -11    1    3    3    0    0  0.23300567949E+01 -0.27849419454E+02  0.77985930293E+01  0.29014434030E+02  0.51100000000E-03 0. -1.
         23    2    1    0    0    0  0.28661883442E+02  0.23457247614E+02  0.96956980131E+01  0.86714851600E+02  0.77805609695E+02 0.  0.
         11    1    3    3    0    0  0.26331826647E+02  0.51306667068E+02  0.18971049838E+01  0.57700417570E+02  0.51100000000E-03 0.  1.
         22    1    1    0    0    0 -0.28661883442E+02 -0.23457247614E+02 -0.96956980131E+01  0.38285148400E+02  0.00000000000E+00 0.  1.
</event>
<event>
 5    1  0.1626333E-003  0.9118800E+02  0.7818608E-02  0.1130116E+00
         25   -1    0    0    0    0  0.00000000000E+00  0.00000000000E+00  0.99999998245E-14  0.12500000000E+03  0.12500000000E+03 0.  0.
        -11    1    3    3    0    0  0.19358573294E+01  0.35878139755E+02 -0.46053866349E+01  0.36224274213E+02  0.51100000000E-03 0. -1.
         23    2    1    0    0    0  0.38187593663E+01 -0.10230606419E+02 -0.32886377299E+02  0.90347986456E+02  0.83438579890E+02 0.  0.
         11    1    3    3    0    0  0.18829020369E+01 -0.46108746175E+02 -0.28280990664E+02  0.54123712244E+02  0.51100000000E-03 0.  1.
         22    1    1    0    0    0 -0.38187593663E+01  0.10230606419E+02  0.32886377299E+02  0.34652013544E+02  0.00000000000E+00 0.  1.
</event>
<event>
 5    1  0.1626333E-003  0.9118800E+02  0.7818608E-02  0.1130116E+00
         25   -1    0    0    0    0  0.00000000000E+00  0.00000000000E+00  0.99999998245E-14  0.12500000000E+03  0.12500000000E+03 0.  0.
        -11    1    3    3    0    0  0.21851289688E+02 -0.52371065636E+02  0.23244955206E+02  0.61323203762E+02  0.51100000000E-03 0.  1.
         23    2    1    0    0    0  0.17186339303E+02 -0.24591341967E+02  0.58402792127E+01  0.94435098239E+02  0.89351970094E+02 0.  0.
         11    1    3    3    0    0 -0.46649503855E+01  0.27779723668E+02 -0.17404675993E+02  0.33111894477E+02  0.51100000000E-03 0. -1.
         22    1    1    0    0    0 -0.17186339303E+02  0.24591341967E+02 -0.58402792127E+01  0.30564901761E+02  0.00000000000E+00 0.  1.
</event>
<event>
 5    1  0.1626333E-003  0.9118800E+02  0.7818608E-02  0.1130116E+00
         25   -1    0    0    0    0  0.00000000000E+00  0.00000000000E+00  0.99999998245E-14  0.12500000000E+03  0.12500000000E+03 0.  0.
        -11    1    3    3    0    0  0.26911339802E+02  0.95918859976E+01  0.40893954575E+02  0.49885268447E+02  0.51100000000E-03 0. -1.
         23    2    1    0    0    0  0.14079166673E+02  0.25984959329E+02  0.37028121147E+00  0.95443644445E+02  0.90751920703E+02 0.  0.
         11    1    3    3    0    0 -0.12832173130E+02  0.16393073331E+02 -0.40523673364E+02  0.45558375998E+02  0.51100000000E-03 0.  1.
         22    1    1    0    0    0 -0.14079166673E+02 -0.25984959329E+02 -0.37028121147E+00  0.29556355555E+02  0.00000000000E+00 0. -1.
</event>
<event>
 5    1  0.1626333E-003  0.9118800E+02  0.7818608E-02  0.1130116E+00
         25   -1    0    0    0    0  0.00000000000E+00  0.00000000000E+00  0.99999998245E-14  0.12500000000E+03  0.12500000000E+03 0.  0.
        -11    1    3    3    0    0 -0.22599998813E+02 -0.27502957935E+02  0.56137528034E+01  0.36037298211E+02  0.51100000000E-03 0.  1.
         23    2    1    0    0    0  0.22023768351E+02  0.16378314520E+01  0.23971247878E+02  0.92406295254E+02  0.86467183448E+02 0.  0.
         11    1    3    3    0    0  0.44623767164E+02  0.29140789387E+02  0.18357495075E+02  0.56368997043E+02  0.51100000000E-03 0. -1.
         22    1    1    0    0    0 -0.22023768351E+02 -0.16378314520E+01 -0.23971247878E+02  0.32593704746E+02  0.00000000000E+00 0. -1.
</event>
<event>
 5    1  0.1626333E-003  0.9118800E+02  0.7818608E-02  0.1130116E+00
         25   -1    0    0    0    0  0.00000000000E+00  0.00000000000E+00  0.99999998245E-14  0.12500000000E+03  0.12500000000E+03 0.  0.
        -11    1    3    3    0    0 -0.22566618525E+02  0.74144944712E+01  0.27586954549E+02  0.36404217633E+02  0.51100000000E-03 0.  1.
         23    2    1    0    0    0  0.61917774783E+01  0.13504521221E+02 -0.24577504607E+02  0.96281296435E+02  0.91898444539E+02 0.  0.
         11    1    3    3    0    0  0.28758396003E+02  0.60900267493E+01 -0.52164459156E+02  0.59877078802E+02  0.51100000000E-03 0. -1.
         22    1    1    0    0    0 -0.61917774783E+01 -0.13504521221E+02  0.24577504607E+02  0.28718703565E+02  0.00000000000E+00 0. -1.
</event>
<event>
 5    1  0.1626333E-003  0.9118800E+02  0.7818608E-02  0.1130116E+00
         25   -1    0    0    0    0  0.00000000000E+00  0.00000000000E+00  0.99999998245E-14  0.12500000000E+03  0.12500000000E+03 0.  0.
        -11    1    3    3    0    0  0.44859633175E+02 -0.67027678224E+01  0.15254949698E+02  0.47854229444E+02  0.51100000000E-03 0.  1.
         23    2    1    0    0    0 -0.14760039760E+02 -0.60840935931E+01  0.41810471375E+01  0.10849678444E+03  0.10723430473E+03 0.  0.
         11    1    3    3    0    0 -0.59619672935E+02  0.61867422929E+00 -0.11073902560E+02  0.60642554999E+02  0.51100000000E-03 0. -1.
         22    1    1    0    0    0  0.14760039760E+02  0.60840935931E+01 -0.41810471375E+01  0.16503215557E+02  0.00000000000E+00 0. -1.
</event>
<event>
 5    1  0.1626333E-003  0.9118800E+02  0.7818608E-02  0.1130116E+00
         25   -1    0    0    0    0  0.00000000000E+00  0.00000000000E+00  0.99999998245E-14  0.12500000000E+03  0.12500000000E+03 0.  0.
        -11    1    3    3    0    0 -0.26001068588E+02  0.13817672511E+02 -0.19194654355E+02  0.35148519135E+02  0.51100000000E-03 0. -1.
         23    2    1    0    0    0 -0.78235076619E+01 -0.54609202325E+01  0.31357051191E+02  0.92223581932E+02  0.86202641973E+02 0.  0.
         11    1    3    3    0    0  0.18177560926E+02 -0.19278592743E+02  0.50551705546E+02  0.57075062797E+02  0.51100000000E-03 0.  1.
         22    1    1    0    0    0  0.78235076619E+01  0.54609202325E+01 -0.31357051191E+02  0.32776418068E+02  0.00000000000E+00 0.  1.
</event>
<event>
 5    1  0.1626333E-003  0.9118800E+02  0.7818608E-02  0.1130116E+00
         25   -1    0    0    0    0  0.00000000000E+00  0.00000000000E+00  0.99999998245E-14  0.12500000000E+03  0.12500000000E+03 0.  0.
        -11    1    3    3    0    0  0.13276005462E+02  0.97322776657E+01  0.31620162790E+02  0.35648341402E+02  0.51100000000E-03 0. -1.
         23    2    1    0    0    0 -0.28455398821E+02  0.16400427716E+02 -0.52593960107E+01  0.91738235198E+02  0.85495957796E+02 0.  0.
         11    1    3    3    0    0 -0.41731404283E+02  0.66681500502E+01 -0.36879558800E+02  0.56089893796E+02  0.51100000000E-03 0.  1.
         22    1    1    0    0    0  0.28455398821E+02 -0.16400427716E+02  0.52593960107E+01  0.33261764802E+02  0.00000000000E+00 0.  1.
</event>
<event>
 5    1  0.1626333E-003  0.9118800E+02  0.7818608E-02  0.1130116E+00
         25   -1    0    0    0    0  0.00000000000E+00  0.00000000000E+00  0.99999998245E-14  0.12500000000E+03  0.12500000000E+03 0.  0.
        -11    1    3    3    0    0  0.21086161125E+02  0.14568175208E+01 -0.33920259434E+02  0.39966642448E+02  0.51100000000E-03 0. -1.
         23    2    1    0    0    0 -0.59299519690E+01 -0.16199301579E+02  0.17339965380E+02  0.10054072566E+03  0.97520159015E+02 0.  0.
         11    1    3    3    0    0 -0.27016113094E+02 -0.17656119100E+02  0.51260224814E+02  0.60574083209E+02  0.51100000000E-03 0.  1.
         22    1    1    0    0    0  0.59299519690E+01  0.16199301579E+02 -0.17339965380E+02  0.24459274343E+02  0.00000000000E+00 0.  1.
</event>
<event>
 5    1  0.1626333E-003  0.9118800E+02  0.7818608E-02  0.1130116E+00
         25   -1    0    0    0    0  0.00000000000E+00  0.00000000000E+00  0.99999998245E-14  0.12500000000E+03  0.12500000000E+03 0.  0.
        -11    1    3    3    0    0 -0.89175690619E+01 -0.30251377679E+02 -0.12147120755E+02  0.33796766596E+02  0.51100000000E-03 0. -1.
         23    2    1    0    0    0  0.23871309800E+02  0.15640405538E+02 -0.19149949496E+02  0.90631667444E+02  0.83862487806E+02 0.  0.
         11    1    3    3    0    0  0.32788878862E+02  0.45891783217E+02 -0.70028287415E+01  0.56834900848E+02  0.51100000000E-03 0.  1.
         22    1    1    0    0    0 -0.23871309800E+02 -0.15640405538E+02  0.19149949496E+02  0.34368332556E+02  0.00000000000E+00 0.  1.
</event>
<event>
 5    1  0.1626333E-003  0.9118800E+02  0.7818608E-02  0.1130116E+00
         25   -1    0    0    0    0  0.00000000000E+00  0.00000000000E+00  0.99999998245E-14  0.12500000000E+03  0.12500000000E+03 0.  0.
        -11    1    3    3    0    0 -0.42803188742E+02 -0.16174391164E+02 -0.13140646629E+02  0.47606727362E+02  0.51100000000E-03 0. -1.
         23    2    1    0    0    0  0.46576461164E+01 -0.16660580432E+02 -0.23136435731E+02  0.96111191336E+02  0.91666776065E+02 0.  0.
         11    1    3    3    0    0  0.47460834858E+02 -0.48618926834E+00 -0.99957891020E+01  0.48504463975E+02  0.51100000000E-03 0.  1.
         22    1    1    0    0    0 -0.46576461164E+01  0.16660580432E+02  0.23136435731E+02  0.28888808664E+02  0.00000000000E+00 0.  1.
</event>
<event>
 5    1  0.1626333E-003  0.9118800E+02  0.7818608E-02  0.1130116E+00
         25   -1    0    0    0    0  0.00000000000E+00  0.00000000000E+00  0.99999998245E-14  0.12500000000E+03  0.12500000000E+03 0.  0.
        -11    1    3    3    0    0  0.27100250035E+02  0.23039760313E+01 -0.23023774729E+02  0.35634618849E+02  0.51100000000E-03 0.  1.
         23    2    1    0    0    0 -0.11950047464E+02  0.24940296661E+02  0.13990249836E+02  0.94007273073E+02  0.88751440936E+02 0.  0.
         11    1    3    3    0    0 -0.39050297499E+02  0.22636320629E+02  0.37014024564E+02  0.58372654224E+02  0.51100000000E-03 0. -1.
         22    1    1    0    0    0  0.11950047464E+02 -0.24940296661E+02 -0.13990249836E+02  0.30992726927E+02  0.00000000000E+00 0. -1.
</event>
<event>
 5    1  0.1626333E-003  0.9118800E+02  0.7818608E-02  0.1130116E+00
         25   -1    0    0    0    0  0.00000000000E+00  0.00000000000E+00  0.99999998245E-14  0.12500000000E+03  0.12500000000E+03 0.  0.
        -11    1    3    3    0    0  0.42815689561E+02 -0.40681405203E+02  0.10358833772E+02  0.59962200087E+02  0.51100000000E-03 0.  1.
         23    2    1    0    0    0  0.18830951637E+02 -0.15980056264E+02  0.16987272103E+02  0.95024437432E+02  0.90172664140E+02 0.  0.
         11    1    3    3    0    0 -0.23984737924E+02  0.24701348939E+02  0.66284383314E+01  0.35062237346E+02  0.51100000000E-03 0. -1.
         22    1    1    0    0    0 -0.18830951637E+02  0.15980056264E+02 -0.16987272103E+02  0.29975562568E+02  0.00000000000E+00 0.  1.
</event>
<event>
 5    1  0.1626333E-003  0.9118800E+02  0.7818608E-02  0.1130116E+00
         25   -1    0    0    0    0  0.00000000000E+00  0.00000000000E+00  0.99999998245E-14  0.12500000000E+03  0.12500000000E+03 0.  0.
        -11    1    3    3    0    0 -0.66725247505E+01 -0.49467519182E+02 -0.21526311184E+02  0.54359360868E+02  0.51100000000E-03 0. -1.
         23    2    1    0    0    0  0.19314868986E+02 -0.17396748910E+02 -0.88612471605E+01  0.97536701986E+02  0.93590466910E+02 0.  0.
         11    1    3    3    0    0  0.25987393736E+02  0.32070770272E+02  0.12665064023E+02  0.43177341118E+02  0.51100000000E-03 0.  1.
         22    1    1    0    0    0 -0.19314868986E+02  0.17396748910E+02  0.88612471605E+01  0.27463298014E+02  0.00000000000E+00 0. -1.
</event>
<event>
 5    1  0.1626333E-003  0.9118800E+02  0.7818608E-02  0.1130116E+00
         25   -1    0    0    0    0  0.00000000000E+00  0.00000000000E+00  0.99999998245E-14  0.12500000000E+03  0.12500000000E+03 0.  0.
        -11    1    3    3    0    0  0.77058581007E+01  0.33713867751E+02  0.24314339715E+02  0.42275196556E+02  0.51100000000E-03 0.  1.
         23    2    1    0    0    0  0.11248502194E+02  0.12306851957E+02 -0.24310351762E+02  0.95521522945E+02  0.90859125773E+02 0.  0.
         11    1    3    3    0    0  0.35426440930E+01 -0.21407015794E+02 -0.48624691477E+02  0.53246326389E+02  0.51100000000E-03 0. -1.
         22    1    1    0    0    0 -0.11248502194E+02 -0.12306851957E+02  0.24310351762E+02  0.29478477055E+02  0.00000000000E+00 0. -1.
</event>
<event>
 5    1  0.1626333E-003  0.9118800E+02  0.7818608E-02  0.1130116E+00
         25   -1    0    0    0    0  0.00000000000E+00  0.00000000000E+00  0.99999998245E-14  0.12500000000E+03  0.12500000000E+03 0.  0.
        -11    1    3    3    0    0  0.28337834818E+02 -0.14079222973E+02  0.11633017357E+02  0.33713268824E+02  0.51100000000E-03 0.  1.
         23    2    1    0    0    0 -0.23655023130E+02  0.14046449950E+02 -0.85730529665E+01  0.96184030250E+02  0.91766047983E+02 0.  0.
         11    1    3    3    0    0 -0.51992857948E+02  0.28125672924E+02 -0.20206070324E+02  0.62470761426E+02  0.51100000000E-03 0. -1.
         22    1    1    0    0    0  0.23655023130E+02 -0.14046449950E+02  0.85730529665E+01  0.28815969750E+02  0.00000000000E+00 0. -1.
</event>
<event>
 5    1  0.1626333E-003  0.9118800E+02  0.7818608E-02  0.1130116E+00
         25   -1    0    0    0    0  0.00000000000E+00  0.00000000000E+00  0.99999998245E-14  0.12500000000E+03  0.12500000000E+03 0.  0.
        -11    1    3    3    0    0 -0.57127787001E+02  0.40409767257E+01 -0.23954244541E+02  0.62078332551E+02  0.51100000000E-03 0.  1.
         23    2    1    0    0    0 -0.28917779643E+02  0.31163983726E+01 -0.67219633707E+01  0.95148120497E+02  0.90343954553E+02 0.  0.
         11    1    3    3    0    0  0.28210007358E+02 -0.92457835308E+00  0.17232281170E+02  0.33069787947E+02  0.51100000000E-03 0. -1.
         22    1    1    0    0    0  0.28917779643E+02 -0.31163983726E+01  0.67219633707E+01  0.29851879503E+02  0.00000000000E+00 0.  1.
</event>
<event>
 5    1  0.1626333E-003  0.9118800E+02  0.7818608E-02  0.1130116E+00
         25   -1    0    0    0    0  0.00000000000E+00  0.00000000000E+00  0.99999998245E-14  0.12500000000E+03  0.12500000000E+03 0.  0.
        -11    1    3    3    0    0 -0.51655262264E+01  0.34286592830E+02  0.40498798232E+02  0.53314217312E+02  0.51100000000E-03 0. -1.
         23    2    1    0    0    0 -0.17096056577E+02  0.23346335713E+02  0.94965774881E+00  0.96047825789E+02  0.91580327840E+02 0.  0.
         11    1    3    3    0    0 -0.11930530351E+02 -0.10940257117E+02 -0.39549140483E+02  0.42733608477E+02  0.51100000000E-03 0.  1.
         22    1    1    0    0    0  0.17096056577E+02 -0.23346335713E+02 -0.94965774881E+00  0.28952174211E+02  0.00000000000E+00 0.  1.
</event>
<event>
 5    1  0.1626333E-003  0.9118800E+02  0.7818608E-02  0.1130116E+00
         25   -1    0    0    0    0  0.00000000000E+00  0.00000000000E+00  0.99999998245E-14  0.12500000000E+03  0.12500000000E+03 0.  0.
        -11    1    3    3    0    0  0.75854057251E+01 -0.28346503194E+02 -0.20483286189E+02  0.35785858055E+02  0.51100000000E-03 0.  1.
         23    2    1    0    0    0 -0.97482980449E+00  0.69556427790E+01  0.27867162927E+02  0.96261349558E+02  0.91871308849E+02 0.  0.
         11    1    3    3    0    0 -0.85602355296E+01  0.35302145973E+02  0.48350449116E+02  0.60475491504E+02  0.51100000000E-03 0. -1.
         22    1    1    0    0    0  0.97482980449E+00 -0.69556427790E+01 -0.27867162927E+02  0.28738650442E+02  0.00000000000E+00 0. -1.
</event>
<event>
 5    1  0.1626333E-003  0.9118800E+02  0.7818608E-02  0.1130116E+00
         25   -1    0    0    0    0  0.00000000000E+00  0.00000000000E+00  0.99999998245E-14  0.12500000000E+03  0.12500000000E+03 0.  0.
        -11    1    3    3    0    0  0.33299158383E+02  0.32722455931E+02  0.12600852553E+02  0.48356742617E+02  0.51100000000E-03 0.  1.
         23    2    1    0    0    0 -0.12840726201E+02  0.17104058436E+02 -0.91915329404E+01  0.10172088184E+03  0.99021313165E+02 0.  0.
         11    1    3    3    0    0 -0.46139884583E+02 -0.15618397495E+02 -0.21792385493E+02  0.53364139227E+02  0.51100000000E-03 0. -1.
         22    1    1    0    0    0  0.12840726201E+02 -0.17104058436E+02  0.91915329404E+01  0.23279118156E+02  0.00000000000E+00 0. -1.
</event>
<event>
 5    1  0.1626333E-003  0.9118800E+02  0.7818608E-02  0.1130116E+00
         25   -1    0    0    0    0  0.00000000000E+00  0.00000000000E+00  0.99999998245E-14  0.12500000000E+03  0.12500000000E+03 0.  0.
        -11    1    3    3    0    0 -0.22939835750E+02 -0.31301418170E+02 -0.10551719040E+02  0.40216335222E+02  0.51100000000E-03 0.  1.
         23    2    1    0    0    0 -0.18248436219E+02  0.20090755385E+02  0.10428997994E+02  0.95924101466E+02  0.91411297805E+02 0.  0.
         11    1    3    3    0    0  0.46913995303E+01  0.51392173556E+02  0.20980717034E+02  0.55707766244E+02  0.51100000000E-03 0. -1.
         22    1    1    0    0    0  0.18248436219E+02 -0.20090755385E+02 -0.10428997994E+02  0.29075898534E+02  0.00000000000E+00 0. -1.
</event>
<event>
 5    1  0.1626333E-003  0.9118800E+02  0.7818608E-02  0.1130116E+00
         25   -1    0    0    0    0  0.00000000000E+00  0.00000000000E+00  0.99999998245E-14  0.12500000000E+03  0.12500000000E+03 0.  0.
        -11    1    3    3    0    0  0.57263230668E+02 -0.11265985504E+02 -0.18019223875E+02  0.61079394605E+02  0.51100000000E-03 0.  1.
         23    2    1    0    0    0  0.30177031330E+02 -0.25987601039E+00 -0.12238940257E+01  0.94797041999E+02  0.89856888995E+02 0.  0.
         11    1    3    3    0    0 -0.27086199339E+02  0.11006109494E+02  0.16795329849E+02  0.33717647395E+02  0.51100000000E-03 0. -1.
         22    1    1    0    0    0 -0.30177031330E+02  0.25987601039E+00  0.12238940257E+01  0.30202958001E+02  0.00000000000E+00 0.  1.
</event>
<event>
 5    1  0.1626333E-003  0.9118800E+02  0.7818608E-02  0.1130116E+00
         25   -1    0    0    0    0  0.00000000000E+00  0.00000000000E+00  0.99999998245E-14  0.12500000000E+03  0.12500000000E+03 0.  0.
        -11    1    3    3    0    0 -0.30757765155E+02 -0.16600113154E+02  0.12675602609E+01  0.34974427562E+02  0.51100000000E-03 0.  1.
         23    2    1    0    0    0  0.22593205131E+02  0.11137616917E+02  0.13625111806E+02  0.96361859341E+02  0.92007960717E+02 0.  0.
         11    1    3    3    0    0  0.53350970286E+02  0.27737730071E+02  0.12357551546E+02  0.61387431779E+02  0.51100000000E-03 0. -1.
         22    1    1    0    0    0 -0.22593205131E+02 -0.11137616917E+02 -0.13625111806E+02  0.28638140659E+02  0.00000000000E+00 0. -1.
</event>
<event>
 5    1  0.1626333E-003  0.9118800E+02  0.7818608E-02  0.1130116E+00
         25   -1    0    0    0    0  0.00000000000E+00  0.00000000000E+00  0.99999998245E-14  0.12500000000E+03  0.12500000000E+03 0.  0.
        -11    1    3    3    0    0 -0.22107604870E+01 -0.38405876973E+02  0.13167039087E+02  0.40660420148E+02  0.51100000000E-03 0. -1.
         23    2    1    0    0    0  0.69850348237E+01 -0.37659272872E+01 -0.28380959795E+02  0.95530493749E+02  0.90871466573E+02 0.  0.
         11    1    3    3    0    0  0.91957953107E+01  0.34639949686E+02 -0.41547998882E+02  0.54870073601E+02  0.51100000000E-03 0.  1.
         22    1    1    0    0    0 -0.69850348237E+01  0.37659272872E+01  0.28380959795E+02  0.29469506251E+02  0.00000000000E+00 0.  1.
</event>
<event>
 5    1  0.1626333E-003  0.9118800E+02  0.7818608E-02  0.1130116E+00
         25   -1    0    0    0    0  0.00000000000E+00  0.00000000000E+00  0.99999998245E-14  0.12500000000E+03  0.12500000000E+03 0.  0.
        -11    1    3    3    0    0  0.90143326137E+00 -0.47688404684E+02 -0.39152404496E+01  0.47857346680E+02  0.51100000000E-03 0.  1.
         23    2    1    0    0    0  0.27182150609E+02 -0.63733315575E+01  0.95486995585E+00  0.97064351744E+02  0.92957452288E+02 0.  0.
         11    1    3    3    0    0  0.26280717348E+02  0.41315073126E+02  0.48701104054E+01  0.49207005064E+02  0.51100000000E-03 0. -1.
         22    1    1    0    0    0 -0.27182150609E+02  0.63733315575E+01 -0.95486995585E+00  0.27935648256E+02  0.00000000000E+00 0. -1.
</event>
<event>
 5    1  0.1626333E-003  0.9118800E+02  0.7818608E-02  0.1130116E+00
         25   -1    0    0    0    0  0.00000000000E+00  0.00000000000E+00  0.99999998245E-14  0.12500000000E+03  0.12500000000E+03 0.  0.
        -11    1    3    3    0    0 -0.17174128374E+02  0.38972104919E+02  0.56644533924E+01  0.42963492406E+02  0.51100000000E-03 0.  1.
         23    2    1    0    0    0 -0.16167305175E+02 -0.12153223830E+01 -0.26151580856E+02  0.94230470488E+02  0.89065243625E+02 0.  0.
         11    1    3    3    0    0  0.10068231993E+01 -0.40187427302E+02 -0.31816034249E+02  0.51266978082E+02  0.51100000000E-03 0. -1.
         22    1    1    0    0    0  0.16167305175E+02  0.12153223830E+01  0.26151580856E+02  0.30769529512E+02  0.00000000000E+00 0. -1.
</event>
<event>
 5    1  0.1626333E-003  0.9118800E+02  0.7818608E-02  0.1130116E+00
         25   -1    0    0    0    0  0.00000000000E+00  0.00000000000E+00  0.99999998245E-14  0.12500000000E+03  0.12500000000E+03 0.  0.
        -11    1    3    3    0    0  0.25402510112E+02  0.25957248579E+02  0.11994819747E+02  0.38248424475E+02  0.51100000000E-03 0.  1.
         23    2    1    0    0    0 -0.19766644782E+02 -0.86219733673E+01  0.19869730088E+02  0.95676547876E+02  0.91072152544E+02 0.  0.
         11    1    3    3    0    0 -0.45169154894E+02 -0.34579221946E+02  0.78749103405E+01  0.57428123401E+02  0.51100000000E-03 0. -1.
         22    1    1    0    0    0  0.19766644782E+02  0.86219733673E+01 -0.19869730088E+02  0.29323452124E+02  0.00000000000E+00 0. -1.
</event>
<event>
 5    1  0.1626333E-003  0.9118800E+02  0.7818608E-02  0.1130116E+00
         25   -1    0    0    0    0  0.00000000000E+00  0.00000000000E+00  0.99999998245E-14  0.12500000000E+03  0.12500000000E+03 0.  0.
        -11    1    3    3    0    0 -0.73732805028E+01 -0.27389676141E+02  0.18291726091E+02  0.33751249875E+02  0.51100000000E-03 0. -1.
         23    2    1    0    0    0  0.81295595642E+01  0.29413047402E+02  0.63800346485E+01  0.93824337404E+02  0.88493414168E+02 0.  0.
         11    1    3    3    0    0  0.15502840067E+02  0.56802723543E+02 -0.11911691442E+02  0.60073087529E+02  0.51100000000E-03 0.  1.
         22    1    1    0    0    0 -0.81295595642E+01 -0.29413047402E+02 -0.63800346485E+01  0.31175662596E+02  0.00000000000E+00 0.  1.
</event>
<event>
 5    1  0.1626333E-003  0.9118800E+02  0.7818608E-02  0.1130116E+00
         25   -1    0    0    0    0  0.00000000000E+00  0.00000000000E+00  0.99999998245E-14  0.12500000000E+03  0.12500000000E+03 0.  0.
        -11    1    3    3    0    0 -0.40815539789E+02 -0.14581103304E+02 -0.74380718233E+01  0.43975467872E+02  0.51100000000E-03 0.  1.
         23    2    1    0    0    0 -0.47172923368E+01  0.10775815055E+02  0.24085607457E+02  0.98195382419E+02  0.94466108233E+02 0.  0.
         11    1    3    3    0    0  0.36098247452E+02  0.25356918360E+02  0.31523679280E+02  0.54219914547E+02  0.51100000000E-03 0. -1.
         22    1    1    0    0    0  0.47172923368E+01 -0.10775815055E+02 -0.24085607457E+02  0.26804617581E+02  0.00000000000E+00 0. -1.
</event>
<event>
 5    1  0.1626333E-003  0.9118800E+02  0.7818608E-02  0.1130116E+00
         25   -1    0    0    0    0  0.00000000000E+00  0.00000000000E+00  0.99999998245E-14  0.12500000000E+03  0.12500000000E+03 0.  0.
        -11    1    3    3    0    0 -0.73536845311E+01 -0.23511460335E+02 -0.30965362184E+02  0.39569168537E+02  0.51100000000E-03 0. -1.
         23    2    1    0    0    0 -0.14876708494E+02 -0.20678985653E+02  0.20897253990E+02  0.92051067884E+02  0.85952120224E+02 0.  0.
         11    1    3    3    0    0 -0.75230239629E+01  0.28324746823E+01  0.51862616174E+02  0.52481899347E+02  0.51100000000E-03 0.  1.
         22    1    1    0    0    0  0.14876708494E+02  0.20678985653E+02 -0.20897253990E+02  0.32948932116E+02  0.00000000000E+00 0. -1.
</event>
<event>
 5    1  0.1626333E-003  0.9118800E+02  0.7818608E-02  0.1130116E+00
         25   -1    0    0    0    0  0.00000000000E+00  0.00000000000E+00  0.99999998245E-14  0.12500000000E+03  0.12500000000E+03 0.  0.
        -11    1    3    3    0    0 -0.74418980067E+01 -0.30566520398E+02  0.49434098400E+02  0.58595427296E+02  0.51100000000E-03 0.  1.
         23    2    1    0    0    0 -0.18322329290E+02 -0.13574598598E+02  0.17996625905E+02  0.95950799982E+02  0.91447799293E+02 0.  0.
         11    1    3    3    0    0 -0.10880431283E+02  0.16991921799E+02 -0.31437472495E+02  0.37355372685E+02  0.51100000000E-03 0. -1.
         22    1    1    0    0    0  0.18322329290E+02  0.13574598598E+02 -0.17996625905E+02  0.29049200018E+02  0.00000000000E+00 0.  1.
</event>
<event>
 5    1  0.1626333E-003  0.9118800E+02  0.7818608E-02  0.1130116E+00
         25   -1    0    0    0    0  0.00000000000E+00  0.00000000000E+00  0.99999998245E-14  0.12500000000E+03  0.12500000000E+03 0.  0.
        -11    1    3    3    0    0  0.38046046382E+02 -0.26684053702E+01  0.47226553297E+02  0.60703948546E+02  0.51100000000E-03 0. -1.
         23    2    1    0    0    0  0.19577126703E+02  0.83122889162E+01  0.17090675579E+02  0.97715403087E+02  0.93828837633E+02 0.  0.
         11    1    3    3    0    0 -0.18468919679E+02  0.10980694286E+02 -0.30135877718E+02  0.37011454540E+02  0.51100000000E-03 0.  1.
         22    1    1    0    0    0 -0.19577126703E+02 -0.83122889162E+01 -0.17090675579E+02  0.27284596913E+02  0.00000000000E+00 0. -1.
</event>
<event>
 5    1  0.1626333E-003  0.9118800E+02  0.7818608E-02  0.1130116E+00
         25   -1    0    0    0    0  0.00000000000E+00  0.00000000000E+00  0.99999998245E-14  0.12500000000E+03  0.12500000000E+03 0.  0.
        -11    1    3    3    0    0 -0.77239923182E+01 -0.40425816711E+02  0.37478424073E+02  0.55664521783E+02  0.51100000000E-03 0. -1.
         23    2    1    0    0    0 -0.13125557705E+02 -0.12698083745E+01  0.24339388250E+02  0.97317902919E+02  0.93297779876E+02 0.  0.
         11    1    3    3    0    0 -0.54015653870E+01  0.39156008337E+02 -0.13139035822E+02  0.41653381136E+02  0.51100000000E-03 0.  1.
         22    1    1    0    0    0  0.13125557705E+02  0.12698083745E+01 -0.24339388250E+02  0.27682097081E+02  0.00000000000E+00 0. -1.
</event>
<event>
 5    1  0.1626333E-003  0.9118800E+02  0.7818608E-02  0.1130116E+00
         25   -1    0    0    0    0  0.00000000000E+00  0.00000000000E+00  0.99999998245E-14  0.12500000000E+03  0.12500000000E+03 0.  0.
        -11    1    3    3    0    0 -0.17360433171E+02 -0.50015952862E+02  0.19390932065E+02  0.56382518808E+02  0.51100000000E-03 0.  1.
         23    2    1    0    0    0 -0.22171355243E+02 -0.11200412760E+02  0.15575724601E+02  0.95680698573E+02  0.91077849356E+02 0.  0.
         11    1    3    3    0    0 -0.48109220720E+01  0.38815540102E+02 -0.38152074634E+01  0.39298179765E+02  0.51100000000E-03 0. -1.
         22    1    1    0    0    0  0.22171355243E+02  0.11200412760E+02 -0.15575724601E+02  0.29319301427E+02  0.00000000000E+00 0.  1.
</event>
<event>
 5    1  0.1626333E-003  0.9118800E+02  0.7818608E-02  0.1130116E+00
         25   -1    0    0    0    0  0.00000000000E+00  0.00000000000E+00  0.99999998245E-14  0.12500000000E+03  0.12500000000E+03 0.  0.
        -11    1    3    3    0    0  0.54428669335E+02 -0.60822168451E+01 -0.86272589098E+01  0.55442790369E+02  0.51100000000E-03 0.  1.
         23    2    1    0    0    0  0.22469243363E+02 -0.11468885334E+02  0.15090147476E+02  0.95604170722E+02  0.90972757903E+02 0.  0.
         11    1    3    3    0    0 -0.31959425973E+02 -0.53866684885E+01  0.23717406386E+02  0.40161380353E+02  0.51100000000E-03 0. -1.
         22    1    1    0    0    0 -0.22469243363E+02  0.11468885334E+02 -0.15090147476E+02  0.29395829278E+02  0.00000000000E+00 0.  1.
</event>
<event>
 5    1  0.1626333E-003  0.9118800E+02  0.7818608E-02  0.1130116E+00
         25   -1    0    0    0    0  0.00000000000E+00  0.00000000000E+00  0.99999998245E-14  0.12500000000E+03  0.12500000000E+03 0.  0.
        -11    1    3    3    0    0 -0.93423560570E+01  0.45139758264E+01 -0.29755983236E+02  0.31513078762E+02  0.51100000000E-03 0. -1.
         23    2    1    0    0    0 -0.10739194463E+02 -0.11721305161E+02  0.28696466691E+02  0.92194413693E+02  0.86160335557E+02 0.  0.
         11    1    3    3    0    0 -0.13968384064E+01 -0.16235280987E+02  0.58452449927E+02  0.60681334931E+02  0.51100000000E-03 0.  1.
         22    1    1    0    0    0  0.10739194463E+02  0.11721305161E+02 -0.28696466691E+02  0.32805586307E+02  0.00000000000E+00 0.  1.
</event>
<event>
 5    1  0.1626333E-003  0.9118800E+02  0.7818608E-02  0.1130116E+00
         25   -1    0    0    0    0  0.00000000000E+00  0.00000000000E+00  0.99999998245E-14  0.12500000000E+03  0.12500000000E+03 0.  0.
        -11    1    3    3    0    0  0.39686980079E+01 -0.21934919397E+02  0.38472573755E+02  0.44463807579E+02  0.51100000000E-03 0. -1.
         23    2    1    0    0    0 -0.28734976159E+02  0.14913464559E+01  0.74141697158E+01  0.95286486547E+02  0.90535195569E+02 0.  0.
         11    1    3    3    0    0 -0.32703674167E+02  0.23426265853E+02 -0.31058404039E+02  0.50822678969E+02  0.51100000000E-03 0.  1.
         22    1    1    0    0    0  0.28734976159E+02 -0.14913464559E+01 -0.74141697158E+01  0.29713513453E+02  0.00000000000E+00 0.  1.
</event>
<event>
 5    1  0.1626333E-003  0.9118800E+02  0.7818608E-02  0.1130116E+00
         25   -1    0    0    0    0  0.00000000000E+00  0.00000000000E+00  0.99999998245E-14  0.12500000000E+03  0.12500000000E+03 0.  0.
        -11    1    3    3    0    0 -0.45710876809E+00  0.33554533699E+02  0.26674508138E+02  0.42867762536E+02  0.51100000000E-03 0. -1.
         23    2    1    0    0    0  0.28960130841E+02 -0.12895004841E+01 -0.60322259391E+00  0.96004899253E+02  0.91521717714E+02 0.  0.
         11    1    3    3    0    0  0.29417239609E+02 -0.34844034183E+02 -0.27277730732E+02  0.53137136717E+02  0.51100000000E-03 0.  1.
         22    1    1    0    0    0 -0.28960130841E+02  0.12895004841E+01  0.60322259391E+00  0.28995100747E+02  0.00000000000E+00 0.  1.
</event>
<event>
 5    1  0.1626333E-003  0.9118800E+02  0.7818608E-02  0.1130116E+00
         25   -1    0    0    0    0  0.00000000000E+00  0.00000000000E+00  0.99999998245E-14  0.12500000000E+03  0.12500000000E+03 0.  0.
        -11    1    3    3    0    0 -0.58751580725E+02  0.17532483879E+02  0.70147450916E+01  0.61711772602E+02  0.51100000000E-03 0.  1.
         23    2    1    0    0    0 -0.28880002869E+02  0.71059083044E+01 -0.35027751419E+01  0.95053081424E+02  0.90212362545E+02 0.  0.
         11    1    3    3    0    0  0.29871577856E+02 -0.10426575575E+02 -0.10517520233E+02  0.33341308822E+02  0.51100000000E-03 0. -1.
         22    1    1    0    0    0  0.28880002869E+02 -0.71059083044E+01  0.35027751419E+01  0.29946918576E+02  0.00000000000E+00 0.  1.
</event>
<event>
 5    1  0.1626333E-003  0.9118800E+02  0.7818608E-02  0.1130116E+00
         25   -1    0    0    0    0  0.00000000000E+00  0.00000000000E+00  0.99999998245E-14  0.12500000000E+03  0.12500000000E+03 0.  0.
        -11    1    3    3    0    0 -0.43202721097E+02 -0.27739654873E+02  0.24345119836E+02  0.56821196949E+02  0.51100000000E-03 0. -1.
         23    2    1    0    0    0 -0.85459823044E+01 -0.27195948887E+02  0.66952853905E+01  0.95717235516E+02  0.91127980768E+02 0.  0.
         11    1    3    3    0    0  0.34656738792E+02  0.54370598687E+00 -0.17649834446E+02  0.38896038566E+02  0.51100000000E-03 0.  1.
         22    1    1    0    0    0  0.85459823044E+01  0.27195948887E+02 -0.66952853905E+01  0.29282764484E+02  0.00000000000E+00 0. -1.
</event>
<event>
 5    1  0.1626333E-003  0.9118800E+02  0.7818608E-02  0.1130116E+00
         25   -1    0    0    0    0  0.00000000000E+00  0.00000000000E+00  0.99999998245E-14  0.12500000000E+03  0.12500000000E+03 0.  0.
        -11    1    3    3    0    0 -0.33551627186E+02 -0.10095110734E+02  0.43142212102E+02  0.55577634106E+02  0.51100000000E-03 0. -1.
         23    2    1    0    0    0 -0.12568940663E+02  0.15646562750E+02  0.23235278079E+02  0.94297046678E+02  0.89158632053E+02 0.  0.
         11    1    3    3    0    0  0.20982686523E+02  0.25741673484E+02 -0.19906934023E+02  0.38719412572E+02  0.51100000000E-03 0.  1.
         22    1    1    0    0    0  0.12568940663E+02 -0.15646562750E+02 -0.23235278079E+02  0.30702953322E+02  0.00000000000E+00 0. -1.
</event>
<event>
 5    1  0.1626333E-003  0.9118800E+02  0.7818608E-02  0.1130116E+00
         25   -1    0    0    0    0  0.00000000000E+00  0.00000000000E+00  0.99999998245E-14  0.12500000000E+03  0.12500000000E+03 0.  0.
        -11    1    3    3    0    0 -0.33522402077E+02  0.16110652740E+02  0.46185687257E+02  0.59299429006E+02  0.51100000000E-03 0. -1.
         23    2    1    0    0    0 -0.14943751922E+02 -0.72818169169E+01  0.13447278679E+02  0.10361846865E+03  0.10138844689E+03 0.  0.
         11    1    3    3    0    0  0.18578650156E+02 -0.23392469657E+02 -0.32738408578E+02  0.44319039641E+02  0.51100000000E-03 0.  1.
         22    1    1    0    0    0  0.14943751922E+02  0.72818169169E+01 -0.13447278679E+02  0.21381531353E+02  0.00000000000E+00 0. -1.
</event>
<event>
 5    1  0.1626333E-003  0.9118800E+02  0.7818608E-02  0.1130116E+00
         25   -1    0    0    0    0  0.00000000000E+00  0.00000000000E+00  0.99999998245E-14  0.12500000000E+03  0.12500000000E+03 0.  0.
        -11    1    3    3    0    0  0.40190917748E+02 -0.33341956604E+02 -0.10447194564E+02  0.53255420514E+02  0.51100000000E-03 0.  1.
         23    2    1    0    0    0  0.12129710819E+02 -0.62455161976E+01 -0.26307842518E+02  0.95364903660E+02  0.90643399732E+02 0.  0.
         11    1    3    3    0    0 -0.28061206928E+02  0.27096440407E+02 -0.15860647954E+02  0.42109483146E+02  0.51100000000E-03 0. -1.
         22    1    1    0    0    0 -0.12129710819E+02  0.62455161976E+01  0.26307842518E+02  0.29635096340E+02  0.00000000000E+00 0.  1.
</event>
<event>
 5    1  0.1626333E-003  0.9118800E+02  0.7818608E-02  0.1130116E+00
         25   -1    0    0    0    0  0.00000000000E+00  0.00000000000E+00  0.99999998245E-14  0.12500000000E+03  0.12500000000E+03 0.  0.
        -11    1    3    3    0    0 -0.25245402234E+02 -0.33191306463E+02  0.25677089317E+02  0.48972503252E+02  0.51100000000E-03 0.  1.
         23    2    1    0    0    0 -0.24477887781E+02 -0.81575728204E+01 -0.13811963910E+02  0.95734263523E+02  0.91151335046E+02 0.  0.
         11    1    3    3    0    0  0.76751445338E+00  0.25033733643E+02 -0.39489053227E+02  0.46761760271E+02  0.51100000000E-03 0. -1.
         22    1    1    0    0    0  0.24477887781E+02  0.81575728204E+01  0.13811963910E+02  0.29265736477E+02  0.00000000000E+00 0. -1.
</event>
<event>
 5    1  0.1626333E-003  0.9118800E+02  0.7818608E-02  0.1130116E+00
         25   -1    0    0    0    0  0.00000000000E+00  0.00000000000E+00  0.99999998245E-14  0.12500000000E+03  0.12500000000E+03 0.  0.
        -11    1    3    3    0    0  0.88869416334E+01  0.24140598875E+02  0.30052427075E+02  0.39558748956E+02  0.51100000000E-03 0. -1.
         23    2    1    0    0    0  0.23693285445E+00 -0.27376205450E+02  0.64946735580E+01  0.96862950641E+02  0.92686232312E+02 0.  0.
         11    1    3    3    0    0 -0.86500087790E+01 -0.51516804324E+02 -0.23557753517E+02  0.57304201685E+02  0.51100000000E-03 0.  1.
         22    1    1    0    0    0 -0.23693285445E+00  0.27376205450E+02 -0.64946735580E+01  0.28137049359E+02  0.00000000000E+00 0. -1.
</event>
<event>
 5    1  0.1626333E-003  0.9118800E+02  0.7818608E-02  0.1130116E+00
         25   -1    0    0    0    0  0.00000000000E+00  0.00000000000E+00  0.99999998245E-14  0.12500000000E+03  0.12500000000E+03 0.  0.
        -11    1    3    3    0    0 -0.10733277096E+02  0.38578007817E+02 -0.37593858919E+02  0.54925077634E+02  0.51100000000E-03 0. -1.
         23    2    1    0    0    0  0.16741695473E+02  0.19051588312E+02 -0.14486181893E+02  0.95792178268E+02  0.91230721618E+02 0.  0.
         11    1    3    3    0    0  0.27474972570E+02 -0.19526419505E+02  0.23107677027E+02  0.40867100634E+02  0.51100000000E-03 0.  1.
         22    1    1    0    0    0 -0.16741695473E+02 -0.19051588312E+02  0.14486181893E+02  0.29207821732E+02  0.00000000000E+00 0. -1.
</event>
<event>
 5    1  0.1626333E-003  0.9118800E+02  0.7818608E-02  0.1130116E+00
         25   -1    0    0    0    0  0.00000000000E+00  0.00000000000E+00  0.99999998245E-14  0.12500000000E+03  0.12500000000E+03 0.  0.
        -11    1    3    3    0    0  0.14080568593E+02 -0.28820230084E+02 -0.20424180205E+02  0.38026506693E+02  0.51100000000E-03 0. -1.
         23    2    1    0    0    0 -0.14369074030E+01 -0.39883853557E+01  0.29117954993E+02  0.95575057797E+02  0.90932746848E+02 0.  0.
         11    1    3    3    0    0 -0.15517475996E+02  0.24831844728E+02  0.49542135199E+02  0.57548551104E+02  0.51100000000E-03 0.  1.
         22    1    1    0    0    0  0.14369074030E+01  0.39883853557E+01 -0.29117954993E+02  0.29424942203E+02  0.00000000000E+00 0.  1.
</event>
<event>
 5    1  0.1626333E-003  0.9118800E+02  0.7818608E-02  0.1130116E+00
         25   -1    0    0    0    0  0.00000000000E+00  0.00000000000E+00  0.99999998245E-14  0.12500000000E+03  0.12500000000E+03 0.  0.
        -11    1    3    3    0    0 -0.34661257394E+02 -0.34608327085E+02  0.60441849528E+01  0.49352520095E+02  0.51100000000E-03 0.  1.
         23    2    1    0    0    0 -0.33235229873E+01 -0.33206522564E+01  0.26467953766E+02  0.98118312682E+02  0.94364072457E+02 0.  0.
         11    1    3    3    0    0  0.31337734406E+02  0.31287674828E+02  0.20423768814E+02  0.48765792588E+02  0.51100000000E-03 0. -1.
         22    1    1    0    0    0  0.33235229873E+01  0.33206522564E+01 -0.26467953766E+02  0.26881687318E+02  0.00000000000E+00 0. -1.
</event>
<event>
 5    1  0.1626333E-003  0.9118800E+02  0.7818608E-02  0.1130116E+00
         25   -1    0    0    0    0  0.00000000000E+00  0.00000000000E+00  0.99999998245E-14  0.12500000000E+03  0.12500000000E+03 0.  0.
        -11    1    3    3    0    0  0.29906696646E+02 -0.26407992820E+02  0.16458671833E+02  0.43158782047E+02  0.51100000000E-03 0. -1.
         23    2    1    0    0    0  0.24031120718E+02  0.13641433385E+02 -0.14195190534E+02  0.93934152159E+02  0.88648395585E+02 0.  0.
         11    1    3    3    0    0 -0.58755759274E+01  0.40049426205E+02 -0.30653862366E+02  0.50775370112E+02  0.51100000000E-03 0.  1.
         22    1    1    0    0    0 -0.24031120718E+02 -0.13641433385E+02  0.14195190534E+02  0.31065847841E+02  0.00000000000E+00 0.  1.
</event>
<event>
 5    1  0.1626333E-003  0.9118800E+02  0.7818608E-02  0.1130116E+00
         25   -1    0    0    0    0  0.00000000000E+00  0.00000000000E+00  0.99999998245E-14  0.12500000000E+03  0.12500000000E+03 0.  0.
        -11    1    3    3    0    0 -0.10459818775E+02 -0.55032352683E+02 -0.26148907472E+02  0.61820166717E+02  0.51100000000E-03 0.  1.
         23    2    1    0    0    0 -0.24961741193E+00 -0.27321821740E+02 -0.78100215893E+01  0.96582739589E+02  0.92307556014E+02 0.  0.
         11    1    3    3    0    0  0.10210201363E+02  0.27710530943E+02  0.18338885883E+02  0.34762572872E+02  0.51100000000E-03 0. -1.
         22    1    1    0    0    0  0.24961741193E+00  0.27321821740E+02  0.78100215893E+01  0.28417260411E+02  0.00000000000E+00 0.  1.
</event>
<event>
 5    1  0.1626333E-003  0.9118800E+02  0.7818608E-02  0.1130116E+00
         25   -1    0    0    0    0  0.00000000000E+00  0.00000000000E+00  0.99999998245E-14  0.12500000000E+03  0.12500000000E+03 0.  0.
        -11    1    3    3    0    0  0.42036960370E+01  0.38754733245E+02 -0.93766464354E+01  0.40093913601E+02  0.51100000000E-03 0.  1.
         23    2    1    0    0    0  0.10661596500E+02 -0.42611110169E+01  0.26268876609E+02  0.96331540234E+02  0.91966760618E+02 0.  0.
         11    1    3    3    0    0  0.64579004632E+01 -0.43015844262E+02  0.35645523044E+02  0.56237626633E+02  0.51100000000E-03 0. -1.
         22    1    1    0    0    0 -0.10661596500E+02  0.42611110169E+01 -0.26268876609E+02  0.28668459766E+02  0.00000000000E+00 0. -1.
</event>
<event>
 5    1  0.1626333E-003  0.9118800E+02  0.7818608E-02  0.1130116E+00
         25   -1    0    0    0    0  0.00000000000E+00  0.00000000000E+00  0.99999998245E-14  0.12500000000E+03  0.12500000000E+03 0.  0.
        -11    1    3    3    0    0 -0.92181726498E+01 -0.36939673374E+02  0.24042644829E+02  0.45028468179E+02  0.51100000000E-03 0.  1.
         23    2    1    0    0    0 -0.76918168244E+01  0.15427471256E+02  0.21449223321E+02  0.97482004134E+02  0.93517383590E+02 0.  0.
         11    1    3    3    0    0  0.15263558254E+01  0.52367144630E+02 -0.25934215075E+01  0.52453535955E+02  0.51100000000E-03 0. -1.
         22    1    1    0    0    0  0.76918168244E+01 -0.15427471256E+02 -0.21449223321E+02  0.27517995866E+02  0.00000000000E+00 0. -1.
</event>
<event>
 5    1  0.1626333E-003  0.9118800E+02  0.7818608E-02  0.1130116E+00
         25   -1    0    0    0    0  0.00000000000E+00  0.00000000000E+00  0.99999998245E-14  0.12500000000E+03  0.12500000000E+03 0.  0.
        -11    1    3    3    0    0 -0.35661589876E+02  0.14119015043E+02 -0.18868576151E+02  0.42744809562E+02  0.51100000000E-03 0.  1.
         23    2    1    0    0    0 -0.21959374721E+02 -0.20100248925E+02  0.13973504552E+02  0.92113939511E+02  0.86043505727E+02 0.  0.
         11    1    3    3    0    0  0.13702215155E+02 -0.34219263969E+02  0.32842080703E+02  0.49369129949E+02  0.51100000000E-03 0. -1.
         22    1    1    0    0    0  0.21959374721E+02  0.20100248925E+02 -0.13973504552E+02  0.32886060489E+02  0.00000000000E+00 0.  1.
</event>
<event>
 5    1  0.1626333E-003  0.9118800E+02  0.7818608E-02  0.1130116E+00
         25   -1    0    0    0    0  0.00000000000E+00  0.00000000000E+00  0.99999998245E-14  0.12500000000E+03  0.12500000000E+03 0.  0.
        -11    1    3    3    0    0 -0.24738633792E+02  0.48135741555E+02  0.19358221142E+01  0.54155304675E+02  0.51100000000E-03 0. -1.
         23    2    1    0    0    0  0.13794861193E+01  0.22465519376E+02  0.19910094961E+02  0.94949801596E+02  0.90069142324E+02 0.  0.
         11    1    3    3    0    0  0.26118119912E+02 -0.25670222179E+02  0.17974272847E+02  0.40794496921E+02  0.51100000000E-03 0.  1.
         22    1    1    0    0    0 -0.13794861193E+01 -0.22465519376E+02 -0.19910094961E+02  0.30050198404E+02  0.00000000000E+00 0. -1.
</event>
<event>
 5    1  0.1626333E-003  0.9118800E+02  0.7818608E-02  0.1130116E+00
         25   -1    0    0    0    0  0.00000000000E+00  0.00000000000E+00  0.99999998245E-14  0.12500000000E+03  0.12500000000E+03 0.  0.
        -11    1    3    3    0    0  0.37166603372E+02 -0.42569031020E+02  0.15669087098E+02  0.58642979963E+02  0.51100000000E-03 0. -1.
         23    2    1    0    0    0  0.49652081428E+01 -0.24150415792E+02  0.15756157992E+02  0.95739918156E+02  0.91159089174E+02 0.  0.
         11    1    3    3    0    0 -0.32201395230E+02  0.18418615228E+02  0.87070894487E-01  0.37096938193E+02  0.51100000000E-03 0.  1.
         22    1    1    0    0    0 -0.49652081428E+01  0.24150415792E+02 -0.15756157992E+02  0.29260081844E+02  0.00000000000E+00 0. -1.
</event>
<event>
 5    1  0.1626333E-003  0.9118800E+02  0.7818608E-02  0.1130116E+00
         25   -1    0    0    0    0  0.00000000000E+00  0.00000000000E+00  0.99999998245E-14  0.12500000000E+03  0.12500000000E+03 0.  0.
        -11    1    3    3    0    0  0.14912840342E+02  0.46038356014E+01 -0.31143879404E+02  0.34835747931E+02  0.51100000000E-03 0.  1.
         23    2    1    0    0    0 -0.13465979529E+02  0.21310602494E+02  0.18022306025E+02  0.94011648998E+02  0.88757603897E+02 0.  0.
         11    1    3    3    0    0 -0.28378819870E+02  0.16706766893E+02  0.49166185429E+02  0.59175901068E+02  0.51100000000E-03 0. -1.
         22    1    1    0    0    0  0.13465979529E+02 -0.21310602494E+02 -0.18022306025E+02  0.30988351002E+02  0.00000000000E+00 0. -1.
</event>
<event>
 5    1  0.1626333E-003  0.9118800E+02  0.7818608E-02  0.1130116E+00
         25   -1    0    0    0    0  0.00000000000E+00  0.00000000000E+00  0.99999998245E-14  0.12500000000E+03  0.12500000000E+03 0.  0.
        -11    1    3    3    0    0 -0.19789698295E+02  0.33624039104E+02 -0.23846689024E+02  0.45726061956E+02  0.51100000000E-03 0. -1.
         23    2    1    0    0    0 -0.47698402418E+00 -0.10160496278E+02 -0.29388965600E+02  0.93900570787E+02  0.88601031013E+02 0.  0.
         11    1    3    3    0    0  0.19312714271E+02 -0.43784535382E+02 -0.55422765753E+01  0.48174508831E+02  0.51100000000E-03 0.  1.
         22    1    1    0    0    0  0.47698402418E+00  0.10160496278E+02  0.29388965600E+02  0.31099429213E+02  0.00000000000E+00 0.  1.
</event>
<event>
 5    1  0.1626333E-003  0.9118800E+02  0.7818608E-02  0.1130116E+00
         25   -1    0    0    0    0  0.00000000000E+00  0.00000000000E+00  0.99999998245E-14  0.12500000000E+03  0.12500000000E+03 0.  0.
        -11    1    3    3    0    0 -0.40535281010E+02  0.20490462415E+02  0.42613536475E+02  0.62280667527E+02  0.51100000000E-03 0.  1.
         23    2    1    0    0    0 -0.16746398418E+02  0.93061529107E+01  0.22926548373E+02  0.95122366856E+02  0.90308314756E+02 0.  0.
         11    1    3    3    0    0  0.23788882592E+02 -0.11184309504E+02 -0.19686988101E+02  0.32841699329E+02  0.51100000000E-03 0. -1.
         22    1    1    0    0    0  0.16746398418E+02 -0.93061529107E+01 -0.22926548373E+02  0.29877633144E+02  0.00000000000E+00 0.  1.
</event>
<event>
 5    1  0.1626333E-003  0.9118800E+02  0.7818608E-02  0.1130116E+00
         25   -1    0    0    0    0  0.00000000000E+00  0.00000000000E+00  0.99999998245E-14  0.12500000000E+03  0.12500000000E+03 0.  0.
        -11    1    3    3    0    0 -0.14965055492E+02 -0.37480006841E+02  0.58632687754E+01  0.40780898956E+02  0.51100000000E-03 0.  1.
         23    2    1    0    0    0 -0.44247214820E+02 -0.13947109860E+02  0.47538626462E+01  0.78363779067E+02  0.62975747449E+02 0.  0.
         11    1    3    3    0    0 -0.29282159328E+02  0.23532896981E+02 -0.11094061292E+01  0.37582880111E+02  0.51100000000E-03 0. -1.
         22    1    1    0    0    0  0.44247214820E+02  0.13947109860E+02 -0.47538626462E+01  0.46636220933E+02  0.00000000000E+00 0. -1.
</event>
<event>
 5    1  0.1626333E-003  0.9118800E+02  0.7818608E-02  0.1130116E+00
         25   -1    0    0    0    0  0.00000000000E+00  0.00000000000E+00  0.99999998245E-14  0.12500000000E+03  0.12500000000E+03 0.  0.
        -11    1    3    3    0    0 -0.38817239300E+02 -0.41758624169E+02 -0.13640467001E+02  0.58622718290E+02  0.51100000000E-03 0.  1.
         23    2    1    0    0    0 -0.40246950488E+01 -0.26089354830E+02 -0.92298881048E+01  0.97034960395E+02  0.92917921301E+02 0.  0.
         11    1    3    3    0    0  0.34792544251E+02  0.15669269340E+02  0.44105788963E+01  0.38412242106E+02  0.51100000000E-03 0. -1.
         22    1    1    0    0    0  0.40246950488E+01  0.26089354830E+02  0.92298881048E+01  0.27965039605E+02  0.00000000000E+00 0.  1.
</event>
<event>
 5    1  0.1626333E-003  0.9118800E+02  0.7818608E-02  0.1130116E+00
         25   -1    0    0    0    0  0.00000000000E+00  0.00000000000E+00  0.99999998245E-14  0.12500000000E+03  0.12500000000E+03 0.  0.
        -11    1    3    3    0    0 -0.26057871189E+01 -0.34200772950E+02 -0.46404824172E+01  0.34612383249E+02  0.51100000000E-03 0. -1.
         23    2    1    0    0    0  0.30698032131E+01  0.26793672162E+02 -0.10299732186E+02  0.96131175243E+02  0.91694022765E+02 0.  0.
         11    1    3    3    0    0  0.56755903320E+01  0.60994445112E+02 -0.56592497691E+01  0.61518791994E+02  0.51100000000E-03 0.  1.
         22    1    1    0    0    0 -0.30698032131E+01 -0.26793672162E+02  0.10299732186E+02  0.28868824757E+02  0.00000000000E+00 0.  1.
</event>
<event>
 5    1  0.1626333E-003  0.9118800E+02  0.7818608E-02  0.1130116E+00
         25   -1    0    0    0    0  0.00000000000E+00  0.00000000000E+00  0.99999998245E-14  0.12500000000E+03  0.12500000000E+03 0.  0.
        -11    1    3    3    0    0  0.65515481322E+01 -0.23191302570E+02 -0.53260507617E+02  0.58458882727E+02  0.51100000000E-03 0.  1.
         23    2    1    0    0    0  0.13747600859E+02 -0.19011688865E+02 -0.16085754187E+02  0.96553693902E+02  0.92268214871E+02 0.  0.
         11    1    3    3    0    0  0.71960527271E+01  0.41796137054E+01  0.37174753430E+02  0.38094811175E+02  0.51100000000E-03 0. -1.
         22    1    1    0    0    0 -0.13747600859E+02  0.19011688865E+02  0.16085754187E+02  0.28446306098E+02  0.00000000000E+00 0.  1.
</event>
<event>
 5    1  0.1626333E-003  0.9118800E+02  0.7818608E-02  0.1130116E+00
         25   -1    0    0    0    0  0.00000000000E+00  0.00000000000E+00  0.99999998245E-14  0.12500000000E+03  0.12500000000E+03 0.  0.
        -11    1    3    3    0    0  0.31242041126E+02  0.20610737037E+02 -0.20407791436E+02  0.42630336223E+02  0.51100000000E-03 0. -1.
         23    2    1    0    0    0 -0.17599967092E+02  0.19510264150E+02  0.58311049447E+01  0.98085115016E+02  0.94320086694E+02 0.  0.
         11    1    3    3    0    0 -0.48842008219E+02 -0.11004728872E+01  0.26238896381E+02  0.55454778793E+02  0.51100000000E-03 0.  1.
         22    1    1    0    0    0  0.17599967092E+02 -0.19510264150E+02 -0.58311049447E+01  0.26914884984E+02  0.00000000000E+00 0. -1.
</event>
<event>
 5    1  0.1626333E-003  0.9118800E+02  0.7818608E-02  0.1130116E+00
         25   -1    0    0    0    0  0.00000000000E+00  0.00000000000E+00  0.99999998245E-14  0.12500000000E+03  0.12500000000E+03 0.  0.
        -11    1    3    3    0    0 -0.34691395696E+02  0.22327111149E+02  0.36529726523E+02  0.55103663651E+02  0.51100000000E-03 0.  1.
         23    2    1    0    0    0 -0.25530638987E+02 -0.80024154373E+01  0.99665879560E+01  0.96448554233E+02  0.92125667206E+02 0.  0.
         11    1    3    3    0    0  0.91607567093E+01 -0.30329526586E+02 -0.26563138567E+02  0.41344890582E+02  0.51100000000E-03 0. -1.
         22    1    1    0    0    0  0.25530638987E+02  0.80024154373E+01 -0.99665879560E+01  0.28551445767E+02  0.00000000000E+00 0.  1.
</event>
<event>
 5    1  0.1626333E-003  0.9118800E+02  0.7818608E-02  0.1130116E+00
         25   -1    0    0    0    0  0.00000000000E+00  0.00000000000E+00  0.99999998245E-14  0.12500000000E+03  0.12500000000E+03 0.  0.
        -11    1    3    3    0    0  0.61199741085E+01 -0.34829112012E+02 -0.66199381993E+01  0.35977002497E+02  0.51100000000E-03 0.  1.
         23    2    1    0    0    0 -0.23979803420E+02  0.16515880559E+02  0.18740364566E+00  0.95882300866E+02  0.91354119866E+02 0.  0.
         11    1    3    3    0    0 -0.30099777529E+02  0.51344992571E+02  0.68073418450E+01  0.59905298369E+02  0.51100000000E-03 0. -1.
         22    1    1    0    0    0  0.23979803420E+02 -0.16515880559E+02 -0.18740364566E+00  0.29117699134E+02  0.00000000000E+00 0. -1.
</event>
<event>
 5    1  0.1626333E-003  0.9118800E+02  0.7818608E-02  0.1130116E+00
         25   -1    0    0    0    0  0.00000000000E+00  0.00000000000E+00  0.99999998245E-14  0.12500000000E+03  0.12500000000E+03 0.  0.
        -11    1    3    3    0    0  0.28821465491E+02  0.25795348136E+02  0.40997475245E+02  0.56363728011E+02  0.51100000000E-03 0. -1.
         23    2    1    0    0    0  0.27635542060E+02  0.39420701465E+01  0.79968546740E+01  0.95961873568E+02  0.91462934526E+02 0.  0.
         11    1    3    3    0    0 -0.11859234311E+01 -0.21853277989E+02 -0.33000620571E+02  0.39598145558E+02  0.51100000000E-03 0.  1.
         22    1    1    0    0    0 -0.27635542060E+02 -0.39420701465E+01 -0.79968546740E+01  0.29038126432E+02  0.00000000000E+00 0. -1.
</event>
<event>
 5    1  0.1626333E-003  0.9118800E+02  0.7818608E-02  0.1130116E+00
         25   -1    0    0    0    0  0.00000000000E+00  0.00000000000E+00  0.99999998245E-14  0.12500000000E+03  0.12500000000E+03 0.  0.
        -11    1    3    3    0    0 -0.18216503044E+02  0.72782853605E+01 -0.53483467008E+02  0.56967496561E+02  0.51100000000E-03 0.  1.
         23    2    1    0    0    0 -0.65829088604E+01  0.18860251632E+02 -0.11724204120E+02  0.10183751432E+03  0.99168435399E+02 0.  0.
         11    1    3    3    0    0  0.11633594184E+02  0.11581966272E+02  0.41759262888E+02  0.44870017757E+02  0.51100000000E-03 0. -1.
         22    1    1    0    0    0  0.65829088604E+01 -0.18860251632E+02  0.11724204120E+02  0.23162485682E+02  0.00000000000E+00 0.  1.
</event>
<event>
 5    1  0.1626333E-003  0.9118800E+02  0.7818608E-02  0.1130116E+00
         25   -1    0    0    0    0  0.00000000000E+00  0.00000000000E+00  0.99999998245E-14  0.12500000000E+03  0.12500000000E+03 0.  0.
        -11    1    3    3    0    0 -0.25966264985E+01 -0.38089677427E+02  0.38105454913E+02  0.53940631161E+02  0.51100000000E-03 0.  1.
         23    2    1    0    0    0 -0.21624533033E+02 -0.61745108314E+01  0.18042521859E+02  0.96168114735E+02  0.91744365951E+02 0.  0.
         11    1    3    3    0    0 -0.19027906535E+02  0.31915166596E+02 -0.20062933054E+02  0.42227483573E+02  0.51100000000E-03 0. -1.
         22    1    1    0    0    0  0.21624533033E+02  0.61745108314E+01 -0.18042521859E+02  0.28831885265E+02  0.00000000000E+00 0.  1.
</event>
<event>
 5    1  0.1626333E-003  0.9118800E+02  0.7818608E-02  0.1130116E+00
         25   -1    0    0    0    0  0.00000000000E+00  0.00000000000E+00  0.99999998245E-14  0.12500000000E+03  0.12500000000E+03 0.  0.
        -11    1    3    3    0    0  0.30100705149E+02 -0.21733154367E+02 -0.43325030284E+02  0.57056469384E+02  0.51100000000E-03 0. -1.
         23    2    1    0    0    0  0.10824888833E+02 -0.25314366645E+02 -0.10023995246E+02  0.95700241339E+02  0.91104666921E+02 0.  0.
         11    1    3    3    0    0 -0.19275816316E+02 -0.35812122784E+01  0.33301035038E+02  0.38643771955E+02  0.51100000000E-03 0.  1.
         22    1    1    0    0    0 -0.10824888833E+02  0.25314366645E+02  0.10023995246E+02  0.29299758661E+02  0.00000000000E+00 0.  1.
</event>
<event>
 5    1  0.1626333E-003  0.9118800E+02  0.7818608E-02  0.1130116E+00
         25   -1    0    0    0    0  0.00000000000E+00  0.00000000000E+00  0.99999998245E-14  0.12500000000E+03  0.12500000000E+03 0.  0.
        -11    1    3    3    0    0  0.27979454556E+02 -0.14827320993E+02 -0.13587665108E+02  0.34457567651E+02  0.51100000000E-03 0.  1.
         23    2    1    0    0    0 -0.15430347127E+02  0.47876935092E+01  0.24640109384E+02  0.95535570393E+02  0.90878449581E+02 0.  0.
         11    1    3    3    0    0 -0.43409801683E+02  0.19615014502E+02  0.38227774492E+02  0.61078002742E+02  0.51100000000E-03 0. -1.
         22    1    1    0    0    0  0.15430347127E+02 -0.47876935092E+01 -0.24640109384E+02  0.29464429607E+02  0.00000000000E+00 0. -1.
</event>
<event>
 5    1  0.1626333E-003  0.9118800E+02  0.7818608E-02  0.1130116E+00
         25   -1    0    0    0    0  0.00000000000E+00  0.00000000000E+00  0.99999998245E-14  0.12500000000E+03  0.12500000000E+03 0.  0.
        -11    1    3    3    0    0  0.22320405824E+02  0.20066553681E+01 -0.28620766372E+02  0.36350728327E+02  0.51100000000E-03 0.  1.
         23    2    1    0    0    0 -0.23401065767E+02  0.30856778008E+01  0.12882696507E+02  0.98109571297E+02  0.94352492412E+02 0.  0.
         11    1    3    3    0    0 -0.45721471591E+02  0.10790224327E+01  0.41503462878E+02  0.61758842971E+02  0.51100000000E-03 0. -1.
         22    1    1    0    0    0  0.23401065767E+02 -0.30856778008E+01 -0.12882696507E+02  0.26890428703E+02  0.00000000000E+00 0. -1.
</event>
<event>
 5    1  0.1626333E-003  0.9118800E+02  0.7818608E-02  0.1130116E+00
         25   -1    0    0    0    0  0.00000000000E+00  0.00000000000E+00  0.99999998245E-14  0.12500000000E+03  0.12500000000E+03 0.  0.
        -11    1    3    3    0    0 -0.17654390040E+02  0.36007504957E+02  0.82668172741E+01  0.40945795498E+02  0.51100000000E-03 0.  1.
         23    2    1    0    0    0 -0.15942536063E+02 -0.16941794417E+02  0.18957172188E+02  0.94990614276E+02  0.90125765289E+02 0.  0.
         11    1    3    3    0    0  0.17118539767E+01 -0.52949299374E+02  0.10690354914E+02  0.54044818777E+02  0.51100000000E-03 0. -1.
         22    1    1    0    0    0  0.15942536063E+02  0.16941794417E+02 -0.18957172188E+02  0.30009385724E+02  0.00000000000E+00 0. -1.
</event>
<event>
 5    1  0.1626333E-003  0.9118800E+02  0.7818608E-02  0.1130116E+00
         25   -1    0    0    0    0  0.00000000000E+00  0.00000000000E+00  0.99999998245E-14  0.12500000000E+03  0.12500000000E+03 0.  0.
        -11    1    3    3    0    0 -0.17108231945E+02  0.47754278072E+00  0.29786287901E+02  0.34353203556E+02  0.51100000000E-03 0. -1.
         23    2    1    0    0    0  0.62960165067E+01 -0.19680437733E+01 -0.27729535515E+02  0.96496664054E+02  0.92190921535E+02 0.  0.
         11    1    3    3    0    0  0.23404248451E+02 -0.24455865540E+01 -0.57515823416E+02  0.62143460498E+02  0.51100000000E-03 0.  1.
         22    1    1    0    0    0 -0.62960165067E+01  0.19680437733E+01  0.27729535515E+02  0.28503335946E+02  0.00000000000E+00 0.  1.
</event>
<event>
 5    1  0.1626333E-003  0.9118800E+02  0.7818608E-02  0.1130116E+00
         25   -1    0    0    0    0  0.00000000000E+00  0.00000000000E+00  0.99999998245E-14  0.12500000000E+03  0.12500000000E+03 0.  0.
        -11    1    3    3    0    0 -0.41380333881E+02  0.36242486003E+02  0.48431146572E+01  0.55220517777E+02  0.51100000000E-03 0. -1.
         23    2    1    0    0    0 -0.24060601806E+02  0.94899748461E+01 -0.17171457012E+02  0.93954370392E+02  0.88676900025E+02 0.  0.
         11    1    3    3    0    0  0.17319732074E+02 -0.26752511157E+02 -0.22014571669E+02  0.38733852614E+02  0.51100000000E-03 0.  1.
         22    1    1    0    0    0  0.24060601806E+02 -0.94899748461E+01  0.17171457012E+02  0.31045629608E+02  0.00000000000E+00 0. -1.
</event>
<event>
 5    1  0.1626333E-003  0.9118800E+02  0.7818608E-02  0.1130116E+00
         25   -1    0    0    0    0  0.00000000000E+00  0.00000000000E+00  0.99999998245E-14  0.12500000000E+03  0.12500000000E+03 0.  0.
        -11    1    3    3    0    0  0.22498294315E+02  0.37651061919E+02  0.16329657319E+02  0.46802066399E+02  0.51100000000E-03 0. -1.
         23    2    1    0    0    0  0.11253583925E+02  0.11814894085E+02 -0.23987101316E+02  0.95989382927E+02  0.91500523122E+02 0.  0.
         11    1    3    3    0    0 -0.11244710390E+02 -0.25836167834E+02 -0.40316758636E+02  0.49187316528E+02  0.51100000000E-03 0.  1.
         22    1    1    0    0    0 -0.11253583925E+02 -0.11814894085E+02  0.23987101316E+02  0.29010617073E+02  0.00000000000E+00 0.  1.
</event>
<event>
 5    1  0.1626333E-003  0.9118800E+02  0.7818608E-02  0.1130116E+00
         25   -1    0    0    0    0  0.00000000000E+00  0.00000000000E+00  0.99999998245E-14  0.12500000000E+03  0.12500000000E+03 0.  0.
        -11    1    3    3    0    0 -0.46562936155E+02  0.17001422415E+02  0.22372543701E+02  0.54384612708E+02  0.51100000000E-03 0. -1.
         23    2    1    0    0    0 -0.27696227631E+02 -0.13209830660E+01 -0.94846703899E+01  0.95694966411E+02  0.91097429177E+02 0.  0.
         11    1    3    3    0    0  0.18866708523E+02 -0.18322405481E+02 -0.31857214091E+02  0.41310353702E+02  0.51100000000E-03 0.  1.
         22    1    1    0    0    0  0.27696227631E+02  0.13209830660E+01  0.94846703899E+01  0.29305033589E+02  0.00000000000E+00 0. -1.
</event>
<event>
 5    1  0.1626333E-003  0.9118800E+02  0.7818608E-02  0.1130116E+00
         25   -1    0    0    0    0  0.00000000000E+00  0.00000000000E+00  0.99999998245E-14  0.12500000000E+03  0.12500000000E+03 0.  0.
        -11    1    3    3    0    0 -0.30112383468E+02  0.48381590961E+02 -0.24849544237E+02  0.62169396258E+02  0.51100000000E-03 0.  1.
         23    2    1    0    0    0 -0.16412657473E+02  0.22603788832E+02 -0.77083644559E+01  0.96021982858E+02  0.91545047460E+02 0.  0.
         11    1    3    3    0    0  0.13699725995E+02 -0.25777802129E+02  0.17141179781E+02  0.33852586600E+02  0.51100000000E-03 0. -1.
         22    1    1    0    0    0  0.16412657473E+02 -0.22603788832E+02  0.77083644559E+01  0.28978017142E+02  0.00000000000E+00 0.  1.
</event>
<event>
 5    1  0.1626333E-003  0.9118800E+02  0.7818608E-02  0.1130116E+00
         25   -1    0    0    0    0  0.00000000000E+00  0.00000000000E+00  0.99999998245E-14  0.12500000000E+03  0.12500000000E+03 0.  0.
        -11    1    3    3    0    0  0.18429242659E+02  0.24850405652E+02  0.25705168885E+02  0.40223567143E+02  0.51100000000E-03 0.  1.
         23    2    1    0    0    0 -0.20456438960E+02 -0.13938502644E+02  0.14606824075E+02  0.96257921780E+02  0.91866644898E+02 0.  0.
         11    1    3    3    0    0 -0.38885681619E+02 -0.38788908295E+02 -0.11098344810E+02  0.56034354636E+02  0.51100000000E-03 0. -1.
         22    1    1    0    0    0  0.20456438960E+02  0.13938502644E+02 -0.14606824075E+02  0.28742078220E+02  0.00000000000E+00 0. -1.
</event>
<event>
 5    1  0.1626333E-003  0.9118800E+02  0.7818608E-02  0.1130116E+00
         25   -1    0    0    0    0  0.00000000000E+00  0.00000000000E+00  0.99999998245E-14  0.12500000000E+03  0.12500000000E+03 0.  0.
        -11    1    3    3    0    0  0.13330666763E+02 -0.34473028907E+02  0.80618525678E+01  0.37829748419E+02  0.51100000000E-03 0.  1.
         23    2    1    0    0    0  0.18377337130E+02  0.15679633401E+02 -0.18281967848E+02  0.94704657586E+02  0.89728280918E+02 0.  0.
         11    1    3    3    0    0  0.50466703671E+01  0.50152662308E+02 -0.26343820415E+02  0.56874909167E+02  0.51100000000E-03 0. -1.
         22    1    1    0    0    0 -0.18377337130E+02 -0.15679633401E+02  0.18281967848E+02  0.30295342414E+02  0.00000000000E+00 0. -1.
</event>
<event>
 5    1  0.1626333E-003  0.9118800E+02  0.7818608E-02  0.1130116E+00
         25   -1    0    0    0    0  0.00000000000E+00  0.00000000000E+00  0.99999998245E-14  0.12500000000E+03  0.12500000000E+03 0.  0.
        -11    1    3    3    0    0 -0.14440611584E+02  0.29919448138E+02 -0.24991940109E+02  0.41572848236E+02  0.51100000000E-03 0.  1.
         23    2    1    0    0    0  0.10880132819E+02  0.15318204910E+02  0.21473426244E+02  0.96466988829E+02  0.92150676651E+02 0.  0.
         11    1    3    3    0    0  0.25320744403E+02 -0.14601243228E+02  0.46465366353E+02  0.54894140593E+02  0.51100000000E-03 0. -1.
         22    1    1    0    0    0 -0.10880132819E+02 -0.15318204910E+02 -0.21473426244E+02  0.28533011171E+02  0.00000000000E+00 0. -1.
</event>
<event>
 5    1  0.1626333E-003  0.9118800E+02  0.7818608E-02  0.1130116E+00
         25   -1    0    0    0    0  0.00000000000E+00  0.00000000000E+00  0.99999998245E-14  0.12500000000E+03  0.12500000000E+03 0.  0.
        -11    1    3    3    0    0  0.41898490051E+01 -0.53835646725E+02  0.26952971758E+02  0.60351424008E+02  0.51100000000E-03 0. -1.
         23    2    1    0    0    0 -0.80876857166E+01 -0.28425299263E+02  0.78771849136E+01  0.94414736545E+02  0.89323480318E+02 0.  0.
         11    1    3    3    0    0 -0.12277534722E+02  0.25410347462E+02 -0.19075786844E+02  0.34063312536E+02  0.51100000000E-03 0.  1.
         22    1    1    0    0    0  0.80876857166E+01  0.28425299263E+02 -0.78771849136E+01  0.30585263455E+02  0.00000000000E+00 0. -1.
</event>
<event>
 5    1  0.1626333E-003  0.9118800E+02  0.7818608E-02  0.1130116E+00
         25   -1    0    0    0    0  0.00000000000E+00  0.00000000000E+00  0.99999998245E-14  0.12500000000E+03  0.12500000000E+03 0.  0.
        -11    1    3    3    0    0 -0.42975622739E+01  0.95948172486E+01  0.42916435503E+02  0.44185404786E+02  0.51100000000E-03 0. -1.
         23    2    1    0    0    0  0.26194238152E+02 -0.11038517407E+02  0.67713890700E+01  0.95779481715E+02  0.91213323746E+02 0.  0.
         11    1    3    3    0    0  0.30491800426E+02 -0.20633334656E+02 -0.36145046433E+02  0.51594076929E+02  0.51100000000E-03 0.  1.
         22    1    1    0    0    0 -0.26194238152E+02  0.11038517407E+02 -0.67713890700E+01  0.29220518285E+02  0.00000000000E+00 0. -1.
</event>
<event>
 5    1  0.1626333E-003  0.9118800E+02  0.7818608E-02  0.1130116E+00
         25   -1    0    0    0    0  0.00000000000E+00  0.00000000000E+00  0.99999998245E-14  0.12500000000E+03  0.12500000000E+03 0.  0.
        -11    1    3    3    0    0  0.14185447671E+02 -0.14761329332E+02 -0.24518548732E+02  0.31941869098E+02  0.51100000000E-03 0. -1.
         23    2    1    0    0    0 -0.81932034069E+01  0.23643041909E+02  0.18563832019E+02  0.93843333426E+02  0.88520242637E+02 0.  0.
         11    1    3    3    0    0 -0.22378651078E+02  0.38404371242E+02  0.43082380751E+02  0.61901464328E+02  0.51100000000E-03 0.  1.
         22    1    1    0    0    0  0.81932034069E+01 -0.23643041909E+02 -0.18563832019E+02  0.31156666574E+02  0.00000000000E+00 0.  1.
</event>
<event>
 5    1  0.1626333E-003  0.9118800E+02  0.7818608E-02  0.1130116E+00
         25   -1    0    0    0    0  0.00000000000E+00  0.00000000000E+00  0.99999998245E-14  0.12500000000E+03  0.12500000000E+03 0.  0.
        -11    1    3    3    0    0  0.53457875765E+02 -0.39201119902E+01  0.15077985775E+02  0.55681751182E+02  0.51100000000E-03 0.  1.
         23    2    1    0    0    0  0.14941235694E+02 -0.16218568373E+02  0.18440745759E+02  0.96253807412E+02  0.91861046440E+02 0.  0.
         11    1    3    3    0    0 -0.38516640072E+02 -0.12298456383E+02  0.33627599848E+01  0.40572056231E+02  0.51100000000E-03 0. -1.
         22    1    1    0    0    0 -0.14941235694E+02  0.16218568373E+02 -0.18440745759E+02  0.28746192588E+02  0.00000000000E+00 0.  1.
</event>
<event>
 5    1  0.1626333E-003  0.9118800E+02  0.7818608E-02  0.1130116E+00
         25   -1    0    0    0    0  0.00000000000E+00  0.00000000000E+00  0.99999998245E-14  0.12500000000E+03  0.12500000000E+03 0.  0.
        -11    1    3    3    0    0 -0.27182081218E+02  0.31281284238E+02  0.44345648621E+02  0.60695311473E+02  0.51100000000E-03 0.  1.
         23    2    1    0    0    0 -0.85978453789E+01  0.22153228465E+02  0.14038281154E+02  0.97399967131E+02  0.93407664476E+02 0.  0.
         11    1    3    3    0    0  0.18584235839E+02 -0.91280557730E+01 -0.30307367467E+02  0.36704655658E+02  0.51100000000E-03 0. -1.
         22    1    1    0    0    0  0.85978453789E+01 -0.22153228465E+02 -0.14038281154E+02  0.27600032869E+02  0.00000000000E+00 0.  1.
</event>
<event>
 5    1  0.1626333E-003  0.9118800E+02  0.7818608E-02  0.1130116E+00
         25   -1    0    0    0    0  0.00000000000E+00  0.00000000000E+00  0.99999998245E-14  0.12500000000E+03  0.12500000000E+03 0.  0.
        -11    1    3    3    0    0 -0.16341416215E+02 -0.49324852189E+02  0.58024581476E+01  0.52284332723E+02  0.51100000000E-03 0. -1.
         23    2    1    0    0    0 -0.18012644564E+02 -0.10775326313E+02  0.22412773472E+02  0.94293397518E+02  0.89153515800E+02 0.  0.
         11    1    3    3    0    0 -0.16712283483E+01  0.38549525877E+02  0.16610315324E+02  0.42009064795E+02  0.51100000000E-03 0.  1.
         22    1    1    0    0    0  0.18012644564E+02  0.10775326313E+02 -0.22412773472E+02  0.30706602482E+02  0.00000000000E+00 0. -1.
</event>
<event>
 5    1  0.1626333E-003  0.9118800E+02  0.7818608E-02  0.1130116E+00
         25   -1    0    0    0    0  0.00000000000E+00  0.00000000000E+00  0.99999998245E-14  0.12500000000E+03  0.12500000000E+03 0.  0.
        -11    1    3    3    0    0  0.37838445856E+02 -0.12287437839E+02  0.84225619377E+01  0.40665325073E+02  0.51100000000E-03 0.  1.
         23    2    1    0    0    0 -0.14893126679E+02 -0.79615938645E+01  0.23849178818E+02  0.95777140293E+02  0.91210114972E+02 0.  0.
         11    1    3    3    0    0 -0.52731572536E+02  0.43258439742E+01  0.15426616881E+02  0.55111815220E+02  0.51100000000E-03 0. -1.
         22    1    1    0    0    0  0.14893126679E+02  0.79615938645E+01 -0.23849178818E+02  0.29222859707E+02  0.00000000000E+00 0. -1.
</event>
<event>
 5    1  0.1626333E-003  0.9118800E+02  0.7818608E-02  0.1130116E+00
         25   -1    0    0    0    0  0.00000000000E+00  0.00000000000E+00  0.99999998245E-14  0.12500000000E+03  0.12500000000E+03 0.  0.
        -11    1    3    3    0    0 -0.39211536932E+02 -0.21222542437E+02 -0.53560490865E+01  0.44906883639E+02  0.51100000000E-03 0.  1.
         23    2    1    0    0    0 -0.11553542734E+02  0.22521536239E+02 -0.11821403029E+02  0.97063473483E+02  0.92956271283E+02 0.  0.
         11    1    3    3    0    0  0.27657994198E+02  0.43744078676E+02 -0.64653539424E+01  0.52156589844E+02  0.51100000000E-03 0. -1.
         22    1    1    0    0    0  0.11553542734E+02 -0.22521536239E+02  0.11821403029E+02  0.27936526517E+02  0.00000000000E+00 0.  1.
</event>
<event>
 5    1  0.1626333E-003  0.9118800E+02  0.7818608E-02  0.1130116E+00
         25   -1    0    0    0    0  0.00000000000E+00  0.00000000000E+00  0.99999998245E-14  0.12500000000E+03  0.12500000000E+03 0.  0.
        -11    1    3    3    0    0 -0.32118705490E+02 -0.99128250191E+01 -0.71368259161E+01  0.34362910625E+02  0.51100000000E-03 0. -1.
         23    2    1    0    0    0  0.24644599101E+02  0.14428709751E+02 -0.34411405343E+01  0.96235692636E+02  0.91836393435E+02 0.  0.
         11    1    3    3    0    0  0.56763304591E+02  0.24341534771E+02  0.36956853818E+01  0.61872782011E+02  0.51100000000E-03 0.  1.
         22    1    1    0    0    0 -0.24644599101E+02 -0.14428709751E+02  0.34411405343E+01  0.28764307364E+02  0.00000000000E+00 0.  1.
</event>
<event>
 5    1  0.1626333E-003  0.9118800E+02  0.7818608E-02  0.1130116E+00
         25   -1    0    0    0    0  0.00000000000E+00  0.00000000000E+00  0.99999998245E-14  0.12500000000E+03  0.12500000000E+03 0.  0.
        -11    1    3    3    0    0  0.42266292812E+02  0.81193530538E+01 -0.17368616592E+02  0.46411552923E+02  0.51100000000E-03 0. -1.
         23    2    1    0    0    0 -0.41925372316E+01  0.25467038599E+02 -0.12734367704E+02  0.96219597914E+02  0.91814484034E+02 0.  0.
         11    1    3    3    0    0 -0.46458830044E+02  0.17347685545E+02  0.46342488880E+01  0.49808044991E+02  0.51100000000E-03 0.  1.
         22    1    1    0    0    0  0.41925372316E+01 -0.25467038599E+02  0.12734367704E+02  0.28780402086E+02  0.00000000000E+00 0. -1.
</event>
<event>
 5    1  0.1626333E-003  0.9118800E+02  0.7818608E-02  0.1130116E+00
         25   -1    0    0    0    0  0.00000000000E+00  0.00000000000E+00  0.99999998245E-14  0.12500000000E+03  0.12500000000E+03 0.  0.
        -11    1    3    3    0    0  0.32312126710E+01  0.22543541962E+02 -0.31530681666E+02  0.38895191298E+02  0.51100000000E-03 0.  1.
         23    2    1    0    0    0  0.23581977717E+02 -0.10291294033E+01  0.16543954972E+02  0.96175163028E+02  0.91753968617E+02 0.  0.
         11    1    3    3    0    0  0.20350765046E+02 -0.23572671366E+02  0.48074636638E+02  0.57279971730E+02  0.51100000000E-03 0. -1.
         22    1    1    0    0    0 -0.23581977717E+02  0.10291294033E+01 -0.16543954972E+02  0.28824836972E+02  0.00000000000E+00 0. -1.
</event>
<event>
 5    1  0.1626333E-003  0.9118800E+02  0.7818608E-02  0.1130116E+00
         25   -1    0    0    0    0  0.00000000000E+00  0.00000000000E+00  0.99999998245E-14  0.12500000000E+03  0.12500000000E+03 0.  0.
        -11    1    3    3    0    0  0.17661526492E+02  0.40926256278E+02 -0.29743810624E+00  0.44575513914E+02  0.51100000000E-03 0. -1.
         23    2    1    0    0    0 -0.10678530657E+02  0.34871114731E+01 -0.24970551599E+02  0.97618995443E+02  0.93700314090E+02 0.  0.
         11    1    3    3    0    0 -0.28340057149E+02 -0.37439144805E+02 -0.24673113493E+02  0.53043481528E+02  0.51100000000E-03 0.  1.
         22    1    1    0    0    0  0.10678530657E+02 -0.34871114731E+01  0.24970551599E+02  0.27381004557E+02  0.00000000000E+00 0.  1.
</event>
<event>
 5    1  0.1626333E-003  0.9118800E+02  0.7818608E-02  0.1130116E+00
         25   -1    0    0    0    0  0.00000000000E+00  0.00000000000E+00  0.99999998245E-14  0.12500000000E+03  0.12500000000E+03 0.  0.
        -11    1    3    3    0    0 -0.16973274016E+01 -0.37271479050E+02 -0.48666852001E+02  0.61322969227E+02  0.51100000000E-03 0. -1.
         23    2    1    0    0    0  0.42953352435E+01 -0.22434944274E+02 -0.17983324829E+02  0.95928078816E+02  0.91416736454E+02 0.  0.
         11    1    3    3    0    0  0.59926626450E+01  0.14836534775E+02  0.30683527172E+02  0.34605109589E+02  0.51100000000E-03 0.  1.
         22    1    1    0    0    0 -0.42953352435E+01  0.22434944274E+02  0.17983324829E+02  0.29071921184E+02  0.00000000000E+00 0. -1.
</event>
<event>
 5    1  0.1626333E-003  0.9118800E+02  0.7818608E-02  0.1130116E+00
         25   -1    0    0    0    0  0.00000000000E+00  0.00000000000E+00  0.99999998245E-14  0.12500000000E+03  0.12500000000E+03 0.  0.
        -11    1    3    3    0    0 -0.25401028481E+02 -0.16312325204E+02  0.53092469098E+02  0.61074663131E+02  0.51100000000E-03 0.  1.
         23    2    1    0    0    0 -0.13767587951E+02 -0.15801208588E+02  0.20506931590E+02  0.95678354172E+02  0.91074631720E+02 0.  0.
         11    1    3    3    0    0  0.11633440530E+02  0.51111661538E+00 -0.32585537508E+02  0.34603691041E+02  0.51100000000E-03 0. -1.
         22    1    1    0    0    0  0.13767587951E+02  0.15801208588E+02 -0.20506931590E+02  0.29321645828E+02  0.00000000000E+00 0.  1.
</event>
<event>
 5    1  0.1626333E-003  0.9118800E+02  0.7818608E-02  0.1130116E+00
         25   -1    0    0    0    0  0.00000000000E+00  0.00000000000E+00  0.99999998245E-14  0.12500000000E+03  0.12500000000E+03 0.  0.
        -11    1    3    3    0    0  0.38034768584E+02 -0.84377230423E+01  0.94392175240E+01  0.40086626437E+02  0.51100000000E-03 0.  1.
         23    2    1    0    0    0 -0.61538865117E-01  0.30094055112E+02  0.54306383023E+01  0.94419814054E+02  0.89330585544E+02 0.  0.
         11    1    3    3    0    0 -0.38096307449E+02  0.38531778154E+02 -0.40085792217E+01  0.54333187617E+02  0.51100000000E-03 0. -1.
         22    1    1    0    0    0  0.61538865117E-01 -0.30094055112E+02 -0.54306383023E+01  0.30580185946E+02  0.00000000000E+00 0.  1.
</event>
<event>
 5    1  0.1626333E-003  0.9118800E+02  0.7818608E-02  0.1130116E+00
         25   -1    0    0    0    0  0.00000000000E+00  0.00000000000E+00  0.99999998245E-14  0.12500000000E+03  0.12500000000E+03 0.  0.
        -11    1    3    3    0    0  0.32800939001E+01 -0.46106968848E+02 -0.21010260587E+02  0.50774429023E+02  0.51100000000E-03 0.  1.
         23    2    1    0    0    0 -0.78177220499E+01 -0.22423424211E+02  0.16197310084E+02  0.96254920675E+02  0.91862561301E+02 0.  0.
         11    1    3    3    0    0 -0.11097815950E+02  0.23683544637E+02  0.37207570671E+02  0.45480491653E+02  0.51100000000E-03 0. -1.
         22    1    1    0    0    0  0.78177220499E+01  0.22423424211E+02 -0.16197310084E+02  0.28745079325E+02  0.00000000000E+00 0.  1.
</event>
<event>
 5    1  0.1626333E-003  0.9118800E+02  0.7818608E-02  0.1130116E+00
         25   -1    0    0    0    0  0.00000000000E+00  0.00000000000E+00  0.99999998245E-14  0.12500000000E+03  0.12500000000E+03 0.  0.
        -11    1    3    3    0    0  0.20931750128E+02 -0.61392021340E+01 -0.48291778843E+02  0.52989846861E+02  0.51100000000E-03 0. -1.
         23    2    1    0    0    0 -0.14381136412E+02 -0.71955108879E+01 -0.24893222634E+02  0.95364463991E+02  0.90642793413E+02 0.  0.
         11    1    3    3    0    0 -0.35312886540E+02 -0.10563087539E+01  0.23398556209E+02  0.42374617130E+02  0.51100000000E-03 0.  1.
         22    1    1    0    0    0  0.14381136412E+02  0.71955108879E+01  0.24893222634E+02  0.29635536009E+02  0.00000000000E+00 0. -1.
</event>
<event>
 5    1  0.1626333E-003  0.9118800E+02  0.7818608E-02  0.1130116E+00
         25   -1    0    0    0    0  0.00000000000E+00  0.00000000000E+00  0.99999998245E-14  0.12500000000E+03  0.12500000000E+03 0.  0.
        -11    1    3    3    0    0  0.50164778815E+02 -0.20146713535E+02  0.15060292478E+02  0.56117800292E+02  0.51100000000E-03 0.  1.
         23    2    1    0    0    0  0.11169917713E+02 -0.23945583013E+02  0.13500015854E+02  0.95328322669E+02  0.90592939390E+02 0.  0.
         11    1    3    3    0    0 -0.38994861102E+02 -0.37988694780E+01 -0.15602766243E+01  0.39210522377E+02  0.51100000000E-03 0. -1.
         22    1    1    0    0    0 -0.11169917713E+02  0.23945583013E+02 -0.13500015854E+02  0.29671677331E+02  0.00000000000E+00 0.  1.
</event>
<event>
 5    1  0.1626333E-003  0.9118800E+02  0.7818608E-02  0.1130116E+00
         25   -1    0    0    0    0  0.00000000000E+00  0.00000000000E+00  0.99999998245E-14  0.12500000000E+03  0.12500000000E+03 0.  0.
        -11    1    3    3    0    0  0.46252699792E+02 -0.19236091693E+02  0.93964763780E+01  0.50966981765E+02  0.51100000000E-03 0.  1.
         23    2    1    0    0    0  0.23775443160E+02  0.14861297570E+02 -0.87099815663E+01  0.95640271769E+02  0.91022348587E+02 0.  0.
         11    1    3    3    0    0 -0.22477256632E+02  0.34097389263E+02 -0.18106457944E+02  0.44673290004E+02  0.51100000000E-03 0. -1.
         22    1    1    0    0    0 -0.23775443160E+02 -0.14861297570E+02  0.87099815663E+01  0.29359728231E+02  0.00000000000E+00 0. -1.
</event>
<event>
 5    1  0.1626333E-003  0.9118800E+02  0.7818608E-02  0.1130116E+00
         25   -1    0    0    0    0  0.00000000000E+00  0.00000000000E+00  0.99999998245E-14  0.12500000000E+03  0.12500000000E+03 0.  0.
        -11    1    3    3    0    0 -0.17706201073E+02  0.49658440340E+02 -0.20134076463E+02  0.56434486697E+02  0.51100000000E-03 0. -1.
         23    2    1    0    0    0  0.59565201196E+00  0.16068703469E+02 -0.25288376886E+02  0.95032350142E+02  0.90183632303E+02 0.  0.
         11    1    3    3    0    0  0.18301853085E+02 -0.33589736871E+02 -0.51543004230E+01  0.38597863445E+02  0.51100000000E-03 0.  1.
         22    1    1    0    0    0 -0.59565201196E+00 -0.16068703469E+02  0.25288376886E+02  0.29967649858E+02  0.00000000000E+00 0. -1.
</event>
<event>
 5    1  0.1626333E-003  0.9118800E+02  0.7818608E-02  0.1130116E+00
         25   -1    0    0    0    0  0.00000000000E+00  0.00000000000E+00  0.99999998245E-14  0.12500000000E+03  0.12500000000E+03 0.  0.
        -11    1    3    3    0    0  0.67512052599E+00 -0.56411396921E+02  0.20125122941E+01  0.56451321475E+02  0.51100000000E-03 0.  1.
         23    2    1    0    0    0  0.17901540253E+02 -0.15771794501E+02 -0.33191116756E+01  0.10091201238E+03  0.97994913620E+02 0.  0.
         11    1    3    3    0    0  0.17226419727E+02  0.40639602420E+02 -0.53316239698E+01  0.44460690906E+02  0.51100000000E-03 0. -1.
         22    1    1    0    0    0 -0.17901540253E+02  0.15771794501E+02  0.33191116756E+01  0.24087987619E+02  0.00000000000E+00 0.  1.
</event>
<event>
 5    1  0.1626333E-003  0.9118800E+02  0.7818608E-02  0.1130116E+00
         25   -1    0    0    0    0  0.00000000000E+00  0.00000000000E+00  0.99999998245E-14  0.12500000000E+03  0.12500000000E+03 0.  0.
        -11    1    3    3    0    0 -0.31025190748E+02  0.37829605701E+02  0.12434185162E+02  0.50480198983E+02  0.51100000000E-03 0.  1.
         23    2    1    0    0    0  0.10333434902E+00  0.11386882869E+02  0.28453074378E+02  0.94352826867E+02  0.89236801359E+02 0.  0.
         11    1    3    3    0    0  0.31128525097E+02 -0.26442722832E+02  0.16018889216E+02  0.43872627884E+02  0.51100000000E-03 0. -1.
         22    1    1    0    0    0 -0.10333434902E+00 -0.11386882869E+02 -0.28453074378E+02  0.30647173133E+02  0.00000000000E+00 0. -1.
</event>
<event>
 5    1  0.1626333E-003  0.9118800E+02  0.7818608E-02  0.1130116E+00
         25   -1    0    0    0    0  0.00000000000E+00  0.00000000000E+00  0.99999998245E-14  0.12500000000E+03  0.12500000000E+03 0.  0.
        -11    1    3    3    0    0 -0.85185915884E+01 -0.30511678443E+02  0.51624102843E+02  0.60568778415E+02  0.51100000000E-03 0. -1.
         23    2    1    0    0    0  0.65132785080E+01 -0.17347835012E+02  0.23345401814E+02  0.95194330029E+02  0.90407867508E+02 0.  0.
         11    1    3    3    0    0  0.15031870096E+02  0.13163843431E+02 -0.28278701029E+02  0.34625551614E+02  0.51100000000E-03 0.  1.
         22    1    1    0    0    0 -0.65132785080E+01  0.17347835012E+02 -0.23345401814E+02  0.29805669971E+02  0.00000000000E+00 0. -1.
</event>
<event>
 5    1  0.1626333E-003  0.9118800E+02  0.7818608E-02  0.1130116E+00
         25   -1    0    0    0    0  0.00000000000E+00  0.00000000000E+00  0.99999998245E-14  0.12500000000E+03  0.12500000000E+03 0.  0.
        -11    1    3    3    0    0 -0.46970911594E+02  0.30642779477E+02  0.52891220361E+00  0.56084991027E+02  0.51100000000E-03 0.  1.
         23    2    1    0    0    0 -0.80817874249E+01  0.26410400121E+02 -0.82463852173E+01  0.96175923403E+02  0.91755004499E+02 0.  0.
         11    1    3    3    0    0  0.38889124169E+02 -0.42323793563E+01 -0.87752974209E+01  0.40090932376E+02  0.51100000000E-03 0. -1.
         22    1    1    0    0    0  0.80817874249E+01 -0.26410400121E+02  0.82463852173E+01  0.28824076597E+02  0.00000000000E+00 0.  1.
</event>
<event>
 5    1  0.1626333E-003  0.9118800E+02  0.7818608E-02  0.1130116E+00
         25   -1    0    0    0    0  0.00000000000E+00  0.00000000000E+00  0.99999998245E-14  0.12500000000E+03  0.12500000000E+03 0.  0.
        -11    1    3    3    0    0 -0.85578643130E+01  0.23626308536E+02 -0.20567806433E+02  0.32472667866E+02  0.51100000000E-03 0.  1.
         23    2    1    0    0    0  0.27437229105E+01 -0.54615399024E+01  0.31356770636E+02  0.93053114420E+02  0.87397245981E+02 0.  0.
         11    1    3    3    0    0  0.11301587224E+02 -0.29087848438E+02  0.51924577070E+02  0.60580446554E+02  0.51100000000E-03 0. -1.
         22    1    1    0    0    0 -0.27437229105E+01  0.54615399024E+01 -0.31356770636E+02  0.31946885580E+02  0.00000000000E+00 0. -1.
</event>
<event>
 5    1  0.1626333E-003  0.9118800E+02  0.7818608E-02  0.1130116E+00
         25   -1    0    0    0    0  0.00000000000E+00  0.00000000000E+00  0.99999998245E-14  0.12500000000E+03  0.12500000000E+03 0.  0.
        -11    1    3    3    0    0  0.31686106916E+01 -0.44980167019E+02 -0.25446444629E+02  0.51776221022E+02  0.51100000000E-03 0. -1.
         23    2    1    0    0    0 -0.28414202376E+01 -0.25557256042E+02  0.13682225027E+02  0.95871830009E+02  0.91339791450E+02 0.  0.
         11    1    3    3    0    0 -0.60100309291E+01  0.19422910977E+02  0.39128669656E+02  0.44095608987E+02  0.51100000000E-03 0.  1.
         22    1    1    0    0    0  0.28414202376E+01  0.25557256042E+02 -0.13682225027E+02  0.29128169991E+02  0.00000000000E+00 0. -1.
</event>
<event>
 5    1  0.1626333E-003  0.9118800E+02  0.7818608E-02  0.1130116E+00
         25   -1    0    0    0    0  0.00000000000E+00  0.00000000000E+00  0.99999998245E-14  0.12500000000E+03  0.12500000000E+03 0.  0.
        -11    1    3    3    0    0 -0.12005758579E+02  0.35288858042E+02  0.27594032377E+01  0.37377212944E+02  0.51100000000E-03 0. -1.
         23    2    1    0    0    0  0.71542899816E+01 -0.15602013750E+02  0.23776345883E+02  0.95675584886E+02  0.91070830794E+02 0.  0.
         11    1    3    3    0    0  0.19160048561E+02 -0.50890871793E+02  0.21016942645E+02  0.58298371942E+02  0.51100000000E-03 0.  1.
         22    1    1    0    0    0 -0.71542899816E+01  0.15602013750E+02 -0.23776345883E+02  0.29324415114E+02  0.00000000000E+00 0.  1.
</event>
<event>
 5    1  0.1626333E-003  0.9118800E+02  0.7818608E-02  0.1130116E+00
         25   -1    0    0    0    0  0.00000000000E+00  0.00000000000E+00  0.99999998245E-14  0.12500000000E+03  0.12500000000E+03 0.  0.
        -11    1    3    3    0    0 -0.24028912259E+02 -0.13870565942E+02 -0.35821424225E+02  0.45309553713E+02  0.51100000000E-03 0. -1.
         23    2    1    0    0    0 -0.45880841954E+01 -0.16654611280E+02  0.16448200531E+02  0.10114691018E+03  0.98294087023E+02 0.  0.
         11    1    3    3    0    0  0.19440828064E+02 -0.27840453382E+01  0.52269624756E+02  0.55837356462E+02  0.51100000000E-03 0.  1.
         22    1    1    0    0    0  0.45880841954E+01  0.16654611280E+02 -0.16448200531E+02  0.23853089825E+02  0.00000000000E+00 0. -1.
</event>
<event>
 5    1  0.1626333E-003  0.9118800E+02  0.7818608E-02  0.1130116E+00
         25   -1    0    0    0    0  0.00000000000E+00  0.00000000000E+00  0.99999998245E-14  0.12500000000E+03  0.12500000000E+03 0.  0.
        -11    1    3    3    0    0  0.44573296116E+02 -0.18214340474E+02 -0.32284633820E+01  0.48259340045E+02  0.51100000000E-03 0. -1.
         23    2    1    0    0    0  0.73181322813E+01 -0.11994571607E+02  0.25615356964E+02  0.95784057083E+02  0.91219593678E+02 0.  0.
         11    1    3    3    0    0 -0.37255163834E+02  0.62197688670E+01  0.28843820346E+02  0.47524717038E+02  0.51100000000E-03 0.  1.
         22    1    1    0    0    0 -0.73181322813E+01  0.11994571607E+02 -0.25615356964E+02  0.29215942917E+02  0.00000000000E+00 0. -1.
</event>
<event>
 5    1  0.1626333E-003  0.9118800E+02  0.7818608E-02  0.1130116E+00
         25   -1    0    0    0    0  0.00000000000E+00  0.00000000000E+00  0.99999998245E-14  0.12500000000E+03  0.12500000000E+03 0.  0.
        -11    1    3    3    0    0  0.24687583300E+02 -0.99889548633E+01  0.24537433578E+02  0.36212451385E+02  0.51100000000E-03 0.  1.
         23    2    1    0    0    0 -0.60611752448E+01  0.11695329134E+02 -0.23998228678E+02  0.97624216019E+02  0.93707278291E+02 0.  0.
         11    1    3    3    0    0 -0.30748758545E+02  0.21684283997E+02 -0.48535662256E+02  0.61411764634E+02  0.51100000000E-03 0. -1.
         22    1    1    0    0    0  0.60611752448E+01 -0.11695329134E+02  0.23998228678E+02  0.27375783981E+02  0.00000000000E+00 0. -1.
</event>
<event>
 5    1  0.1626333E-003  0.9118800E+02  0.7818608E-02  0.1130116E+00
         25   -1    0    0    0    0  0.00000000000E+00  0.00000000000E+00  0.99999998245E-14  0.12500000000E+03  0.12500000000E+03 0.  0.
        -11    1    3    3    0    0 -0.34650413579E+02 -0.89755285770E+01  0.18883464448E+02  0.40469698594E+02  0.51100000000E-03 0. -1.
         23    2    1    0    0    0  0.21628406752E+02 -0.13441928655E+02  0.10101811136E+02  0.97604379678E+02  0.93680814042E+02 0.  0.
         11    1    3    3    0    0  0.56278820331E+02 -0.44664000782E+01 -0.87816533115E+01  0.57134681085E+02  0.51100000000E-03 0.  1.
         22    1    1    0    0    0 -0.21628406752E+02  0.13441928655E+02 -0.10101811136E+02  0.27395620322E+02  0.00000000000E+00 0.  1.
</event>
<event>
 5    1  0.1626333E-003  0.9118800E+02  0.7818608E-02  0.1130116E+00
         25   -1    0    0    0    0  0.00000000000E+00  0.00000000000E+00  0.99999998245E-14  0.12500000000E+03  0.12500000000E+03 0.  0.
        -11    1    3    3    0    0  0.37279322390E+02 -0.12718886589E+02  0.12415201037E+02  0.41299578339E+02  0.51100000000E-03 0.  1.
         23    2    1    0    0    0 -0.36132598174E+01 -0.35489319466E+02  0.18666071052E+01  0.89278414582E+02  0.81820557597E+02 0.  0.
         11    1    3    3    0    0 -0.40892582207E+02 -0.22770432878E+02 -0.10548593932E+02  0.47978836243E+02  0.51100000000E-03 0. -1.
         22    1    1    0    0    0  0.36132598174E+01  0.35489319466E+02 -0.18666071052E+01  0.35721585418E+02  0.00000000000E+00 0. -1.
</event>
<event>
 5    1  0.1626333E-003  0.9118800E+02  0.7818608E-02  0.1130116E+00
         25   -1    0    0    0    0  0.00000000000E+00  0.00000000000E+00  0.99999998245E-14  0.12500000000E+03  0.12500000000E+03 0.  0.
        -11    1    3    3    0    0  0.13960810637E+02  0.30292297850E+02  0.75552255495E+01  0.34199546430E+02  0.51100000000E-03 0. -1.
         23    2    1    0    0    0 -0.18498569589E+02 -0.17408653101E+02 -0.14243119626E+02  0.95877418791E+02  0.91347439469E+02 0.  0.
         11    1    3    3    0    0 -0.32459380226E+02 -0.47700950951E+02 -0.21798345175E+02  0.61677872360E+02  0.51100000000E-03 0.  1.
         22    1    1    0    0    0  0.18498569589E+02  0.17408653101E+02  0.14243119626E+02  0.29122581209E+02  0.00000000000E+00 0.  1.
</event>
<event>
 5    1  0.1626333E-003  0.9118800E+02  0.7818608E-02  0.1130116E+00
         25   -1    0    0    0    0  0.00000000000E+00  0.00000000000E+00  0.99999998245E-14  0.12500000000E+03  0.12500000000E+03 0.  0.
        -11    1    3    3    0    0  0.40466576018E+02  0.24344643524E+02 -0.16990148032E+02  0.50188350972E+02  0.51100000000E-03 0.  1.
         23    2    1    0    0    0  0.59085903541E+01 -0.26960002388E+01 -0.28676024829E+02  0.95597716802E+02  0.90963889541E+02 0.  0.
         11    1    3    3    0    0 -0.34557985664E+02 -0.27040643763E+02 -0.11685876797E+02  0.45409365829E+02  0.51100000000E-03 0. -1.
         22    1    1    0    0    0 -0.59085903541E+01  0.26960002388E+01  0.28676024829E+02  0.29402283198E+02  0.00000000000E+00 0.  1.
</event>
<event>
 5    1  0.1626333E-003  0.9118800E+02  0.7818608E-02  0.1130116E+00
         25   -1    0    0    0    0  0.00000000000E+00  0.00000000000E+00  0.99999998245E-14  0.12500000000E+03  0.12500000000E+03 0.  0.
        -11    1    3    3    0    0 -0.49098240822E+02  0.34614539829E+02 -0.49839074292E+01  0.60279705979E+02  0.51100000000E-03 0.  1.
         23    2    1    0    0    0 -0.21440823252E+02  0.18718009586E+02  0.90549176359E+01  0.95132554211E+02  0.90322414453E+02 0.  0.
         11    1    3    3    0    0  0.27657417570E+02 -0.15896530243E+02  0.14038825065E+02  0.34852848232E+02  0.51100000000E-03 0. -1.
         22    1    1    0    0    0  0.21440823252E+02 -0.18718009586E+02 -0.90549176359E+01  0.29867445789E+02  0.00000000000E+00 0.  1.
</event>
<event>
 5    1  0.1626333E-003  0.9118800E+02  0.7818608E-02  0.1130116E+00
         25   -1    0    0    0    0  0.00000000000E+00  0.00000000000E+00  0.99999998245E-14  0.12500000000E+03  0.12500000000E+03 0.  0.
        -11    1    3    3    0    0 -0.32588070000E+02 -0.43334627052E+02  0.26039225250E+02  0.60149093592E+02  0.51100000000E-03 0.  1.
         23    2    1    0    0    0 -0.27395527908E+02 -0.17105385887E+02  0.10691064823E+02  0.90979299790E+02  0.84379055148E+02 0.  0.
         11    1    3    3    0    0  0.51925420923E+01  0.26229241165E+02 -0.15348160427E+02  0.30830206198E+02  0.51100000000E-03 0. -1.
         22    1    1    0    0    0  0.27395527908E+02  0.17105385887E+02 -0.10691064823E+02  0.34020700210E+02  0.00000000000E+00 0.  1.
</event>
<event>
 5    1  0.1626333E-003  0.9118800E+02  0.7818608E-02  0.1130116E+00
         25   -1    0    0    0    0  0.00000000000E+00  0.00000000000E+00  0.99999998245E-14  0.12500000000E+03  0.12500000000E+03 0.  0.
        -11    1    3    3    0    0  0.35854731367E+02 -0.12536917180E+02 -0.17341992053E+02  0.41755008590E+02  0.51100000000E-03 0.  1.
         23    2    1    0    0    0 -0.12213685803E+02  0.10872150084E+02 -0.24340944617E+02  0.95676641509E+02  0.91072281059E+02 0.  0.
         11    1    3    3    0    0 -0.48068417170E+02  0.23409067264E+02 -0.69989525634E+01  0.53921632919E+02  0.51100000000E-03 0. -1.
         22    1    1    0    0    0  0.12213685803E+02 -0.10872150084E+02  0.24340944617E+02  0.29323358491E+02  0.00000000000E+00 0. -1.
</event>
<event>
 5    1  0.1626333E-003  0.9118800E+02  0.7818608E-02  0.1130116E+00
         25   -1    0    0    0    0  0.00000000000E+00  0.00000000000E+00  0.99999998245E-14  0.12500000000E+03  0.12500000000E+03 0.  0.
        -11    1    3    3    0    0  0.48862210084E+02 -0.11966435596E+02 -0.75218718342E+01  0.50865407806E+02  0.51100000000E-03 0.  1.
         23    2    1    0    0    0  0.16630379619E+02 -0.22542914884E+02  0.16551697417E+02  0.92462157030E+02  0.86547901520E+02 0.  0.
         11    1    3    3    0    0 -0.32231830465E+02 -0.10576479288E+02  0.24073569251E+02  0.41596749224E+02  0.51100000000E-03 0. -1.
         22    1    1    0    0    0 -0.16630379619E+02  0.22542914884E+02 -0.16551697417E+02  0.32537842970E+02  0.00000000000E+00 0. -1.
</event>
<event>
 5    1  0.1626333E-003  0.9118800E+02  0.7818608E-02  0.1130116E+00
         25   -1    0    0    0    0  0.00000000000E+00  0.00000000000E+00  0.99999998245E-14  0.12500000000E+03  0.12500000000E+03 0.  0.
        -11    1    3    3    0    0  0.24337546171E+02 -0.24943419350E+02  0.44017218336E+02  0.56142727337E+02  0.51100000000E-03 0.  1.
         23    2    1    0    0    0  0.26621824208E+02  0.11012446147E+01  0.19526790210E+02  0.91966232432E+02  0.85828655517E+02 0.  0.
         11    1    3    3    0    0  0.22842780369E+01  0.26044663965E+02 -0.24490428127E+02  0.35823505095E+02  0.51100000000E-03 0. -1.
         22    1    1    0    0    0 -0.26621824208E+02 -0.11012446147E+01 -0.19526790210E+02  0.33033767568E+02  0.00000000000E+00 0.  1.
</event>
<event>
 5    1  0.1626333E-003  0.9118800E+02  0.7818608E-02  0.1130116E+00
         25   -1    0    0    0    0  0.00000000000E+00  0.00000000000E+00  0.99999998245E-14  0.12500000000E+03  0.12500000000E+03 0.  0.
        -11    1    3    3    0    0  0.11894483036E+02 -0.36639804842E+02 -0.43553925493E+02  0.58145493821E+02  0.51100000000E-03 0.  1.
         23    2    1    0    0    0 -0.95697947219E+01 -0.14608451320E+02 -0.26348874431E+02  0.93389068271E+02  0.87876430672E+02 0.  0.
         11    1    3    3    0    0 -0.21464277758E+02  0.22031353522E+02  0.17205051062E+02  0.35243574450E+02  0.51100000000E-03 0. -1.
         22    1    1    0    0    0  0.95697947219E+01  0.14608451320E+02  0.26348874431E+02  0.31610931729E+02  0.00000000000E+00 0.  1.
</event>
<event>
 5    1  0.1626333E-003  0.9118800E+02  0.7818608E-02  0.1130116E+00
         25   -1    0    0    0    0  0.00000000000E+00  0.00000000000E+00  0.99999998245E-14  0.12500000000E+03  0.12500000000E+03 0.  0.
        -11    1    3    3    0    0  0.39457561819E+02  0.22988587840E+02  0.27070474866E+02  0.53086579898E+02  0.51100000000E-03 0. -1.
         23    2    1    0    0    0 -0.20218272254E+01  0.13027807363E+02  0.26103474690E+02  0.95756146955E+02  0.91181339860E+02 0.  0.
         11    1    3    3    0    0 -0.41479389044E+02 -0.99607804770E+01 -0.96700017558E+00  0.42669567057E+02  0.51100000000E-03 0.  1.
         22    1    1    0    0    0  0.20218272254E+01 -0.13027807363E+02 -0.26103474690E+02  0.29243853045E+02  0.00000000000E+00 0. -1.
</event>
<event>
 5    1  0.1626333E-003  0.9118800E+02  0.7818608E-02  0.1130116E+00
         25   -1    0    0    0    0  0.00000000000E+00  0.00000000000E+00  0.99999998245E-14  0.12500000000E+03  0.12500000000E+03 0.  0.
        -11    1    3    3    0    0  0.18977798087E+02  0.43298075316E+02 -0.39961527657E+02  0.61901565725E+02  0.51100000000E-03 0.  1.
         23    2    1    0    0    0  0.13710447449E+02  0.16218063511E+02 -0.16857208447E+02  0.97886028880E+02  0.94055872863E+02 0.  0.
         11    1    3    3    0    0 -0.52673506382E+01 -0.27080011805E+02  0.23104319210E+02  0.35984463155E+02  0.51100000000E-03 0. -1.
         22    1    1    0    0    0 -0.13710447449E+02 -0.16218063511E+02  0.16857208447E+02  0.27113971120E+02  0.00000000000E+00 0.  1.
</event>
<event>
 5    1  0.1626333E-003  0.9118800E+02  0.7818608E-02  0.1130116E+00
         25   -1    0    0    0    0  0.00000000000E+00  0.00000000000E+00  0.99999998245E-14  0.12500000000E+03  0.12500000000E+03 0.  0.
        -11    1    3    3    0    0 -0.11548431433E+02  0.25007570381E+02  0.40664063512E+02  0.49115281802E+02  0.51100000000E-03 0.  1.
         23    2    1    0    0    0 -0.20791633330E+02 -0.13170957524E+02  0.12954973082E+02  0.97186379844E+02  0.93121399050E+02 0.  0.
         11    1    3    3    0    0 -0.92432018971E+01 -0.38178527905E+02 -0.27709090430E+02  0.48071098042E+02  0.51100000000E-03 0. -1.
         22    1    1    0    0    0  0.20791633330E+02  0.13170957524E+02 -0.12954973082E+02  0.27813620156E+02  0.00000000000E+00 0. -1.
</event>
<event>
 5    1  0.1626333E-003  0.9118800E+02  0.7818608E-02  0.1130116E+00
         25   -1    0    0    0    0  0.00000000000E+00  0.00000000000E+00  0.99999998245E-14  0.12500000000E+03  0.12500000000E+03 0.  0.
        -11    1    3    3    0    0 -0.33595651954E+02  0.33818954930E+02  0.12319046926E+02  0.49235642173E+02  0.51100000000E-03 0.  1.
         23    2    1    0    0    0 -0.66605809590E+01  0.18269488478E+02 -0.22058458689E+02  0.95593994700E+02  0.90958774590E+02 0.  0.
         11    1    3    3    0    0  0.26935070995E+02 -0.15549466452E+02 -0.34377505615E+02  0.46358352527E+02  0.51100000000E-03 0. -1.
         22    1    1    0    0    0  0.66605809590E+01 -0.18269488478E+02  0.22058458689E+02  0.29406005300E+02  0.00000000000E+00 0.  1.
</event>
<event>
 5    1  0.1626333E-003  0.9118800E+02  0.7818608E-02  0.1130116E+00
         25   -1    0    0    0    0  0.00000000000E+00  0.00000000000E+00  0.99999998245E-14  0.12500000000E+03  0.12500000000E+03 0.  0.
        -11    1    3    3    0    0 -0.30124397826E+01  0.24075722224E+02  0.24449707516E+02  0.34445658535E+02  0.51100000000E-03 0. -1.
         23    2    1    0    0    0  0.95695043973E+01 -0.48979846014E+01 -0.27627929646E+02  0.95354289280E+02  0.90628760998E+02 0.  0.
         11    1    3    3    0    0  0.12581944180E+02 -0.28973706825E+02 -0.52077637162E+02  0.60908630745E+02  0.51100000000E-03 0.  1.
         22    1    1    0    0    0 -0.95695043973E+01  0.48979846014E+01  0.27627929646E+02  0.29645710720E+02  0.00000000000E+00 0.  1.
</event>
<event>
 5    1  0.1626333E-003  0.9118800E+02  0.7818608E-02  0.1130116E+00
         25   -1    0    0    0    0  0.00000000000E+00  0.00000000000E+00  0.99999998245E-14  0.12500000000E+03  0.12500000000E+03 0.  0.
        -11    1    3    3    0    0 -0.14012763394E+02 -0.41349817856E+02  0.22248134288E+02  0.49001474000E+02  0.51100000000E-03 0. -1.
         23    2    1    0    0    0  0.17595347148E+02 -0.66213624745E+01  0.22132622059E+02  0.95960515819E+02  0.91461078907E+02 0.  0.
         11    1    3    3    0    0  0.31608110542E+02  0.34728455381E+02 -0.11551222897E+00  0.46959041819E+02  0.51100000000E-03 0.  1.
         22    1    1    0    0    0 -0.17595347148E+02  0.66213624745E+01 -0.22132622059E+02  0.29039484181E+02  0.00000000000E+00 0. -1.
</event>
<event>
 5    1  0.1626333E-003  0.9118800E+02  0.7818608E-02  0.1130116E+00
         25   -1    0    0    0    0  0.00000000000E+00  0.00000000000E+00  0.99999998245E-14  0.12500000000E+03  0.12500000000E+03 0.  0.
        -11    1    3    3    0    0  0.36836357243E+02 -0.47447888349E+02  0.67185904860E+00  0.60072212533E+02  0.51100000000E-03 0.  1.
         23    2    1    0    0    0  0.11615035563E+02 -0.24405371690E+02 -0.10483322610E+02  0.96009807324E+02  0.91528420892E+02 0.  0.
         11    1    3    3    0    0 -0.25221321680E+02  0.23042516659E+02 -0.11155181659E+02  0.35937594791E+02  0.51100000000E-03 0. -1.
         22    1    1    0    0    0 -0.11615035563E+02  0.24405371690E+02  0.10483322610E+02  0.28990192676E+02  0.00000000000E+00 0.  1.
</event>
<event>
 5    1  0.1626333E-003  0.9118800E+02  0.7818608E-02  0.1130116E+00
         25   -1    0    0    0    0  0.00000000000E+00  0.00000000000E+00  0.99999998245E-14  0.12500000000E+03  0.12500000000E+03 0.  0.
        -11    1    3    3    0    0 -0.14047683175E+02  0.50788415868E+01 -0.53267456786E+02  0.55322273879E+02  0.51100000000E-03 0. -1.
         23    2    1    0    0    0  0.13280548380E+02  0.10577102712E+02 -0.21978491000E+02  0.97227673240E+02  0.93176812083E+02 0.  0.
         11    1    3    3    0    0  0.27328231555E+02  0.54982611255E+01  0.31288965786E+02  0.41905399361E+02  0.51100000000E-03 0.  1.
         22    1    1    0    0    0 -0.13280548380E+02 -0.10577102712E+02  0.21978491000E+02  0.27772326760E+02  0.00000000000E+00 0. -1.
</event>
<event>
 5    1  0.1626333E-003  0.9118800E+02  0.7818608E-02  0.1130116E+00
         25   -1    0    0    0    0  0.00000000000E+00  0.00000000000E+00  0.99999998245E-14  0.12500000000E+03  0.12500000000E+03 0.  0.
        -11    1    3    3    0    0  0.62028643820E+01 -0.53663829307E+02 -0.12879585594E+02  0.55535266523E+02  0.51100000000E-03 0. -1.
         23    2    1    0    0    0  0.18032071135E+02 -0.22102313280E+02  0.82375153036E+01  0.95309521726E+02  0.90566994162E+02 0.  0.
         11    1    3    3    0    0  0.11829206753E+02  0.31561516027E+02  0.21117100898E+02  0.39774255203E+02  0.51100000000E-03 0.  1.
         22    1    1    0    0    0 -0.18032071135E+02  0.22102313280E+02 -0.82375153036E+01  0.29690478274E+02  0.00000000000E+00 0. -1.
</event>
<event>
 5    1  0.1626333E-003  0.9118800E+02  0.7818608E-02  0.1130116E+00
         25   -1    0    0    0    0  0.00000000000E+00  0.00000000000E+00  0.99999998245E-14  0.12500000000E+03  0.12500000000E+03 0.  0.
        -11    1    3    3    0    0 -0.26230186905E+02 -0.30326186311E+02  0.21649773258E+02  0.45567674547E+02  0.51100000000E-03 0.  1.
         23    2    1    0    0    0 -0.15690129070E+02  0.18294889987E+02  0.16940531637E+02  0.95540455503E+02  0.90885168624E+02 0.  0.
         11    1    3    3    0    0  0.10540057835E+02  0.48621076298E+02 -0.47092416214E+01  0.49972780956E+02  0.51100000000E-03 0. -1.
         22    1    1    0    0    0  0.15690129070E+02 -0.18294889987E+02 -0.16940531637E+02  0.29459544497E+02  0.00000000000E+00 0. -1.
</event>
<event>
 5    1  0.1626333E-003  0.9118800E+02  0.7818608E-02  0.1130116E+00
         25   -1    0    0    0    0  0.00000000000E+00  0.00000000000E+00  0.99999998245E-14  0.12500000000E+03  0.12500000000E+03 0.  0.
        -11    1    3    3    0    0 -0.30424376035E+02  0.20418629689E+02 -0.41659430745E+02  0.55480368292E+02  0.51100000000E-03 0. -1.
         23    2    1    0    0    0 -0.27556161667E+02 -0.52239127721E+01 -0.12867687066E+02  0.94142121251E+02  0.88941162084E+02 0.  0.
         11    1    3    3    0    0  0.28682143681E+01 -0.25642542461E+02  0.28791743679E+02  0.38661752960E+02  0.51100000000E-03 0.  1.
         22    1    1    0    0    0  0.27556161667E+02  0.52239127721E+01  0.12867687066E+02  0.30857878749E+02  0.00000000000E+00 0. -1.
</event>
<event>
 5    1  0.1626333E-003  0.9118800E+02  0.7818608E-02  0.1130116E+00
         25   -1    0    0    0    0  0.00000000000E+00  0.00000000000E+00  0.99999998245E-14  0.12500000000E+03  0.12500000000E+03 0.  0.
        -11    1    3    3    0    0  0.21780306696E+02  0.51305876582E+02  0.16448607195E+02  0.58113951944E+02  0.51100000000E-03 0.  1.
         23    2    1    0    0    0  0.22724235615E+02  0.14428451550E+02  0.12831105275E+02  0.95180403071E+02  0.90388609724E+02 0.  0.
         11    1    3    3    0    0  0.94392891888E+00 -0.36877425032E+02 -0.36175019197E+01  0.37066451128E+02  0.51100000000E-03 0. -1.
         22    1    1    0    0    0 -0.22724235615E+02 -0.14428451550E+02 -0.12831105275E+02  0.29819596929E+02  0.00000000000E+00 0.  1.
</event>
<event>
 5    1  0.1626333E-003  0.9118800E+02  0.7818608E-02  0.1130116E+00
         25   -1    0    0    0    0  0.00000000000E+00  0.00000000000E+00  0.99999998245E-14  0.12500000000E+03  0.12500000000E+03 0.  0.
        -11    1    3    3    0    0 -0.35486307191E+02  0.29748533591E+02  0.32713844902E+02  0.56696110073E+02  0.51100000000E-03 0. -1.
         23    2    1    0    0    0 -0.36762769654E+00  0.13653065589E+02  0.25610565241E+02  0.95975141653E+02  0.91481065873E+02 0.  0.
         11    1    3    3    0    0  0.35118679495E+02 -0.16095468003E+02 -0.71032796603E+01  0.39279031580E+02  0.51100000000E-03 0.  1.
         22    1    1    0    0    0  0.36762769654E+00 -0.13653065589E+02 -0.25610565241E+02  0.29024858347E+02  0.00000000000E+00 0. -1.
</event>
<event>
 4    1  0.1626333E-003  0.9118800E+02  0.7818608E-02  0.1130116E+00
         25   -1    0    0    0    0  0.00000000000E+00  0.00000000000E+00  0.99999998245E-14  0.12500000000E+03  0.12500000000E+03 0.  0.
        -11    1    1    0    0    0 -0.33831941826E+02 -0.79160593935E+01 -0.80822647050E+00  0.34755107745E+02  0.51100000000E-03 0. -1.
         11    1    1    0    0    0 -0.19490989274E+02  0.21974116431E+02 -0.14859288155E+02  0.32917455863E+02  0.51100000000E-03 0.  1.
         22    1    1    0    0    0  0.53322931100E+02 -0.14058057037E+02  0.15667514626E+02  0.57327436392E+02  0.00000000000E+00 0. -1.
</event>
<event>
 5    1  0.1626333E-003  0.9118800E+02  0.7818608E-02  0.1130116E+00
         25   -1    0    0    0    0  0.00000000000E+00  0.00000000000E+00  0.99999998245E-14  0.12500000000E+03  0.12500000000E+03 0.  0.
        -11    1    3    3    0    0  0.23781685637E+02  0.12525079717E+01 -0.35886422550E+02  0.43069393676E+02  0.51100000000E-03 0. -1.
         23    2    1    0    0    0 -0.72831791798E+01  0.29231211402E+02 -0.64708308633E+01  0.94187988202E+02  0.89005601231E+02 0.  0.
         11    1    3    3    0    0 -0.31064864816E+02  0.27978703430E+02  0.29415591687E+02  0.51118594525E+02  0.51100000000E-03 0.  1.
         22    1    1    0    0    0  0.72831791798E+01 -0.29231211402E+02  0.64708308633E+01  0.30812011798E+02  0.00000000000E+00 0.  1.
</event>
<event>
 5    1  0.1626333E-003  0.9118800E+02  0.7818608E-02  0.1130116E+00
         25   -1    0    0    0    0  0.00000000000E+00  0.00000000000E+00  0.99999998245E-14  0.12500000000E+03  0.12500000000E+03 0.  0.
        -11    1    3    3    0    0 -0.31878576614E+02 -0.55562662017E+01 -0.49285896768E+02  0.58959438273E+02  0.51100000000E-03 0.  1.
         23    2    1    0    0    0 -0.19139969465E+02 -0.27049149109E+01 -0.51353732087E+01  0.10499932367E+03  0.10307682046E+03 0.  0.
         11    1    3    3    0    0  0.12738607149E+02  0.28513512908E+01  0.44150523559E+02  0.46039885394E+02  0.51100000000E-03 0. -1.
         22    1    1    0    0    0  0.19139969465E+02  0.27049149109E+01  0.51353732087E+01  0.20000676333E+02  0.00000000000E+00 0.  1.
</event>
<event>
 5    1  0.1626333E-003  0.9118800E+02  0.7818608E-02  0.1130116E+00
         25   -1    0    0    0    0  0.00000000000E+00  0.00000000000E+00  0.99999998245E-14  0.12500000000E+03  0.12500000000E+03 0.  0.
        -11    1    3    3    0    0  0.12658601902E+02  0.33892554127E+02 -0.29153662885E+01  0.36296622270E+02  0.51100000000E-03 0. -1.
         23    2    1    0    0    0  0.19641104824E+02  0.63196462163E+01  0.35406303842E+02  0.84020526129E+02  0.73349379904E+02 0.  0.
         11    1    3    3    0    0  0.69825029221E+01 -0.27572907911E+02  0.38321670130E+02  0.47723903859E+02  0.51100000000E-03 0.  1.
         22    1    1    0    0    0 -0.19641104824E+02 -0.63196462163E+01 -0.35406303842E+02  0.40979473871E+02  0.00000000000E+00 0.  1.
</event>
<event>
 5    1  0.1626333E-003  0.9118800E+02  0.7818608E-02  0.1130116E+00
         25   -1    0    0    0    0  0.00000000000E+00  0.00000000000E+00  0.99999998245E-14  0.12500000000E+03  0.12500000000E+03 0.  0.
        -11    1    3    3    0    0  0.27366261920E+02 -0.40747096499E+01  0.45380461738E+02  0.53149805814E+02  0.51100000000E-03 0.  1.
         23    2    1    0    0    0 -0.71298797775E+01  0.11125063577E+02  0.26674102925E+02  0.95232400297E+02  0.90460489023E+02 0.  0.
         11    1    3    3    0    0 -0.34496141697E+02  0.15199773227E+02 -0.18706358813E+02  0.42082594483E+02  0.51100000000E-03 0. -1.
         22    1    1    0    0    0  0.71298797775E+01 -0.11125063577E+02 -0.26674102925E+02  0.29767599703E+02  0.00000000000E+00 0.  1.
</event>
<event>
 5    1  0.1626333E-003  0.9118800E+02  0.7818608E-02  0.1130116E+00
         25   -1    0    0    0    0  0.00000000000E+00  0.00000000000E+00  0.99999998245E-14  0.12500000000E+03  0.12500000000E+03 0.  0.
        -11    1    3    3    0    0  0.68493813319E+01 -0.28993818859E+02  0.32214093869E+02  0.43878279373E+02  0.51100000000E-03 0. -1.
         23    2    1    0    0    0 -0.80667164672E+00  0.17685380521E+02  0.28657978965E+02  0.91314644700E+02  0.84874384682E+02 0.  0.
         11    1    3    3    0    0 -0.76560529786E+01  0.46679199380E+02 -0.35561149043E+01  0.47436365327E+02  0.51100000000E-03 0.  1.
         22    1    1    0    0    0  0.80667164672E+00 -0.17685380521E+02 -0.28657978965E+02  0.33685355300E+02  0.00000000000E+00 0.  1.
</event>
<event>
 5    1  0.1626333E-003  0.9118800E+02  0.7818608E-02  0.1130116E+00
         25   -1    0    0    0    0  0.00000000000E+00  0.00000000000E+00  0.99999998245E-14  0.12500000000E+03  0.12500000000E+03 0.  0.
        -11    1    3    3    0    0 -0.15280451287E+02  0.32578690894E+02  0.78277767496E+01  0.36825770610E+02  0.51100000000E-03 0. -1.
         23    2    1    0    0    0  0.62188211529E+01 -0.22508183300E+02  0.16242569386E+02  0.96555086355E+02  0.92270101272E+02 0.  0.
         11    1    3    3    0    0  0.21499272440E+02 -0.55086874195E+02  0.84147926360E+01  0.59729315745E+02  0.51100000000E-03 0.  1.
         22    1    1    0    0    0 -0.62188211529E+01  0.22508183300E+02 -0.16242569386E+02  0.28444913645E+02  0.00000000000E+00 0.  1.
</event>
<event>
 5    1  0.1626333E-003  0.9118800E+02  0.7818608E-02  0.1130116E+00
         25   -1    0    0    0    0  0.00000000000E+00  0.00000000000E+00  0.99999998245E-14  0.12500000000E+03  0.12500000000E+03 0.  0.
        -11    1    3    3    0    0  0.47830547288E+02 -0.45221788401E+01  0.15277149554E+01  0.48068131528E+02  0.51100000000E-03 0. -1.
         23    2    1    0    0    0  0.10825102447E+02  0.18482826523E+02 -0.19121950568E+02  0.96286819877E+02  0.91905957203E+02 0.  0.
         11    1    3    3    0    0 -0.37005444842E+02  0.23005005363E+02 -0.20649665523E+02  0.48218688349E+02  0.51100000000E-03 0.  1.
         22    1    1    0    0    0 -0.10825102447E+02 -0.18482826523E+02  0.19121950568E+02  0.28713180123E+02  0.00000000000E+00 0.  1.
</event>
<event>
 5    1  0.1626333E-003  0.9118800E+02  0.7818608E-02  0.1130116E+00
         25   -1    0    0    0    0  0.00000000000E+00  0.00000000000E+00  0.99999998245E-14  0.12500000000E+03  0.12500000000E+03 0.  0.
        -11    1    3    3    0    0 -0.28648093861E+02 -0.54517068941E+01  0.44725985737E+02  0.53393334700E+02  0.51100000000E-03 0. -1.
         23    2    1    0    0    0 -0.35811083875E+02 -0.42533149916E+01  0.11882757668E+02  0.87029954616E+02  0.78310207852E+02 0.  0.
         11    1    3    3    0    0 -0.71629900133E+01  0.11983919025E+01 -0.32843228069E+02  0.33636619916E+02  0.51100000000E-03 0.  1.
         22    1    1    0    0    0  0.35811083875E+02  0.42533149916E+01 -0.11882757668E+02  0.37970045384E+02  0.00000000000E+00 0. -1.
</event>
<event>
 5    1  0.1626333E-003  0.9118800E+02  0.7818608E-02  0.1130116E+00
         25   -1    0    0    0    0  0.00000000000E+00  0.00000000000E+00  0.99999998245E-14  0.12500000000E+03  0.12500000000E+03 0.  0.
        -11    1    3    3    0    0  0.45408390980E+02  0.17559184684E+02 -0.25397621665E+02  0.54911621034E+02  0.51100000000E-03 0. -1.
         23    2    1    0    0    0  0.53858167838E+01  0.22212941016E+02 -0.18066760546E+02  0.95865319503E+02  0.91330881282E+02 0.  0.
         11    1    3    3    0    0 -0.40022574196E+02  0.46537563324E+01  0.73308611189E+01  0.40953698469E+02  0.51100000000E-03 0.  1.
         22    1    1    0    0    0 -0.53858167838E+01 -0.22212941016E+02  0.18066760546E+02  0.29134680497E+02  0.00000000000E+00 0. -1.
</event>
<event>
 5    1  0.1626333E-003  0.9118800E+02  0.7818608E-02  0.1130116E+00
         25   -1    0    0    0    0  0.00000000000E+00  0.00000000000E+00  0.99999998245E-14  0.12500000000E+03  0.12500000000E+03 0.  0.
        -11    1    3    3    0    0  0.17333132955E+02  0.25345759950E+02 -0.16350973579E+02  0.34787920069E+02  0.51100000000E-03 0.  1.
         23    2    1    0    0    0 -0.87212478958E+01 -0.15002826008E+02  0.22515259337E+02  0.96573219386E+02  0.92294663152E+02 0.  0.
         11    1    3    3    0    0 -0.26054380851E+02 -0.40348585958E+02  0.38866232916E+02  0.61785299317E+02  0.51100000000E-03 0. -1.
         22    1    1    0    0    0  0.87212478958E+01  0.15002826008E+02 -0.22515259337E+02  0.28426780614E+02  0.00000000000E+00 0. -1.
</event>
<event>
 5    1  0.1626333E-003  0.9118800E+02  0.7818608E-02  0.1130116E+00
         25   -1    0    0    0    0  0.00000000000E+00  0.00000000000E+00  0.99999998245E-14  0.12500000000E+03  0.12500000000E+03 0.  0.
        -11    1    3    3    0    0  0.43835200462E+02  0.22391225571E+02  0.19942360194E+02  0.53109222480E+02  0.51100000000E-03 0. -1.
         23    2    1    0    0    0  0.18625078871E+01  0.13826678076E+02  0.25127162473E+02  0.96259431874E+02  0.91868699612E+02 0.  0.
         11    1    3    3    0    0 -0.41972692575E+02 -0.85645474952E+01  0.51848022794E+01  0.43150209393E+02  0.51100000000E-03 0.  1.
         22    1    1    0    0    0 -0.18625078871E+01 -0.13826678076E+02 -0.25127162473E+02  0.28740568126E+02  0.00000000000E+00 0. -1.
</event>
<event>
 5    1  0.1626333E-003  0.9118800E+02  0.7818608E-02  0.1130116E+00
         25   -1    0    0    0    0  0.00000000000E+00  0.00000000000E+00  0.99999998245E-14  0.12500000000E+03  0.12500000000E+03 0.  0.
        -11    1    3    3    0    0  0.76511223539E+01  0.26880760277E+02 -0.47532770603E+02  0.55140540692E+02  0.51100000000E-03 0. -1.
         23    2    1    0    0    0 -0.16838385808E+02  0.60406009961E+01 -0.24361333425E+02  0.94775925767E+02  0.89827509382E+02 0.  0.
         11    1    3    3    0    0 -0.24489508162E+02 -0.20840159281E+02  0.23171437178E+02  0.39635385075E+02  0.51100000000E-03 0.  1.
         22    1    1    0    0    0  0.16838385808E+02 -0.60406009961E+01  0.24361333425E+02  0.30224074233E+02  0.00000000000E+00 0.  1.
</event>
<event>
 5    1  0.1626333E-003  0.9118800E+02  0.7818608E-02  0.1130116E+00
         25   -1    0    0    0    0  0.00000000000E+00  0.00000000000E+00  0.99999998245E-14  0.12500000000E+03  0.12500000000E+03 0.  0.
        -11    1    3    3    0    0  0.19158096876E+02  0.28442665288E+02  0.24829899905E+02  0.42338420071E+02  0.51100000000E-03 0.  1.
         23    2    1    0    0    0  0.20712437678E+02 -0.99510657845E+00 -0.20129468335E+02  0.96100332059E+02  0.91651966780E+02 0.  0.
         11    1    3    3    0    0  0.15543408021E+01 -0.29437771867E+02 -0.44959368240E+02  0.53761911988E+02  0.51100000000E-03 0. -1.
         22    1    1    0    0    0 -0.20712437678E+02  0.99510657845E+00  0.20129468335E+02  0.28899667941E+02  0.00000000000E+00 0. -1.
</event>
<event>
 5    1  0.1626333E-003  0.9118800E+02  0.7818608E-02  0.1130116E+00
         25   -1    0    0    0    0  0.00000000000E+00  0.00000000000E+00  0.99999998245E-14  0.12500000000E+03  0.12500000000E+03 0.  0.
        -11    1    3    3    0    0 -0.16353249967E+02  0.22514247431E+01  0.29579902297E+02  0.33874301735E+02  0.51100000000E-03 0.  1.
         23    2    1    0    0    0  0.55114684790E+01 -0.13345027540E+02 -0.25806579732E+02  0.95428973600E+02  0.90731711105E+02 0.  0.
         11    1    3    3    0    0  0.21864718446E+02 -0.15596452283E+02 -0.55386482030E+02  0.61554671865E+02  0.51100000000E-03 0. -1.
         22    1    1    0    0    0 -0.55114684790E+01  0.13345027540E+02  0.25806579732E+02  0.29571026400E+02  0.00000000000E+00 0. -1.
</event>
<event>
 5    1  0.1626333E-003  0.9118800E+02  0.7818608E-02  0.1130116E+00
         25   -1    0    0    0    0  0.00000000000E+00  0.00000000000E+00  0.99999998245E-14  0.12500000000E+03  0.12500000000E+03 0.  0.
        -11    1    3    3    0    0 -0.33283852580E+02 -0.15696906460E+02 -0.84870013762E+01  0.37765551864E+02  0.51100000000E-03 0. -1.
         23    2    1    0    0    0  0.10407294483E+02 -0.15124484270E+01  0.27137099139E+02  0.95896367437E+02  0.91373365152E+02 0.  0.
         11    1    3    3    0    0  0.43691147063E+02  0.14184458033E+02  0.35624100515E+02  0.58130815573E+02  0.51100000000E-03 0.  1.
         22    1    1    0    0    0 -0.10407294483E+02  0.15124484270E+01 -0.27137099139E+02  0.29103632563E+02  0.00000000000E+00 0.  1.
</event>
<event>
 5    1  0.1626333E-003  0.9118800E+02  0.7818608E-02  0.1130116E+00
         25   -1    0    0    0    0  0.00000000000E+00  0.00000000000E+00  0.99999998245E-14  0.12500000000E+03  0.12500000000E+03 0.  0.
        -11    1    3    3    0    0 -0.33057741265E+02  0.55996111455E+01  0.51524989022E+02  0.61473525981E+02  0.51100000000E-03 0. -1.
         23    2    1    0    0    0 -0.59051714509E+01  0.22447143759E+01  0.23607115140E+02  0.10056220800E+03  0.97547690903E+02 0.  0.
         11    1    3    3    0    0  0.27152569814E+02 -0.33548967697E+01 -0.27917873882E+02  0.39088682022E+02  0.51100000000E-03 0.  1.
         22    1    1    0    0    0  0.59051714509E+01 -0.22447143759E+01 -0.23607115140E+02  0.24437791998E+02  0.00000000000E+00 0. -1.
</event>
<event>
 5    1  0.1626333E-003  0.9118800E+02  0.7818608E-02  0.1130116E+00
         25   -1    0    0    0    0  0.00000000000E+00  0.00000000000E+00  0.99999998245E-14  0.12500000000E+03  0.12500000000E+03 0.  0.
        -11    1    3    3    0    0 -0.89859613020E+01 -0.35906683983E+02 -0.14076390483E+02  0.39600280611E+02  0.51100000000E-03 0.  1.
         23    2    1    0    0    0 -0.26598432252E+02  0.87925191368E+01  0.12295742535E+02  0.94406368710E+02  0.89311769535E+02 0.  0.
         11    1    3    3    0    0 -0.17612470950E+02  0.44699203120E+02  0.26372133018E+02  0.54806088099E+02  0.51100000000E-03 0. -1.
         22    1    1    0    0    0  0.26598432252E+02 -0.87925191368E+01 -0.12295742535E+02  0.30593631290E+02  0.00000000000E+00 0. -1.
</event>
<event>
 5    1  0.1626333E-003  0.9118800E+02  0.7818608E-02  0.1130116E+00
         25   -1    0    0    0    0  0.00000000000E+00  0.00000000000E+00  0.99999998245E-14  0.12500000000E+03  0.12500000000E+03 0.  0.
        -11    1    3    3    0    0  0.28136250760E+02 -0.17101859334E+02  0.11709860373E+02  0.34946287782E+02  0.51100000000E-03 0. -1.
         23    2    1    0    0    0 -0.11801583528E+02 -0.21388134707E+02 -0.25490961994E+02  0.89693926537E+02  0.82452905553E+02 0.  0.
         11    1    3    3    0    0 -0.39937834288E+02 -0.42862753735E+01 -0.37200822367E+02  0.54747638755E+02  0.51100000000E-03 0.  1.
         22    1    1    0    0    0  0.11801583528E+02  0.21388134707E+02  0.25490961994E+02  0.35306073463E+02  0.00000000000E+00 0.  1.
</event>
<event>
 5    1  0.1626333E-003  0.9118800E+02  0.7818608E-02  0.1130116E+00
         25   -1    0    0    0    0  0.00000000000E+00  0.00000000000E+00  0.99999998245E-14  0.12500000000E+03  0.12500000000E+03 0.  0.
        -11    1    3    3    0    0  0.12552556790E+02  0.19504444181E+02  0.24119329797E+02  0.33462398224E+02  0.51100000000E-03 0. -1.
         23    2    1    0    0    0 -0.42472435335E+01 -0.30198688687E+02  0.24424484301E+02  0.85928842999E+02  0.76532416332E+02 0.  0.
         11    1    3    3    0    0 -0.16799800324E+02 -0.49703132868E+02  0.30515450380E+00  0.52466444775E+02  0.51100000000E-03 0.  1.
         22    1    1    0    0    0  0.42472435335E+01  0.30198688687E+02 -0.24424484301E+02  0.39071157001E+02  0.00000000000E+00 0. -1.
</event>
<event>
 5    1  0.1626333E-003  0.9118800E+02  0.7818608E-02  0.1130116E+00
         25   -1    0    0    0    0  0.00000000000E+00  0.00000000000E+00  0.99999998245E-14  0.12500000000E+03  0.12500000000E+03 0.  0.
        -11    1    3    3    0    0  0.30862038631E+02 -0.79047868942E+01  0.15959623710E+02  0.35632298179E+02  0.51100000000E-03 0. -1.
         23    2    1    0    0    0 -0.13149478797E+02  0.10174078686E+02 -0.22647346447E+02  0.96905107744E+02  0.92743069477E+02 0.  0.
         11    1    3    3    0    0 -0.44011517429E+02  0.18078865580E+02 -0.38606970157E+02  0.61272809565E+02  0.51100000000E-03 0.  1.
         22    1    1    0    0    0  0.13149478797E+02 -0.10174078686E+02  0.22647346447E+02  0.28094892256E+02  0.00000000000E+00 0.  1.
</event>
<event>
 5    1  0.1626333E-003  0.9118800E+02  0.7818608E-02  0.1130116E+00
         25   -1    0    0    0    0  0.00000000000E+00  0.00000000000E+00  0.99999998245E-14  0.12500000000E+03  0.12500000000E+03 0.  0.
        -11    1    3    3    0    0 -0.27837596368E+02  0.65941609928E+01 -0.32002187060E+02  0.42924989315E+02  0.51100000000E-03 0. -1.
         23    2    1    0    0    0 -0.13790611088E+02 -0.22846254393E+02  0.10345084571E+02  0.96379149755E+02  0.92031448097E+02 0.  0.
         11    1    3    3    0    0  0.14046985280E+02 -0.29440415385E+02  0.42347271632E+02  0.53454160441E+02  0.51100000000E-03 0.  1.
         22    1    1    0    0    0  0.13790611088E+02  0.22846254393E+02 -0.10345084571E+02  0.28620850245E+02  0.00000000000E+00 0.  1.
</event>
<event>
 5    1  0.1626333E-003  0.9118800E+02  0.7818608E-02  0.1130116E+00
         25   -1    0    0    0    0  0.00000000000E+00  0.00000000000E+00  0.99999998245E-14  0.12500000000E+03  0.12500000000E+03 0.  0.
        -11    1    3    3    0    0  0.23404898877E+02 -0.47828275973E+02 -0.10257260259E+02  0.54226789157E+02  0.51100000000E-03 0.  1.
         23    2    1    0    0    0  0.29227911787E+02 -0.91435181342E+01 -0.13671915257E+01  0.94344756338E+02  0.89225495709E+02 0.  0.
         11    1    3    3    0    0  0.58230129099E+01  0.38684757839E+02  0.88900687337E+01  0.40117967181E+02  0.51100000000E-03 0. -1.
         22    1    1    0    0    0 -0.29227911787E+02  0.91435181342E+01  0.13671915257E+01  0.30655243662E+02  0.00000000000E+00 0.  1.
</event>
<event>
 5    1  0.1626333E-003  0.9118800E+02  0.7818608E-02  0.1130116E+00
         25   -1    0    0    0    0  0.00000000000E+00  0.00000000000E+00  0.99999998245E-14  0.12500000000E+03  0.12500000000E+03 0.  0.
        -11    1    3    3    0    0 -0.21212417720E+02 -0.44646656825E+02 -0.47792504263E+01  0.49660163775E+02  0.51100000000E-03 0. -1.
         23    2    1    0    0    0  0.14725235930E+02 -0.23224001935E+02  0.12332238440E+02  0.94862466192E+02  0.89947854605E+02 0.  0.
         11    1    3    3    0    0  0.35937653650E+02  0.21422654890E+02  0.17111488866E+02  0.45202302418E+02  0.51100000000E-03 0.  1.
         22    1    1    0    0    0 -0.14725235930E+02  0.23224001935E+02 -0.12332238440E+02  0.30137533808E+02  0.00000000000E+00 0. -1.
</event>
<event>
 5    1  0.1626333E-003  0.9118800E+02  0.7818608E-02  0.1130116E+00
         25   -1    0    0    0    0  0.00000000000E+00  0.00000000000E+00  0.99999998245E-14  0.12500000000E+03  0.12500000000E+03 0.  0.
        -11    1    3    3    0    0  0.23363795935E+02 -0.31945495465E+02 -0.40688984294E+02  0.56762444311E+02  0.51100000000E-03 0.  1.
         23    2    1    0    0    0  0.26998911274E+02 -0.75625971019E+01 -0.12239872447E+02  0.94406723575E+02  0.89312266200E+02 0.  0.
         11    1    3    3    0    0  0.36351153386E+01  0.24382898363E+02  0.28449111847E+02  0.37644279264E+02  0.51100000000E-03 0. -1.
         22    1    1    0    0    0 -0.26998911274E+02  0.75625971019E+01  0.12239872447E+02  0.30593276425E+02  0.00000000000E+00 0.  1.
</event>
<event>
 5    1  0.1626333E-003  0.9118800E+02  0.7818608E-02  0.1130116E+00
         25   -1    0    0    0    0  0.00000000000E+00  0.00000000000E+00  0.99999998245E-14  0.12500000000E+03  0.12500000000E+03 0.  0.
        -11    1    3    3    0    0  0.13012255275E+02 -0.26444611180E+01 -0.51126365793E+02  0.52822506959E+02  0.51100000000E-03 0.  1.
         23    2    1    0    0    0  0.16668867411E+01  0.22618359826E+02 -0.17696818579E+02  0.96232898991E+02  0.91832590881E+02 0.  0.
         11    1    3    3    0    0 -0.11345368534E+02  0.25262820944E+02  0.33429547214E+02  0.43410392032E+02  0.51100000000E-03 0. -1.
         22    1    1    0    0    0 -0.16668867411E+01 -0.22618359826E+02  0.17696818579E+02  0.28767101009E+02  0.00000000000E+00 0.  1.
</event>
<event>
 5    1  0.1626333E-003  0.9118800E+02  0.7818608E-02  0.1130116E+00
         25   -1    0    0    0    0  0.00000000000E+00  0.00000000000E+00  0.99999998245E-14  0.12500000000E+03  0.12500000000E+03 0.  0.
        -11    1    3    3    0    0 -0.18711929330E+02  0.26000125304E+02  0.85307251259E+01  0.33149903266E+02  0.51100000000E-03 0. -1.
         23    2    1    0    0    0  0.21645591787E+02 -0.20297007233E+02  0.66189944075E+01  0.94597512711E+02  0.89578893595E+02 0.  0.
         11    1    3    3    0    0  0.40357521117E+02 -0.46297132537E+02 -0.19117307184E+01  0.61447609445E+02  0.51100000000E-03 0.  1.
         22    1    1    0    0    0 -0.21645591787E+02  0.20297007233E+02 -0.66189944075E+01  0.30402487289E+02  0.00000000000E+00 0.  1.
</event>
<event>
 5    1  0.1626333E-003  0.9118800E+02  0.7818608E-02  0.1130116E+00
         25   -1    0    0    0    0  0.00000000000E+00  0.00000000000E+00  0.99999998245E-14  0.12500000000E+03  0.12500000000E+03 0.  0.
        -11    1    3    3    0    0 -0.20838609693E+02 -0.31692307423E+02  0.41205322103E+01  0.38152703570E+02  0.51100000000E-03 0.  1.
         23    2    1    0    0    0 -0.11003168251E+02  0.20031659598E+02  0.21524165631E+02  0.93605306118E+02  0.88183482180E+02 0.  0.
         11    1    3    3    0    0  0.98354414414E+01  0.51723967022E+02  0.17403633421E+02  0.55452602548E+02  0.51100000000E-03 0. -1.
         22    1    1    0    0    0  0.11003168251E+02 -0.20031659598E+02 -0.21524165631E+02  0.31394693882E+02  0.00000000000E+00 0. -1.
</event>
<event>
 5    1  0.1626333E-003  0.9118800E+02  0.7818608E-02  0.1130116E+00
         25   -1    0    0    0    0  0.00000000000E+00  0.00000000000E+00  0.99999998245E-14  0.12500000000E+03  0.12500000000E+03 0.  0.
        -11    1    3    3    0    0  0.19863326037E+01  0.22524688436E+01  0.43948537482E+02  0.44051028140E+02  0.51100000000E-03 0.  1.
         23    2    1    0    0    0  0.12387196129E+02  0.27291246001E+02  0.79089603031E+00  0.95018668262E+02  0.90164666392E+02 0.  0.
         11    1    3    3    0    0  0.10400863526E+02  0.25038777158E+02 -0.43157641452E+02  0.50967640122E+02  0.51100000000E-03 0. -1.
         22    1    1    0    0    0 -0.12387196129E+02 -0.27291246001E+02 -0.79089603031E+00  0.29981331738E+02  0.00000000000E+00 0. -1.
</event>
<event>
 5    1  0.1626333E-003  0.9118800E+02  0.7818608E-02  0.1130116E+00
         25   -1    0    0    0    0  0.00000000000E+00  0.00000000000E+00  0.99999998245E-14  0.12500000000E+03  0.12500000000E+03 0.  0.
        -11    1    3    3    0    0 -0.19888927499E+02  0.27146852277E+02 -0.39666371634E+02  0.52018670345E+02  0.51100000000E-03 0.  1.
         23    2    1    0    0    0 -0.11427238044E+02  0.27546101691E+02  0.25427942374E+01  0.95069492316E+02  0.90235098931E+02 0.  0.
         11    1    3    3    0    0  0.84616894548E+01  0.39924941418E+00  0.42209165872E+02  0.43050821971E+02  0.51100000000E-03 0. -1.
         22    1    1    0    0    0  0.11427238044E+02 -0.27546101691E+02 -0.25427942374E+01  0.29930507684E+02  0.00000000000E+00 0.  1.
</event>
<event>
 5    1  0.1626333E-003  0.9118800E+02  0.7818608E-02  0.1130116E+00
         25   -1    0    0    0    0  0.00000000000E+00  0.00000000000E+00  0.99999998245E-14  0.12500000000E+03  0.12500000000E+03 0.  0.
        -11    1    3    3    0    0  0.21078450949E+02 -0.16583244114E+02  0.20260546097E+02  0.33612420445E+02  0.51100000000E-03 0. -1.
         23    2    1    0    0    0 -0.16150052174E+02  0.20759738823E+02 -0.12695822239E+02  0.95794266941E+02  0.91233583373E+02 0.  0.
         11    1    3    3    0    0 -0.37228503123E+02  0.37342982938E+02 -0.32956368336E+02  0.62181846495E+02  0.51100000000E-03 0.  1.
         22    1    1    0    0    0  0.16150052174E+02 -0.20759738823E+02  0.12695822239E+02  0.29205733059E+02  0.00000000000E+00 0.  1.
</event>
<event>
 5    1  0.1626333E-003  0.9118800E+02  0.7818608E-02  0.1130116E+00
         25   -1    0    0    0    0  0.00000000000E+00  0.00000000000E+00  0.99999998245E-14  0.12500000000E+03  0.12500000000E+03 0.  0.
        -11    1    3    3    0    0  0.82660277796E+01  0.10850582535E+02 -0.49193648270E+02  0.51049754035E+02  0.51100000000E-03 0. -1.
         23    2    1    0    0    0 -0.46858776410E+01 -0.20633409220E+02 -0.18122740106E+02  0.97140912896E+02  0.93060347216E+02 0.  0.
         11    1    3    3    0    0 -0.12951905421E+02 -0.31483991755E+02  0.31070908164E+02  0.46091158862E+02  0.51100000000E-03 0.  1.
         22    1    1    0    0    0  0.46858776410E+01  0.20633409220E+02  0.18122740106E+02  0.27859087104E+02  0.00000000000E+00 0. -1.
</event>
<event>
 5    1  0.1626333E-003  0.9118800E+02  0.7818608E-02  0.1130116E+00
         25   -1    0    0    0    0  0.00000000000E+00  0.00000000000E+00  0.99999998245E-14  0.12500000000E+03  0.12500000000E+03 0.  0.
        -11    1    3    3    0    0  0.27427215388E+01 -0.30309985778E+02  0.19828420608E+02  0.36323326161E+02  0.51100000000E-03 0.  1.
         23    2    1    0    0    0  0.12016140377E+02  0.46793735537E+01 -0.26744636647E+02  0.95308928012E+02  0.90566174718E+02 0.  0.
         11    1    3    3    0    0  0.92734188378E+01  0.34989359331E+02 -0.46573057256E+02  0.58985601851E+02  0.51100000000E-03 0. -1.
         22    1    1    0    0    0 -0.12016140377E+02 -0.46793735537E+01  0.26744636647E+02  0.29691071988E+02  0.00000000000E+00 0. -1.
</event>
<event>
 5    1  0.1626333E-003  0.9118800E+02  0.7818608E-02  0.1130116E+00
         25   -1    0    0    0    0  0.00000000000E+00  0.00000000000E+00  0.99999998245E-14  0.12500000000E+03  0.12500000000E+03 0.  0.
        -11    1    3    3    0    0  0.55639744617E+02 -0.13985427466E+02 -0.22985218068E+02  0.61803669894E+02  0.51100000000E-03 0.  1.
         23    2    1    0    0    0  0.20440400963E+02 -0.34458752025E+01 -0.15022636813E+02  0.99399928432E+02  0.96046770420E+02 0.  0.
         11    1    3    3    0    0 -0.35199343654E+02  0.10539552263E+02  0.79625812546E+01  0.37596258538E+02  0.51100000000E-03 0. -1.
         22    1    1    0    0    0 -0.20440400963E+02  0.34458752025E+01  0.15022636813E+02  0.25600071568E+02  0.00000000000E+00 0.  1.
</event>
<event>
 5    1  0.1626333E-003  0.9118800E+02  0.7818608E-02  0.1130116E+00
         25   -1    0    0    0    0  0.00000000000E+00  0.00000000000E+00  0.99999998245E-14  0.12500000000E+03  0.12500000000E+03 0.  0.
        -11    1    3    3    0    0  0.35547995857E+02 -0.31707573858E+00 -0.50667269374E+02  0.61894529100E+02  0.51100000000E-03 0.  1.
         23    2    1    0    0    0  0.15717211196E+02 -0.62215435223E+01 -0.23888597958E+02  0.95735628420E+02  0.91153206773E+02 0.  0.
         11    1    3    3    0    0 -0.19830784662E+02 -0.59044677837E+01  0.26778671416E+02  0.33841099319E+02  0.51100000000E-03 0. -1.
         22    1    1    0    0    0 -0.15717211196E+02  0.62215435223E+01  0.23888597958E+02  0.29264371580E+02  0.00000000000E+00 0.  1.
</event>
<event>
 5    1  0.1626333E-003  0.9118800E+02  0.7818608E-02  0.1130116E+00
         25   -1    0    0    0    0  0.00000000000E+00  0.00000000000E+00  0.99999998245E-14  0.12500000000E+03  0.12500000000E+03 0.  0.
        -11    1    3    3    0    0  0.45408587493E+02 -0.13866717838E+02  0.25981778974E+02  0.54122809615E+02  0.51100000000E-03 0. -1.
         23    2    1    0    0    0  0.16749702449E+02 -0.20866008059E+02 -0.59424723343E+01  0.97590954013E+02  0.93662898221E+02 0.  0.
         11    1    3    3    0    0 -0.28658885043E+02 -0.69992902214E+01 -0.31924251309E+02  0.43468144398E+02  0.51100000000E-03 0.  1.
         22    1    1    0    0    0 -0.16749702449E+02  0.20866008059E+02  0.59424723343E+01  0.27409045987E+02  0.00000000000E+00 0.  1.
</event>
<event>
 5    1  0.1626333E-003  0.9118800E+02  0.7818608E-02  0.1130116E+00
         25   -1    0    0    0    0  0.00000000000E+00  0.00000000000E+00  0.99999998245E-14  0.12500000000E+03  0.12500000000E+03 0.  0.
        -11    1    3    3    0    0  0.42592479317E+02  0.19018569380E+02 -0.34356993757E+02  0.57932963811E+02  0.51100000000E-03 0. -1.
         23    2    1    0    0    0  0.23351213270E+02  0.16230403170E+02 -0.99725772249E+00  0.96544777786E+02  0.92256135008E+02 0.  0.
         11    1    3    3    0    0 -0.19241266047E+02 -0.27881662095E+01  0.33359736035E+02  0.38611813975E+02  0.51100000000E-03 0.  1.
         22    1    1    0    0    0 -0.23351213270E+02 -0.16230403170E+02  0.99725772249E+00  0.28455222214E+02  0.00000000000E+00 0. -1.
</event>
<event>
 5    1  0.1626333E-003  0.9118800E+02  0.7818608E-02  0.1130116E+00
         25   -1    0    0    0    0  0.00000000000E+00  0.00000000000E+00  0.99999998245E-14  0.12500000000E+03  0.12500000000E+03 0.  0.
        -11    1    3    3    0    0  0.44138685637E+01  0.26965609889E+02  0.52953329161E+02  0.59587594530E+02  0.51100000000E-03 0. -1.
         23    2    1    0    0    0  0.40545195939E+01  0.24667436470E+02  0.19050752985E+02  0.93569875272E+02  0.88133244681E+02 0.  0.
         11    1    3    3    0    0 -0.35934896988E+00 -0.22981734197E+01 -0.33902576176E+02  0.33982280742E+02  0.51100000000E-03 0.  1.
         22    1    1    0    0    0 -0.40545195939E+01 -0.24667436470E+02 -0.19050752985E+02  0.31430124728E+02  0.00000000000E+00 0. -1.
</event>
<event>
 5    1  0.1626333E-003  0.9118800E+02  0.7818608E-02  0.1130116E+00
         25   -1    0    0    0    0  0.00000000000E+00  0.00000000000E+00  0.99999998245E-14  0.12500000000E+03  0.12500000000E+03 0.  0.
        -11    1    3    3    0    0  0.36311772991E+02 -0.43259082673E+02  0.13988392533E+02  0.58185635834E+02  0.51100000000E-03 0. -1.
         23    2    1    0    0    0  0.14755653906E+02 -0.15214525495E+02  0.21997997071E+02  0.94452938221E+02  0.89376924064E+02 0.  0.
         11    1    3    3    0    0 -0.21556119085E+02  0.28044557178E+02  0.80096045377E+01  0.36267302387E+02  0.51100000000E-03 0.  1.
         22    1    1    0    0    0 -0.14755653906E+02  0.15214525495E+02 -0.21997997071E+02  0.30547061779E+02  0.00000000000E+00 0. -1.
</event>
<event>
 5    1  0.1626333E-003  0.9118800E+02  0.7818608E-02  0.1130116E+00
         25   -1    0    0    0    0  0.00000000000E+00  0.00000000000E+00  0.99999998245E-14  0.12500000000E+03  0.12500000000E+03 0.  0.
        -11    1    3    3    0    0 -0.36301241903E+02 -0.20460570991E+02  0.22202474762E+02  0.47216152054E+02  0.51100000000E-03 0. -1.
         23    2    1    0    0    0  0.27810463748E+01 -0.27011562633E+02 -0.76028139325E+01  0.96801391621E+02  0.92603174380E+02 0.  0.
         11    1    3    3    0    0  0.39082288277E+02 -0.65509916425E+01 -0.29805288694E+02  0.49585239567E+02  0.51100000000E-03 0.  1.
         22    1    1    0    0    0 -0.27810463748E+01  0.27011562633E+02  0.76028139325E+01  0.28198608379E+02  0.00000000000E+00 0. -1.
</event>
<event>
 5    1  0.1626333E-003  0.9118800E+02  0.7818608E-02  0.1130116E+00
         25   -1    0    0    0    0  0.00000000000E+00  0.00000000000E+00  0.99999998245E-14  0.12500000000E+03  0.12500000000E+03 0.  0.
        -11    1    3    3    0    0  0.32187235617E+02 -0.99066586932E+01 -0.10115937957E+02  0.35163791379E+02  0.51100000000E-03 0.  1.
         23    2    1    0    0    0 -0.15398150837E+02  0.20080166271E+02  0.13678074086E+02  0.96235337003E+02  0.91835909374E+02 0.  0.
         11    1    3    3    0    0 -0.47585386455E+02  0.29986824964E+02  0.23794012043E+02  0.61071545623E+02  0.51100000000E-03 0. -1.
         22    1    1    0    0    0  0.15398150837E+02 -0.20080166271E+02 -0.13678074086E+02  0.28764662997E+02  0.00000000000E+00 0. -1.
</event>
<event>
 5    1  0.1626333E-003  0.9118800E+02  0.7818608E-02  0.1130116E+00
         25   -1    0    0    0    0  0.00000000000E+00  0.00000000000E+00  0.99999998245E-14  0.12500000000E+03  0.12500000000E+03 0.  0.
        -11    1    3    3    0    0 -0.34848651394E+01 -0.93782645978E+01 -0.43786241215E+02  0.44914708637E+02  0.51100000000E-03 0. -1.
         23    2    1    0    0    0 -0.29449544948E+02 -0.28498020206E+01 -0.98889810778E+00  0.95396368658E+02  0.90686780538E+02 0.  0.
         11    1    3    3    0    0 -0.25964679808E+02  0.65284625772E+01  0.42797343107E+02  0.50481660021E+02  0.51100000000E-03 0.  1.
         22    1    1    0    0    0  0.29449544948E+02  0.28498020206E+01  0.98889810778E+00  0.29603631342E+02  0.00000000000E+00 0. -1.
</event>
<event>
 5    1  0.1626333E-003  0.9118800E+02  0.7818608E-02  0.1130116E+00
         25   -1    0    0    0    0  0.00000000000E+00  0.00000000000E+00  0.99999998245E-14  0.12500000000E+03  0.12500000000E+03 0.  0.
        -11    1    3    3    0    0 -0.30431196512E+02  0.36010626981E+02  0.38093447964E+01  0.47300466009E+02  0.51100000000E-03 0. -1.
         23    2    1    0    0    0 -0.25269959108E+02 -0.12455327941E+02 -0.35917365200E+01  0.96599179613E+02  0.92329815895E+02 0.  0.
         11    1    3    3    0    0  0.51612374039E+01 -0.48465954922E+02 -0.74010813164E+01  0.49298713604E+02  0.51100000000E-03 0.  1.
         22    1    1    0    0    0  0.25269959108E+02  0.12455327941E+02  0.35917365200E+01  0.28400820387E+02  0.00000000000E+00 0.  1.
</event>
<event>
 5    1  0.1626333E-003  0.9118800E+02  0.7818608E-02  0.1130116E+00
         25   -1    0    0    0    0  0.00000000000E+00  0.00000000000E+00  0.99999998245E-14  0.12500000000E+03  0.12500000000E+03 0.  0.
        -11    1    3    3    0    0 -0.34326191428E+02 -0.11963626461E+01 -0.99769165782E+01  0.35766710307E+02  0.51100000000E-03 0. -1.
         23    2    1    0    0    0  0.86861148910E+01 -0.29246373394E+02  0.12765632444E+02  0.91927952584E+02  0.85772887010E+02 0.  0.
         11    1    3    3    0    0  0.43012306319E+02 -0.28050010748E+02  0.22742549022E+02  0.56161242277E+02  0.51100000000E-03 0.  1.
         22    1    1    0    0    0 -0.86861148910E+01  0.29246373394E+02 -0.12765632444E+02  0.33072047416E+02  0.00000000000E+00 0. -1.
</event>
<event>
 5    1  0.1626333E-003  0.9118800E+02  0.7818608E-02  0.1130116E+00
         25   -1    0    0    0    0  0.00000000000E+00  0.00000000000E+00  0.99999998245E-14  0.12500000000E+03  0.12500000000E+03 0.  0.
        -11    1    3    3    0    0  0.16566352891E+02 -0.42305624666E+02  0.52950690731E+01  0.45741094032E+02  0.51100000000E-03 0.  1.
         23    2    1    0    0    0 -0.24413749189E+02 -0.18627288406E+02 -0.41775998038E+01  0.94008721180E+02  0.88753480467E+02 0.  0.
         11    1    3    3    0    0 -0.40980102080E+02  0.23678336260E+02 -0.94726688769E+01  0.48267627148E+02  0.51100000000E-03 0. -1.
         22    1    1    0    0    0  0.24413749189E+02  0.18627288406E+02  0.41775998038E+01  0.30991278820E+02  0.00000000000E+00 0. -1.
</event>
<event>
 5    1  0.1626333E-003  0.9118800E+02  0.7818608E-02  0.1130116E+00
         25   -1    0    0    0    0  0.00000000000E+00  0.00000000000E+00  0.99999998245E-14  0.12500000000E+03  0.12500000000E+03 0.  0.
        -11    1    3    3    0    0 -0.24081508116E+02 -0.38813913775E+02 -0.19941086755E+01  0.45721060851E+02  0.51100000000E-03 0.  1.
         23    2    1    0    0    0 -0.19733245247E+02  0.79753587288E+01 -0.19759353012E+02  0.95957972759E+02  0.91457603237E+02 0.  0.
         11    1    3    3    0    0  0.43482628687E+01  0.46789272504E+02 -0.17765244336E+02  0.50236911908E+02  0.51100000000E-03 0. -1.
         22    1    1    0    0    0  0.19733245247E+02 -0.79753587288E+01  0.19759353012E+02  0.29042027241E+02  0.00000000000E+00 0. -1.
</event>
<event>
 5    1  0.1626333E-003  0.9118800E+02  0.7818608E-02  0.1130116E+00
         25   -1    0    0    0    0  0.00000000000E+00  0.00000000000E+00  0.99999998245E-14  0.12500000000E+03  0.12500000000E+03 0.  0.
        -11    1    3    3    0    0 -0.40290600102E+02  0.27618971066E+01  0.22956098918E+02  0.46453665194E+02  0.51100000000E-03 0. -1.
         23    2    1    0    0    0 -0.21847951270E+02  0.77394157977E+01 -0.20584733214E+02  0.94000600440E+02  0.88742042516E+02 0.  0.
         11    1    3    3    0    0  0.18442648831E+02  0.49775186912E+01 -0.43540832132E+02  0.47546935245E+02  0.51100000000E-03 0.  1.
         22    1    1    0    0    0  0.21847951270E+02 -0.77394157977E+01  0.20584733214E+02  0.30999399560E+02  0.00000000000E+00 0.  1.
</event>
<event>
 5    1  0.1626333E-003  0.9118800E+02  0.7818608E-02  0.1130116E+00
         25   -1    0    0    0    0  0.00000000000E+00  0.00000000000E+00  0.99999998245E-14  0.12500000000E+03  0.12500000000E+03 0.  0.
        -11    1    3    3    0    0  0.40205427361E+02  0.29917045822E+01 -0.36909983252E+00  0.40318270306E+02  0.51100000000E-03 0.  1.
         23    2    1    0    0    0 -0.46047548473E+01 -0.29126033299E+02  0.14084832288E+01  0.95478594072E+02  0.90800046905E+02 0.  0.
         11    1    3    3    0    0 -0.44810182208E+02 -0.32117737882E+02  0.17775830614E+01  0.55160323766E+02  0.51100000000E-03 0. -1.
         22    1    1    0    0    0  0.46047548473E+01  0.29126033299E+02 -0.14084832288E+01  0.29521405928E+02  0.00000000000E+00 0. -1.
</event>
<event>
 5    1  0.1626333E-003  0.9118800E+02  0.7818608E-02  0.1130116E+00
         25   -1    0    0    0    0  0.00000000000E+00  0.00000000000E+00  0.99999998245E-14  0.12500000000E+03  0.12500000000E+03 0.  0.
        -11    1    3    3    0    0 -0.22585397239E+01  0.20518435192E+02  0.36244868817E+02  0.41710882276E+02  0.51100000000E-03 0.  1.
         23    2    1    0    0    0  0.21099583286E+01  0.25254598851E+02 -0.16442450893E+02  0.94790715357E+02  0.89848087566E+02 0.  0.
         11    1    3    3    0    0  0.43684980525E+01  0.47361636592E+01 -0.52687319710E+02  0.53079833081E+02  0.51100000000E-03 0. -1.
         22    1    1    0    0    0 -0.21099583286E+01 -0.25254598851E+02  0.16442450893E+02  0.30209284643E+02  0.00000000000E+00 0.  1.
</event>
<event>
 5    1  0.1626333E-003  0.9118800E+02  0.7818608E-02  0.1130116E+00
         25   -1    0    0    0    0  0.00000000000E+00  0.00000000000E+00  0.99999998245E-14  0.12500000000E+03  0.12500000000E+03 0.  0.
        -11    1    3    3    0    0  0.41824453536E+01  0.24547417629E+02  0.34292845468E+02  0.42380040255E+02  0.51100000000E-03 0.  1.
         23    2    1    0    0    0  0.28759306674E+02 -0.70761149000E+01 -0.41918453222E+00  0.95379992604E+02  0.90664205457E+02 0.  0.
         11    1    3    3    0    0  0.24576861321E+02 -0.31623532529E+02 -0.34712030001E+02  0.52999952349E+02  0.51100000000E-03 0. -1.
         22    1    1    0    0    0 -0.28759306674E+02  0.70761149000E+01  0.41918453222E+00  0.29620007396E+02  0.00000000000E+00 0. -1.
</event>
<event>
 5    1  0.1626333E-003  0.9118800E+02  0.7818608E-02  0.1130116E+00
         25   -1    0    0    0    0  0.00000000000E+00  0.00000000000E+00  0.99999998245E-14  0.12500000000E+03  0.12500000000E+03 0.  0.
        -11    1    3    3    0    0 -0.48442622021E+02  0.25622496872E+02  0.88222619075E+01  0.55507047117E+02  0.51100000000E-03 0.  1.
         23    2    1    0    0    0 -0.24425208601E+02  0.11698064167E+02 -0.16670853527E+02  0.93198225241E+02  0.87604545032E+02 0.  0.
         11    1    3    3    0    0  0.24017413420E+02 -0.13924432705E+02 -0.25493115435E+02  0.37691178124E+02  0.51100000000E-03 0. -1.
         22    1    1    0    0    0  0.24425208601E+02 -0.11698064167E+02  0.16670853527E+02  0.31801774759E+02  0.00000000000E+00 0.  1.
</event>
<event>
 5    1  0.1626333E-003  0.9118800E+02  0.7818608E-02  0.1130116E+00
         25   -1    0    0    0    0  0.00000000000E+00  0.00000000000E+00  0.99999998245E-14  0.12500000000E+03  0.12500000000E+03 0.  0.
        -11    1    3    3    0    0 -0.20034600807E+02  0.25571680209E+02 -0.11988742695E+02  0.34626954961E+02  0.51100000000E-03 0. -1.
         23    2    1    0    0    0  0.12265097805E+02 -0.10713073604E+02  0.24638376090E+02  0.95466084808E+02  0.90782824377E+02 0.  0.
         11    1    3    3    0    0  0.32299698612E+02 -0.36284753813E+02  0.36627118786E+02  0.60839129847E+02  0.51100000000E-03 0.  1.
         22    1    1    0    0    0 -0.12265097805E+02  0.10713073604E+02 -0.24638376090E+02  0.29533915192E+02  0.00000000000E+00 0.  1.
</event>
<event>
 5    1  0.1626333E-003  0.9118800E+02  0.7818608E-02  0.1130116E+00
         25   -1    0    0    0    0  0.00000000000E+00  0.00000000000E+00  0.99999998245E-14  0.12500000000E+03  0.12500000000E+03 0.  0.
        -11    1    3    3    0    0 -0.42160436221E+01 -0.54381747972E+02  0.60712105784E+01  0.54881774155E+02  0.51100000000E-03 0. -1.
         23    2    1    0    0    0  0.19215841482E+02 -0.22901172206E+02 -0.23282986782E+01  0.95014449696E+02  0.90158817783E+02 0.  0.
         11    1    3    3    0    0  0.23431885104E+02  0.31480575765E+02 -0.83995092566E+01  0.40132675541E+02  0.51100000000E-03 0.  1.
         22    1    1    0    0    0 -0.19215841482E+02  0.22901172206E+02  0.23282986782E+01  0.29985550304E+02  0.00000000000E+00 0. -1.
</event>
<event>
 5    1  0.1626333E-003  0.9118800E+02  0.7818608E-02  0.1130116E+00
         25   -1    0    0    0    0  0.00000000000E+00  0.00000000000E+00  0.99999998245E-14  0.12500000000E+03  0.12500000000E+03 0.  0.
        -11    1    3    3    0    0 -0.42257968264E+02 -0.14015299711E+02 -0.42753911255E+02  0.61725695100E+02  0.51100000000E-03 0. -1.
         23    2    1    0    0    0 -0.22160438947E+02 -0.11343236197E+02 -0.15571694313E+02  0.95636217452E+02  0.91016780667E+02 0.  0.
         11    1    3    3    0    0  0.20097529317E+02  0.26720635140E+01  0.27182216941E+02  0.33910522352E+02  0.51100000000E-03 0.  1.
         22    1    1    0    0    0  0.22160438947E+02  0.11343236197E+02  0.15571694313E+02  0.29363782548E+02  0.00000000000E+00 0. -1.
</event>
<event>
 5    1  0.1626333E-003  0.9118800E+02  0.7818608E-02  0.1130116E+00
         25   -1    0    0    0    0  0.00000000000E+00  0.00000000000E+00  0.99999998245E-14  0.12500000000E+03  0.12500000000E+03 0.  0.
        -11    1    3    3    0    0 -0.23045249966E+02  0.90573700088E+00  0.27589185001E+02  0.35959241299E+02  0.51100000000E-03 0. -1.
         23    2    1    0    0    0  0.20439792267E+02 -0.75903565303E+01 -0.15877715328E+02  0.98027783476E+02  0.94244076041E+02 0.  0.
         11    1    3    3    0    0  0.43485042234E+02 -0.84960935312E+01 -0.43466900330E+02  0.62068542176E+02  0.51100000000E-03 0.  1.
         22    1    1    0    0    0 -0.20439792267E+02  0.75903565303E+01  0.15877715328E+02  0.26972216524E+02  0.00000000000E+00 0.  1.
</event>
<event>
 5    1  0.1626333E-003  0.9118800E+02  0.7818608E-02  0.1130116E+00
         25   -1    0    0    0    0  0.00000000000E+00  0.00000000000E+00  0.99999998245E-14  0.12500000000E+03  0.12500000000E+03 0.  0.
        -11    1    3    3    0    0  0.35416855393E+02 -0.18313198868E+02  0.18248088946E+01  0.39913115970E+02  0.51100000000E-03 0.  1.
         23    2    1    0    0    0 -0.66433582212E+01 -0.23589425516E+02  0.26454178436E+02  0.88938680538E+02  0.81299877825E+02 0.  0.
         11    1    3    3    0    0 -0.42060213614E+02 -0.52762266486E+01  0.24629369541E+02  0.49025564567E+02  0.51100000000E-03 0. -1.
         22    1    1    0    0    0  0.66433582212E+01  0.23589425516E+02 -0.26454178436E+02  0.36061319462E+02  0.00000000000E+00 0. -1.
</event>
<event>
 5    1  0.1626333E-003  0.9118800E+02  0.7818608E-02  0.1130116E+00
         25   -1    0    0    0    0  0.00000000000E+00  0.00000000000E+00  0.99999998245E-14  0.12500000000E+03  0.12500000000E+03 0.  0.
        -11    1    3    3    0    0 -0.30277930840E+02  0.37567167085E+02  0.21928648995E+02  0.52999158349E+02  0.51100000000E-03 0.  1.
         23    2    1    0    0    0 -0.13459289079E+02 -0.60565497687E+01  0.20455306953E+02  0.99775927368E+02  0.96534873709E+02 0.  0.
         11    1    3    3    0    0  0.16818641761E+02 -0.43623716853E+02 -0.14733420424E+01  0.46776769019E+02  0.51100000000E-03 0. -1.
         22    1    1    0    0    0  0.13459289079E+02  0.60565497687E+01 -0.20455306953E+02  0.25224072632E+02  0.00000000000E+00 0.  1.
</event>
<event>
 5    1  0.1626333E-003  0.9118800E+02  0.7818608E-02  0.1130116E+00
         25   -1    0    0    0    0  0.00000000000E+00  0.00000000000E+00  0.99999998245E-14  0.12500000000E+03  0.12500000000E+03 0.  0.
        -11    1    3    3    0    0  0.17147547649E+02 -0.43432724849E+02 -0.24247583340E+02  0.52615447126E+02  0.51100000000E-03 0.  1.
         23    2    1    0    0    0  0.18283342916E+02 -0.12662339910E+01 -0.24005861313E+02  0.94797924673E+02  0.89858116874E+02 0.  0.
         11    1    3    3    0    0  0.11357952670E+01  0.42166490858E+02  0.24172202783E+00  0.42182477546E+02  0.51100000000E-03 0. -1.
         22    1    1    0    0    0 -0.18283342916E+02  0.12662339910E+01  0.24005861313E+02  0.30202075327E+02  0.00000000000E+00 0.  1.
</event>
<event>
 5    1  0.1626333E-003  0.9118800E+02  0.7818608E-02  0.1130116E+00
         25   -1    0    0    0    0  0.00000000000E+00  0.00000000000E+00  0.99999998245E-14  0.12500000000E+03  0.12500000000E+03 0.  0.
        -11    1    3    3    0    0  0.49651505499E+01 -0.29879798049E+02 -0.29052057815E+02  0.41969954908E+02  0.51100000000E-03 0.  1.
         23    2    1    0    0    0 -0.39028617709E+01  0.21226555393E+02 -0.21763498326E+02  0.94349570260E+02  0.89232239493E+02 0.  0.
         11    1    3    3    0    0 -0.88680123208E+01  0.51106353443E+02  0.72885594886E+01  0.52379615352E+02  0.51100000000E-03 0. -1.
         22    1    1    0    0    0  0.39028617709E+01 -0.21226555393E+02  0.21763498326E+02  0.30650429740E+02  0.00000000000E+00 0.  1.
</event>
<event>
 5    1  0.1626333E-003  0.9118800E+02  0.7818608E-02  0.1130116E+00
         25   -1    0    0    0    0  0.00000000000E+00  0.00000000000E+00  0.99999998245E-14  0.12500000000E+03  0.12500000000E+03 0.  0.
        -11    1    3    3    0    0 -0.17575512065E+02  0.23457175421E+02  0.29657075095E+02  0.41697479618E+02  0.51100000000E-03 0.  1.
         23    2    1    0    0    0  0.23467280920E+02 -0.63566348765E+01  0.20397186344E+02  0.93264132413E+02  0.87698535354E+02 0.  0.
         11    1    3    3    0    0  0.41042792985E+02 -0.29813810298E+02 -0.92598887509E+01  0.51566652795E+02  0.51100000000E-03 0. -1.
         22    1    1    0    0    0 -0.23467280920E+02  0.63566348765E+01 -0.20397186344E+02  0.31735867587E+02  0.00000000000E+00 0. -1.
</event>
<event>
 5    1  0.1626333E-003  0.9118800E+02  0.7818608E-02  0.1130116E+00
         25   -1    0    0    0    0  0.00000000000E+00  0.00000000000E+00  0.99999998245E-14  0.12500000000E+03  0.12500000000E+03 0.  0.
        -11    1    3    3    0    0  0.52461266570E+02 -0.11896263706E+02 -0.12143450811E+02  0.55146794813E+02  0.51100000000E-03 0.  1.
         23    2    1    0    0    0  0.25977342126E+02  0.11088559700E+02 -0.19107966201E+02  0.90898785469E+02  0.84259695983E+02 0.  0.
         11    1    3    3    0    0 -0.26483924444E+02  0.22984823406E+02 -0.69645153898E+01  0.35751990655E+02  0.51100000000E-03 0. -1.
         22    1    1    0    0    0 -0.25977342126E+02 -0.11088559700E+02  0.19107966201E+02  0.34101214531E+02  0.00000000000E+00 0.  1.
</event>
<event>
 5    1  0.1626333E-003  0.9118800E+02  0.7818608E-02  0.1130116E+00
         25   -1    0    0    0    0  0.00000000000E+00  0.00000000000E+00  0.99999998245E-14  0.12500000000E+03  0.12500000000E+03 0.  0.
        -11    1    3    3    0    0  0.33296592346E+02  0.39349173188E+00 -0.10001808988E+02  0.34768578931E+02  0.51100000000E-03 0.  1.
         23    2    1    0    0    0 -0.22084393520E+02  0.11081453813E+02  0.14596458908E+02  0.96301991908E+02  0.91926590153E+02 0.  0.
         11    1    3    3    0    0 -0.55380985866E+02  0.10687962081E+02  0.24598267895E+02  0.61533412978E+02  0.51100000000E-03 0. -1.
         22    1    1    0    0    0  0.22084393520E+02 -0.11081453813E+02 -0.14596458908E+02  0.28698008092E+02  0.00000000000E+00 0. -1.
</event>
<event>
 5    1  0.1626333E-003  0.9118800E+02  0.7818608E-02  0.1130116E+00
         25   -1    0    0    0    0  0.00000000000E+00  0.00000000000E+00  0.99999998245E-14  0.12500000000E+03  0.12500000000E+03 0.  0.
        -11    1    3    3    0    0  0.64925126003E+01 -0.19848072252E+02 -0.39477466189E+02  0.44660598170E+02  0.51100000000E-03 0.  1.
         23    2    1    0    0    0  0.20160773079E+02 -0.18528978836E+02  0.98779551674E+01  0.95890657408E+02  0.91365553421E+02 0.  0.
         11    1    3    3    0    0  0.13668260479E+02  0.13190934159E+01  0.49355421356E+02  0.51230059238E+02  0.51100000000E-03 0. -1.
         22    1    1    0    0    0 -0.20160773079E+02  0.18528978836E+02 -0.98779551674E+01  0.29109342592E+02  0.00000000000E+00 0. -1.
</event>
<event>
 5    1  0.1626333E-003  0.9118800E+02  0.7818608E-02  0.1130116E+00
         25   -1    0    0    0    0  0.00000000000E+00  0.00000000000E+00  0.99999998245E-14  0.12500000000E+03  0.12500000000E+03 0.  0.
        -11    1    3    3    0    0 -0.31589375832E+02 -0.37182890573E+01 -0.14806904957E+02  0.35085022070E+02  0.51100000000E-03 0.  1.
         23    2    1    0    0    0  0.18092663406E+02 -0.13642997315E+02  0.18526124721E+02  0.95730679167E+02  0.91146419522E+02 0.  0.
         11    1    3    3    0    0  0.49682039239E+02 -0.99247082580E+01  0.33333029678E+02  0.60645657097E+02  0.51100000000E-03 0. -1.
         22    1    1    0    0    0 -0.18092663406E+02  0.13642997315E+02 -0.18526124721E+02  0.29269320833E+02  0.00000000000E+00 0. -1.
</event>
<event>
 5    1  0.1626333E-003  0.9118800E+02  0.7818608E-02  0.1130116E+00
         25   -1    0    0    0    0  0.00000000000E+00  0.00000000000E+00  0.99999998245E-14  0.12500000000E+03  0.12500000000E+03 0.  0.
        -11    1    3    3    0    0  0.21339359748E+02 -0.38866945626E+02 -0.11564633754E+02  0.45823012678E+02  0.51100000000E-03 0.  1.
         23    2    1    0    0    0  0.12444089116E+02  0.79242206097E+01 -0.25579246746E+02  0.95471259927E+02  0.90789949784E+02 0.  0.
         11    1    3    3    0    0 -0.88952706322E+01  0.46791166236E+02 -0.14014612992E+02  0.49648247249E+02  0.51100000000E-03 0. -1.
         22    1    1    0    0    0 -0.12444089116E+02 -0.79242206097E+01  0.25579246746E+02  0.29528740073E+02  0.00000000000E+00 0. -1.
</event>
<event>
 5    1  0.1626333E-003  0.9118800E+02  0.7818608E-02  0.1130116E+00
         25   -1    0    0    0    0  0.00000000000E+00  0.00000000000E+00  0.99999998245E-14  0.12500000000E+03  0.12500000000E+03 0.  0.
        -11    1    3    3    0    0  0.29529000929E+02  0.23692697300E+02 -0.37463667548E+02  0.53261920615E+02  0.51100000000E-03 0.  1.
         23    2    1    0    0    0  0.71399663859E+01 -0.11189059116E+02 -0.25251887569E+02  0.96472259296E+02  0.92157825625E+02 0.  0.
         11    1    3    3    0    0 -0.22389034543E+02 -0.34881756416E+02  0.12211779979E+02  0.43210338681E+02  0.51100000000E-03 0. -1.
         22    1    1    0    0    0 -0.71399663859E+01  0.11189059116E+02  0.25251887569E+02  0.28527740704E+02  0.00000000000E+00 0.  1.
</event>
<event>
 5    1  0.1626333E-003  0.9118800E+02  0.7818608E-02  0.1130116E+00
         25   -1    0    0    0    0  0.00000000000E+00  0.00000000000E+00  0.99999998245E-14  0.12500000000E+03  0.12500000000E+03 0.  0.
        -11    1    3    3    0    0  0.17121806030E+02 -0.45404987945E+02 -0.30201583758E+02  0.57156844155E+02  0.51100000000E-03 0.  1.
         23    2    1    0    0    0  0.21814613622E+02 -0.23906365265E+02 -0.24922435609E+01  0.92540749460E+02  0.86661337199E+02 0.  0.
         11    1    3    3    0    0  0.46928075916E+01  0.21498622680E+02  0.27709340197E+02  0.35383905305E+02  0.51100000000E-03 0. -1.
         22    1    1    0    0    0 -0.21814613622E+02  0.23906365265E+02  0.24922435609E+01  0.32459250540E+02  0.00000000000E+00 0.  1.
</event>
<event>
 5    1  0.1626333E-003  0.9118800E+02  0.7818608E-02  0.1130116E+00
         25   -1    0    0    0    0  0.00000000000E+00  0.00000000000E+00  0.99999998245E-14  0.12500000000E+03  0.12500000000E+03 0.  0.
        -11    1    3    3    0    0 -0.37385626630E+02  0.30325184591E+02  0.10364938833E+02  0.49241586655E+02  0.51100000000E-03 0.  1.
         23    2    1    0    0    0 -0.24261437660E+02 -0.25108953537E+00  0.28848764241E+02  0.87304753596E+02  0.78747624719E+02 0.  0.
         11    1    3    3    0    0  0.13124188970E+02 -0.30576274127E+02  0.18483825408E+02  0.38063166941E+02  0.51100000000E-03 0. -1.
         22    1    1    0    0    0  0.24261437660E+02  0.25108953537E+00 -0.28848764241E+02  0.37695246404E+02  0.00000000000E+00 0.  1.
</event>
<event>
 5    1  0.1626333E-003  0.9118800E+02  0.7818608E-02  0.1130116E+00
         25   -1    0    0    0    0  0.00000000000E+00  0.00000000000E+00  0.99999998245E-14  0.12500000000E+03  0.12500000000E+03 0.  0.
        -11    1    3    3    0    0 -0.28111886348E+02  0.73663223415E+01  0.54470438444E+02  0.61737909937E+02  0.51100000000E-03 0.  1.
         23    2    1    0    0    0 -0.19435533337E+02  0.65956536416E+01  0.24040147550E+02  0.93390329055E+02  0.87878224058E+02 0.  0.
         11    1    3    3    0    0  0.86763530105E+01 -0.77066869983E+00 -0.30430290894E+02  0.31652419117E+02  0.51100000000E-03 0. -1.
         22    1    1    0    0    0  0.19435533337E+02 -0.65956536416E+01 -0.24040147550E+02  0.31609670945E+02  0.00000000000E+00 0.  1.
</event>
<event>
 5    1  0.1626333E-003  0.9118800E+02  0.7818608E-02  0.1130116E+00
         25   -1    0    0    0    0  0.00000000000E+00  0.00000000000E+00  0.99999998245E-14  0.12500000000E+03  0.12500000000E+03 0.  0.
        -11    1    3    3    0    0 -0.18007943947E+02 -0.45753303387E+02  0.74390086457E+01  0.49729163133E+02  0.51100000000E-03 0.  1.
         23    2    1    0    0    0 -0.79649300212E+01 -0.14339142135E+02  0.30772248596E+02  0.90129060938E+02  0.83109958697E+02 0.  0.
         11    1    3    3    0    0  0.10043013926E+02  0.31414161252E+02  0.23333239950E+02  0.40399897806E+02  0.51100000000E-03 0. -1.
         22    1    1    0    0    0  0.79649300212E+01  0.14339142135E+02 -0.30772248596E+02  0.34870939062E+02  0.00000000000E+00 0.  1.
</event>
<event>
 5    1  0.1626333E-003  0.9118800E+02  0.7818608E-02  0.1130116E+00
         25   -1    0    0    0    0  0.00000000000E+00  0.00000000000E+00  0.99999998245E-14  0.12500000000E+03  0.12500000000E+03 0.  0.
        -11    1    3    3    0    0 -0.49241277756E+01 -0.11073766824E+01 -0.34652550503E+02  0.35018174911E+02  0.51100000000E-03 0.  1.
         23    2    1    0    0    0  0.82480865827E+01 -0.96480817071E+01  0.25140034345E+02  0.96837298785E+02  0.92651630834E+02 0.  0.
         11    1    3    3    0    0  0.13172214358E+02 -0.85407050247E+01  0.59792584848E+02  0.61819123873E+02  0.51100000000E-03 0. -1.
         22    1    1    0    0    0 -0.82480865827E+01  0.96480817071E+01 -0.25140034345E+02  0.28162701215E+02  0.00000000000E+00 0. -1.
</event>
<event>
 5    1  0.1626333E-003  0.9118800E+02  0.7818608E-02  0.1130116E+00
         25   -1    0    0    0    0  0.00000000000E+00  0.00000000000E+00  0.99999998245E-14  0.12500000000E+03  0.12500000000E+03 0.  0.
        -11    1    3    3    0    0 -0.41459145242E+02  0.21968573777E+02  0.41151409517E+02  0.62409273858E+02  0.51100000000E-03 0.  1.
         23    2    1    0    0    0 -0.15900314218E+02  0.96114191913E+01  0.19073707133E+02  0.98372839526E+02  0.94700632952E+02 0.  0.
         11    1    3    3    0    0  0.25558831024E+02 -0.12357154586E+02 -0.22077702383E+02  0.35963565668E+02  0.51100000000E-03 0. -1.
         22    1    1    0    0    0  0.15900314218E+02 -0.96114191913E+01 -0.19073707133E+02  0.26627160474E+02  0.00000000000E+00 0.  1.
</event>
<event>
 5    1  0.1626333E-003  0.9118800E+02  0.7818608E-02  0.1130116E+00
         25   -1    0    0    0    0  0.00000000000E+00  0.00000000000E+00  0.99999998245E-14  0.12500000000E+03  0.12500000000E+03 0.  0.
        -11    1    3    3    0    0 -0.27964503421E+02  0.32029936998E+02  0.20982797065E+02  0.47415272736E+02  0.51100000000E-03 0.  1.
         23    2    1    0    0    0 -0.15369800745E+02 -0.14485811298E+02  0.20439188814E+02  0.95609015953E+02  0.90979415190E+02 0.  0.
         11    1    3    3    0    0  0.12594702676E+02 -0.46515748296E+02 -0.54360825171E+00  0.48193743217E+02  0.51100000000E-03 0. -1.
         22    1    1    0    0    0  0.15369800745E+02  0.14485811298E+02 -0.20439188814E+02  0.29390984047E+02  0.00000000000E+00 0. -1.
</event>
<event>
 5    1  0.1626333E-003  0.9118800E+02  0.7818608E-02  0.1130116E+00
         25   -1    0    0    0    0  0.00000000000E+00  0.00000000000E+00  0.99999998245E-14  0.12500000000E+03  0.12500000000E+03 0.  0.
        -11    1    3    3    0    0 -0.19178814453E+01 -0.15692205236E+02  0.41064397914E+02  0.44002367558E+02  0.51100000000E-03 0. -1.
         23    2    1    0    0    0 -0.23862367508E+02  0.13586391381E+02  0.20889246695E+01  0.97461550150E+02  0.93490039777E+02 0.  0.
         11    1    3    3    0    0 -0.21944486063E+02  0.29278596617E+02 -0.38975473245E+02  0.53459182592E+02  0.51100000000E-03 0.  1.
         22    1    1    0    0    0  0.23862367508E+02 -0.13586391381E+02 -0.20889246695E+01  0.27538449850E+02  0.00000000000E+00 0. -1.
</event>
<event>
 5    1  0.1626333E-003  0.9118800E+02  0.7818608E-02  0.1130116E+00
         25   -1    0    0    0    0  0.00000000000E+00  0.00000000000E+00  0.99999998245E-14  0.12500000000E+03  0.12500000000E+03 0.  0.
        -11    1    3    3    0    0 -0.26532483863E+02 -0.24545025617E+02 -0.43335652639E+02  0.56430574800E+02  0.51100000000E-03 0. -1.
         23    2    1    0    0    0 -0.17582163857E+02  0.67451734860E+01 -0.24721833747E+02  0.93922694533E+02  0.88632238115E+02 0.  0.
         11    1    3    3    0    0  0.89503200056E+01  0.31290199103E+02  0.18613818892E+02  0.37492119733E+02  0.51100000000E-03 0.  1.
         22    1    1    0    0    0  0.17582163857E+02 -0.67451734860E+01  0.24721833747E+02  0.31077305467E+02  0.00000000000E+00 0. -1.
</event>
<event>
 5    1  0.1626333E-003  0.9118800E+02  0.7818608E-02  0.1130116E+00
         25   -1    0    0    0    0  0.00000000000E+00  0.00000000000E+00  0.99999998245E-14  0.12500000000E+03  0.12500000000E+03 0.  0.
        -11    1    3    3    0    0 -0.23253460709E+02  0.24280901493E+02 -0.15859318029E+01  0.33657106117E+02  0.51100000000E-03 0. -1.
         23    2    1    0    0    0  0.14845092886E+02 -0.24308014413E+02 -0.70955223840E+01  0.95646928859E+02  0.91031490237E+02 0.  0.
         11    1    3    3    0    0  0.38098553595E+02 -0.48588915906E+02 -0.55095905811E+01  0.61989822742E+02  0.51100000000E-03 0.  1.
         22    1    1    0    0    0 -0.14845092886E+02  0.24308014413E+02  0.70955223840E+01  0.29353071141E+02  0.00000000000E+00 0.  1.
</event>
<event>
 5    1  0.1626333E-003  0.9118800E+02  0.7818608E-02  0.1130116E+00
         25   -1    0    0    0    0  0.00000000000E+00  0.00000000000E+00  0.99999998245E-14  0.12500000000E+03  0.12500000000E+03 0.  0.
        -11    1    3    3    0    0  0.20165246568E+02  0.11645477426E+02  0.51062137126E+02  0.56121263010E+02  0.51100000000E-03 0. -1.
         23    2    1    0    0    0  0.15980001945E+02  0.20169414424E+02  0.11486664428E+02  0.96820056777E+02  0.92628366034E+02 0.  0.
         11    1    3    3    0    0 -0.41852446224E+01  0.85239369976E+01 -0.39575472699E+02  0.40698793767E+02  0.51100000000E-03 0.  1.
         22    1    1    0    0    0 -0.15980001945E+02 -0.20169414424E+02 -0.11486664428E+02  0.28179943223E+02  0.00000000000E+00 0. -1.
</event>
<event>
 5    1  0.1626333E-003  0.9118800E+02  0.7818608E-02  0.1130116E+00
         25   -1    0    0    0    0  0.00000000000E+00  0.00000000000E+00  0.99999998245E-14  0.12500000000E+03  0.12500000000E+03 0.  0.
        -11    1    3    3    0    0 -0.41912068762E+01 -0.23207773587E+00  0.42091541022E+02  0.42300329798E+02  0.51100000000E-03 0. -1.
         23    2    1    0    0    0  0.28145909247E+02  0.91757150070E+01  0.10680206099E+01  0.95376924176E+02  0.90659974873E+02 0.  0.
         11    1    3    3    0    0  0.32337116123E+02  0.94077927428E+01 -0.41023520412E+02  0.53076594378E+02  0.51100000000E-03 0.  1.
         22    1    1    0    0    0 -0.28145909247E+02 -0.91757150070E+01 -0.10680206099E+01  0.29623075824E+02  0.00000000000E+00 0.  1.
</event>
<event>
 5    1  0.1626333E-003  0.9118800E+02  0.7818608E-02  0.1130116E+00
         25   -1    0    0    0    0  0.00000000000E+00  0.00000000000E+00  0.99999998245E-14  0.12500000000E+03  0.12500000000E+03 0.  0.
        -11    1    3    3    0    0  0.32443926521E+02  0.12721139493E+02 -0.46351826685E+01  0.35155663509E+02  0.51100000000E-03 0.  1.
         23    2    1    0    0    0 -0.18794229092E+02 -0.20177050591E+02  0.54967829623E+01  0.96883260491E+02  0.92713618863E+02 0.  0.
         11    1    3    3    0    0 -0.51238155612E+02 -0.32898190084E+02  0.10131965631E+02  0.61727596982E+02  0.51100000000E-03 0. -1.
         22    1    1    0    0    0  0.18794229092E+02  0.20177050591E+02 -0.54967829623E+01  0.28116739509E+02  0.00000000000E+00 0. -1.
</event>
<event>
 5    1  0.1626333E-003  0.9118800E+02  0.7818608E-02  0.1130116E+00
         25   -1    0    0    0    0  0.00000000000E+00  0.00000000000E+00  0.99999998245E-14  0.12500000000E+03  0.12500000000E+03 0.  0.
        -11    1    3    3    0    0  0.12197742586E+02  0.67734895166E+01  0.46331797948E+02  0.48386987773E+02  0.51100000000E-03 0.  1.
         23    2    1    0    0    0  0.38640349441E+01  0.28942290577E+02  0.59509426023E+01  0.95200659945E+02  0.90416618971E+02 0.  0.
         11    1    3    3    0    0 -0.83337076422E+01  0.22168801060E+02 -0.40380855345E+02  0.46813672172E+02  0.51100000000E-03 0. -1.
         22    1    1    0    0    0 -0.38640349441E+01 -0.28942290577E+02 -0.59509426023E+01  0.29799340055E+02  0.00000000000E+00 0. -1.
</event>
<event>
 5    1  0.1626333E-003  0.9118800E+02  0.7818608E-02  0.1130116E+00
         25   -1    0    0    0    0  0.00000000000E+00  0.00000000000E+00  0.99999998245E-14  0.12500000000E+03  0.12500000000E+03 0.  0.
        -11    1    3    3    0    0 -0.26141308061E+01 -0.44727377595E+01 -0.48713399311E+02  0.48988104022E+02  0.51100000000E-03 0.  1.
         23    2    1    0    0    0 -0.16252231491E+02  0.21133123200E+02 -0.12044300195E+02  0.95745785059E+02  0.91167133687E+02 0.  0.
         11    1    3    3    0    0 -0.13638100685E+02  0.25605860960E+02  0.36669099116E+02  0.46757681037E+02  0.51100000000E-03 0. -1.
         22    1    1    0    0    0  0.16252231491E+02 -0.21133123200E+02  0.12044300195E+02  0.29254214941E+02  0.00000000000E+00 0.  1.
</event>
<event>
 5    1  0.1626333E-003  0.9118800E+02  0.7818608E-02  0.1130116E+00
         25   -1    0    0    0    0  0.00000000000E+00  0.00000000000E+00  0.99999998245E-14  0.12500000000E+03  0.12500000000E+03 0.  0.
        -11    1    3    3    0    0 -0.39973108772E+02 -0.45032967914E+02 -0.79611350314E+01  0.60738762708E+02  0.51100000000E-03 0.  1.
         23    2    1    0    0    0 -0.20703668357E+02 -0.21001422953E+02  0.65530201170E+01  0.94790006254E+02  0.89847101030E+02 0.  0.
         11    1    3    3    0    0  0.19269440415E+02  0.24031544961E+02  0.14514155148E+02  0.34051243546E+02  0.51100000000E-03 0. -1.
         22    1    1    0    0    0  0.20703668357E+02  0.21001422953E+02 -0.65530201170E+01  0.30209993746E+02  0.00000000000E+00 0.  1.
</event>
<event>
 5    1  0.1626333E-003  0.9118800E+02  0.7818608E-02  0.1130116E+00
         25   -1    0    0    0    0  0.00000000000E+00  0.00000000000E+00  0.99999998245E-14  0.12500000000E+03  0.12500000000E+03 0.  0.
        -11    1    3    3    0    0 -0.18588439376E+00  0.92564942113E+01  0.48313413284E+02  0.49192511030E+02  0.51100000000E-03 0.  1.
         23    2    1    0    0    0 -0.21207794795E+02  0.16560805693E+02  0.53676866707E+01  0.97562017103E+02  0.93624271830E+02 0.  0.
         11    1    3    3    0    0 -0.21021910401E+02  0.73043114817E+01 -0.42945726613E+02  0.48369506073E+02  0.51100000000E-03 0. -1.
         22    1    1    0    0    0  0.21207794795E+02 -0.16560805693E+02 -0.53676866707E+01  0.27437982897E+02  0.00000000000E+00 0. -1.
</event>
<event>
 5    1  0.1626333E-003  0.9118800E+02  0.7818608E-02  0.1130116E+00
         25   -1    0    0    0    0  0.00000000000E+00  0.00000000000E+00  0.99999998245E-14  0.12500000000E+03  0.12500000000E+03 0.  0.
        -11    1    3    3    0    0 -0.28249764949E+02 -0.48279774358E+02  0.14281481944E+01  0.55955566651E+02  0.51100000000E-03 0. -1.
         23    2    1    0    0    0 -0.27494248241E+02 -0.10720582443E+02  0.87299332198E+01  0.94225395075E+02  0.89058120173E+02 0.  0.
         11    1    3    3    0    0  0.75551670737E+00  0.37559191915E+02  0.73017850255E+01  0.38269828424E+02  0.51100000000E-03 0.  1.
         22    1    1    0    0    0  0.27494248241E+02  0.10720582443E+02 -0.87299332198E+01  0.30774604925E+02  0.00000000000E+00 0. -1.
</event>
<event>
 5    1  0.1626333E-003  0.9118800E+02  0.7818608E-02  0.1130116E+00
         25   -1    0    0    0    0  0.00000000000E+00  0.00000000000E+00  0.99999998245E-14  0.12500000000E+03  0.12500000000E+03 0.  0.
        -11    1    3    3    0    0  0.52875499528E+02  0.42342379528E+01  0.18889417516E+02  0.56307702100E+02  0.51100000000E-03 0. -1.
         23    2    1    0    0    0  0.14709665822E+02 -0.94820641721E+01  0.21889677750E+02  0.96974265370E+02  0.92836233995E+02 0.  0.
         11    1    3    3    0    0 -0.38165833706E+02 -0.13716302125E+02  0.30002602344E+01  0.40666563270E+02  0.51100000000E-03 0.  1.
         22    1    1    0    0    0 -0.14709665822E+02  0.94820641721E+01 -0.21889677750E+02  0.28025734630E+02  0.00000000000E+00 0. -1.
</event>
<event>
 5    1  0.1626333E-003  0.9118800E+02  0.7818608E-02  0.1130116E+00
         25   -1    0    0    0    0  0.00000000000E+00  0.00000000000E+00  0.99999998245E-14  0.12500000000E+03  0.12500000000E+03 0.  0.
        -11    1    3    3    0    0  0.11275738964E+02  0.16622027348E+02  0.50755889104E+02  0.54585660767E+02  0.51100000000E-03 0.  1.
         23    2    1    0    0    0  0.90876147385E+00  0.25706012093E+02  0.10357352200E+02  0.97270960173E+02  0.93234864956E+02 0.  0.
         11    1    3    3    0    0 -0.10366977490E+02  0.90839847449E+01 -0.40398536904E+02  0.42685299406E+02  0.51100000000E-03 0. -1.
         22    1    1    0    0    0 -0.90876147385E+00 -0.25706012093E+02 -0.10357352200E+02  0.27729039827E+02  0.00000000000E+00 0.  1.
</event>
<event>
 5    1  0.1626333E-003  0.9118800E+02  0.7818608E-02  0.1130116E+00
         25   -1    0    0    0    0  0.00000000000E+00  0.00000000000E+00  0.99999998245E-14  0.12500000000E+03  0.12500000000E+03 0.  0.
        -11    1    3    3    0    0 -0.37506320683E+02  0.23163199792E+02 -0.33883846381E+02  0.55600116561E+02  0.51100000000E-03 0. -1.
         23    2    1    0    0    0 -0.27831167978E+02  0.59548232578E+01  0.19075448643E+01  0.96475053752E+02  0.92161615860E+02 0.  0.
         11    1    3    3    0    0  0.96751527049E+01 -0.17208376534E+02  0.35791391246E+02  0.40874937191E+02  0.51100000000E-03 0.  1.
         22    1    1    0    0    0  0.27831167978E+02 -0.59548232578E+01 -0.19075448643E+01  0.28524946248E+02  0.00000000000E+00 0. -1.
</event>
<event>
 5    1  0.1626333E-003  0.9118800E+02  0.7818608E-02  0.1130116E+00
         25   -1    0    0    0    0  0.00000000000E+00  0.00000000000E+00  0.99999998245E-14  0.12500000000E+03  0.12500000000E+03 0.  0.
        -11    1    3    3    0    0  0.28530310097E+02  0.52008917484E+02  0.11788928284E+02  0.60480450746E+02  0.51100000000E-03 0.  1.
         23    2    1    0    0    0  0.11640387777E+02  0.23656845249E+02  0.16619054318E+02  0.93833705367E+02  0.88506645749E+02 0.  0.
         11    1    3    3    0    0 -0.16889922320E+02 -0.28352072236E+02  0.48301260342E+01  0.33353254621E+02  0.51100000000E-03 0. -1.
         22    1    1    0    0    0 -0.11640387777E+02 -0.23656845249E+02 -0.16619054318E+02  0.31166294633E+02  0.00000000000E+00 0.  1.
</event>
<event>
 5    1  0.1626333E-003  0.9118800E+02  0.7818608E-02  0.1130116E+00
         25   -1    0    0    0    0  0.00000000000E+00  0.00000000000E+00  0.99999998245E-14  0.12500000000E+03  0.12500000000E+03 0.  0.
        -11    1    3    3    0    0 -0.14692426127E+02 -0.25056505331E+02 -0.52028779654E+02  0.59587664474E+02  0.51100000000E-03 0. -1.
         23    2    1    0    0    0 -0.19645166866E+02 -0.69583345788E+01 -0.25891723379E+02  0.91762485941E+02  0.85531406426E+02 0.  0.
         11    1    3    3    0    0 -0.49527407386E+01  0.18098170752E+02  0.26137056276E+02  0.32174821467E+02  0.51100000000E-03 0.  1.
         22    1    1    0    0    0  0.19645166866E+02  0.69583345788E+01  0.25891723379E+02  0.33237514059E+02  0.00000000000E+00 0. -1.
</event>
<event>
 5    1  0.1626333E-003  0.9118800E+02  0.7818608E-02  0.1130116E+00
         25   -1    0    0    0    0  0.00000000000E+00  0.00000000000E+00  0.99999998245E-14  0.12500000000E+03  0.12500000000E+03 0.  0.
        -11    1    3    3    0    0  0.34043946703E+02 -0.45786338490E+02 -0.60229184263E+01  0.57372943502E+02  0.51100000000E-03 0.  1.
         23    2    1    0    0    0  0.23992524261E+02 -0.11155831827E+02  0.98435748979E+01  0.96768992740E+02  0.92559430557E+02 0.  0.
         11    1    3    3    0    0 -0.10051422442E+02  0.34630506663E+02  0.15866493324E+02  0.39396049238E+02  0.51100000000E-03 0. -1.
         22    1    1    0    0    0 -0.23992524261E+02  0.11155831827E+02 -0.98435748979E+01  0.28231007260E+02  0.00000000000E+00 0.  1.
</event>
<event>
 5    1  0.1626333E-003  0.9118800E+02  0.7818608E-02  0.1130116E+00
         25   -1    0    0    0    0  0.00000000000E+00  0.00000000000E+00  0.99999998245E-14  0.12500000000E+03  0.12500000000E+03 0.  0.
        -11    1    3    3    0    0  0.41348935256E+02 -0.28120277728E+02 -0.26562667203E+02  0.56622078340E+02  0.51100000000E-03 0. -1.
         23    2    1    0    0    0  0.21903735884E+02 -0.18243659174E+02  0.60533606618E+01  0.95858141428E+02  0.91321056482E+02 0.  0.
         11    1    3    3    0    0 -0.19445199372E+02  0.98766185537E+01  0.32616027865E+02  0.39236063088E+02  0.51100000000E-03 0.  1.
         22    1    1    0    0    0 -0.21903735884E+02  0.18243659174E+02 -0.60533606618E+01  0.29141858572E+02  0.00000000000E+00 0. -1.
</event>
<event>
 5    1  0.1626333E-003  0.9118800E+02  0.7818608E-02  0.1130116E+00
         25   -1    0    0    0    0  0.00000000000E+00  0.00000000000E+00  0.99999998245E-14  0.12500000000E+03  0.12500000000E+03 0.  0.
        -11    1    3    3    0    0 -0.56700613641E+00 -0.50986712037E+02  0.13367857065E+02  0.52713052493E+02  0.51100000000E-03 0. -1.
         23    2    1    0    0    0 -0.21628764439E+02 -0.18359467449E+02 -0.58346813951E+01  0.96035936005E+02  0.91564097774E+02 0.  0.
         11    1    3    3    0    0 -0.21061758302E+02  0.32627244589E+02 -0.19202538460E+02  0.43322883512E+02  0.51100000000E-03 0.  1.
         22    1    1    0    0    0  0.21628764439E+02  0.18359467449E+02  0.58346813951E+01  0.28964063995E+02  0.00000000000E+00 0. -1.
</event>
<event>
 5    1  0.1626333E-003  0.9118800E+02  0.7818608E-02  0.1130116E+00
         25   -1    0    0    0    0  0.00000000000E+00  0.00000000000E+00  0.99999998245E-14  0.12500000000E+03  0.12500000000E+03 0.  0.
        -11    1    3    3    0    0  0.32501336779E+02  0.37563564272E+01 -0.18510383198E+02  0.37590974880E+02  0.51100000000E-03 0.  1.
         23    2    1    0    0    0  0.92172903790E-01  0.24761331399E+01  0.29426357716E+02  0.95469502890E+02  0.90787530655E+02 0.  0.
         11    1    3    3    0    0 -0.32409163875E+02 -0.12802232873E+01  0.47936740914E+02  0.57878528009E+02  0.51100000000E-03 0. -1.
         22    1    1    0    0    0 -0.92172903790E-01 -0.24761331399E+01 -0.29426357716E+02  0.29530497110E+02  0.00000000000E+00 0. -1.
</event>
<event>
 5    1  0.1626333E-003  0.9118800E+02  0.7818608E-02  0.1130116E+00
         25   -1    0    0    0    0  0.00000000000E+00  0.00000000000E+00  0.99999998245E-14  0.12500000000E+03  0.12500000000E+03 0.  0.
        -11    1    3    3    0    0 -0.10842340340E+02  0.29530949075E+02  0.23455098657E+02  0.39239966240E+02  0.51100000000E-03 0. -1.
         23    2    1    0    0    0  0.12076265532E+02  0.12415667491E+02 -0.24451090287E+02  0.95036008198E+02  0.90188702450E+02 0.  0.
         11    1    3    3    0    0  0.22918605872E+02 -0.17115281584E+02 -0.47906188944E+02  0.55796041958E+02  0.51100000000E-03 0.  1.
         22    1    1    0    0    0 -0.12076265532E+02 -0.12415667491E+02  0.24451090287E+02  0.29963991802E+02  0.00000000000E+00 0.  1.
</event>
<event>
 5    1  0.1626333E-003  0.9118800E+02  0.7818608E-02  0.1130116E+00
         25   -1    0    0    0    0  0.00000000000E+00  0.00000000000E+00  0.99999998245E-14  0.12500000000E+03  0.12500000000E+03 0.  0.
        -11    1    3    3    0    0  0.29156708523E+02 -0.43874919977E+02 -0.25679786047E+02  0.58605235829E+02  0.51100000000E-03 0. -1.
         23    2    1    0    0    0 -0.74521116363E+00 -0.21707627468E+02 -0.18401485100E+02  0.96532631244E+02  0.92239675905E+02 0.  0.
         11    1    3    3    0    0 -0.29901919687E+02  0.22167292508E+02  0.72783009469E+01  0.37927395416E+02  0.51100000000E-03 0.  1.
         22    1    1    0    0    0  0.74521116363E+00  0.21707627468E+02  0.18401485100E+02  0.28467368756E+02  0.00000000000E+00 0. -1.
</event>
<event>
 5    1  0.1626333E-003  0.9118800E+02  0.7818608E-02  0.1130116E+00
         25   -1    0    0    0    0  0.00000000000E+00  0.00000000000E+00  0.99999998245E-14  0.12500000000E+03  0.12500000000E+03 0.  0.
        -11    1    3    3    0    0  0.19865565725E+02  0.39168158338E+02 -0.40589475687E+02  0.59802097505E+02  0.51100000000E-03 0. -1.
         23    2    1    0    0    0  0.16799882152E+01  0.17506449595E+02 -0.30427520819E+02  0.89855552914E+02  0.82697570874E+02 0.  0.
         11    1    3    3    0    0 -0.18185577510E+02 -0.21661708742E+02  0.10161954869E+02  0.30053455409E+02  0.51100000000E-03 0.  1.
         22    1    1    0    0    0 -0.16799882152E+01 -0.17506449595E+02  0.30427520819E+02  0.35144447086E+02  0.00000000000E+00 0. -1.
</event>
<event>
 5    1  0.1626333E-003  0.9118800E+02  0.7818608E-02  0.1130116E+00
         25   -1    0    0    0    0  0.00000000000E+00  0.00000000000E+00  0.99999998245E-14  0.12500000000E+03  0.12500000000E+03 0.  0.
        -11    1    3    3    0    0 -0.90743273296E+01 -0.95537425384E+01  0.54047935671E+02  0.55630897562E+02  0.51100000000E-03 0.  1.
         23    2    1    0    0    0 -0.23021858239E+02 -0.22664445972E+00  0.16751555513E+02  0.96527698783E+02  0.92232991363E+02 0.  0.
         11    1    3    3    0    0 -0.13947530909E+02  0.93270980787E+01 -0.37296380158E+02  0.40896801222E+02  0.51100000000E-03 0. -1.
         22    1    1    0    0    0  0.23021858239E+02  0.22664445972E+00 -0.16751555513E+02  0.28472301217E+02  0.00000000000E+00 0.  1.
</event>
<event>
 5    1  0.1626333E-003  0.9118800E+02  0.7818608E-02  0.1130116E+00
         25   -1    0    0    0    0  0.00000000000E+00  0.00000000000E+00  0.99999998245E-14  0.12500000000E+03  0.12500000000E+03 0.  0.
        -11    1    3    3    0    0 -0.18301889866E+02  0.76394532798E+01  0.36799653462E+02  0.41803527533E+02  0.51100000000E-03 0. -1.
         23    2    1    0    0    0 -0.23935807600E+02 -0.20490595457E+02 -0.56006982032E+01  0.92997574966E+02  0.87317774488E+02 0.  0.
         11    1    3    3    0    0 -0.56339177344E+01 -0.28130048737E+02 -0.42400351665E+02  0.51194047433E+02  0.51100000000E-03 0.  1.
         22    1    1    0    0    0  0.23935807600E+02  0.20490595457E+02  0.56006982032E+01  0.32002425034E+02  0.00000000000E+00 0.  1.
</event>
<event>
 5    1  0.1626333E-003  0.9118800E+02  0.7818608E-02  0.1130116E+00
         25   -1    0    0    0    0  0.00000000000E+00  0.00000000000E+00  0.99999998245E-14  0.12500000000E+03  0.12500000000E+03 0.  0.
        -11    1    3    3    0    0  0.15943971556E+02 -0.41235986013E+02 -0.40769662108E+02  0.60139688393E+02  0.51100000000E-03 0.  1.
         23    2    1    0    0    0  0.10939891447E+02 -0.26019835579E+02 -0.95968356467E+01  0.95187044379E+02  0.90397793639E+02 0.  0.
         11    1    3    3    0    0 -0.50040801090E+01  0.15216150434E+02  0.31172826461E+02  0.35047355986E+02  0.51100000000E-03 0. -1.
         22    1    1    0    0    0 -0.10939891447E+02  0.26019835579E+02  0.95968356467E+01  0.29812955621E+02  0.00000000000E+00 0.  1.
</event>
<event>
 5    1  0.1626333E-003  0.9118800E+02  0.7818608E-02  0.1130116E+00
         25   -1    0    0    0    0  0.00000000000E+00  0.00000000000E+00  0.99999998245E-14  0.12500000000E+03  0.12500000000E+03 0.  0.
        -11    1    3    3    0    0 -0.27463152198E+01 -0.17795420671E+01 -0.38288130583E+02  0.38427723860E+02  0.51100000000E-03 0. -1.
         23    2    1    0    0    0  0.20258445767E+02  0.12669366942E+02  0.13967678090E+02  0.97323050840E+02  0.93304676785E+02 0.  0.
         11    1    3    3    0    0  0.23004760986E+02  0.14448909009E+02  0.52255808674E+02  0.58895326979E+02  0.51100000000E-03 0.  1.
         22    1    1    0    0    0 -0.20258445767E+02 -0.12669366942E+02 -0.13967678090E+02  0.27676949160E+02  0.00000000000E+00 0.  1.
</event>
<event>
 5    1  0.1626333E-003  0.9118800E+02  0.7818608E-02  0.1130116E+00
         25   -1    0    0    0    0  0.00000000000E+00  0.00000000000E+00  0.99999998245E-14  0.12500000000E+03  0.12500000000E+03 0.  0.
        -11    1    3    3    0    0  0.36036801529E+02 -0.42143906847E+02 -0.12110923512E+02  0.56757681571E+02  0.51100000000E-03 0.  1.
         23    2    1    0    0    0  0.92565144796E+01 -0.15911792364E+02 -0.22759116038E+02  0.95728075578E+02  0.91142848839E+02 0.  0.
         11    1    3    3    0    0 -0.26780287049E+02  0.26232114483E+02 -0.10648192526E+02  0.38970394007E+02  0.51100000000E-03 0. -1.
         22    1    1    0    0    0 -0.92565144796E+01  0.15911792364E+02  0.22759116038E+02  0.29271924422E+02  0.00000000000E+00 0.  1.
</event>
<event>
 5    1  0.1626333E-003  0.9118800E+02  0.7818608E-02  0.1130116E+00
         25   -1    0    0    0    0  0.00000000000E+00  0.00000000000E+00  0.99999998245E-14  0.12500000000E+03  0.12500000000E+03 0.  0.
        -11    1    3    3    0    0 -0.10413875568E+02  0.40007390746E+02 -0.43329633654E+01  0.41566990394E+02  0.51100000000E-03 0. -1.
         23    2    1    0    0    0 -0.11677974033E+02 -0.10970645832E+02 -0.23933746010E+02  0.96198014903E+02  0.91785095335E+02 0.  0.
         11    1    3    3    0    0 -0.12640984644E+01 -0.50978036578E+02 -0.19600782644E+02  0.54631024508E+02  0.51100000000E-03 0.  1.
         22    1    1    0    0    0  0.11677974033E+02  0.10970645832E+02  0.23933746010E+02  0.28801985097E+02  0.00000000000E+00 0.  1.
</event>
<event>
 5    1  0.1626333E-003  0.9118800E+02  0.7818608E-02  0.1130116E+00
         25   -1    0    0    0    0  0.00000000000E+00  0.00000000000E+00  0.99999998245E-14  0.12500000000E+03  0.12500000000E+03 0.  0.
        -11    1    3    3    0    0  0.21645812646E+02 -0.80354878075E+01 -0.33210039851E+02  0.40447707186E+02  0.51100000000E-03 0.  1.
         23    2    1    0    0    0 -0.76337864518E+01 -0.26727833599E+02  0.96125750725E+01  0.95588210119E+02  0.90950824788E+02 0.  0.
         11    1    3    3    0    0 -0.29279599098E+02 -0.18692345792E+02  0.42822614924E+02  0.55140502933E+02  0.51100000000E-03 0. -1.
         22    1    1    0    0    0  0.76337864518E+01  0.26727833599E+02 -0.96125750725E+01  0.29411789881E+02  0.00000000000E+00 0.  1.
</event>
<event>
 5    1  0.1626333E-003  0.9118800E+02  0.7818608E-02  0.1130116E+00
         25   -1    0    0    0    0  0.00000000000E+00  0.00000000000E+00  0.99999998245E-14  0.12500000000E+03  0.12500000000E+03 0.  0.
        -11    1    3    3    0    0  0.15439682299E+02  0.28877713134E+02  0.13830035468E+02  0.35546814015E+02  0.51100000000E-03 0. -1.
         23    2    1    0    0    0  0.52160054678E+00 -0.28775630929E+02  0.58480951346E+01  0.95631492732E+02  0.91010291632E+02 0.  0.
         11    1    3    3    0    0 -0.14918081752E+02 -0.57653344062E+02 -0.79819403337E+01  0.60084678716E+02  0.51100000000E-03 0.  1.
         22    1    1    0    0    0 -0.52160054678E+00  0.28775630929E+02 -0.58480951346E+01  0.29368507268E+02  0.00000000000E+00 0.  1.
</event>
<event>
 5    1  0.1626333E-003  0.9118800E+02  0.7818608E-02  0.1130116E+00
         25   -1    0    0    0    0  0.00000000000E+00  0.00000000000E+00  0.99999998245E-14  0.12500000000E+03  0.12500000000E+03 0.  0.
        -11    1    3    3    0    0  0.16144220034E+02  0.31812427806E+02  0.26448903216E+02  0.44409581004E+02  0.51100000000E-03 0.  1.
         23    2    1    0    0    0  0.26288887127E+02 -0.97826479978E+01 -0.36049718714E+01  0.96719236036E+02  0.92492210531E+02 0.  0.
         11    1    3    3    0    0  0.10144667092E+02 -0.41595075803E+02 -0.30053875087E+02  0.52309655031E+02  0.51100000000E-03 0. -1.
         22    1    1    0    0    0 -0.26288887127E+02  0.97826479978E+01  0.36049718714E+01  0.28280763964E+02  0.00000000000E+00 0. -1.
</event>
<event>
 5    1  0.1626333E-003  0.9118800E+02  0.7818608E-02  0.1130116E+00
         25   -1    0    0    0    0  0.00000000000E+00  0.00000000000E+00  0.99999998245E-14  0.12500000000E+03  0.12500000000E+03 0.  0.
        -11    1    3    3    0    0 -0.71934105924E+00 -0.34440996621E+02 -0.12436723780E+02  0.36624742981E+02  0.51100000000E-03 0.  1.
         23    2    1    0    0    0 -0.19182472118E+01  0.24828864915E+02 -0.14939736324E+02  0.95959546719E+02  0.91459754426E+02 0.  0.
         11    1    3    3    0    0 -0.11989061526E+01  0.59269861536E+02 -0.25030125440E+01  0.59334803737E+02  0.51100000000E-03 0. -1.
         22    1    1    0    0    0  0.19182472118E+01 -0.24828864915E+02  0.14939736324E+02  0.29040453281E+02  0.00000000000E+00 0. -1.
</event>
<event>
 5    1  0.1626333E-003  0.9118800E+02  0.7818608E-02  0.1130116E+00
         25   -1    0    0    0    0  0.00000000000E+00  0.00000000000E+00  0.99999998245E-14  0.12500000000E+03  0.12500000000E+03 0.  0.
        -11    1    3    3    0    0  0.21073767263E+02 -0.22014740575E+02 -0.11083390167E+02  0.32428290228E+02  0.51100000000E-03 0. -1.
         23    2    1    0    0    0 -0.25095402015E+02 -0.22243339262E+01  0.21143790946E+02  0.92109473107E+02  0.86037016899E+02 0.  0.
         11    1    3    3    0    0 -0.46169169278E+02  0.19790406648E+02  0.32227181113E+02  0.59681182880E+02  0.51100000000E-03 0.  1.
         22    1    1    0    0    0  0.25095402015E+02  0.22243339262E+01 -0.21143790946E+02  0.32890526893E+02  0.00000000000E+00 0.  1.
</event>
<event>
 5    1  0.1626333E-003  0.9118800E+02  0.7818608E-02  0.1130116E+00
         25   -1    0    0    0    0  0.00000000000E+00  0.00000000000E+00  0.99999998245E-14  0.12500000000E+03  0.12500000000E+03 0.  0.
        -11    1    3    3    0    0  0.14630067210E+02  0.49747937743E+01  0.45449711311E+02  0.48004829946E+02  0.51100000000E-03 0.  1.
         23    2    1    0    0    0 -0.13594367878E+02  0.23462683840E+02  0.12586747556E+02  0.95104672856E+02  0.90283820334E+02 0.  0.
         11    1    3    3    0    0 -0.28224435088E+02  0.18487890066E+02 -0.32862963755E+02  0.47099842910E+02  0.51100000000E-03 0. -1.
         22    1    1    0    0    0  0.13594367878E+02 -0.23462683840E+02 -0.12586747556E+02  0.29895327144E+02  0.00000000000E+00 0.  1.
</event>
<event>
 5    1  0.1626333E-003  0.9118800E+02  0.7818608E-02  0.1130116E+00
         25   -1    0    0    0    0  0.00000000000E+00  0.00000000000E+00  0.99999998245E-14  0.12500000000E+03  0.12500000000E+03 0.  0.
        -11    1    3    3    0    0  0.25173613824E+02 -0.29862805131E+02 -0.36849855489E+02  0.53697391120E+02  0.51100000000E-03 0.  1.
         23    2    1    0    0    0  0.25836652877E+02  0.44863113062E+01 -0.11643346184E+02  0.96308065047E+02  0.91934847918E+02 0.  0.
         11    1    3    3    0    0  0.66303905284E+00  0.34349116437E+02  0.25206509306E+02  0.42610673926E+02  0.51100000000E-03 0. -1.
         22    1    1    0    0    0 -0.25836652877E+02 -0.44863113062E+01  0.11643346184E+02  0.28691934953E+02  0.00000000000E+00 0.  1.
</event>
<event>
 5    1  0.1626333E-003  0.9118800E+02  0.7818608E-02  0.1130116E+00
         25   -1    0    0    0    0  0.00000000000E+00  0.00000000000E+00  0.99999998245E-14  0.12500000000E+03  0.12500000000E+03 0.  0.
        -11    1    3    3    0    0 -0.59541001476E+02 -0.64918142199E+01  0.12696526726E+02  0.61224801346E+02  0.51100000000E-03 0.  1.
         23    2    1    0    0    0 -0.28714142315E+02 -0.90054259888E+01 -0.62373354393E+00  0.94900353662E+02  0.90000491196E+02 0.  0.
         11    1    3    3    0    0  0.30826859161E+02 -0.25136117689E+01 -0.13320260270E+02  0.33675552316E+02  0.51100000000E-03 0. -1.
         22    1    1    0    0    0  0.28714142315E+02  0.90054259888E+01  0.62373354393E+00  0.30099646338E+02  0.00000000000E+00 0.  1.
</event>
<event>
 5    1  0.1626333E-003  0.9118800E+02  0.7818608E-02  0.1130116E+00
         25   -1    0    0    0    0  0.00000000000E+00  0.00000000000E+00  0.99999998245E-14  0.12500000000E+03  0.12500000000E+03 0.  0.
        -11    1    3    3    0    0 -0.23562366083E+02  0.88730477240E+01 -0.36044011337E+02  0.43966883274E+02  0.51100000000E-03 0. -1.
         23    2    1    0    0    0 -0.26392626775E+02  0.36754057789E+01  0.14368570289E+02  0.94725668168E+02  0.89757545877E+02 0.  0.
         11    1    3    3    0    0 -0.28302606919E+01 -0.51976419451E+01  0.50412581626E+02  0.50758784893E+02  0.51100000000E-03 0.  1.
         22    1    1    0    0    0  0.26392626775E+02 -0.36754057789E+01 -0.14368570289E+02  0.30274331832E+02  0.00000000000E+00 0.  1.
</event>
<event>
 5    1  0.1626333E-003  0.9118800E+02  0.7818608E-02  0.1130116E+00
         25   -1    0    0    0    0  0.00000000000E+00  0.00000000000E+00  0.99999998245E-14  0.12500000000E+03  0.12500000000E+03 0.  0.
        -11    1    3    3    0    0 -0.33571514566E+02 -0.10890105362E+02  0.67210984138E+01  0.35927902099E+02  0.51100000000E-03 0. -1.
         23    2    1    0    0    0  0.23485686461E+02  0.12038224708E+02 -0.38747504180E+01  0.98325854963E+02  0.94638595407E+02 0.  0.
         11    1    3    3    0    0  0.57057201027E+02  0.22928330070E+02 -0.10595848832E+02  0.62397952864E+02  0.51100000000E-03 0.  1.
         22    1    1    0    0    0 -0.23485686461E+02 -0.12038224708E+02  0.38747504180E+01  0.26674145037E+02  0.00000000000E+00 0.  1.
</event>
<event>
 5    1  0.1626333E-003  0.9118800E+02  0.7818608E-02  0.1130116E+00
         25   -1    0    0    0    0  0.00000000000E+00  0.00000000000E+00  0.99999998245E-14  0.12500000000E+03  0.12500000000E+03 0.  0.
        -11    1    3    3    0    0 -0.51091585430E+02 -0.31615445596E+02 -0.63008368299E+00  0.60085634787E+02  0.51100000000E-03 0.  1.
         23    2    1    0    0    0 -0.28077538349E+02 -0.52332450568E+01  0.62457817148E+01  0.95763981072E+02  0.91192078976E+02 0.  0.
         11    1    3    3    0    0  0.23014047081E+02  0.26382200540E+02  0.68758653978E+01  0.35678346285E+02  0.51100000000E-03 0. -1.
         22    1    1    0    0    0  0.28077538349E+02  0.52332450568E+01 -0.62457817148E+01  0.29236018928E+02  0.00000000000E+00 0.  1.
</event>
<event>
 5    1  0.1626333E-003  0.9118800E+02  0.7818608E-02  0.1130116E+00
         25   -1    0    0    0    0  0.00000000000E+00  0.00000000000E+00  0.99999998245E-14  0.12500000000E+03  0.12500000000E+03 0.  0.
        -11    1    3    3    0    0  0.16067641141E+02  0.61301924662E-01  0.31056381789E+02  0.34966722750E+02  0.51100000000E-03 0. -1.
         23    2    1    0    0    0 -0.10550340641E+02  0.77748742163E+01 -0.24591943782E+02  0.97133854667E+02  0.93050866019E+02 0.  0.
         11    1    3    3    0    0 -0.26617981781E+02  0.77135722916E+01 -0.55648325572E+02  0.62167131917E+02  0.51100000000E-03 0.  1.
         22    1    1    0    0    0  0.10550340641E+02 -0.77748742163E+01  0.24591943782E+02  0.27866145333E+02  0.00000000000E+00 0.  1.
</event>
<event>
 5    1  0.1626333E-003  0.9118800E+02  0.7818608E-02  0.1130116E+00
         25   -1    0    0    0    0  0.00000000000E+00  0.00000000000E+00  0.99999998245E-14  0.12500000000E+03  0.12500000000E+03 0.  0.
        -11    1    3    3    0    0 -0.21295546807E+02 -0.23021166424E+02 -0.31106090982E+02  0.44170842348E+02  0.51100000000E-03 0. -1.
         23    2    1    0    0    0 -0.24778984122E+02  0.11741084276E+02  0.78309660655E+01  0.96483774029E+02  0.92173442527E+02 0.  0.
         11    1    3    3    0    0 -0.34834373154E+01  0.34762250700E+02  0.38937057048E+02  0.52312931681E+02  0.51100000000E-03 0.  1.
         22    1    1    0    0    0  0.24778984122E+02 -0.11741084276E+02 -0.78309660655E+01  0.28516225971E+02  0.00000000000E+00 0.  1.
</event>
<event>
 5    1  0.1626333E-003  0.9118800E+02  0.7818608E-02  0.1130116E+00
         25   -1    0    0    0    0  0.00000000000E+00  0.00000000000E+00  0.99999998245E-14  0.12500000000E+03  0.12500000000E+03 0.  0.
        -11    1    3    3    0    0  0.89990691217E-01  0.43418948575E+02  0.22438834195E+02  0.48874476713E+02  0.51100000000E-03 0.  1.
         23    2    1    0    0    0  0.99768700370E+01 -0.27106404416E+00  0.29167897488E+02  0.94171804216E+02  0.88982869441E+02 0.  0.
         11    1    3    3    0    0  0.98868793458E+01 -0.43690012619E+02  0.67290632932E+01  0.45297327503E+02  0.51100000000E-03 0. -1.
         22    1    1    0    0    0 -0.99768700370E+01  0.27106404416E+00 -0.29167897488E+02  0.30828195784E+02  0.00000000000E+00 0.  1.
</event>
<event>
 5    1  0.1626333E-003  0.9118800E+02  0.7818608E-02  0.1130116E+00
         25   -1    0    0    0    0  0.00000000000E+00  0.00000000000E+00  0.99999998245E-14  0.12500000000E+03  0.12500000000E+03 0.  0.
        -11    1    3    3    0    0 -0.23018180636E+02  0.28269469573E+00 -0.44195045985E+02  0.49830900513E+02  0.51100000000E-03 0. -1.
         23    2    1    0    0    0 -0.23588817652E+02  0.18641040673E+02 -0.31845987247E+01  0.94766535352E+02  0.89814441144E+02 0.  0.
         11    1    3    3    0    0 -0.57063701657E+00  0.18358345977E+02  0.41010447260E+02  0.44935634839E+02  0.51100000000E-03 0.  1.
         22    1    1    0    0    0  0.23588817652E+02 -0.18641040673E+02  0.31845987247E+01  0.30233464648E+02  0.00000000000E+00 0. -1.
</event>
<event>
 5    1  0.1626333E-003  0.9118800E+02  0.7818608E-02  0.1130116E+00
         25   -1    0    0    0    0  0.00000000000E+00  0.00000000000E+00  0.99999998245E-14  0.12500000000E+03  0.12500000000E+03 0.  0.
        -11    1    3    3    0    0  0.45859118085E+02 -0.16384850958E+02 -0.72925790452E+01  0.49241281074E+02  0.51100000000E-03 0. -1.
         23    2    1    0    0    0  0.23580743222E+02  0.21030854346E+02  0.57437193044E-01  0.93403297886E+02  0.87896669286E+02 0.  0.
         11    1    3    3    0    0 -0.22278374863E+02  0.37415705304E+02  0.73500162382E+01  0.44162016812E+02  0.51100000000E-03 0.  1.
         22    1    1    0    0    0 -0.23580743222E+02 -0.21030854346E+02 -0.57437193044E-01  0.31596702114E+02  0.00000000000E+00 0.  1.
</event>
<event>
 5    1  0.1626333E-003  0.9118800E+02  0.7818608E-02  0.1130116E+00
         25   -1    0    0    0    0  0.00000000000E+00  0.00000000000E+00  0.99999998245E-14  0.12500000000E+03  0.12500000000E+03 0.  0.
        -11    1    3    3    0    0  0.20984895734E+02 -0.14812134483E+02 -0.30338557367E+02  0.39751644498E+02  0.51100000000E-03 0.  1.
         23    2    1    0    0    0  0.48800401141E+01  0.29860344725E+02 -0.28774412811E+01  0.94606996744E+02  0.89592126808E+02 0.  0.
         11    1    3    3    0    0 -0.16104855620E+02  0.44672479208E+02  0.27461116086E+02  0.54855352246E+02  0.51100000000E-03 0. -1.
         22    1    1    0    0    0 -0.48800401141E+01 -0.29860344725E+02  0.28774412811E+01  0.30393003256E+02  0.00000000000E+00 0. -1.
</event>
<event>
 5    1  0.1626333E-003  0.9118800E+02  0.7818608E-02  0.1130116E+00
         25   -1    0    0    0    0  0.00000000000E+00  0.00000000000E+00  0.99999998245E-14  0.12500000000E+03  0.12500000000E+03 0.  0.
        -11    1    3    3    0    0  0.32777872501E+02 -0.15215917075E+02 -0.36177922181E+01  0.36318059955E+02  0.51100000000E-03 0.  1.
         23    2    1    0    0    0 -0.22884590838E+02 -0.11595190348E+02  0.15192595290E+02  0.95184435463E+02  0.90394186017E+02 0.  0.
         11    1    3    3    0    0 -0.55662463339E+02  0.36207267269E+01  0.18810387508E+02  0.58866375508E+02  0.51100000000E-03 0. -1.
         22    1    1    0    0    0  0.22884590838E+02  0.11595190348E+02 -0.15192595290E+02  0.29815564537E+02  0.00000000000E+00 0. -1.
</event>
<event>
 5    1  0.1626333E-003  0.9118800E+02  0.7818608E-02  0.1130116E+00
         25   -1    0    0    0    0  0.00000000000E+00  0.00000000000E+00  0.99999998245E-14  0.12500000000E+03  0.12500000000E+03 0.  0.
        -11    1    3    3    0    0 -0.14076059429E+02 -0.13755587338E+02 -0.30669198146E+02  0.36441066769E+02  0.51100000000E-03 0.  1.
         23    2    1    0    0    0  0.26734487345E+02  0.12001511836E+02  0.33774754050E+01  0.95501246805E+02  0.90831226466E+02 0.  0.
         11    1    3    3    0    0  0.40810546774E+02  0.25757099173E+02  0.34046673551E+02  0.59060180037E+02  0.51100000000E-03 0. -1.
         22    1    1    0    0    0 -0.26734487345E+02 -0.12001511836E+02 -0.33774754050E+01  0.29498753195E+02  0.00000000000E+00 0. -1.
</event>
<event>
 5    1  0.1626333E-003  0.9118800E+02  0.7818608E-02  0.1130116E+00
         25   -1    0    0    0    0  0.00000000000E+00  0.00000000000E+00  0.99999998245E-14  0.12500000000E+03  0.12500000000E+03 0.  0.
        -11    1    3    3    0    0 -0.21422865466E+02 -0.23411357409E+02 -0.25973066976E+02  0.41007694753E+02  0.51100000000E-03 0.  1.
         23    2    1    0    0    0 -0.15389519753E+01  0.25935513560E+02 -0.13785548459E+02  0.95588087734E+02  0.90950656587E+02 0.  0.
         11    1    3    3    0    0  0.19883913491E+02  0.49346870969E+02  0.12187518517E+02  0.54580392982E+02  0.51100000000E-03 0. -1.
         22    1    1    0    0    0  0.15389519753E+01 -0.25935513560E+02  0.13785548459E+02  0.29411912266E+02  0.00000000000E+00 0. -1.
</event>
<event>
 5    1  0.1626333E-003  0.9118800E+02  0.7818608E-02  0.1130116E+00
         25   -1    0    0    0    0  0.00000000000E+00  0.00000000000E+00  0.99999998245E-14  0.12500000000E+03  0.12500000000E+03 0.  0.
        -11    1    3    3    0    0  0.14415130761E+02  0.15592233505E+02 -0.36531003241E+02  0.42254324495E+02  0.51100000000E-03 0.  1.
         23    2    1    0    0    0 -0.27586923103E+02  0.10563646132E+02 -0.49426293796E+01  0.95049064604E+02  0.90206796590E+02 0.  0.
         11    1    3    3    0    0 -0.42002053864E+02 -0.50285873733E+01  0.31588373861E+02  0.52794740109E+02  0.51100000000E-03 0. -1.
         22    1    1    0    0    0  0.27586923103E+02 -0.10563646132E+02  0.49426293796E+01  0.29950935396E+02  0.00000000000E+00 0. -1.
</event>
<event>
 5    1  0.1626333E-003  0.9118800E+02  0.7818608E-02  0.1130116E+00
         25   -1    0    0    0    0  0.00000000000E+00  0.00000000000E+00  0.99999998245E-14  0.12500000000E+03  0.12500000000E+03 0.  0.
        -11    1    3    3    0    0  0.20276450839E+02 -0.31998439942E+02 -0.36073142205E+02  0.52309714261E+02  0.51100000000E-03 0.  1.
         23    2    1    0    0    0  0.24991322650E+02 -0.22731788049E+02  0.13894226568E+01  0.91188302453E+02  0.84688107862E+02 0.  0.
         11    1    3    3    0    0  0.47148718110E+01  0.92666518931E+01  0.37462564862E+02  0.38878588192E+02  0.51100000000E-03 0. -1.
         22    1    1    0    0    0 -0.24991322650E+02  0.22731788049E+02 -0.13894226568E+01  0.33811697547E+02  0.00000000000E+00 0.  1.
</event>
<event>
 5    1  0.1626333E-003  0.9118800E+02  0.7818608E-02  0.1130116E+00
         25   -1    0    0    0    0  0.00000000000E+00  0.00000000000E+00  0.99999998245E-14  0.12500000000E+03  0.12500000000E+03 0.  0.
        -11    1    3    3    0    0  0.64777430380E+01  0.28042871689E+02  0.49628089846E+02  0.57369949533E+02  0.51100000000E-03 0.  1.
         23    2    1    0    0    0  0.17554336490E+02  0.15199296552E+02  0.11525280722E+02  0.99076932261E+02  0.95625483346E+02 0.  0.
         11    1    3    3    0    0  0.11076593452E+02 -0.12843575137E+02 -0.38102809124E+02  0.41706982727E+02  0.51100000000E-03 0. -1.
         22    1    1    0    0    0 -0.17554336490E+02 -0.15199296552E+02 -0.11525280722E+02  0.25923067739E+02  0.00000000000E+00 0.  1.
</event>
<event>
 5    1  0.1626333E-003  0.9118800E+02  0.7818608E-02  0.1130116E+00
         25   -1    0    0    0    0  0.00000000000E+00  0.00000000000E+00  0.99999998245E-14  0.12500000000E+03  0.12500000000E+03 0.  0.
        -11    1    3    3    0    0  0.19018225887E+02  0.83980585846E+00  0.45784202277E+02  0.49584184658E+02  0.51100000000E-03 0. -1.
         23    2    1    0    0    0  0.24107797507E+02  0.18001964607E+02  0.45057479761E+01  0.94577008773E+02  0.89550277461E+02 0.  0.
         11    1    3    3    0    0  0.50895716201E+01  0.17162158749E+02 -0.41278454301E+02  0.44992824116E+02  0.51100000000E-03 0.  1.
         22    1    1    0    0    0 -0.24107797507E+02 -0.18001964607E+02 -0.45057479761E+01  0.30422991227E+02  0.00000000000E+00 0.  1.
</event>
<event>
 5    1  0.1626333E-003  0.9118800E+02  0.7818608E-02  0.1130116E+00
         25   -1    0    0    0    0  0.00000000000E+00  0.00000000000E+00  0.99999998245E-14  0.12500000000E+03  0.12500000000E+03 0.  0.
        -11    1    3    3    0    0 -0.15712071120E+01  0.85351886488E+01  0.34409216423E+02  0.35486790672E+02  0.51100000000E-03 0.  1.
         23    2    1    0    0    0  0.30282713248E+02 -0.22564496264E+02  0.19919206716E+02  0.82303700283E+02  0.70362810282E+02 0.  0.
         11    1    3    3    0    0  0.31853920360E+02 -0.31099684913E+02 -0.14490009707E+02  0.46816909611E+02  0.51100000000E-03 0. -1.
         22    1    1    0    0    0 -0.30282713248E+02  0.22564496264E+02 -0.19919206716E+02  0.42696299717E+02  0.00000000000E+00 0. -1.
</event>
<event>
 5    1  0.1626333E-003  0.9118800E+02  0.7818608E-02  0.1130116E+00
         25   -1    0    0    0    0  0.00000000000E+00  0.00000000000E+00  0.99999998245E-14  0.12500000000E+03  0.12500000000E+03 0.  0.
        -11    1    3    3    0    0  0.15038963504E+02  0.51352151751E+01  0.55314086045E+02  0.57551620077E+02  0.51100000000E-03 0.  1.
         23    2    1    0    0    0  0.12599044013E+02 -0.14267505840E+02  0.27885537114E+02  0.91237582831E+02  0.84760814695E+02 0.  0.
         11    1    3    3    0    0 -0.24399194916E+01 -0.19402721016E+02 -0.27428548931E+02  0.33685962754E+02  0.51100000000E-03 0. -1.
         22    1    1    0    0    0 -0.12599044013E+02  0.14267505840E+02 -0.27885537114E+02  0.33762417169E+02  0.00000000000E+00 0.  1.
</event>
<event>
 5    1  0.1626333E-003  0.9118800E+02  0.7818608E-02  0.1130116E+00
         25   -1    0    0    0    0  0.00000000000E+00  0.00000000000E+00  0.99999998245E-14  0.12500000000E+03  0.12500000000E+03 0.  0.
        -11    1    3    3    0    0 -0.44761947304E+02 -0.92782658828E+01  0.74558851844E+01  0.46317473683E+02  0.51100000000E-03 0. -1.
         23    2    1    0    0    0 -0.89782622251E+01  0.25177715404E+02 -0.56190269202E+01  0.97685168698E+02  0.93788550338E+02 0.  0.
         11    1    3    3    0    0  0.35783685079E+02  0.34455981287E+02 -0.13074912105E+02  0.51367695014E+02  0.51100000000E-03 0.  1.
         22    1    1    0    0    0  0.89782622251E+01 -0.25177715404E+02  0.56190269202E+01  0.27314831302E+02  0.00000000000E+00 0.  1.
</event>
<event>
 5    1  0.1626333E-003  0.9118800E+02  0.7818608E-02  0.1130116E+00
         25   -1    0    0    0    0  0.00000000000E+00  0.00000000000E+00  0.99999998245E-14  0.12500000000E+03  0.12500000000E+03 0.  0.
        -11    1    3    3    0    0  0.16155728339E+02  0.24615224644E+02 -0.31592568579E+02  0.43185729496E+02  0.51100000000E-03 0.  1.
         23    2    1    0    0    0 -0.48066904561E+00 -0.23255122901E+02 -0.17807777849E+02  0.95705824200E+02  0.91112326553E+02 0.  0.
         11    1    3    3    0    0 -0.16636397384E+02 -0.47870347545E+02  0.13784790730E+02  0.52520094704E+02  0.51100000000E-03 0. -1.
         22    1    1    0    0    0  0.48066904561E+00  0.23255122901E+02  0.17807777849E+02  0.29294175800E+02  0.00000000000E+00 0. -1.
</event>
<event>
 5    1  0.1626333E-003  0.9118800E+02  0.7818608E-02  0.1130116E+00
         25   -1    0    0    0    0  0.00000000000E+00  0.00000000000E+00  0.99999998245E-14  0.12500000000E+03  0.12500000000E+03 0.  0.
        -11    1    3    3    0    0 -0.23129107927E+02  0.97923868093E+01  0.37099956835E+02  0.44802380186E+02  0.51100000000E-03 0. -1.
         23    2    1    0    0    0 -0.24339026718E+02 -0.16865873936E+02 -0.53163599050E+01  0.94914960398E+02  0.90020775932E+02 0.  0.
         11    1    3    3    0    0 -0.12099187917E+01 -0.26658260746E+02 -0.42416316740E+02  0.50112580212E+02  0.51100000000E-03 0.  1.
         22    1    1    0    0    0  0.24339026718E+02  0.16865873936E+02  0.53163599050E+01  0.30085039602E+02  0.00000000000E+00 0.  1.
</event>
<event>
 5    1  0.1626333E-003  0.9118800E+02  0.7818608E-02  0.1130116E+00
         25   -1    0    0    0    0  0.00000000000E+00  0.00000000000E+00  0.99999998245E-14  0.12500000000E+03  0.12500000000E+03 0.  0.
        -11    1    3    3    0    0  0.90744932885E+01  0.20906736887E+02  0.39193241204E+02  0.45338154263E+02  0.51100000000E-03 0.  1.
         23    2    1    0    0    0 -0.27999275336E+02  0.14841548734E+02  0.15837674522E+02  0.89573132761E+02  0.82269576334E+02 0.  0.
         11    1    3    3    0    0 -0.37073768624E+02 -0.60651881534E+01 -0.23355566682E+02  0.44234978497E+02  0.51100000000E-03 0. -1.
         22    1    1    0    0    0  0.27999275336E+02 -0.14841548734E+02 -0.15837674522E+02  0.35426867239E+02  0.00000000000E+00 0.  1.
</event>
<event>
 5    1  0.1626333E-003  0.9118800E+02  0.7818608E-02  0.1130116E+00
         25   -1    0    0    0    0  0.00000000000E+00  0.00000000000E+00  0.99999998245E-14  0.12500000000E+03  0.12500000000E+03 0.  0.
        -11    1    3    3    0    0 -0.63194095685E+00  0.42063175355E+02  0.57601619348E+01  0.42460446725E+02  0.51100000000E-03 0. -1.
         23    2    1    0    0    0  0.86694552552E+01 -0.24243874705E+01 -0.25721727539E+02  0.97748497718E+02  0.93872916380E+02 0.  0.
         11    1    3    3    0    0  0.93013962120E+01 -0.44487562825E+02 -0.31481889474E+02  0.55288050994E+02  0.51100000000E-03 0.  1.
         22    1    1    0    0    0 -0.86694552552E+01  0.24243874705E+01  0.25721727539E+02  0.27251502282E+02  0.00000000000E+00 0.  1.
</event>
<event>
 5    1  0.1626333E-003  0.9118800E+02  0.7818608E-02  0.1130116E+00
         25   -1    0    0    0    0  0.00000000000E+00  0.00000000000E+00  0.99999998245E-14  0.12500000000E+03  0.12500000000E+03 0.  0.
        -11    1    3    3    0    0 -0.17348196042E+02  0.16878088798E+01  0.30343662992E+02  0.34993520668E+02  0.51100000000E-03 0. -1.
         23    2    1    0    0    0  0.16577956262E+02 -0.44948463899E+01 -0.21637666841E+02  0.97373547021E+02  0.93372301863E+02 0.  0.
         11    1    3    3    0    0  0.33926152304E+02 -0.61826552697E+01 -0.51981329833E+02  0.62380026353E+02  0.51100000000E-03 0.  1.
         22    1    1    0    0    0 -0.16577956262E+02  0.44948463899E+01  0.21637666841E+02  0.27626452979E+02  0.00000000000E+00 0.  1.
</event>
<event>
 5    1  0.1626333E-003  0.9118800E+02  0.7818608E-02  0.1130116E+00
         25   -1    0    0    0    0  0.00000000000E+00  0.00000000000E+00  0.99999998245E-14  0.12500000000E+03  0.12500000000E+03 0.  0.
        -11    1    3    3    0    0  0.48405664088E+02  0.10175720543E+02  0.33258011713E+02  0.59604940631E+02  0.51100000000E-03 0. -1.
         23    2    1    0    0    0  0.23912355570E+02  0.13919870968E+02  0.55423209384E+01  0.96781550750E+02  0.92576388391E+02 0.  0.
         11    1    3    3    0    0 -0.24493308517E+02  0.37441504256E+01 -0.27715690774E+02  0.37176610118E+02  0.51100000000E-03 0.  1.
         22    1    1    0    0    0 -0.23912355570E+02 -0.13919870968E+02 -0.55423209384E+01  0.28218449250E+02  0.00000000000E+00 0. -1.
</event>
<event>
 5    1  0.1626333E-003  0.9118800E+02  0.7818608E-02  0.1130116E+00
         25   -1    0    0    0    0  0.00000000000E+00  0.00000000000E+00  0.99999998245E-14  0.12500000000E+03  0.12500000000E+03 0.  0.
        -11    1    3    3    0    0  0.16586291381E+02  0.47186751483E+02  0.49106225919E+01  0.50257425240E+02  0.51100000000E-03 0.  1.
         23    2    1    0    0    0  0.92244353882E+01  0.15105079101E+02 -0.24755074733E+02  0.94568645315E+02  0.89538602451E+02 0.  0.
         11    1    3    3    0    0 -0.73618559928E+01 -0.32081672382E+02 -0.29665697325E+02  0.44311220075E+02  0.51100000000E-03 0. -1.
         22    1    1    0    0    0 -0.92244353882E+01 -0.15105079101E+02  0.24755074733E+02  0.30431354685E+02  0.00000000000E+00 0.  1.
</event>
<event>
 5    1  0.1626333E-003  0.9118800E+02  0.7818608E-02  0.1130116E+00
         25   -1    0    0    0    0  0.00000000000E+00  0.00000000000E+00  0.99999998245E-14  0.12500000000E+03  0.12500000000E+03 0.  0.
        -11    1    3    3    0    0  0.34656560913E+01  0.19147199671E+02  0.32936693673E+02  0.38255088783E+02  0.51100000000E-03 0. -1.
         23    2    1    0    0    0 -0.12827112939E+02  0.14197984182E+02 -0.22042695821E+02  0.95810994874E+02  0.91256499596E+02 0.  0.
         11    1    3    3    0    0 -0.16292769030E+02 -0.49492154891E+01 -0.54979389494E+02  0.57555906092E+02  0.51100000000E-03 0.  1.
         22    1    1    0    0    0  0.12827112939E+02 -0.14197984182E+02  0.22042695821E+02  0.29189005126E+02  0.00000000000E+00 0.  1.
</event>
<event>
 5    1  0.1626333E-003  0.9118800E+02  0.7818608E-02  0.1130116E+00
         25   -1    0    0    0    0  0.00000000000E+00  0.00000000000E+00  0.99999998245E-14  0.12500000000E+03  0.12500000000E+03 0.  0.
        -11    1    3    3    0    0  0.62270181883E+01 -0.36276192219E+02  0.17326530932E+00  0.36807171836E+02  0.51100000000E-03 0. -1.
         23    2    1    0    0    0 -0.17450244060E+02  0.18052959688E+02  0.11890254303E+02  0.97218737995E+02  0.93164824363E+02 0.  0.
         11    1    3    3    0    0 -0.23677262248E+02  0.54329151906E+02  0.11716988993E+02  0.60411566159E+02  0.51100000000E-03 0.  1.
         22    1    1    0    0    0  0.17450244060E+02 -0.18052959688E+02 -0.11890254303E+02  0.27781262005E+02  0.00000000000E+00 0.  1.
</event>
<event>
 5    1  0.1626333E-003  0.9118800E+02  0.7818608E-02  0.1130116E+00
         25   -1    0    0    0    0  0.00000000000E+00  0.00000000000E+00  0.99999998245E-14  0.12500000000E+03  0.12500000000E+03 0.  0.
        -11    1    3    3    0    0 -0.31471400594E+02  0.50404088046E+02 -0.18323837652E+02  0.62183471869E+02  0.51100000000E-03 0. -1.
         23    2    1    0    0    0 -0.15673314738E+02  0.22014816899E+02 -0.12640191635E+02  0.95165801460E+02  0.90368414642E+02 0.  0.
         11    1    3    3    0    0  0.15798085856E+02 -0.28389271147E+02  0.56836460172E+01  0.32982329591E+02  0.51100000000E-03 0.  1.
         22    1    1    0    0    0  0.15673314738E+02 -0.22014816899E+02  0.12640191635E+02  0.29834198540E+02  0.00000000000E+00 0. -1.
</event>
<event>
 5    1  0.1626333E-003  0.9118800E+02  0.7818608E-02  0.1130116E+00
         25   -1    0    0    0    0  0.00000000000E+00  0.00000000000E+00  0.99999998245E-14  0.12500000000E+03  0.12500000000E+03 0.  0.
        -11    1    3    3    0    0  0.56160494321E+01 -0.42002032471E+02  0.33207939535E+02  0.53837514721E+02  0.51100000000E-03 0. -1.
         23    2    1    0    0    0 -0.18816126707E+02 -0.12310999095E+02  0.21138325014E+02  0.94138436407E+02  0.88935983167E+02 0.  0.
         11    1    3    3    0    0 -0.24432176139E+02  0.29691033376E+02 -0.12069614521E+02  0.40300921686E+02  0.51100000000E-03 0.  1.
         22    1    1    0    0    0  0.18816126707E+02  0.12310999095E+02 -0.21138325014E+02  0.30861563593E+02  0.00000000000E+00 0. -1.
</event>
<event>
 5    1  0.1626333E-003  0.9118800E+02  0.7818608E-02  0.1130116E+00
         25   -1    0    0    0    0  0.00000000000E+00  0.00000000000E+00  0.99999998245E-14  0.12500000000E+03  0.12500000000E+03 0.  0.
        -11    1    3    3    0    0 -0.18545885390E+02  0.22573547857E+02 -0.27286019110E+02  0.39975514591E+02  0.51100000000E-03 0.  1.
         23    2    1    0    0    0  0.12836880197E+02 -0.21328181153E+02 -0.16848827605E+02  0.94940728615E+02  0.90056549755E+02 0.  0.
         11    1    3    3    0    0  0.31382765587E+02 -0.43901729010E+02  0.10437191505E+02  0.54965214024E+02  0.51100000000E-03 0. -1.
         22    1    1    0    0    0 -0.12836880197E+02  0.21328181153E+02  0.16848827605E+02  0.30059271385E+02  0.00000000000E+00 0. -1.
</event>
<event>
 5    1  0.1626333E-003  0.9118800E+02  0.7818608E-02  0.1130116E+00
         25   -1    0    0    0    0  0.00000000000E+00  0.00000000000E+00  0.99999998245E-14  0.12500000000E+03  0.12500000000E+03 0.  0.
        -11    1    3    3    0    0 -0.27764326971E+02  0.11846870691E+02 -0.48713516843E+02  0.57308052845E+02  0.51100000000E-03 0.  1.
         23    2    1    0    0    0 -0.21212996856E+02 -0.92997243355E+01 -0.15844803867E+02  0.96936965276E+02  0.92785997429E+02 0.  0.
         11    1    3    3    0    0  0.65513301143E+01 -0.21146595027E+02  0.32868712976E+02  0.39628912431E+02  0.51100000000E-03 0. -1.
         22    1    1    0    0    0  0.21212996856E+02  0.92997243355E+01  0.15844803867E+02  0.28063034724E+02  0.00000000000E+00 0.  1.
</event>
<event>
 5    1  0.1626333E-003  0.9118800E+02  0.7818608E-02  0.1130116E+00
         25   -1    0    0    0    0  0.00000000000E+00  0.00000000000E+00  0.99999998245E-14  0.12500000000E+03  0.12500000000E+03 0.  0.
        -11    1    3    3    0    0 -0.20755342166E+02 -0.20722890499E+02  0.26857018216E+02  0.39768352327E+02  0.51100000000E-03 0.  1.
         23    2    1    0    0    0 -0.72457985973E+00 -0.14303106377E+02 -0.25255857085E+02  0.95966188933E+02  0.91468832031E+02 0.  0.
         11    1    3    3    0    0  0.20030762306E+02  0.64197841224E+01 -0.52112875301E+02  0.56197836606E+02  0.51100000000E-03 0. -1.
         22    1    1    0    0    0  0.72457985973E+00  0.14303106377E+02  0.25255857085E+02  0.29033811067E+02  0.00000000000E+00 0. -1.
</event>
<event>
 5    1  0.1626333E-003  0.9118800E+02  0.7818608E-02  0.1130116E+00
         25   -1    0    0    0    0  0.00000000000E+00  0.00000000000E+00  0.99999998245E-14  0.12500000000E+03  0.12500000000E+03 0.  0.
        -11    1    3    3    0    0  0.22271943324E+02  0.21998167294E+02  0.82084123089E+01  0.32362584208E+02  0.51100000000E-03 0.  1.
         23    2    1    0    0    0 -0.20147963233E+02 -0.21532293784E+02  0.11772795821E+02  0.93248168250E+02  0.87675778083E+02 0.  0.
         11    1    3    3    0    0 -0.42419906557E+02 -0.43530461078E+02  0.35643835123E+01  0.60885584042E+02  0.51100000000E-03 0. -1.
         22    1    1    0    0    0  0.20147963233E+02  0.21532293784E+02 -0.11772795821E+02  0.31751831750E+02  0.00000000000E+00 0. -1.
</event>
<event>
 5    1  0.1626333E-003  0.9118800E+02  0.7818608E-02  0.1130116E+00
         25   -1    0    0    0    0  0.00000000000E+00  0.00000000000E+00  0.99999998245E-14  0.12500000000E+03  0.12500000000E+03 0.  0.
        -11    1    3    3    0    0  0.37670345269E+01  0.25680881694E+02  0.36570963998E+02  0.44845664692E+02  0.51100000000E-03 0. -1.
         23    2    1    0    0    0 -0.85450267654E+01 -0.20182976435E+02  0.20529249337E+02  0.94969680346E+02  0.90096726281E+02 0.  0.
         11    1    3    3    0    0 -0.12312061292E+02 -0.45863858129E+02 -0.16041714661E+02  0.50124015654E+02  0.51100000000E-03 0.  1.
         22    1    1    0    0    0  0.85450267654E+01  0.20182976435E+02 -0.20529249337E+02  0.30030319654E+02  0.00000000000E+00 0.  1.
</event>
<event>
 5    1  0.1626333E-003  0.9118800E+02  0.7818608E-02  0.1130116E+00
         25   -1    0    0    0    0  0.00000000000E+00  0.00000000000E+00  0.99999998245E-14  0.12500000000E+03  0.12500000000E+03 0.  0.
        -11    1    3    3    0    0  0.46246476051E+02  0.17222664048E+02 -0.66141664397E+01  0.49790600539E+02  0.51100000000E-03 0. -1.
         23    2    1    0    0    0  0.16250442193E+02 -0.14643332143E+02 -0.19797989719E+02  0.95496365569E+02  0.90824508764E+02 0.  0.
         11    1    3    3    0    0 -0.29996033858E+02 -0.31865996191E+02 -0.13183823280E+02  0.45705765030E+02  0.51100000000E-03 0.  1.
         22    1    1    0    0    0 -0.16250442193E+02  0.14643332143E+02  0.19797989719E+02  0.29503634431E+02  0.00000000000E+00 0.  1.
</event>
<event>
 5    1  0.1626333E-003  0.9118800E+02  0.7818608E-02  0.1130116E+00
         25   -1    0    0    0    0  0.00000000000E+00  0.00000000000E+00  0.99999998245E-14  0.12500000000E+03  0.12500000000E+03 0.  0.
        -11    1    3    3    0    0  0.13789221687E+02  0.23684849648E+02 -0.35342659337E+02  0.44723800228E+02  0.51100000000E-03 0. -1.
         23    2    1    0    0    0  0.15619121919E+02  0.18465062990E+02  0.15765356121E+02  0.96130258499E+02  0.91692773023E+02 0.  0.
         11    1    3    3    0    0  0.18299002320E+01 -0.52197866580E+01  0.51108015458E+02  0.51406458270E+02  0.51100000000E-03 0.  1.
         22    1    1    0    0    0 -0.15619121919E+02 -0.18465062990E+02 -0.15765356121E+02  0.28869741501E+02  0.00000000000E+00 0.  1.
</event>
<event>
 5    1  0.1626333E-003  0.9118800E+02  0.7818608E-02  0.1130116E+00
         25   -1    0    0    0    0  0.00000000000E+00  0.00000000000E+00  0.99999998245E-14  0.12500000000E+03  0.12500000000E+03 0.  0.
        -11    1    3    3    0    0  0.26721344284E+02 -0.26342379166E+02  0.48241964562E+02  0.61116596155E+02  0.51100000000E-03 0.  1.
         23    2    1    0    0    0  0.59040156093E+01 -0.95268073256E+01  0.28512344432E+02  0.94363889882E+02  0.89252296724E+02 0.  0.
         11    1    3    3    0    0 -0.20817328675E+02  0.16815571840E+02 -0.19729620130E+02  0.33247293728E+02  0.51100000000E-03 0. -1.
         22    1    1    0    0    0 -0.59040156093E+01  0.95268073256E+01 -0.28512344432E+02  0.30636110118E+02  0.00000000000E+00 0.  1.
</event>
<event>
 5    1  0.1626333E-003  0.9118800E+02  0.7818608E-02  0.1130116E+00
         25   -1    0    0    0    0  0.00000000000E+00  0.00000000000E+00  0.99999998245E-14  0.12500000000E+03  0.12500000000E+03 0.  0.
        -11    1    3    3    0    0 -0.29846131324E+02  0.15060916569E+02 -0.37278672666E+02  0.50073168453E+02  0.51100000000E-03 0. -1.
         23    2    1    0    0    0  0.13094822768E+02  0.15694189416E+02 -0.20117899181E+02  0.96320532916E+02  0.91951798400E+02 0.  0.
         11    1    3    3    0    0  0.42940954092E+02  0.63327284685E+00  0.17160773486E+02  0.46247364463E+02  0.51100000000E-03 0.  1.
         22    1    1    0    0    0 -0.13094822768E+02 -0.15694189416E+02  0.20117899181E+02  0.28679467084E+02  0.00000000000E+00 0. -1.
</event>
<event>
 5    1  0.1626333E-003  0.9118800E+02  0.7818608E-02  0.1130116E+00
         25   -1    0    0    0    0  0.00000000000E+00  0.00000000000E+00  0.99999998245E-14  0.12500000000E+03  0.12500000000E+03 0.  0.
        -11    1    3    3    0    0 -0.39600071012E+02  0.30721436858E+02 -0.13073119796E+02  0.51796513089E+02  0.51100000000E-03 0.  1.
         23    2    1    0    0    0  0.42430986382E+01  0.27404257543E+02 -0.84658804903E+01  0.96005718667E+02  0.91522836860E+02 0.  0.
         11    1    3    3    0    0  0.43843169650E+02 -0.33171793156E+01  0.46072393057E+01  0.44209205578E+02  0.51100000000E-03 0. -1.
         22    1    1    0    0    0 -0.42430986382E+01 -0.27404257543E+02  0.84658804903E+01  0.28994281333E+02  0.00000000000E+00 0.  1.
</event>
<event>
 5    1  0.1626333E-003  0.9118800E+02  0.7818608E-02  0.1130116E+00
         25   -1    0    0    0    0  0.00000000000E+00  0.00000000000E+00  0.99999998245E-14  0.12500000000E+03  0.12500000000E+03 0.  0.
        -11    1    3    3    0    0  0.13191436632E+02  0.12400226122E+02  0.28989947701E+02  0.34178892262E+02  0.51100000000E-03 0. -1.
         23    2    1    0    0    0 -0.22715722222E+02 -0.59091993125E+01 -0.17510445234E+02  0.95716244010E+02  0.91126620713E+02 0.  0.
         11    1    3    3    0    0 -0.35907158854E+02 -0.18309425435E+02 -0.46500392935E+02  0.61537351748E+02  0.51100000000E-03 0.  1.
         22    1    1    0    0    0  0.22715722222E+02  0.59091993125E+01  0.17510445234E+02  0.29283755990E+02  0.00000000000E+00 0.  1.
</event>
<event>
 5    1  0.1626333E-003  0.9118800E+02  0.7818608E-02  0.1130116E+00
         25   -1    0    0    0    0  0.00000000000E+00  0.00000000000E+00  0.99999998245E-14  0.12500000000E+03  0.12500000000E+03 0.  0.
        -11    1    3    3    0    0  0.27289185917E+02 -0.38739055835E+02 -0.34746421952E+02  0.58759917918E+02  0.51100000000E-03 0. -1.
         23    2    1    0    0    0  0.16088858723E+02 -0.23918131328E+02 -0.23833452196E+01  0.96075810890E+02  0.91618517356E+02 0.  0.
         11    1    3    3    0    0 -0.11200327195E+02  0.14820924507E+02  0.32363076732E+02  0.37315892972E+02  0.51100000000E-03 0.  1.
         22    1    1    0    0    0 -0.16088858723E+02  0.23918131328E+02  0.23833452196E+01  0.28924189110E+02  0.00000000000E+00 0. -1.
</event>
<event>
 5    1  0.1626333E-003  0.9118800E+02  0.7818608E-02  0.1130116E+00
         25   -1    0    0    0    0  0.00000000000E+00  0.00000000000E+00  0.99999998245E-14  0.12500000000E+03  0.12500000000E+03 0.  0.
        -11    1    3    3    0    0 -0.34228707935E+02  0.40229657741E+02 -0.10931664556E+02  0.53940069513E+02  0.51100000000E-03 0.  1.
         23    2    1    0    0    0 -0.27818195328E+02 -0.13685378910E+01 -0.74266882544E+01  0.96175000682E+02  0.91753747446E+02 0.  0.
         11    1    3    3    0    0  0.64105126064E+01 -0.41598195632E+02  0.35049763016E+01  0.42234931169E+02  0.51100000000E-03 0. -1.
         22    1    1    0    0    0  0.27818195328E+02  0.13685378910E+01  0.74266882544E+01  0.28824999318E+02  0.00000000000E+00 0.  1.
</event>
<event>
 5    1  0.1626333E-003  0.9118800E+02  0.7818608E-02  0.1130116E+00
         25   -1    0    0    0    0  0.00000000000E+00  0.00000000000E+00  0.99999998245E-14  0.12500000000E+03  0.12500000000E+03 0.  0.
        -11    1    3    3    0    0 -0.91839583467E+01  0.17869782545E+02  0.26477078168E+02  0.33237176289E+02  0.51100000000E-03 0.  1.
         23    2    1    0    0    0  0.17121152145E+02 -0.61886189256E+00 -0.25454809035E+02  0.94316712304E+02  0.89186198910E+02 0.  0.
         11    1    3    3    0    0  0.26305110492E+02 -0.18488644437E+02 -0.51931887203E+02  0.61079536015E+02  0.51100000000E-03 0. -1.
         22    1    1    0    0    0 -0.17121152145E+02  0.61886189256E+00  0.25454809035E+02  0.30683287696E+02  0.00000000000E+00 0. -1.
</event>
<event>
 5    1  0.1626333E-003  0.9118800E+02  0.7818608E-02  0.1130116E+00
         25   -1    0    0    0    0  0.00000000000E+00  0.00000000000E+00  0.99999998245E-14  0.12500000000E+03  0.12500000000E+03 0.  0.
        -11    1    3    3    0    0 -0.50498231395E+01 -0.20423388676E+02  0.34640026806E+02  0.40528347809E+02  0.51100000000E-03 0. -1.
         23    2    1    0    0    0  0.15198833869E+02 -0.20334415312E+02 -0.15948746359E+02  0.95019080943E+02  0.90165238512E+02 0.  0.
         11    1    3    3    0    0  0.20248657008E+02  0.88973364498E-01 -0.50588773165E+02  0.54490733134E+02  0.51100000000E-03 0.  1.
         22    1    1    0    0    0 -0.15198833869E+02  0.20334415312E+02  0.15948746359E+02  0.29980919057E+02  0.00000000000E+00 0.  1.
</event>
<event>
 5    1  0.1626333E-003  0.9118800E+02  0.7818608E-02  0.1130116E+00
         25   -1    0    0    0    0  0.00000000000E+00  0.00000000000E+00  0.99999998245E-14  0.12500000000E+03  0.12500000000E+03 0.  0.
        -11    1    3    3    0    0  0.55868186211E+02 -0.15029101895E+02 -0.11427736815E+02  0.58972207888E+02  0.51100000000E-03 0.  1.
         23    2    1    0    0    0  0.21009159874E+02 -0.19679047645E+02 -0.11117800943E+02  0.94141367292E+02  0.88940102445E+02 0.  0.
         11    1    3    3    0    0 -0.34859026337E+02 -0.46499457500E+01  0.30993587194E+00  0.35169159403E+02  0.51100000000E-03 0. -1.
         22    1    1    0    0    0 -0.21009159874E+02  0.19679047645E+02  0.11117800943E+02  0.30858632708E+02  0.00000000000E+00 0.  1.
</event>
<event>
 5    1  0.1626333E-003  0.9118800E+02  0.7818608E-02  0.1130116E+00
         25   -1    0    0    0    0  0.00000000000E+00  0.00000000000E+00  0.99999998245E-14  0.12500000000E+03  0.12500000000E+03 0.  0.
        -11    1    3    3    0    0 -0.40056162367E+02 -0.33855691294E+02 -0.28432484744E+02  0.59658278265E+02  0.51100000000E-03 0.  1.
         23    2    1    0    0    0 -0.27349822201E+02 -0.70220775094E+01 -0.81652211097E+01  0.95606239051E+02  0.90975599821E+02 0.  0.
         11    1    3    3    0    0  0.12706340166E+02  0.26833613785E+02  0.20267263635E+02  0.35947960786E+02  0.51100000000E-03 0. -1.
         22    1    1    0    0    0  0.27349822201E+02  0.70220775094E+01  0.81652211097E+01  0.29393760949E+02  0.00000000000E+00 0.  1.
</event>
<event>
 5    1  0.1626333E-003  0.9118800E+02  0.7818608E-02  0.1130116E+00
         25   -1    0    0    0    0  0.00000000000E+00  0.00000000000E+00  0.99999998245E-14  0.12500000000E+03  0.12500000000E+03 0.  0.
        -11    1    3    3    0    0 -0.91693507522E+01 -0.32386062403E+02  0.41761838484E+02  0.53637535225E+02  0.51100000000E-03 0.  1.
         23    2    1    0    0    0  0.18863804481E+02 -0.99805083142E+01  0.20806106032E+02  0.95194837462E+02  0.90408569093E+02 0.  0.
         11    1    3    3    0    0  0.28033155234E+02  0.22405554089E+02 -0.20955732452E+02  0.41557302237E+02  0.51100000000E-03 0. -1.
         22    1    1    0    0    0 -0.18863804481E+02  0.99805083142E+01 -0.20806106032E+02  0.29805162538E+02  0.00000000000E+00 0.  1.
</event>
<event>
 5    1  0.1626333E-003  0.9118800E+02  0.7818608E-02  0.1130116E+00
         25   -1    0    0    0    0  0.00000000000E+00  0.00000000000E+00  0.99999998245E-14  0.12500000000E+03  0.12500000000E+03 0.  0.
        -11    1    3    3    0    0  0.28139246730E+01  0.48300356553E+02  0.18821181003E+02  0.51914154812E+02  0.51100000000E-03 0. -1.
         23    2    1    0    0    0 -0.23611817341E+02  0.14622102920E+02  0.62081230447E+01  0.96541879829E+02  0.92252208413E+02 0.  0.
         11    1    3    3    0    0 -0.26425742014E+02 -0.33678253634E+02 -0.12613057959E+02  0.44627725016E+02  0.51100000000E-03 0.  1.
         22    1    1    0    0    0  0.23611817341E+02 -0.14622102920E+02 -0.62081230447E+01  0.28458120171E+02  0.00000000000E+00 0.  1.
</event>
<event>
 5    1  0.1626333E-003  0.9118800E+02  0.7818608E-02  0.1130116E+00
         25   -1    0    0    0    0  0.00000000000E+00  0.00000000000E+00  0.99999998245E-14  0.12500000000E+03  0.12500000000E+03 0.  0.
        -11    1    3    3    0    0 -0.13598079075E+02  0.14761841657E+02 -0.33830923193E+02  0.39336383769E+02  0.51100000000E-03 0.  1.
         23    2    1    0    0    0  0.67936504410E+01  0.22213196708E+02  0.18053839764E+02  0.95580263011E+02  0.90939901873E+02 0.  0.
         11    1    3    3    0    0  0.20391729516E+02  0.74513550504E+01  0.51884762958E+02  0.56243879242E+02  0.51100000000E-03 0. -1.
         22    1    1    0    0    0 -0.67936504410E+01 -0.22213196708E+02 -0.18053839764E+02  0.29419736989E+02  0.00000000000E+00 0. -1.
</event>
<event>
 5    1  0.1626333E-003  0.9118800E+02  0.7818608E-02  0.1130116E+00
         25   -1    0    0    0    0  0.00000000000E+00  0.00000000000E+00  0.99999998245E-14  0.12500000000E+03  0.12500000000E+03 0.  0.
        -11    1    3    3    0    0  0.97865313293E+01 -0.88809554195E+01  0.36428770487E+02  0.38751811365E+02  0.51100000000E-03 0. -1.
         23    2    1    0    0    0  0.13993832857E+02  0.22738036235E+02 -0.11176765291E+02  0.96055816953E+02  0.91591234506E+02 0.  0.
         11    1    3    3    0    0  0.42073015279E+01  0.31618991655E+02 -0.47605535778E+02  0.57304005588E+02  0.51100000000E-03 0.  1.
         22    1    1    0    0    0 -0.13993832857E+02 -0.22738036235E+02  0.11176765291E+02  0.28944183047E+02  0.00000000000E+00 0.  1.
</event>
<event>
 5    1  0.1626333E-003  0.9118800E+02  0.7818608E-02  0.1130116E+00
         25   -1    0    0    0    0  0.00000000000E+00  0.00000000000E+00  0.99999998245E-14  0.12500000000E+03  0.12500000000E+03 0.  0.
        -11    1    3    3    0    0  0.37721763506E+01  0.38947319688E+02 -0.26687422886E+02  0.47363926842E+02  0.51100000000E-03 0.  1.
         23    2    1    0    0    0 -0.25262432190E+02  0.11769718482E+02  0.29674619651E+01  0.96972824191E+02  0.92834293490E+02 0.  0.
         11    1    3    3    0    0 -0.29034608541E+02 -0.27177601206E+02  0.29654884851E+02  0.49608897349E+02  0.51100000000E-03 0. -1.
         22    1    1    0    0    0  0.25262432190E+02 -0.11769718482E+02 -0.29674619651E+01  0.28027175809E+02  0.00000000000E+00 0. -1.
</event>
<event>
 5    1  0.1626333E-003  0.9118800E+02  0.7818608E-02  0.1130116E+00
         25   -1    0    0    0    0  0.00000000000E+00  0.00000000000E+00  0.99999998245E-14  0.12500000000E+03  0.12500000000E+03 0.  0.
        -11    1    3    3    0    0  0.82367416125E+01  0.12331792491E+02 -0.49535478452E+02  0.51707645896E+02  0.51100000000E-03 0.  1.
         23    2    1    0    0    0  0.87479328600E+01  0.29033844788E+02 -0.12759722104E+02  0.92101656871E+02  0.86025660228E+02 0.  0.
         11    1    3    3    0    0  0.51119124751E+00  0.16702052297E+02  0.36775756347E+02  0.40394010974E+02  0.51100000000E-03 0. -1.
         22    1    1    0    0    0 -0.87479328600E+01 -0.29033844788E+02  0.12759722104E+02  0.32898343129E+02  0.00000000000E+00 0. -1.
</event>
<event>
 5    1  0.1626333E-003  0.9118800E+02  0.7818608E-02  0.1130116E+00
         25   -1    0    0    0    0  0.00000000000E+00  0.00000000000E+00  0.99999998245E-14  0.12500000000E+03  0.12500000000E+03 0.  0.
        -11    1    3    3    0    0 -0.29844256690E+02 -0.10068185701E+01 -0.27196597787E+02  0.40389952617E+02  0.51100000000E-03 0. -1.
         23    2    1    0    0    0  0.24467082457E+02 -0.16517372804E+01 -0.15619881801E+02  0.95925147164E+02  0.91412727729E+02 0.  0.
         11    1    3    3    0    0  0.54311339146E+02 -0.64491871027E+00  0.11576715986E+02  0.55535194546E+02  0.51100000000E-03 0.  1.
         22    1    1    0    0    0 -0.24467082457E+02  0.16517372804E+01  0.15619881801E+02  0.29074852836E+02  0.00000000000E+00 0.  1.
</event>
<event>
 5    1  0.1626333E-003  0.9118800E+02  0.7818608E-02  0.1130116E+00
         25   -1    0    0    0    0  0.00000000000E+00  0.00000000000E+00  0.99999998245E-14  0.12500000000E+03  0.12500000000E+03 0.  0.
        -11    1    3    3    0    0 -0.28688584851E+02  0.24119579921E+02  0.20577116632E+02  0.42757534605E+02  0.51100000000E-03 0. -1.
         23    2    1    0    0    0  0.20632252277E+02  0.30515920079E+01  0.19570618754E+02  0.96399105499E+02  0.92058548624E+02 0.  0.
         11    1    3    3    0    0  0.49320837128E+02 -0.21067987913E+02 -0.10064978775E+01  0.53641570894E+02  0.51100000000E-03 0.  1.
         22    1    1    0    0    0 -0.20632252277E+02 -0.30515920079E+01 -0.19570618754E+02  0.28600894501E+02  0.00000000000E+00 0.  1.
</event>
<event>
 5    1  0.1626333E-003  0.9118800E+02  0.7818608E-02  0.1130116E+00
         25   -1    0    0    0    0  0.00000000000E+00  0.00000000000E+00  0.99999998245E-14  0.12500000000E+03  0.12500000000E+03 0.  0.
        -11    1    3    3    0    0  0.14905789687E+02  0.15088948678E+02 -0.49769066797E+02  0.54100082703E+02  0.51100000000E-03 0. -1.
         23    2    1    0    0    0 -0.15464950974E+02  0.10854823591E+01 -0.24459848671E+02  0.96040939629E+02  0.91570928286E+02 0.  0.
         11    1    3    3    0    0 -0.30370740660E+02 -0.14003466319E+02  0.25309218126E+02  0.41940856925E+02  0.51100000000E-03 0.  1.
         22    1    1    0    0    0  0.15464950974E+02 -0.10854823591E+01  0.24459848671E+02  0.28959060371E+02  0.00000000000E+00 0. -1.
</event>
<event>
 5    1  0.1626333E-003  0.9118800E+02  0.7818608E-02  0.1130116E+00
         25   -1    0    0    0    0  0.00000000000E+00  0.00000000000E+00  0.99999998245E-14  0.12500000000E+03  0.12500000000E+03 0.  0.
        -11    1    3    3    0    0  0.27548212562E+02 -0.50468086544E+02  0.20906831029E+02  0.61180285703E+02  0.51100000000E-03 0.  1.
         23    2    1    0    0    0  0.24198778344E+02 -0.25789364321E+02  0.11303684062E+02  0.87872578075E+02  0.79643860521E+02 0.  0.
         11    1    3    3    0    0 -0.33494342177E+01  0.24678722223E+02 -0.96031469662E+01  0.26692292372E+02  0.51100000000E-03 0. -1.
         22    1    1    0    0    0 -0.24198778344E+02  0.25789364321E+02 -0.11303684062E+02  0.37127421925E+02  0.00000000000E+00 0.  1.
</event>
<event>
 5    1  0.1626333E-003  0.9118800E+02  0.7818608E-02  0.1130116E+00
         25   -1    0    0    0    0  0.00000000000E+00  0.00000000000E+00  0.99999998245E-14  0.12500000000E+03  0.12500000000E+03 0.  0.
        -11    1    3    3    0    0  0.20382739640E+00  0.26618375410E+02 -0.20008134142E+02  0.33300223530E+02  0.51100000000E-03 0.  1.
         23    2    1    0    0    0  0.16549772759E+01 -0.17012892739E+02  0.24161822678E+02  0.95403190303E+02  0.90696182807E+02 0.  0.
         11    1    3    3    0    0  0.14511498795E+01 -0.43631268148E+02  0.44169956820E+02  0.62102966773E+02  0.51100000000E-03 0. -1.
         22    1    1    0    0    0 -0.16549772759E+01  0.17012892739E+02 -0.24161822678E+02  0.29596809697E+02  0.00000000000E+00 0. -1.
</event>
<event>
 5    1  0.1626333E-003  0.9118800E+02  0.7818608E-02  0.1130116E+00
         25   -1    0    0    0    0  0.00000000000E+00  0.00000000000E+00  0.99999998245E-14  0.12500000000E+03  0.12500000000E+03 0.  0.
        -11    1    3    3    0    0  0.12656642740E+02 -0.31489592272E+02  0.46032969232E+02  0.57191076957E+02  0.51100000000E-03 0.  1.
         23    2    1    0    0    0 -0.19574368736E+00 -0.32349503499E+02  0.18148656655E+02  0.87906841189E+02  0.79697617890E+02 0.  0.
         11    1    3    3    0    0 -0.12852386427E+02 -0.85991122704E+00 -0.27884312577E+02  0.30715764232E+02  0.51100000000E-03 0. -1.
         22    1    1    0    0    0  0.19574368736E+00  0.32349503499E+02 -0.18148656655E+02  0.37093158811E+02  0.00000000000E+00 0.  1.
</event>
<event>
 5    1  0.1626333E-003  0.9118800E+02  0.7818608E-02  0.1130116E+00
         25   -1    0    0    0    0  0.00000000000E+00  0.00000000000E+00  0.99999998245E-14  0.12500000000E+03  0.12500000000E+03 0.  0.
        -11    1    3    3    0    0  0.41707327653E+02 -0.41644157872E+01  0.18390247339E+02  0.45771658657E+02  0.51100000000E-03 0.  1.
         23    2    1    0    0    0  0.15589344442E+02  0.20765086960E+02 -0.15053190091E+02  0.94986419265E+02  0.90119946828E+02 0.  0.
         11    1    3    3    0    0 -0.26117983211E+02  0.24929502747E+02 -0.33443437431E+02  0.49214760608E+02  0.51100000000E-03 0. -1.
         22    1    1    0    0    0 -0.15589344442E+02 -0.20765086960E+02  0.15053190091E+02  0.30013580735E+02  0.00000000000E+00 0. -1.
</event>
<event>
 5    1  0.1626333E-003  0.9118800E+02  0.7818608E-02  0.1130116E+00
         25   -1    0    0    0    0  0.00000000000E+00  0.00000000000E+00  0.99999998245E-14  0.12500000000E+03  0.12500000000E+03 0.  0.
        -11    1    3    3    0    0 -0.41967445297E+02  0.10239736326E+02  0.39959521636E+01  0.43383018553E+02  0.51100000000E-03 0. -1.
         23    2    1    0    0    0 -0.53193941864E+01 -0.17283720896E+02  0.25281090093E+02  0.93916942254E+02  0.88624125178E+02 0.  0.
         11    1    3    3    0    0  0.36648051111E+02 -0.27523457222E+02  0.21285137930E+02  0.50533923701E+02  0.51100000000E-03 0.  1.
         22    1    1    0    0    0  0.53193941864E+01  0.17283720896E+02 -0.25281090093E+02  0.31083057746E+02  0.00000000000E+00 0.  1.
</event>
<event>
 5    1  0.1626333E-003  0.9118800E+02  0.7818608E-02  0.1130116E+00
         25   -1    0    0    0    0  0.00000000000E+00  0.00000000000E+00  0.99999998245E-14  0.12500000000E+03  0.12500000000E+03 0.  0.
        -11    1    3    3    0    0  0.47033591133E+01  0.22734319636E+02  0.50295098595E+02  0.55394655150E+02  0.51100000000E-03 0.  1.
         23    2    1    0    0    0 -0.35225168163E+01 -0.99614537590E+01  0.25953387574E+02  0.96978276065E+02  0.92841634068E+02 0.  0.
         11    1    3    3    0    0 -0.82258759296E+01 -0.32695773395E+02 -0.24341711022E+02  0.41583620915E+02  0.51100000000E-03 0. -1.
         22    1    1    0    0    0  0.35225168163E+01  0.99614537590E+01 -0.25953387574E+02  0.28021723935E+02  0.00000000000E+00 0.  1.
</event>
<event>
 5    1  0.1626333E-003  0.9118800E+02  0.7818608E-02  0.1130116E+00
         25   -1    0    0    0    0  0.00000000000E+00  0.00000000000E+00  0.99999998245E-14  0.12500000000E+03  0.12500000000E+03 0.  0.
        -11    1    3    3    0    0  0.37547870973E+02 -0.22680095108E+02  0.16417855004E+02  0.46837754984E+02  0.51100000000E-03 0.  1.
         23    2    1    0    0    0  0.20902957802E+02  0.82287875518E+01 -0.18160418668E+02  0.96113196860E+02  0.91669510826E+02 0.  0.
         11    1    3    3    0    0 -0.16644913171E+02  0.30908882660E+02 -0.34578273672E+02  0.49275441877E+02  0.51100000000E-03 0. -1.
         22    1    1    0    0    0 -0.20902957802E+02 -0.82287875518E+01  0.18160418668E+02  0.28886803140E+02  0.00000000000E+00 0. -1.
</event>
<event>
 5    1  0.1626333E-003  0.9118800E+02  0.7818608E-02  0.1130116E+00
         25   -1    0    0    0    0  0.00000000000E+00  0.00000000000E+00  0.99999998245E-14  0.12500000000E+03  0.12500000000E+03 0.  0.
        -11    1    3    3    0    0  0.16193097308E+02  0.54958591181E+02  0.52675179744E+01  0.57536161594E+02  0.51100000000E-03 0.  1.
         23    2    1    0    0    0  0.20741531283E+02  0.21858497235E+02 -0.85279856545E+01  0.93683366070E+02  0.88294062754E+02 0.  0.
         11    1    3    3    0    0  0.45484339753E+01 -0.33100093946E+02 -0.13795503629E+02  0.36147204477E+02  0.51100000000E-03 0. -1.
         22    1    1    0    0    0 -0.20741531283E+02 -0.21858497235E+02  0.85279856545E+01  0.31316633930E+02  0.00000000000E+00 0.  1.
</event>
<event>
 5    1  0.1626333E-003  0.9118800E+02  0.7818608E-02  0.1130116E+00
         25   -1    0    0    0    0  0.00000000000E+00  0.00000000000E+00  0.99999998245E-14  0.12500000000E+03  0.12500000000E+03 0.  0.
        -11    1    3    3    0    0  0.26461966128E+02 -0.29862451098E+02  0.71628882992E+01  0.40537742981E+02  0.51100000000E-03 0.  1.
         23    2    1    0    0    0 -0.23800832274E+02 -0.12671195912E+02 -0.98137291308E+01  0.96305957025E+02  0.91931981684E+02 0.  0.
         11    1    3    3    0    0 -0.50262798402E+02  0.17191255185E+02 -0.16976617430E+02  0.55768214044E+02  0.51100000000E-03 0. -1.
         22    1    1    0    0    0  0.23800832274E+02  0.12671195912E+02  0.98137291308E+01  0.28694042975E+02  0.00000000000E+00 0. -1.
</event>
<event>
 5    1  0.1626333E-003  0.9118800E+02  0.7818608E-02  0.1130116E+00
         25   -1    0    0    0    0  0.00000000000E+00  0.00000000000E+00  0.99999998245E-14  0.12500000000E+03  0.12500000000E+03 0.  0.
        -11    1    3    3    0    0  0.30478779305E+02  0.18443765663E+02  0.84502693337E+01  0.36613324513E+02  0.51100000000E-03 0.  1.
         23    2    1    0    0    0 -0.10818385310E+02 -0.21808309431E+02  0.17541483304E+02  0.94994276255E+02  0.90130844131E+02 0.  0.
         11    1    3    3    0    0 -0.41297164615E+02 -0.40252075094E+02  0.90912139703E+01  0.58380951743E+02  0.51100000000E-03 0. -1.
         22    1    1    0    0    0  0.10818385310E+02  0.21808309431E+02 -0.17541483304E+02  0.30005723745E+02  0.00000000000E+00 0. -1.
</event>
<event>
 5    1  0.1626333E-003  0.9118800E+02  0.7818608E-02  0.1130116E+00
         25   -1    0    0    0    0  0.00000000000E+00  0.00000000000E+00  0.99999998245E-14  0.12500000000E+03  0.12500000000E+03 0.  0.
        -11    1    3    3    0    0 -0.50445328085E+02  0.25730794091E+02 -0.79613455419E+01  0.57185556858E+02  0.51100000000E-03 0.  1.
         23    2    1    0    0    0 -0.12049198881E+02  0.20701770016E+02 -0.15270516256E+02  0.96593396152E+02  0.92321985669E+02 0.  0.
         11    1    3    3    0    0  0.38396129204E+02 -0.50290240750E+01 -0.73091707144E+01  0.39407839293E+02  0.51100000000E-03 0. -1.
         22    1    1    0    0    0  0.12049198881E+02 -0.20701770016E+02  0.15270516256E+02  0.28406603848E+02  0.00000000000E+00 0.  1.
</event>
<event>
 5    1  0.1626333E-003  0.9118800E+02  0.7818608E-02  0.1130116E+00
         25   -1    0    0    0    0  0.00000000000E+00  0.00000000000E+00  0.99999998245E-14  0.12500000000E+03  0.12500000000E+03 0.  0.
        -11    1    3    3    0    0 -0.11605093039E+02  0.28598998143E+02  0.32001396201E+02  0.44459759764E+02  0.51100000000E-03 0.  1.
         23    2    1    0    0    0 -0.20003187903E+02 -0.17750945138E+02  0.10018842590E+02  0.96441274776E+02  0.92115789603E+02 0.  0.
         11    1    3    3    0    0 -0.83980948641E+01 -0.46349943281E+02 -0.21982553611E+02  0.51981515012E+02  0.51100000000E-03 0. -1.
         22    1    1    0    0    0  0.20003187903E+02  0.17750945138E+02 -0.10018842590E+02  0.28558725224E+02  0.00000000000E+00 0. -1.
</event>
<event>
 5    1  0.1626333E-003  0.9118800E+02  0.7818608E-02  0.1130116E+00
         25   -1    0    0    0    0  0.00000000000E+00  0.00000000000E+00  0.99999998245E-14  0.12500000000E+03  0.12500000000E+03 0.  0.
        -11    1    3    3    0    0  0.50534958652E+01  0.50801431719E+02 -0.33006945965E+02  0.60792941756E+02  0.51100000000E-03 0.  1.
         23    2    1    0    0    0 -0.67217631557E+01  0.20106649000E+02 -0.19011096799E+02  0.96524023539E+02  0.92228010304E+02 0.  0.
         11    1    3    3    0    0 -0.11775259021E+02 -0.30694782719E+02  0.13995849166E+02  0.35731081782E+02  0.51100000000E-03 0. -1.
         22    1    1    0    0    0  0.67217631557E+01 -0.20106649000E+02  0.19011096799E+02  0.28475976461E+02  0.00000000000E+00 0.  1.
</event>
<event>
 5    1  0.1626333E-003  0.9118800E+02  0.7818608E-02  0.1130116E+00
         25   -1    0    0    0    0  0.00000000000E+00  0.00000000000E+00  0.99999998245E-14  0.12500000000E+03  0.12500000000E+03 0.  0.
        -11    1    3    3    0    0  0.32277016072E+02  0.38864266705E+02 -0.78654361456E+01  0.51128290398E+02  0.51100000000E-03 0.  1.
         23    2    1    0    0    0 -0.69628459647E+00  0.21431648801E+02  0.18398673763E+02  0.96745591870E+02  0.92527822666E+02 0.  0.
         11    1    3    3    0    0 -0.32973300668E+02 -0.17432617905E+02  0.26264109909E+02  0.45617301471E+02  0.51100000000E-03 0. -1.
         22    1    1    0    0    0  0.69628459647E+00 -0.21431648801E+02 -0.18398673763E+02  0.28254408130E+02  0.00000000000E+00 0.  1.
</event>
<event>
 5    1  0.1626333E-003  0.9118800E+02  0.7818608E-02  0.1130116E+00
         25   -1    0    0    0    0  0.00000000000E+00  0.00000000000E+00  0.99999998245E-14  0.12500000000E+03  0.12500000000E+03 0.  0.
        -11    1    3    3    0    0 -0.90376651126E+01 -0.44615881137E+02  0.62236425968E+00  0.45526295455E+02  0.51100000000E-03 0.  1.
         23    2    1    0    0    0 -0.16926166248E+02 -0.12854190417E+01 -0.23707220521E+02  0.95842158674E+02  0.91299176713E+02 0.  0.
         11    1    3    3    0    0 -0.78885011357E+01  0.43330462096E+02 -0.24329584780E+02  0.50315863219E+02  0.51100000000E-03 0. -1.
         22    1    1    0    0    0  0.16926166248E+02  0.12854190417E+01  0.23707220521E+02  0.29157841326E+02  0.00000000000E+00 0. -1.
</event>
<event>
 5    1  0.1626333E-003  0.9118800E+02  0.7818608E-02  0.1130116E+00
         25   -1    0    0    0    0  0.00000000000E+00  0.00000000000E+00  0.99999998245E-14  0.12500000000E+03  0.12500000000E+03 0.  0.
        -11    1    3    3    0    0 -0.37343578996E+00  0.82915833451E+01 -0.56941180701E+02  0.57542921968E+02  0.51100000000E-03 0.  1.
         23    2    1    0    0    0 -0.26422612653E+01  0.20479083376E+02 -0.21057099319E+02  0.95508037837E+02  0.90840571658E+02 0.  0.
         11    1    3    3    0    0 -0.22688254753E+01  0.12187500031E+02  0.35884081382E+02  0.37965115869E+02  0.51100000000E-03 0. -1.
         22    1    1    0    0    0  0.26422612653E+01 -0.20479083376E+02  0.21057099319E+02  0.29491962163E+02  0.00000000000E+00 0.  1.
</event>
<event>
 5    1  0.1626333E-003  0.9118800E+02  0.7818608E-02  0.1130116E+00
         25   -1    0    0    0    0  0.00000000000E+00  0.00000000000E+00  0.99999998245E-14  0.12500000000E+03  0.12500000000E+03 0.  0.
        -11    1    3    3    0    0  0.30254102759E+02 -0.13241780648E+02 -0.21431170469E+02  0.39369411431E+02  0.51100000000E-03 0.  1.
         23    2    1    0    0    0  0.73094188386E+01  0.22539130016E+02  0.16327900438E+02  0.96224310289E+02  0.91820899431E+02 0.  0.
         11    1    3    3    0    0 -0.22944683920E+02  0.35780910664E+02  0.37759070907E+02  0.56854898858E+02  0.51100000000E-03 0. -1.
         22    1    1    0    0    0 -0.73094188386E+01 -0.22539130016E+02 -0.16327900438E+02  0.28775689711E+02  0.00000000000E+00 0. -1.
</event>
<event>
 5    1  0.1626333E-003  0.9118800E+02  0.7818608E-02  0.1130116E+00
         25   -1    0    0    0    0  0.00000000000E+00  0.00000000000E+00  0.99999998245E-14  0.12500000000E+03  0.12500000000E+03 0.  0.
        -11    1    3    3    0    0  0.58927529977E+01 -0.34000135237E+02  0.41605607808E+02  0.54053310125E+02  0.51100000000E-03 0.  1.
         23    2    1    0    0    0 -0.92157988518E+00 -0.31294768125E+02  0.27762222701E+01  0.93568817528E+02  0.88131744463E+02 0.  0.
         11    1    3    3    0    0 -0.68143328828E+01  0.27053671127E+01 -0.38829385538E+02  0.39515507404E+02  0.51100000000E-03 0. -1.
         22    1    1    0    0    0  0.92157988518E+00  0.31294768125E+02 -0.27762222701E+01  0.31431182472E+02  0.00000000000E+00 0.  1.
</event>
<event>
 5    1  0.1626333E-003  0.9118800E+02  0.7818608E-02  0.1130116E+00
         25   -1    0    0    0    0  0.00000000000E+00  0.00000000000E+00  0.99999998245E-14  0.12500000000E+03  0.12500000000E+03 0.  0.
        -11    1    3    3    0    0 -0.31647259372E+02 -0.85381584783E+01  0.22029420499E+02  0.39493601301E+02  0.51100000000E-03 0.  1.
         23    2    1    0    0    0 -0.14613544936E+01  0.76357112231E+01 -0.25650306434E+02  0.98197428052E+02  0.94468815029E+02 0.  0.
         11    1    3    3    0    0  0.30185904879E+02  0.16173869701E+02 -0.47679726933E+02  0.58703826751E+02  0.51100000000E-03 0. -1.
         22    1    1    0    0    0  0.14613544936E+01 -0.76357112231E+01  0.25650306434E+02  0.26802571948E+02  0.00000000000E+00 0. -1.
</event>
<event>
 5    1  0.1626333E-003  0.9118800E+02  0.7818608E-02  0.1130116E+00
         25   -1    0    0    0    0  0.00000000000E+00  0.00000000000E+00  0.99999998245E-14  0.12500000000E+03  0.12500000000E+03 0.  0.
        -11    1    3    3    0    0 -0.28920524912E+02  0.32178679197E+02  0.51763793675E+01  0.43573605080E+02  0.51100000000E-03 0. -1.
         23    2    1    0    0    0  0.52022167166E+01 -0.34980651250E+01  0.26805103554E+02  0.97471594763E+02  0.93503468870E+02 0.  0.
         11    1    3    3    0    0  0.34122741629E+02 -0.35676744322E+02  0.21628724186E+02  0.53897989683E+02  0.51100000000E-03 0.  1.
         22    1    1    0    0    0 -0.52022167166E+01  0.34980651250E+01 -0.26805103554E+02  0.27528405237E+02  0.00000000000E+00 0. -1.
</event>
<event>
 5    1  0.1626333E-003  0.9118800E+02  0.7818608E-02  0.1130116E+00
         25   -1    0    0    0    0  0.00000000000E+00  0.00000000000E+00  0.99999998245E-14  0.12500000000E+03  0.12500000000E+03 0.  0.
        -11    1    3    3    0    0 -0.18266291306E+02 -0.15511163637E+02 -0.33223481547E+02  0.40964049138E+02  0.51100000000E-03 0.  1.
         23    2    1    0    0    0 -0.22585000092E+02 -0.22757412339E+01  0.19240190311E+02  0.95243552791E+02  0.90475898436E+02 0.  0.
         11    1    3    3    0    0 -0.43187087856E+01  0.13235422403E+02  0.52463671857E+02  0.54279503653E+02  0.51100000000E-03 0. -1.
         22    1    1    0    0    0  0.22585000092E+02  0.22757412339E+01 -0.19240190311E+02  0.29756447209E+02  0.00000000000E+00 0. -1.
</event>
<event>
 5    1  0.1626333E-003  0.9118800E+02  0.7818608E-02  0.1130116E+00
         25   -1    0    0    0    0  0.00000000000E+00  0.00000000000E+00  0.99999998245E-14  0.12500000000E+03  0.12500000000E+03 0.  0.
        -11    1    3    3    0    0 -0.15028761998E+02  0.30309835606E+02  0.19955474779E+02  0.39278121080E+02  0.51100000000E-03 0.  1.
         23    2    1    0    0    0 -0.22642675876E+02 -0.20468687010E+02 -0.30075100895E+00  0.94475446442E+02  0.89408397874E+02 0.  0.
         11    1    3    3    0    0 -0.76139138779E+01 -0.50778522616E+02 -0.20256225788E+02  0.55197325362E+02  0.51100000000E-03 0. -1.
         22    1    1    0    0    0  0.22642675876E+02  0.20468687010E+02  0.30075100895E+00  0.30524553558E+02  0.00000000000E+00 0. -1.
</event>
<event>
 5    1  0.1626333E-003  0.9118800E+02  0.7818608E-02  0.1130116E+00
         25   -1    0    0    0    0  0.00000000000E+00  0.00000000000E+00  0.99999998245E-14  0.12500000000E+03  0.12500000000E+03 0.  0.
        -11    1    3    3    0    0 -0.13629955769E+02  0.38678533983E+02  0.92037866804E+01  0.42029922375E+02  0.51100000000E-03 0. -1.
         23    2    1    0    0    0  0.74077187663E+01 -0.83280115276E+01  0.26415357819E+02  0.96329436664E+02  0.91963901428E+02 0.  0.
         11    1    3    3    0    0  0.21037674535E+02 -0.47006545510E+02  0.17211571139E+02  0.54299514289E+02  0.51100000000E-03 0.  1.
         22    1    1    0    0    0 -0.74077187663E+01  0.83280115276E+01 -0.26415357819E+02  0.28670563336E+02  0.00000000000E+00 0.  1.
</event>
<event>
 5    1  0.1626333E-003  0.9118800E+02  0.7818608E-02  0.1130116E+00
         25   -1    0    0    0    0  0.00000000000E+00  0.00000000000E+00  0.99999998245E-14  0.12500000000E+03  0.12500000000E+03 0.  0.
        -11    1    3    3    0    0 -0.62113046568E+02  0.49236020746E+01  0.31238036194E+01  0.62386140774E+02  0.51100000000E-03 0.  1.
         23    2    1    0    0    0 -0.28135063845E+02  0.45139302254E+01  0.27972789561E+01  0.96368161896E+02  0.92016522832E+02 0.  0.
         11    1    3    3    0    0  0.33977982723E+02 -0.40967184918E+00 -0.32652466327E+00  0.33982021122E+02  0.51100000000E-03 0. -1.
         22    1    1    0    0    0  0.28135063845E+02 -0.45139302254E+01 -0.27972789561E+01  0.28631838104E+02  0.00000000000E+00 0.  1.
</event>
<event>
 5    1  0.1626333E-003  0.9118800E+02  0.7818608E-02  0.1130116E+00
         25   -1    0    0    0    0  0.00000000000E+00  0.00000000000E+00  0.99999998245E-14  0.12500000000E+03  0.12500000000E+03 0.  0.
        -11    1    3    3    0    0 -0.34099520279E+02 -0.11954965467E+02  0.13152644156E+02  0.38453745346E+02  0.51100000000E-03 0. -1.
         23    2    1    0    0    0  0.85255571121E+01  0.25157808010E+02  0.13990642777E+02  0.94977699734E+02  0.90107851675E+02 0.  0.
         11    1    3    3    0    0  0.42625077391E+02  0.37112773477E+02  0.83799862082E+00  0.56523954388E+02  0.51100000000E-03 0.  1.
         22    1    1    0    0    0 -0.85255571121E+01 -0.25157808010E+02 -0.13990642777E+02  0.30022300266E+02  0.00000000000E+00 0.  1.
</event>
<event>
 5    1  0.1626333E-003  0.9118800E+02  0.7818608E-02  0.1130116E+00
         25   -1    0    0    0    0  0.00000000000E+00  0.00000000000E+00  0.99999998245E-14  0.12500000000E+03  0.12500000000E+03 0.  0.
        -11    1    3    3    0    0 -0.13648275213E+02  0.20527049236E+02 -0.33805292930E+02  0.41838176310E+02  0.51100000000E-03 0. -1.
         23    2    1    0    0    0  0.10510462330E+02  0.25143759524E+02  0.13070991721E+02  0.94775353006E+02  0.89826712349E+02 0.  0.
         11    1    3    3    0    0  0.24158737543E+02  0.46167102874E+01  0.46876284651E+02  0.52937176695E+02  0.51100000000E-03 0.  1.
         22    1    1    0    0    0 -0.10510462330E+02 -0.25143759524E+02 -0.13070991721E+02  0.30224646994E+02  0.00000000000E+00 0.  1.
</event>
<event>
 5    1  0.1626333E-003  0.9118800E+02  0.7818608E-02  0.1130116E+00
         25   -1    0    0    0    0  0.00000000000E+00  0.00000000000E+00  0.99999998245E-14  0.12500000000E+03  0.12500000000E+03 0.  0.
        -11    1    3    3    0    0 -0.16945561409E+02 -0.57964960531E+02 -0.90632995500E+00  0.60397931546E+02  0.51100000000E-03 0. -1.
         23    2    1    0    0    0 -0.18865305928E+02 -0.24061742278E+02  0.99013412682E+00  0.94408374107E+02  0.89314576228E+02 0.  0.
         11    1    3    3    0    0 -0.19197445182E+01  0.33903218253E+02  0.18964640818E+01  0.34010442561E+02  0.51100000000E-03 0.  1.
         22    1    1    0    0    0  0.18865305928E+02  0.24061742278E+02 -0.99013412682E+00  0.30591625893E+02  0.00000000000E+00 0. -1.
</event>
<event>
 5    1  0.1626333E-003  0.9118800E+02  0.7818608E-02  0.1130116E+00
         25   -1    0    0    0    0  0.00000000000E+00  0.00000000000E+00  0.99999998245E-14  0.12500000000E+03  0.12500000000E+03 0.  0.
        -11    1    3    3    0    0 -0.12705094228E+02 -0.13773488548E+02  0.30661433636E+02  0.35933993920E+02  0.51100000000E-03 0. -1.
         23    2    1    0    0    0  0.98740399720E+01 -0.71537235267E+01 -0.25450409113E+02  0.96779515424E+02  0.92573640179E+02 0.  0.
         11    1    3    3    0    0  0.22579134200E+02  0.66197650214E+01 -0.56111842750E+02  0.60845521505E+02  0.51100000000E-03 0.  1.
         22    1    1    0    0    0 -0.98740399720E+01  0.71537235267E+01  0.25450409113E+02  0.28220484576E+02  0.00000000000E+00 0.  1.
</event>
<event>
 5    1  0.1626333E-003  0.9118800E+02  0.7818608E-02  0.1130116E+00
         25   -1    0    0    0    0  0.00000000000E+00  0.00000000000E+00  0.99999998245E-14  0.12500000000E+03  0.12500000000E+03 0.  0.
        -11    1    3    3    0    0 -0.35297208985E+01 -0.12927143016E+01  0.35779232611E+02  0.35976152189E+02  0.51100000000E-03 0.  1.
         23    2    1    0    0    0  0.20204961225E+02  0.28611374589E+01 -0.19807894887E+02  0.96560955264E+02  0.92278051648E+02 0.  0.
         11    1    3    3    0    0  0.23734682123E+02  0.41538517605E+01 -0.55587127497E+02  0.60584803075E+02  0.51100000000E-03 0. -1.
         22    1    1    0    0    0 -0.20204961225E+02 -0.28611374589E+01  0.19807894887E+02  0.28439044736E+02  0.00000000000E+00 0. -1.
</event>
<event>
 5    1  0.1626333E-003  0.9118800E+02  0.7818608E-02  0.1130116E+00
         25   -1    0    0    0    0  0.00000000000E+00  0.00000000000E+00  0.99999998245E-14  0.12500000000E+03  0.12500000000E+03 0.  0.
        -11    1    3    3    0    0 -0.98114439616E+01  0.13271930593E+02  0.31939939102E+02  0.35952305689E+02  0.51100000000E-03 0.  1.
         23    2    1    0    0    0  0.91947198448E+01  0.12510724285E+02 -0.24769409842E+02  0.95766718298E+02  0.91195830905E+02 0.  0.
         11    1    3    3    0    0  0.19006163806E+02 -0.76120630856E+00 -0.56709348945E+02  0.59814412608E+02  0.51100000000E-03 0. -1.
         22    1    1    0    0    0 -0.91947198448E+01 -0.12510724285E+02  0.24769409842E+02  0.29233281702E+02  0.00000000000E+00 0. -1.
</event>
<event>
 5    1  0.1626333E-003  0.9118800E+02  0.7818608E-02  0.1130116E+00
         25   -1    0    0    0    0  0.00000000000E+00  0.00000000000E+00  0.99999998245E-14  0.12500000000E+03  0.12500000000E+03 0.  0.
        -11    1    3    3    0    0 -0.32665728357E+02  0.23740840982E+02  0.14813354661E+02  0.43012937776E+02  0.51100000000E-03 0. -1.
         23    2    1    0    0    0  0.14374726585E+02  0.86128406238E+01  0.26366656986E+02  0.93758771013E+02  0.88400750864E+02 0.  0.
         11    1    3    3    0    0  0.47040454942E+02 -0.15128000358E+02  0.11553302325E+02  0.50745833236E+02  0.51100000000E-03 0.  1.
         22    1    1    0    0    0 -0.14374726585E+02 -0.86128406238E+01 -0.26366656986E+02  0.31241228987E+02  0.00000000000E+00 0.  1.
</event>
<event>
 5    1  0.1626333E-003  0.9118800E+02  0.7818608E-02  0.1130116E+00
         25   -1    0    0    0    0  0.00000000000E+00  0.00000000000E+00  0.99999998245E-14  0.12500000000E+03  0.12500000000E+03 0.  0.
        -11    1    3    3    0    0  0.23778209077E+02  0.29156454855E+02  0.84311486432E+01  0.38556275162E+02  0.51100000000E-03 0. -1.
         23    2    1    0    0    0 -0.26804476697E+02  0.57524301707E+01 -0.76010285232E+01  0.96550991960E+02  0.92264554353E+02 0.  0.
         11    1    3    3    0    0 -0.50582685774E+02 -0.23404024685E+02 -0.16032177166E+02  0.57994716798E+02  0.51100000000E-03 0.  1.
         22    1    1    0    0    0  0.26804476697E+02 -0.57524301707E+01  0.76010285232E+01  0.28449008040E+02  0.00000000000E+00 0.  1.
</event>
<event>
 5    1  0.1626333E-003  0.9118800E+02  0.7818608E-02  0.1130116E+00
         25   -1    0    0    0    0  0.00000000000E+00  0.00000000000E+00  0.99999998245E-14  0.12500000000E+03  0.12500000000E+03 0.  0.
        -11    1    3    3    0    0  0.21471547576E+02 -0.56377333809E+02  0.23809627789E+01  0.60374664444E+02  0.51100000000E-03 0. -1.
         23    2    1    0    0    0  0.19175095220E+02 -0.20522074853E+02  0.52858714984E+01  0.96420632085E+02  0.92087773462E+02 0.  0.
         11    1    3    3    0    0 -0.22964523565E+01  0.35855258956E+02  0.29049087195E+01  0.36045967641E+02  0.51100000000E-03 0.  1.
         22    1    1    0    0    0 -0.19175095220E+02  0.20522074853E+02 -0.52858714984E+01  0.28579367915E+02  0.00000000000E+00 0. -1.
</event>
<event>
 5    1  0.1626333E-003  0.9118800E+02  0.7818608E-02  0.1130116E+00
         25   -1    0    0    0    0  0.00000000000E+00  0.00000000000E+00  0.99999998245E-14  0.12500000000E+03  0.12500000000E+03 0.  0.
        -11    1    3    3    0    0 -0.52052437324E+02 -0.22839951551E+02 -0.23333501672E+01  0.56890808936E+02  0.51100000000E-03 0. -1.
         23    2    1    0    0    0 -0.29926827030E+02  0.60317371343E+01 -0.73209678600E+01  0.93605838133E+02  0.88184236308E+02 0.  0.
         11    1    3    3    0    0  0.22125610294E+02  0.28871688685E+02 -0.49876176928E+01  0.36715029196E+02  0.51100000000E-03 0.  1.
         22    1    1    0    0    0  0.29926827030E+02 -0.60317371343E+01  0.73209678600E+01  0.31394161867E+02  0.00000000000E+00 0. -1.
</event>
<event>
 5    1  0.1626333E-003  0.9118800E+02  0.7818608E-02  0.1130116E+00
         25   -1    0    0    0    0  0.00000000000E+00  0.00000000000E+00  0.99999998245E-14  0.12500000000E+03  0.12500000000E+03 0.  0.
        -11    1    3    3    0    0 -0.29892399689E+02 -0.98129974693E+01  0.41444009151E+02  0.52033223744E+02  0.51100000000E-03 0. -1.
         23    2    1    0    0    0  0.62169246791E+01  0.92556257347E+01  0.27734650420E+02  0.95108068077E+02  0.90288520971E+02 0.  0.
         11    1    3    3    0    0  0.36109324368E+02  0.19068623204E+02 -0.13709358731E+02  0.43074844333E+02  0.51100000000E-03 0.  1.
         22    1    1    0    0    0 -0.62169246791E+01 -0.92556257347E+01 -0.27734650420E+02  0.29891931923E+02  0.00000000000E+00 0. -1.
</event>
<event>
 5    1  0.1626333E-003  0.9118800E+02  0.7818608E-02  0.1130116E+00
         25   -1    0    0    0    0  0.00000000000E+00  0.00000000000E+00  0.99999998245E-14  0.12500000000E+03  0.12500000000E+03 0.  0.
        -11    1    3    3    0    0  0.15429881854E+02  0.14605454096E+02  0.55765199940E+02  0.59675439404E+02  0.51100000000E-03 0.  1.
         23    2    1    0    0    0  0.19473362447E+02  0.56881454032E+01  0.20966644932E+02  0.95825232772E+02  0.91276000093E+02 0.  0.
         11    1    3    3    0    0  0.40434805925E+01 -0.89173086932E+01 -0.34798555008E+02  0.36149793368E+02  0.51100000000E-03 0. -1.
         22    1    1    0    0    0 -0.19473362447E+02 -0.56881454032E+01 -0.20966644932E+02  0.29174767228E+02  0.00000000000E+00 0.  1.
</event>
<event>
 5    1  0.1626333E-003  0.9118800E+02  0.7818608E-02  0.1130116E+00
         25   -1    0    0    0    0  0.00000000000E+00  0.00000000000E+00  0.99999998245E-14  0.12500000000E+03  0.12500000000E+03 0.  0.
        -11    1    3    3    0    0 -0.20560866267E+02 -0.19079828616E+02  0.43941467290E+02  0.52131004494E+02  0.51100000000E-03 0.  1.
         23    2    1    0    0    0 -0.55884539420E+01  0.13453341429E+02  0.31928282585E+02  0.89905293250E+02  0.82772720823E+02 0.  0.
         11    1    3    3    0    0  0.14972412325E+02  0.32533170045E+02 -0.12013184706E+02  0.37774288756E+02  0.51100000000E-03 0. -1.
         22    1    1    0    0    0  0.55884539420E+01 -0.13453341429E+02 -0.31928282585E+02  0.35094706750E+02  0.00000000000E+00 0.  1.
</event>
<event>
 5    1  0.1626333E-003  0.9118800E+02  0.7818608E-02  0.1130116E+00
         25   -1    0    0    0    0  0.00000000000E+00  0.00000000000E+00  0.99999998245E-14  0.12500000000E+03  0.12500000000E+03 0.  0.
        -11    1    3    3    0    0  0.22114555423E+02  0.15483819974E+02 -0.20751362038E+02  0.34050275612E+02  0.51100000000E-03 0.  1.
         23    2    1    0    0    0 -0.94245498331E+01 -0.14246924753E+02  0.23470587358E+02  0.95971299109E+02  0.91475815259E+02 0.  0.
         11    1    3    3    0    0 -0.31539105256E+02 -0.29730744727E+02  0.44221949396E+02  0.61921023498E+02  0.51100000000E-03 0. -1.
         22    1    1    0    0    0  0.94245498331E+01  0.14246924753E+02 -0.23470587358E+02  0.29028700891E+02  0.00000000000E+00 0. -1.
</event>
<event>
 5    1  0.1626333E-003  0.9118800E+02  0.7818608E-02  0.1130116E+00
         25   -1    0    0    0    0  0.00000000000E+00  0.00000000000E+00  0.99999998245E-14  0.12500000000E+03  0.12500000000E+03 0.  0.
        -11    1    3    3    0    0 -0.38607427780E+02 -0.25035128648E+01 -0.66046081602E+01  0.39248208949E+02  0.51100000000E-03 0. -1.
         23    2    1    0    0    0  0.10868884061E+00 -0.47580205175E+00  0.31434139939E+02  0.93562071402E+02  0.88122175702E+02 0.  0.
         11    1    3    3    0    0  0.38716116621E+02  0.20277108131E+01  0.38038748099E+02  0.54313862453E+02  0.51100000000E-03 0.  1.
         22    1    1    0    0    0 -0.10868884061E+00  0.47580205175E+00 -0.31434139939E+02  0.31437928598E+02  0.00000000000E+00 0.  1.
</event>
<event>
 5    1  0.1626333E-003  0.9118800E+02  0.7818608E-02  0.1130116E+00
         25   -1    0    0    0    0  0.00000000000E+00  0.00000000000E+00  0.99999998245E-14  0.12500000000E+03  0.12500000000E+03 0.  0.
        -11    1    3    3    0    0 -0.18369118285E+02  0.38338083952E+02 -0.14487959551E+02  0.44912516739E+02  0.51100000000E-03 0.  1.
         23    2    1    0    0    0  0.14552612970E+02  0.14342618086E+01 -0.25524515891E+02  0.95583396480E+02  0.90944208831E+02 0.  0.
         11    1    3    3    0    0  0.32921731255E+02 -0.36903822143E+02 -0.11036556340E+02  0.50670879741E+02  0.51100000000E-03 0. -1.
         22    1    1    0    0    0 -0.14552612970E+02 -0.14342618086E+01  0.25524515891E+02  0.29416603520E+02  0.00000000000E+00 0.  1.
</event>
<event>
 5    1  0.1626333E-003  0.9118800E+02  0.7818608E-02  0.1130116E+00
         25   -1    0    0    0    0  0.00000000000E+00  0.00000000000E+00  0.99999998245E-14  0.12500000000E+03  0.12500000000E+03 0.  0.
        -11    1    3    3    0    0 -0.85256920165E+01 -0.33346888802E+02 -0.94342595467E+01  0.35689041323E+02  0.51100000000E-03 0. -1.
         23    2    1    0    0    0  0.24266145135E+02  0.11846215568E+02  0.11937222795E+02  0.95475841908E+02  0.90796258056E+02 0.  0.
         11    1    3    3    0    0  0.32791837152E+02  0.45193104370E+02  0.21371482342E+02  0.59786800584E+02  0.51100000000E-03 0.  1.
         22    1    1    0    0    0 -0.24266145135E+02 -0.11846215568E+02 -0.11937222795E+02  0.29524158092E+02  0.00000000000E+00 0.  1.
</event>
<event>
 5    1  0.1626333E-003  0.9118800E+02  0.7818608E-02  0.1130116E+00
         25   -1    0    0    0    0  0.00000000000E+00  0.00000000000E+00  0.99999998245E-14  0.12500000000E+03  0.12500000000E+03 0.  0.
        -11    1    3    3    0    0  0.23746236387E+02  0.22505717515E+02  0.93675287476E+01  0.34031480405E+02  0.51100000000E-03 0. -1.
         23    2    1    0    0    0 -0.28687759031E+02 -0.55732234655E+01 -0.53164795695E+01  0.95296241096E+02  0.90548662464E+02 0.  0.
         11    1    3    3    0    0 -0.52433995418E+02 -0.28078940981E+02 -0.14684008317E+02  0.61264760692E+02  0.51100000000E-03 0.  1.
         22    1    1    0    0    0  0.28687759031E+02  0.55732234655E+01  0.53164795695E+01  0.29703758904E+02  0.00000000000E+00 0.  1.
</event>
<event>
 5    1  0.1626333E-003  0.9118800E+02  0.7818608E-02  0.1130116E+00
         25   -1    0    0    0    0  0.00000000000E+00  0.00000000000E+00  0.99999998245E-14  0.12500000000E+03  0.12500000000E+03 0.  0.
        -11    1    3    3    0    0 -0.49508713469E+02 -0.18217114254E+01 -0.13105661327E+02  0.51246362807E+02  0.51100000000E-03 0.  1.
         23    2    1    0    0    0 -0.10657174095E+02 -0.20875745108E+02 -0.18880978574E+02  0.94902434560E+02  0.90003381270E+02 0.  0.
         11    1    3    3    0    0  0.38851539374E+02 -0.19054033683E+02 -0.57753172465E+01  0.43656071753E+02  0.51100000000E-03 0. -1.
         22    1    1    0    0    0  0.10657174095E+02  0.20875745108E+02  0.18880978574E+02  0.30097565440E+02  0.00000000000E+00 0.  1.
</event>
<event>
 5    1  0.1626333E-003  0.9118800E+02  0.7818608E-02  0.1130116E+00
         25   -1    0    0    0    0  0.00000000000E+00  0.00000000000E+00  0.99999998245E-14  0.12500000000E+03  0.12500000000E+03 0.  0.
        -11    1    3    3    0    0 -0.38670055865E+02 -0.32005275000E+02  0.31156699104E+02  0.59080036795E+02  0.51100000000E-03 0.  1.
         23    2    1    0    0    0 -0.25592923039E+02 -0.15349925005E+02  0.20340592726E+01  0.95087539311E+02  0.90260095434E+02 0.  0.
         11    1    3    3    0    0  0.13077132826E+02  0.16655349995E+02 -0.29122639831E+02  0.36007502516E+02  0.51100000000E-03 0. -1.
         22    1    1    0    0    0  0.25592923039E+02  0.15349925005E+02 -0.20340592726E+01  0.29912460689E+02  0.00000000000E+00 0.  1.
</event>
<event>
 5    1  0.1626333E-003  0.9118800E+02  0.7818608E-02  0.1130116E+00
         25   -1    0    0    0    0  0.00000000000E+00  0.00000000000E+00  0.99999998245E-14  0.12500000000E+03  0.12500000000E+03 0.  0.
        -11    1    3    3    0    0 -0.17584387493E+02 -0.25239330972E+02  0.27556850516E+02  0.41299086214E+02  0.51100000000E-03 0. -1.
         23    2    1    0    0    0 -0.23787289512E+02  0.12132945645E+02 -0.11692999458E+02  0.95849189571E+02  0.91308802384E+02 0.  0.
         11    1    3    3    0    0 -0.62029020187E+01  0.37372276618E+02 -0.39249849974E+02  0.54550103357E+02  0.51100000000E-03 0.  1.
         22    1    1    0    0    0  0.23787289512E+02 -0.12132945645E+02  0.11692999458E+02  0.29150810429E+02  0.00000000000E+00 0. -1.
</event>
<event>
 5    1  0.1626333E-003  0.9118800E+02  0.7818608E-02  0.1130116E+00
         25   -1    0    0    0    0  0.00000000000E+00  0.00000000000E+00  0.99999998245E-14  0.12500000000E+03  0.12500000000E+03 0.  0.
        -11    1    3    3    0    0  0.10474476077E+02  0.21476198288E+02 -0.31235086604E+02  0.39326484427E+02  0.51100000000E-03 0.  1.
         23    2    1    0    0    0 -0.14460116649E+02  0.39724240011E+02 -0.76927081621E+00  0.82718774905E+02  0.71096369291E+02 0.  0.
         11    1    3    3    0    0 -0.24934592725E+02  0.18248041722E+02  0.30465815787E+02  0.43392290478E+02  0.51100000000E-03 0. -1.
         22    1    1    0    0    0  0.14460116649E+02 -0.39724240011E+02  0.76927081621E+00  0.42281225095E+02  0.00000000000E+00 0. -1.
</event>
<event>
 5    1  0.1626333E-003  0.9118800E+02  0.7818608E-02  0.1130116E+00
         25   -1    0    0    0    0  0.00000000000E+00  0.00000000000E+00  0.99999998245E-14  0.12500000000E+03  0.12500000000E+03 0.  0.
        -11    1    3    3    0    0  0.18988352353E+01 -0.86352229917E+01 -0.47082418854E+02  0.47905394443E+02  0.51100000000E-03 0.  1.
         23    2    1    0    0    0 -0.27072692123E+02 -0.57316282447E+01 -0.88828621569E+01  0.95936492620E+02  0.91428240467E+02 0.  0.
         11    1    3    3    0    0 -0.28971527359E+02  0.29035947470E+01  0.38199556697E+02  0.48031098177E+02  0.51100000000E-03 0. -1.
         22    1    1    0    0    0  0.27072692123E+02  0.57316282447E+01  0.88828621569E+01  0.29063507380E+02  0.00000000000E+00 0.  1.
</event>
<event>
 5    1  0.1626333E-003  0.9118800E+02  0.7818608E-02  0.1130116E+00
         25   -1    0    0    0    0  0.00000000000E+00  0.00000000000E+00  0.99999998245E-14  0.12500000000E+03  0.12500000000E+03 0.  0.
        -11    1    3    3    0    0  0.13697517442E+02 -0.26916356788E+02 -0.18841116667E+02  0.35596347064E+02  0.51100000000E-03 0.  1.
         23    2    1    0    0    0  0.77729739815E+00  0.28076302803E+02  0.41923163827E+01  0.96601787257E+02  0.92333346167E+02 0.  0.
         11    1    3    3    0    0 -0.12920220044E+02  0.54992659591E+02  0.23033433049E+02  0.61005440193E+02  0.51100000000E-03 0. -1.
         22    1    1    0    0    0 -0.77729739815E+00 -0.28076302803E+02 -0.41923163827E+01  0.28398212743E+02  0.00000000000E+00 0. -1.
</event>
<event>
 5    1  0.1626333E-003  0.9118800E+02  0.7818608E-02  0.1130116E+00
         25   -1    0    0    0    0  0.00000000000E+00  0.00000000000E+00  0.99999998245E-14  0.12500000000E+03  0.12500000000E+03 0.  0.
        -11    1    3    3    0    0 -0.46041243981E+01  0.34985468575E+02  0.56051153058E+01  0.35729515680E+02  0.51100000000E-03 0.  1.
         23    2    1    0    0    0  0.13214687614E+02 -0.20934624223E+02 -0.12657049966E+02  0.97195551185E+02  0.93133709237E+02 0.  0.
         11    1    3    3    0    0  0.17818812012E+02 -0.55920092798E+02 -0.18262165271E+02  0.61466035505E+02  0.51100000000E-03 0. -1.
         22    1    1    0    0    0 -0.13214687614E+02  0.20934624223E+02  0.12657049966E+02  0.27804448815E+02  0.00000000000E+00 0. -1.
</event>
<event>
 5    1  0.1626333E-003  0.9118800E+02  0.7818608E-02  0.1130116E+00
         25   -1    0    0    0    0  0.00000000000E+00  0.00000000000E+00  0.99999998245E-14  0.12500000000E+03  0.12500000000E+03 0.  0.
        -11    1    3    3    0    0 -0.12075085769E+02  0.18358179951E+02 -0.41773726239E+02  0.47200367283E+02  0.51100000000E-03 0. -1.
         23    2    1    0    0    0  0.19414425296E+02  0.21914778883E+02 -0.57784683845E+01  0.95157611692E+02  0.90357085627E+02 0.  0.
         11    1    3    3    0    0  0.31489511065E+02  0.35565989316E+01  0.35995257855E+02  0.47957244409E+02  0.51100000000E-03 0.  1.
         22    1    1    0    0    0 -0.19414425296E+02 -0.21914778883E+02  0.57784683845E+01  0.29842388308E+02  0.00000000000E+00 0.  1.
</event>
<event>
 5    1  0.1626333E-003  0.9118800E+02  0.7818608E-02  0.1130116E+00
         25   -1    0    0    0    0  0.00000000000E+00  0.00000000000E+00  0.99999998245E-14  0.12500000000E+03  0.12500000000E+03 0.  0.
        -11    1    3    3    0    0  0.32105492046E+02 -0.13696871062E+02  0.32021506893E+02  0.47368172863E+02  0.51100000000E-03 0.  1.
         23    2    1    0    0    0  0.16397458713E+02  0.23750253113E+02  0.62308657062E+01  0.95474166183E+02  0.90793951041E+02 0.  0.
         11    1    3    3    0    0 -0.15708033334E+02  0.37447124175E+02 -0.25790641187E+02  0.48105993320E+02  0.51100000000E-03 0. -1.
         22    1    1    0    0    0 -0.16397458713E+02 -0.23750253113E+02 -0.62308657062E+01  0.29525833817E+02  0.00000000000E+00 0.  1.
</event>
<event>
 5    1  0.1626333E-003  0.9118800E+02  0.7818608E-02  0.1130116E+00
         25   -1    0    0    0    0  0.00000000000E+00  0.00000000000E+00  0.99999998245E-14  0.12500000000E+03  0.12500000000E+03 0.  0.
        -11    1    3    3    0    0  0.33179366984E+02 -0.52039322161E+01  0.33653002640E+02  0.47544462253E+02  0.51100000000E-03 0. -1.
         23    2    1    0    0    0  0.11234603802E+02  0.15370479803E+02 -0.12202806998E+02  0.10238636538E+03  0.99857855703E+02 0.  0.
         11    1    3    3    0    0 -0.21944763182E+02  0.20574412019E+02 -0.45855809638E+02  0.54841903130E+02  0.51100000000E-03 0.  1.
         22    1    1    0    0    0 -0.11234603802E+02 -0.15370479803E+02  0.12202806998E+02  0.22613634617E+02  0.00000000000E+00 0.  1.
</event>
<event>
 5    1  0.1626333E-003  0.9118800E+02  0.7818608E-02  0.1130116E+00
         25   -1    0    0    0    0  0.00000000000E+00  0.00000000000E+00  0.99999998245E-14  0.12500000000E+03  0.12500000000E+03 0.  0.
        -11    1    3    3    0    0 -0.20992658569E+02  0.90996352111E+01 -0.46666889154E+02  0.51973970585E+02  0.51100000000E-03 0.  1.
         23    2    1    0    0    0 -0.12452427285E+01  0.26694322390E+02 -0.11673395378E+02  0.95838284739E+02  0.91293872658E+02 0.  0.
         11    1    3    3    0    0  0.19747415840E+02  0.17594687179E+02  0.34993493776E+02  0.43864314154E+02  0.51100000000E-03 0. -1.
         22    1    1    0    0    0  0.12452427285E+01 -0.26694322390E+02  0.11673395378E+02  0.29161715261E+02  0.00000000000E+00 0. -1.
</event>
<event>
 5    1  0.1626333E-003  0.9118800E+02  0.7818608E-02  0.1130116E+00
         25   -1    0    0    0    0  0.00000000000E+00  0.00000000000E+00  0.99999998245E-14  0.12500000000E+03  0.12500000000E+03 0.  0.
        -11    1    3    3    0    0  0.19579196059E+02 -0.30628449171E+02 -0.11179489958E+02  0.38031931491E+02  0.51100000000E-03 0. -1.
         23    2    1    0    0    0 -0.13184813688E+02  0.18403043131E+02 -0.16118647655E+02  0.97209316117E+02  0.93152182095E+02 0.  0.
         11    1    3    3    0    0 -0.32764009747E+02  0.49031492303E+02 -0.49391576978E+01  0.59177384626E+02  0.51100000000E-03 0.  1.
         22    1    1    0    0    0  0.13184813688E+02 -0.18403043131E+02  0.16118647655E+02  0.27790683883E+02  0.00000000000E+00 0.  1.
</event>
<event>
 5    1  0.1626333E-003  0.9118800E+02  0.7818608E-02  0.1130116E+00
         25   -1    0    0    0    0  0.00000000000E+00  0.00000000000E+00  0.99999998245E-14  0.12500000000E+03  0.12500000000E+03 0.  0.
        -11    1    3    3    0    0  0.55603810372E+01  0.46332124793E+02  0.40106091660E+02  0.61531148320E+02  0.51100000000E-03 0.  1.
         23    2    1    0    0    0  0.45416291333E+01  0.16287155583E+02  0.24016944818E+02  0.95628049596E+02  0.91005562461E+02 0.  0.
         11    1    3    3    0    0 -0.10187519039E+01 -0.30044969210E+02 -0.16089146842E+02  0.34096901276E+02  0.51100000000E-03 0. -1.
         22    1    1    0    0    0 -0.45416291333E+01 -0.16287155583E+02 -0.24016944818E+02  0.29371950404E+02  0.00000000000E+00 0.  1.
</event>
<event>
 5    1  0.1626333E-003  0.9118800E+02  0.7818608E-02  0.1130116E+00
         25   -1    0    0    0    0  0.00000000000E+00  0.00000000000E+00  0.99999998245E-14  0.12500000000E+03  0.12500000000E+03 0.  0.
        -11    1    3    3    0    0 -0.73421038221E+01 -0.92052142570E+01  0.56808503487E+02  0.58015933387E+02  0.51100000000E-03 0. -1.
         23    2    1    0    0    0 -0.14924063273E+02 -0.14967134390E+02  0.20489797300E+02  0.95562361341E+02  0.90915292087E+02 0.  0.
         11    1    3    3    0    0 -0.75819594511E+01 -0.57619201332E+01 -0.36318706187E+02  0.37546427954E+02  0.51100000000E-03 0.  1.
         22    1    1    0    0    0  0.14924063273E+02  0.14967134390E+02 -0.20489797300E+02  0.29437638659E+02  0.00000000000E+00 0. -1.
</event>
<event>
 5    1  0.1626333E-003  0.9118800E+02  0.7818608E-02  0.1130116E+00
         25   -1    0    0    0    0  0.00000000000E+00  0.00000000000E+00  0.99999998245E-14  0.12500000000E+03  0.12500000000E+03 0.  0.
        -11    1    3    3    0    0 -0.82230942020E+01  0.39262715842E+02 -0.13943718212E+02  0.42468899342E+02  0.51100000000E-03 0.  1.
         23    2    1    0    0    0  0.29831635112E+02  0.81434465522E+01  0.16255613897E+01  0.94034137748E+02  0.88789269830E+02 0.  0.
         11    1    3    3    0    0  0.38054729314E+02 -0.31119269290E+02  0.15569279602E+02  0.51565238406E+02  0.51100000000E-03 0. -1.
         22    1    1    0    0    0 -0.29831635112E+02 -0.81434465522E+01 -0.16255613897E+01  0.30965862252E+02  0.00000000000E+00 0. -1.
</event>
<event>
 5    1  0.1626333E-003  0.9118800E+02  0.7818608E-02  0.1130116E+00
         25   -1    0    0    0    0  0.00000000000E+00  0.00000000000E+00  0.99999998245E-14  0.12500000000E+03  0.12500000000E+03 0.  0.
        -11    1    3    3    0    0  0.24710486213E+02  0.29406863806E+02 -0.31140910017E+02  0.49448236012E+02  0.51100000000E-03 0. -1.
         23    2    1    0    0    0  0.18897976636E+02  0.18016396172E+02  0.13303876665E+02  0.95696123358E+02  0.91099016677E+02 0.  0.
         11    1    3    3    0    0 -0.58125095770E+01 -0.11390467634E+02  0.44444786681E+02  0.46247887346E+02  0.51100000000E-03 0.  1.
         22    1    1    0    0    0 -0.18897976636E+02 -0.18016396172E+02 -0.13303876665E+02  0.29303876642E+02  0.00000000000E+00 0.  1.
</event>
<event>
 5    1  0.1626333E-003  0.9118800E+02  0.7818608E-02  0.1130116E+00
         25   -1    0    0    0    0  0.00000000000E+00  0.00000000000E+00  0.99999998245E-14  0.12500000000E+03  0.12500000000E+03 0.  0.
        -11    1    3    3    0    0 -0.36613632713E+02  0.16639268507E+02  0.36163040799E+02  0.54085015272E+02  0.51100000000E-03 0. -1.
         23    2    1    0    0    0 -0.18276364988E+01 -0.79718742411E+00  0.31683983378E+02  0.93253337724E+02  0.87683147931E+02 0.  0.
         11    1    3    3    0    0  0.34785996215E+02 -0.17436455931E+02 -0.44790574209E+01  0.39168322452E+02  0.51100000000E-03 0.  1.
         22    1    1    0    0    0  0.18276364988E+01  0.79718742411E+00 -0.31683983378E+02  0.31746662276E+02  0.00000000000E+00 0. -1.
</event>
<event>
 5    1  0.1626333E-003  0.9118800E+02  0.7818608E-02  0.1130116E+00
         25   -1    0    0    0    0  0.00000000000E+00  0.00000000000E+00  0.99999998245E-14  0.12500000000E+03  0.12500000000E+03 0.  0.
        -11    1    3    3    0    0  0.32295015487E+02 -0.11669976275E+02  0.30696969186E+02  0.46059312728E+02  0.51100000000E-03 0.  1.
         23    2    1    0    0    0 -0.24874910494E+01  0.23098236513E+02  0.64616611548E+01  0.10088632739E+03  0.97962144975E+02 0.  0.
         11    1    3    3    0    0 -0.34782506536E+02  0.34768212788E+02 -0.24235308031E+02  0.54827014664E+02  0.51100000000E-03 0. -1.
         22    1    1    0    0    0  0.24874910494E+01 -0.23098236513E+02 -0.64616611548E+01  0.24113672607E+02  0.00000000000E+00 0. -1.
</event>
<event>
 5    1  0.1626333E-003  0.9118800E+02  0.7818608E-02  0.1130116E+00
         25   -1    0    0    0    0  0.00000000000E+00  0.00000000000E+00  0.99999998245E-14  0.12500000000E+03  0.12500000000E+03 0.  0.
        -11    1    3    3    0    0  0.24220267563E+02  0.18510885803E+02  0.53693378433E+02  0.61743446145E+02  0.51100000000E-03 0. -1.
         23    2    1    0    0    0  0.50381887449E+01  0.80659201971E+01  0.27799300932E+02  0.95618993436E+02  0.90993122591E+02 0.  0.
         11    1    3    3    0    0 -0.19182078818E+02 -0.10444965606E+02 -0.25894077502E+02  0.33875547290E+02  0.51100000000E-03 0.  1.
         22    1    1    0    0    0 -0.50381887449E+01 -0.80659201971E+01 -0.27799300932E+02  0.29381006564E+02  0.00000000000E+00 0. -1.
</event>
<event>
 5    1  0.1626333E-003  0.9118800E+02  0.7818608E-02  0.1130116E+00
         25   -1    0    0    0    0  0.00000000000E+00  0.00000000000E+00  0.99999998245E-14  0.12500000000E+03  0.12500000000E+03 0.  0.
        -11    1    3    3    0    0  0.34157086398E+02 -0.16769517717E+02 -0.27233029128E+02  0.46792746782E+02  0.51100000000E-03 0.  1.
         23    2    1    0    0    0  0.19525010510E+02 -0.16763620603E+02  0.17514085250E+02  0.93871424812E+02  0.88559901778E+02 0.  0.
         11    1    3    3    0    0 -0.14632075888E+02  0.58971146740E-02  0.44747114378E+02  0.47078678029E+02  0.51100000000E-03 0. -1.
         22    1    1    0    0    0 -0.19525010510E+02  0.16763620603E+02 -0.17514085250E+02  0.31128575188E+02  0.00000000000E+00 0. -1.
</event>
<event>
 5    1  0.1626333E-003  0.9118800E+02  0.7818608E-02  0.1130116E+00
         25   -1    0    0    0    0  0.00000000000E+00  0.00000000000E+00  0.99999998245E-14  0.12500000000E+03  0.12500000000E+03 0.  0.
        -11    1    3    3    0    0 -0.58171732712E+01 -0.12642714572E+02  0.42653541016E+02  0.44866494158E+02  0.51100000000E-03 0. -1.
         23    2    1    0    0    0  0.21632758966E+00  0.10421832631E+02 -0.14700813007E+02  0.10697847687E+03  0.10544960510E+03 0.  0.
         11    1    3    3    0    0  0.60335008609E+01  0.23064547202E+02 -0.57354354023E+02  0.62111982708E+02  0.51100000000E-03 0.  1.
         22    1    1    0    0    0 -0.21632758966E+00 -0.10421832631E+02  0.14700813007E+02  0.18021523134E+02  0.00000000000E+00 0.  1.
</event>
<event>
 5    1  0.1626333E-003  0.9118800E+02  0.7818608E-02  0.1130116E+00
         25   -1    0    0    0    0  0.00000000000E+00  0.00000000000E+00  0.99999998245E-14  0.12500000000E+03  0.12500000000E+03 0.  0.
        -11    1    3    3    0    0  0.33782421668E+01  0.24318081002E+02  0.43906772275E+02  0.50304932518E+02  0.51100000000E-03 0. -1.
         23    2    1    0    0    0  0.13283972603E+02 -0.12956652884E+02  0.26572025543E+02  0.92589950270E+02  0.86732275235E+02 0.  0.
         11    1    3    3    0    0  0.99057304361E+01 -0.37274733886E+02 -0.17334746732E+02  0.42285017752E+02  0.51100000000E-03 0.  1.
         22    1    1    0    0    0 -0.13283972603E+02  0.12956652884E+02 -0.26572025543E+02  0.32410049730E+02  0.00000000000E+00 0. -1.
</event>
<event>
 5    1  0.1626333E-003  0.9118800E+02  0.7818608E-02  0.1130116E+00
         25   -1    0    0    0    0  0.00000000000E+00  0.00000000000E+00  0.99999998245E-14  0.12500000000E+03  0.12500000000E+03 0.  0.
        -11    1    3    3    0    0 -0.21677271900E+02 -0.46464148206E+02 -0.25131503458E+01  0.51333586574E+02  0.51100000000E-03 0. -1.
         23    2    1    0    0    0  0.30364866321E+01 -0.19565061600E+02  0.22059718006E+02  0.95358086348E+02  0.90633997964E+02 0.  0.
         11    1    3    3    0    0  0.24713758533E+02  0.26899086606E+02  0.24572868352E+02  0.44024499774E+02  0.51100000000E-03 0.  1.
         22    1    1    0    0    0 -0.30364866321E+01  0.19565061600E+02 -0.22059718006E+02  0.29641913652E+02  0.00000000000E+00 0. -1.
</event>
<event>
 5    1  0.1626333E-003  0.9118800E+02  0.7818608E-02  0.1130116E+00
         25   -1    0    0    0    0  0.00000000000E+00  0.00000000000E+00  0.99999998245E-14  0.12500000000E+03  0.12500000000E+03 0.  0.
        -11    1    3    3    0    0 -0.21893731289E+02  0.13194534917E+00  0.54769630853E+02  0.58983602327E+02  0.51100000000E-03 0. -1.
         23    2    1    0    0    0  0.16154539883E+01  0.51152474815E+01  0.33491943959E+02  0.91081188722E+02  0.84529859697E+02 0.  0.
         11    1    3    3    0    0  0.23509185278E+02  0.49833021323E+01 -0.21277686894E+02  0.32097586395E+02  0.51100000000E-03 0.  1.
         22    1    1    0    0    0 -0.16154539883E+01 -0.51152474815E+01 -0.33491943959E+02  0.33918811278E+02  0.00000000000E+00 0. -1.
</event>
<event>
 5    1  0.1626333E-003  0.9118800E+02  0.7818608E-02  0.1130116E+00
         25   -1    0    0    0    0  0.00000000000E+00  0.00000000000E+00  0.99999998245E-14  0.12500000000E+03  0.12500000000E+03 0.  0.
        -11    1    3    3    0    0  0.15029604656E+02  0.38037812385E+02  0.72089571087E+01  0.41529907898E+02  0.51100000000E-03 0.  1.
         23    2    1    0    0    0  0.33798210594E+02 -0.68659054723E+01  0.27554563047E+01  0.90401557307E+02  0.83518796248E+02 0.  0.
         11    1    3    3    0    0  0.18768605938E+02 -0.44903717857E+02 -0.44535008040E+01  0.48871649409E+02  0.51100000000E-03 0. -1.
         22    1    1    0    0    0 -0.33798210594E+02  0.68659054723E+01 -0.27554563047E+01  0.34598442693E+02  0.00000000000E+00 0. -1.
</event>
<event>
 5    1  0.1626333E-003  0.9118800E+02  0.7818608E-02  0.1130116E+00
         25   -1    0    0    0    0  0.00000000000E+00  0.00000000000E+00  0.99999998245E-14  0.12500000000E+03  0.12500000000E+03 0.  0.
        -11    1    3    3    0    0  0.17850761439E+02  0.83248537005E+01  0.51507554196E+02  0.55145090558E+02  0.51100000000E-03 0. -1.
         23    2    1    0    0    0  0.19438017905E+02  0.17448234056E+02  0.11067999137E+02  0.96631390294E+02  0.92373413781E+02 0.  0.
         11    1    3    3    0    0  0.15872564661E+01  0.91233803554E+01 -0.40439555059E+02  0.41486299737E+02  0.51100000000E-03 0.  1.
         22    1    1    0    0    0 -0.19438017905E+02 -0.17448234056E+02 -0.11067999137E+02  0.28368609706E+02  0.00000000000E+00 0. -1.
</event>
<event>
 5    1  0.1626333E-003  0.9118800E+02  0.7818608E-02  0.1130116E+00
         25   -1    0    0    0    0  0.00000000000E+00  0.00000000000E+00  0.99999998245E-14  0.12500000000E+03  0.12500000000E+03 0.  0.
        -11    1    3    3    0    0  0.36338024010E+02  0.24621139180E+02  0.30704727235E+02  0.53567086520E+02  0.51100000000E-03 0.  1.
         23    2    1    0    0    0  0.12642234969E+02  0.14918927556E+02 -0.11043572205E+02  0.10254201720E+03  0.10005250771E+03 0.  0.
         11    1    3    3    0    0 -0.23695789041E+02 -0.97022116235E+01 -0.41748299440E+02  0.48974930679E+02  0.51100000000E-03 0. -1.
         22    1    1    0    0    0 -0.12642234969E+02 -0.14918927556E+02  0.11043572205E+02  0.22457982801E+02  0.00000000000E+00 0. -1.
</event>
<event>
 5    1  0.1626333E-003  0.9118800E+02  0.7818608E-02  0.1130116E+00
         25   -1    0    0    0    0  0.00000000000E+00  0.00000000000E+00  0.99999998245E-14  0.12500000000E+03  0.12500000000E+03 0.  0.
        -11    1    3    3    0    0 -0.13894450979E+02 -0.31227068845E+02 -0.10426392226E+01  0.34194629600E+02  0.51100000000E-03 0. -1.
         23    2    1    0    0    0  0.25227040611E+02  0.14944430787E+02  0.58434781288E+01  0.95102076558E+02  0.90280225628E+02 0.  0.
         11    1    3    3    0    0  0.39121491589E+02  0.46171499632E+02  0.68861173514E+01  0.60907446958E+02  0.51100000000E-03 0.  1.
         22    1    1    0    0    0 -0.25227040611E+02 -0.14944430787E+02 -0.58434781288E+01  0.29897923442E+02  0.00000000000E+00 0.  1.
</event>
<event>
 5    1  0.1626333E-003  0.9118800E+02  0.7818608E-02  0.1130116E+00
         25   -1    0    0    0    0  0.00000000000E+00  0.00000000000E+00  0.99999998245E-14  0.12500000000E+03  0.12500000000E+03 0.  0.
        -11    1    3    3    0    0  0.62263378349E+01 -0.33078973646E+02 -0.34280118420E+02  0.48042817355E+02  0.51100000000E-03 0. -1.
         23    2    1    0    0    0  0.30637247045E+02 -0.40844024021E+01 -0.13446529247E+02  0.91293436867E+02  0.84843144783E+02 0.  0.
         11    1    3    3    0    0  0.24410909210E+02  0.28994571244E+02  0.20833589173E+02  0.43250619512E+02  0.51100000000E-03 0.  1.
         22    1    1    0    0    0 -0.30637247045E+02  0.40844024021E+01  0.13446529247E+02  0.33706563133E+02  0.00000000000E+00 0. -1.
</event>
<event>
 5    1  0.1626333E-003  0.9118800E+02  0.7818608E-02  0.1130116E+00
         25   -1    0    0    0    0  0.00000000000E+00  0.00000000000E+00  0.99999998245E-14  0.12500000000E+03  0.12500000000E+03 0.  0.
        -11    1    3    3    0    0  0.45031840909E+02 -0.30893039160E+02 -0.29769778460E+02  0.62197156479E+02  0.51100000000E-03 0.  1.
         23    2    1    0    0    0  0.18036279563E+02 -0.15833137834E+02 -0.16715539353E+02  0.95752694313E+02  0.91176606529E+02 0.  0.
         11    1    3    3    0    0 -0.26995561347E+02  0.15059901327E+02  0.13054239107E+02  0.33555537834E+02  0.51100000000E-03 0. -1.
         22    1    1    0    0    0 -0.18036279563E+02  0.15833137834E+02  0.16715539353E+02  0.29247305687E+02  0.00000000000E+00 0.  1.
</event>
<event>
 5    1  0.1626333E-003  0.9118800E+02  0.7818608E-02  0.1130116E+00
         25   -1    0    0    0    0  0.00000000000E+00  0.00000000000E+00  0.99999998245E-14  0.12500000000E+03  0.12500000000E+03 0.  0.
        -11    1    3    3    0    0 -0.31715960545E+02  0.66136817548E+01 -0.83344027512E+01  0.33453029895E+02  0.51100000000E-03 0.  1.
         23    2    1    0    0    0  0.25815648821E+02 -0.87786211097E+01  0.10294960161E+02  0.95853849013E+02  0.91315180847E+02 0.  0.
         11    1    3    3    0    0  0.57531609367E+02 -0.15392302864E+02  0.18629362913E+02  0.62400819118E+02  0.51100000000E-03 0. -1.
         22    1    1    0    0    0 -0.25815648821E+02  0.87786211097E+01 -0.10294960161E+02  0.29146150987E+02  0.00000000000E+00 0. -1.
</event>
<event>
 5    1  0.1626333E-003  0.9118800E+02  0.7818608E-02  0.1130116E+00
         25   -1    0    0    0    0  0.00000000000E+00  0.00000000000E+00  0.99999998245E-14  0.12500000000E+03  0.12500000000E+03 0.  0.
        -11    1    3    3    0    0 -0.11143036446E+02  0.57641274714E+02 -0.18941159259E+02  0.61688340278E+02  0.51100000000E-03 0. -1.
         23    2    1    0    0    0 -0.34926031130E+01  0.28952416640E+02 -0.22467597793E+01  0.95751262671E+02  0.91174643777E+02 0.  0.
         11    1    3    3    0    0  0.76504333332E+01 -0.28688858073E+02  0.16694399480E+02  0.34062922394E+02  0.51100000000E-03 0.  1.
         22    1    1    0    0    0  0.34926031130E+01 -0.28952416640E+02  0.22467597793E+01  0.29248737329E+02  0.00000000000E+00 0. -1.
</event>
<event>
 5    1  0.1626333E-003  0.9118800E+02  0.7818608E-02  0.1130116E+00
         25   -1    0    0    0    0  0.00000000000E+00  0.00000000000E+00  0.99999998245E-14  0.12500000000E+03  0.12500000000E+03 0.  0.
        -11    1    3    3    0    0  0.48772023734E+02  0.29067382428E+02 -0.23826859579E+02  0.61573876425E+02  0.51100000000E-03 0. -1.
         23    2    1    0    0    0  0.28111088899E+02  0.14431697972E+02 -0.52726139481E+01  0.92963962741E+02  0.87269643549E+02 0.  0.
         11    1    3    3    0    0 -0.20660934835E+02 -0.14635684456E+02  0.18554245631E+02  0.31390086316E+02  0.51100000000E-03 0.  1.
         22    1    1    0    0    0 -0.28111088899E+02 -0.14431697972E+02  0.52726139481E+01  0.32036037259E+02  0.00000000000E+00 0. -1.
</event>
<event>
 5    1  0.1626333E-003  0.9118800E+02  0.7818608E-02  0.1130116E+00
         25   -1    0    0    0    0  0.00000000000E+00  0.00000000000E+00  0.99999998245E-14  0.12500000000E+03  0.12500000000E+03 0.  0.
        -11    1    3    3    0    0 -0.20651879244E+02  0.75762266287E+01 -0.29735703108E+02  0.36987989481E+02  0.51100000000E-03 0.  1.
         23    2    1    0    0    0  0.25282800791E+02  0.14247687819E+02  0.57496112762E+01  0.95414958952E+02  0.90712401235E+02 0.  0.
         11    1    3    3    0    0  0.45934680035E+02  0.66714611900E+01  0.35485314384E+02  0.58426969471E+02  0.51100000000E-03 0. -1.
         22    1    1    0    0    0 -0.25282800791E+02 -0.14247687819E+02 -0.57496112762E+01  0.29585041048E+02  0.00000000000E+00 0. -1.
</event>
<event>
 5    1  0.1626333E-003  0.9118800E+02  0.7818608E-02  0.1130116E+00
         25   -1    0    0    0    0  0.00000000000E+00  0.00000000000E+00  0.99999998245E-14  0.12500000000E+03  0.12500000000E+03 0.  0.
        -11    1    3    3    0    0 -0.20760342141E+02  0.26548773091E+02  0.70128420462E+01  0.34423961310E+02  0.51100000000E-03 0. -1.
         23    2    1    0    0    0  0.17884130836E+02  0.14597777583E+01 -0.27619921040E+02  0.92063194977E+02  0.85969754822E+02 0.  0.
         11    1    3    3    0    0  0.38644472977E+02 -0.25088995333E+02 -0.34632763086E+02  0.57639233667E+02  0.51100000000E-03 0.  1.
         22    1    1    0    0    0 -0.17884130836E+02 -0.14597777583E+01  0.27619921040E+02  0.32936805023E+02  0.00000000000E+00 0.  1.
</event>
<event>
 5    1  0.1626333E-003  0.9118800E+02  0.7818608E-02  0.1130116E+00
         25   -1    0    0    0    0  0.00000000000E+00  0.00000000000E+00  0.99999998245E-14  0.12500000000E+03  0.12500000000E+03 0.  0.
        -11    1    3    3    0    0 -0.32590015611E+02  0.17864318988E+01  0.47937715128E+02  0.57994180643E+02  0.51100000000E-03 0. -1.
         23    2    1    0    0    0 -0.10816106365E+02 -0.15505200016E+02  0.21639426580E+02  0.96265627427E+02  0.91877129128E+02 0.  0.
         11    1    3    3    0    0  0.21773909246E+02 -0.17291631915E+02 -0.26298288548E+02  0.38271446784E+02  0.51100000000E-03 0.  1.
         22    1    1    0    0    0  0.10816106365E+02  0.15505200016E+02 -0.21639426580E+02  0.28734372573E+02  0.00000000000E+00 0. -1.
</event>
<event>
 5    1  0.1626333E-003  0.9118800E+02  0.7818608E-02  0.1130116E+00
         25   -1    0    0    0    0  0.00000000000E+00  0.00000000000E+00  0.99999998245E-14  0.12500000000E+03  0.12500000000E+03 0.  0.
        -11    1    3    3    0    0 -0.10937771539E+02  0.22963554381E+02  0.18923967945E+02  0.31702937389E+02  0.51100000000E-03 0.  1.
         23    2    1    0    0    0  0.11806460619E+01 -0.16559239994E+02 -0.26882254393E+02  0.93404779546E+02  0.87898776365E+02 0.  0.
         11    1    3    3    0    0  0.12118417601E+02 -0.39522794375E+02 -0.45806222338E+02  0.61701842157E+02  0.51100000000E-03 0. -1.
         22    1    1    0    0    0 -0.11806460619E+01  0.16559239994E+02  0.26882254393E+02  0.31595220454E+02  0.00000000000E+00 0. -1.
</event>
<event>
 5    1  0.1626333E-003  0.9118800E+02  0.7818608E-02  0.1130116E+00
         25   -1    0    0    0    0  0.00000000000E+00  0.00000000000E+00  0.99999998245E-14  0.12500000000E+03  0.12500000000E+03 0.  0.
        -11    1    3    3    0    0  0.14947519675E+02 -0.32145082973E+02 -0.99861303973E+01  0.36830116811E+02  0.51100000000E-03 0. -1.
         23    2    1    0    0    0  0.15105674900E+02  0.13827790259E+02  0.23591533765E+02  0.93759806931E+02  0.88402215655E+02 0.  0.
         11    1    3    3    0    0  0.15815522476E+00  0.45972873232E+02  0.33577664162E+02  0.56929690119E+02  0.51100000000E-03 0.  1.
         22    1    1    0    0    0 -0.15105674900E+02 -0.13827790259E+02 -0.23591533765E+02  0.31240193069E+02  0.00000000000E+00 0.  1.
</event>
<event>
 5    1  0.1626333E-003  0.9118800E+02  0.7818608E-02  0.1130116E+00
         25   -1    0    0    0    0  0.00000000000E+00  0.00000000000E+00  0.99999998245E-14  0.12500000000E+03  0.12500000000E+03 0.  0.
        -11    1    3    3    0    0 -0.36636015442E+01  0.25845145842E+02  0.45951110170E+02  0.52847876646E+02  0.51100000000E-03 0.  1.
         23    2    1    0    0    0  0.21899926454E+02  0.15045396434E+02  0.14728857038E+02  0.94620566790E+02  0.89611057897E+02 0.  0.
         11    1    3    3    0    0  0.25563527998E+02 -0.10799749408E+02 -0.31222253132E+02  0.41772690144E+02  0.51100000000E-03 0. -1.
         22    1    1    0    0    0 -0.21899926454E+02 -0.15045396434E+02 -0.14728857038E+02  0.30379433210E+02  0.00000000000E+00 0.  1.
</event>
<event>
 5    1  0.1626333E-003  0.9118800E+02  0.7818608E-02  0.1130116E+00
         25   -1    0    0    0    0  0.00000000000E+00  0.00000000000E+00  0.99999998245E-14  0.12500000000E+03  0.12500000000E+03 0.  0.
        -11    1    3    3    0    0  0.94285900329E+01 -0.33172436657E+02  0.23547896280E+02  0.41758978474E+02  0.51100000000E-03 0. -1.
         23    2    1    0    0    0  0.24855314712E+02  0.80321473491E+00 -0.15442340643E+02  0.95727184831E+02  0.91141627196E+02 0.  0.
         11    1    3    3    0    0  0.15426724679E+02  0.33975651392E+02 -0.38990236923E+02  0.53968206357E+02  0.51100000000E-03 0.  1.
         22    1    1    0    0    0 -0.24855314712E+02 -0.80321473491E+00  0.15442340643E+02  0.29272815169E+02  0.00000000000E+00 0.  1.
</event>
<event>
 5    1  0.1626333E-003  0.9118800E+02  0.7818608E-02  0.1130116E+00
         25   -1    0    0    0    0  0.00000000000E+00  0.00000000000E+00  0.99999998245E-14  0.12500000000E+03  0.12500000000E+03 0.  0.
        -11    1    3    3    0    0  0.18964454914E+02 -0.23558956368E+02 -0.17016607197E+02  0.34702159819E+02  0.51100000000E-03 0.  1.
         23    2    1    0    0    0 -0.13196411972E+02  0.12129326753E+02  0.22022371832E+02  0.96605445636E+02  0.92338298712E+02 0.  0.
         11    1    3    3    0    0 -0.32160866887E+02  0.35688283121E+02  0.39038979029E+02  0.61903285817E+02  0.51100000000E-03 0. -1.
         22    1    1    0    0    0  0.13196411972E+02 -0.12129326753E+02 -0.22022371832E+02  0.28394554364E+02  0.00000000000E+00 0. -1.
</event>
<event>
 5    1  0.1626333E-003  0.9118800E+02  0.7818608E-02  0.1130116E+00
         25   -1    0    0    0    0  0.00000000000E+00  0.00000000000E+00  0.99999998245E-14  0.12500000000E+03  0.12500000000E+03 0.  0.
        -11    1    3    3    0    0  0.69932057164E+01 -0.57641981820E+02 -0.21557924816E+02  0.61937445193E+02  0.51100000000E-03 0. -1.
         23    2    1    0    0    0  0.73370224732E+01 -0.25161782350E+02 -0.13993484426E+02  0.95288641966E+02  0.90538171462E+02 0.  0.
         11    1    3    3    0    0  0.34381675677E+00  0.32480199470E+02  0.75644403898E+01  0.33351196774E+02  0.51100000000E-03 0.  1.
         22    1    1    0    0    0 -0.73370224732E+01  0.25161782350E+02  0.13993484426E+02  0.29711358034E+02  0.00000000000E+00 0. -1.
</event>
<event>
 5    1  0.1626333E-003  0.9118800E+02  0.7818608E-02  0.1130116E+00
         25   -1    0    0    0    0  0.00000000000E+00  0.00000000000E+00  0.99999998245E-14  0.12500000000E+03  0.12500000000E+03 0.  0.
        -11    1    3    3    0    0  0.16461210137E+02  0.21312425227E+02  0.31363350956E+02  0.41338247322E+02  0.51100000000E-03 0. -1.
         23    2    1    0    0    0  0.22044025754E+02 -0.15203430342E+02 -0.96509096740E+01  0.96535576184E+02  0.92243666699E+02 0.  0.
         11    1    3    3    0    0  0.55828156177E+01 -0.36515855570E+02 -0.41014260630E+02  0.55197328862E+02  0.51100000000E-03 0.  1.
         22    1    1    0    0    0 -0.22044025754E+02  0.15203430342E+02  0.96509096740E+01  0.28464423816E+02  0.00000000000E+00 0.  1.
</event>
<event>
 5    1  0.1626333E-003  0.9118800E+02  0.7818608E-02  0.1130116E+00
         25   -1    0    0    0    0  0.00000000000E+00  0.00000000000E+00  0.99999998245E-14  0.12500000000E+03  0.12500000000E+03 0.  0.
        -11    1    3    3    0    0 -0.35972656292E+02 -0.19499234824E+02 -0.17220675189E+02  0.44393736198E+02  0.51100000000E-03 0. -1.
         23    2    1    0    0    0  0.16224019855E+02 -0.15565676058E+02 -0.17123162638E+02  0.96738510476E+02  0.92518255599E+02 0.  0.
         11    1    3    3    0    0  0.52196676146E+02  0.39335587656E+01  0.97512550836E-01  0.52344774278E+02  0.51100000000E-03 0.  1.
         22    1    1    0    0    0 -0.16224019855E+02  0.15565676058E+02  0.17123162638E+02  0.28261489524E+02  0.00000000000E+00 0. -1.
</event>
<event>
 5    1  0.1626333E-003  0.9118800E+02  0.7818608E-02  0.1130116E+00
         25   -1    0    0    0    0  0.00000000000E+00  0.00000000000E+00  0.99999998245E-14  0.12500000000E+03  0.12500000000E+03 0.  0.
        -11    1    3    3    0    0 -0.22497021148E+02  0.40570382980E+02 -0.15781783620E+02  0.49001394166E+02  0.51100000000E-03 0.  1.
         23    2    1    0    0    0 -0.76780153018E+00  0.19495129070E+02  0.20798832067E+02  0.96482619475E+02  0.92171876778E+02 0.  0.
         11    1    3    3    0    0  0.21729219618E+02 -0.21075253910E+02  0.36580615687E+02  0.47481225309E+02  0.51100000000E-03 0. -1.
         22    1    1    0    0    0  0.76780153018E+00 -0.19495129070E+02 -0.20798832067E+02  0.28517380525E+02  0.00000000000E+00 0. -1.
</event>
<event>
 5    1  0.1626333E-003  0.9118800E+02  0.7818608E-02  0.1130116E+00
         25   -1    0    0    0    0  0.00000000000E+00  0.00000000000E+00  0.99999998245E-14  0.12500000000E+03  0.12500000000E+03 0.  0.
        -11    1    3    3    0    0 -0.17444852910E+01  0.32664800687E+01  0.37755686130E+02  0.37936854857E+02  0.51100000000E-03 0.  1.
         23    2    1    0    0    0 -0.16701140359E+02  0.25312124051E+02 -0.10375389520E+02  0.92948784408E+02  0.87247900272E+02 0.  0.
         11    1    3    3    0    0 -0.14956655068E+02  0.22045643982E+02 -0.48131075651E+02  0.55011929551E+02  0.51100000000E-03 0. -1.
         22    1    1    0    0    0  0.16701140359E+02 -0.25312124051E+02  0.10375389520E+02  0.32051215592E+02  0.00000000000E+00 0. -1.
</event>
<event>
 5    1  0.1626333E-003  0.9118800E+02  0.7818608E-02  0.1130116E+00
         25   -1    0    0    0    0  0.00000000000E+00  0.00000000000E+00  0.99999998245E-14  0.12500000000E+03  0.12500000000E+03 0.  0.
        -11    1    3    3    0    0 -0.82671008229E+01 -0.65423155882E+01  0.58890703173E+02  0.59826931810E+02  0.51100000000E-03 0.  1.
         23    2    1    0    0    0 -0.12018349112E+02 -0.11017324620E+02  0.19800859186E+02  0.99350513033E+02  0.95982437239E+02 0.  0.
         11    1    3    3    0    0 -0.37512482889E+01 -0.44750090317E+01 -0.39089843987E+02  0.39523581223E+02  0.51100000000E-03 0. -1.
         22    1    1    0    0    0  0.12018349112E+02  0.11017324620E+02 -0.19800859186E+02  0.25649486967E+02  0.00000000000E+00 0.  1.
</event>
<event>
 5    1  0.1626333E-003  0.9118800E+02  0.7818608E-02  0.1130116E+00
         25   -1    0    0    0    0  0.00000000000E+00  0.00000000000E+00  0.99999998245E-14  0.12500000000E+03  0.12500000000E+03 0.  0.
        -11    1    3    3    0    0 -0.16147601786E+02  0.49201524073E+02 -0.93978689538E+01  0.52629411508E+02  0.51100000000E-03 0. -1.
         23    2    1    0    0    0 -0.19039142638E+02  0.81286730982E+01 -0.21105850092E+02  0.95436150677E+02  0.90741598339E+02 0.  0.
         11    1    3    3    0    0 -0.28915408517E+01 -0.41072850974E+02 -0.11707981138E+02  0.42806739169E+02  0.51100000000E-03 0.  1.
         22    1    1    0    0    0  0.19039142638E+02 -0.81286730982E+01  0.21105850092E+02  0.29563849323E+02  0.00000000000E+00 0. -1.
</event>
<event>
 5    1  0.1626333E-003  0.9118800E+02  0.7818608E-02  0.1130116E+00
         25   -1    0    0    0    0  0.00000000000E+00  0.00000000000E+00  0.99999998245E-14  0.12500000000E+03  0.12500000000E+03 0.  0.
        -11    1    3    3    0    0  0.28218612169E+02 -0.33117292410E+02  0.41716123378E+01  0.43708665950E+02  0.51100000000E-03 0.  1.
         23    2    1    0    0    0 -0.39064791547E+01 -0.17218396479E+01  0.29443512666E+02  0.95248600885E+02  0.90482872530E+02 0.  0.
         11    1    3    3    0    0 -0.32125091324E+02  0.31395452762E+02  0.25271900328E+02  0.51539934936E+02  0.51100000000E-03 0. -1.
         22    1    1    0    0    0  0.39064791547E+01  0.17218396479E+01 -0.29443512666E+02  0.29751399115E+02  0.00000000000E+00 0. -1.
</event>
<event>
 5    1  0.1626333E-003  0.9118800E+02  0.7818608E-02  0.1130116E+00
         25   -1    0    0    0    0  0.00000000000E+00  0.00000000000E+00  0.99999998245E-14  0.12500000000E+03  0.12500000000E+03 0.  0.
        -11    1    3    3    0    0 -0.10567091514E+02  0.10042826972E+02  0.40096641350E+02  0.42664533801E+02  0.51100000000E-03 0. -1.
         23    2    1    0    0    0 -0.26675852360E+02 -0.80424783903E+01 -0.75673427418E+01  0.96128781911E+02  0.91690760045E+02 0.  0.
         11    1    3    3    0    0 -0.16108760846E+02 -0.18085305363E+02 -0.47663984092E+02  0.53464248109E+02  0.51100000000E-03 0.  1.
         22    1    1    0    0    0  0.26675852360E+02  0.80424783903E+01  0.75673427418E+01  0.28871218089E+02  0.00000000000E+00 0.  1.
</event>
<event>
 5    1  0.1626333E-003  0.9118800E+02  0.7818608E-02  0.1130116E+00
         25   -1    0    0    0    0  0.00000000000E+00  0.00000000000E+00  0.99999998245E-14  0.12500000000E+03  0.12500000000E+03 0.  0.
        -11    1    3    3    0    0  0.54364770387E+02  0.26800493394E+02  0.10930747287E+02  0.61589576569E+02  0.51100000000E-03 0. -1.
         23    2    1    0    0    0  0.24614230035E+02  0.10002525384E+02  0.12167921447E+02  0.95777249503E+02  0.91210264641E+02 0.  0.
         11    1    3    3    0    0 -0.29750540352E+02 -0.16797968011E+02  0.12371741600E+01  0.34187672935E+02  0.51100000000E-03 0.  1.
         22    1    1    0    0    0 -0.24614230035E+02 -0.10002525384E+02 -0.12167921447E+02  0.29222750497E+02  0.00000000000E+00 0. -1.
</event>
<event>
 5    1  0.1626333E-003  0.9118800E+02  0.7818608E-02  0.1130116E+00
         25   -1    0    0    0    0  0.00000000000E+00  0.00000000000E+00  0.99999998245E-14  0.12500000000E+03  0.12500000000E+03 0.  0.
        -11    1    3    3    0    0 -0.10425782565E+02 -0.23252847093E+01  0.47198342923E+02  0.48392018619E+02  0.51100000000E-03 0.  1.
         23    2    1    0    0    0 -0.28905001266E+02 -0.14160797898E+01  0.34953331119E+01  0.95850013143E+02  0.91309929831E+02 0.  0.
         11    1    3    3    0    0 -0.18479218702E+02  0.90920491956E+00 -0.43703009811E+02  0.47457994524E+02  0.51100000000E-03 0. -1.
         22    1    1    0    0    0  0.28905001266E+02  0.14160797898E+01 -0.34953331119E+01  0.29149986857E+02  0.00000000000E+00 0.  1.
</event>
<event>
 5    1  0.1626333E-003  0.9118800E+02  0.7818608E-02  0.1130116E+00
         25   -1    0    0    0    0  0.00000000000E+00  0.00000000000E+00  0.99999998245E-14  0.12500000000E+03  0.12500000000E+03 0.  0.
        -11    1    3    3    0    0 -0.38108900243E+02 -0.16795813479E+02 -0.18208349039E+02  0.45452520317E+02  0.51100000000E-03 0.  1.
         23    2    1    0    0    0 -0.18815987433E+02  0.97456738859E+01  0.20031419909E+02  0.95840484810E+02  0.91296884955E+02 0.  0.
         11    1    3    3    0    0  0.19292912810E+02  0.26541487365E+02  0.38239768948E+02  0.50387964493E+02  0.51100000000E-03 0. -1.
         22    1    1    0    0    0  0.18815987433E+02 -0.97456738859E+01 -0.20031419909E+02  0.29159515190E+02  0.00000000000E+00 0. -1.
</event>
<event>
 5    1  0.1626333E-003  0.9118800E+02  0.7818608E-02  0.1130116E+00
         25   -1    0    0    0    0  0.00000000000E+00  0.00000000000E+00  0.99999998245E-14  0.12500000000E+03  0.12500000000E+03 0.  0.
        -11    1    3    3    0    0 -0.26781958004E+02 -0.33828270307E+01 -0.27869649231E+02  0.38799924507E+02  0.51100000000E-03 0.  1.
         23    2    1    0    0    0  0.26742057403E+02 -0.49513186994E+01 -0.36858639276E+01  0.97554803992E+02  0.93614640939E+02 0.  0.
         11    1    3    3    0    0  0.53524015407E+02 -0.15684916687E+01  0.24183785303E+02  0.58754879485E+02  0.51100000000E-03 0. -1.
         22    1    1    0    0    0 -0.26742057403E+02  0.49513186994E+01  0.36858639276E+01  0.27445196008E+02  0.00000000000E+00 0. -1.
</event>
<event>
 5    1  0.1626333E-003  0.9118800E+02  0.7818608E-02  0.1130116E+00
         25   -1    0    0    0    0  0.00000000000E+00  0.00000000000E+00  0.99999998245E-14  0.12500000000E+03  0.12500000000E+03 0.  0.
        -11    1    3    3    0    0 -0.34451329123E+02 -0.57421786164E+01 -0.23853047941E+02  0.42294616559E+02  0.51100000000E-03 0. -1.
         23    2    1    0    0    0  0.96931491989E+01  0.23353695460E+02 -0.14072664021E+02  0.96062271933E+02  0.91600043577E+02 0.  0.
         11    1    3    3    0    0  0.44144478322E+02  0.29095874076E+02  0.97803839196E+01  0.53767655374E+02  0.51100000000E-03 0.  1.
         22    1    1    0    0    0 -0.96931491989E+01 -0.23353695460E+02  0.14072664021E+02  0.28937728067E+02  0.00000000000E+00 0.  1.
</event>
<event>
 5    1  0.1626333E-003  0.9118800E+02  0.7818608E-02  0.1130116E+00
         25   -1    0    0    0    0  0.00000000000E+00  0.00000000000E+00  0.99999998245E-14  0.12500000000E+03  0.12500000000E+03 0.  0.
        -11    1    3    3    0    0 -0.68368992504E+01 -0.38477224196E+02 -0.16681955962E+02  0.42491500658E+02  0.51100000000E-03 0.  1.
         23    2    1    0    0    0 -0.22625013122E+02  0.86448127385E+01  0.98810019092E+01  0.98841670451E+02  0.95317457020E+02 0.  0.
         11    1    3    3    0    0 -0.15788113872E+02  0.47122036935E+02  0.26562957871E+02  0.56350169793E+02  0.51100000000E-03 0. -1.
         22    1    1    0    0    0  0.22625013122E+02 -0.86448127385E+01 -0.98810019092E+01  0.26158329549E+02  0.00000000000E+00 0. -1.
</event>
<event>
 5    1  0.1626333E-003  0.9118800E+02  0.7818608E-02  0.1130116E+00
         25   -1    0    0    0    0  0.00000000000E+00  0.00000000000E+00  0.99999998245E-14  0.12500000000E+03  0.12500000000E+03 0.  0.
        -11    1    3    3    0    0  0.34369414774E+01  0.52866310813E+01 -0.39263479745E+02  0.39766592472E+02  0.51100000000E-03 0. -1.
         23    2    1    0    0    0  0.31737056879E+02 -0.87807963793E+01  0.23112238637E+01  0.91989624053E+02  0.85862716084E+02 0.  0.
         11    1    3    3    0    0  0.28300115402E+02 -0.14067427461E+02  0.41574703609E+02  0.52223031581E+02  0.51100000000E-03 0.  1.
         22    1    1    0    0    0 -0.31737056879E+02  0.87807963793E+01 -0.23112238637E+01  0.33010375947E+02  0.00000000000E+00 0.  1.
</event>
<event>
 5    1  0.1626333E-003  0.9118800E+02  0.7818608E-02  0.1130116E+00
         25   -1    0    0    0    0  0.00000000000E+00  0.00000000000E+00  0.99999998245E-14  0.12500000000E+03  0.12500000000E+03 0.  0.
        -11    1    3    3    0    0 -0.12745048278E+02  0.38473007367E+02  0.29647480153E+02  0.50215352544E+02  0.51100000000E-03 0.  1.
         23    2    1    0    0    0 -0.16938067293E+02  0.17167767721E+02 -0.12654338779E+02  0.97764679879E+02  0.93894461870E+02 0.  0.
         11    1    3    3    0    0 -0.41930190156E+01 -0.21305239646E+02 -0.42301818932E+02  0.47549327335E+02  0.51100000000E-03 0. -1.
         22    1    1    0    0    0  0.16938067293E+02 -0.17167767721E+02  0.12654338779E+02  0.27235320121E+02  0.00000000000E+00 0. -1.
</event>
<event>
 5    1  0.1626333E-003  0.9118800E+02  0.7818608E-02  0.1130116E+00
         25   -1    0    0    0    0  0.00000000000E+00  0.00000000000E+00  0.99999998245E-14  0.12500000000E+03  0.12500000000E+03 0.  0.
        -11    1    3    3    0    0 -0.38964499022E+02  0.37675777089E+01 -0.17389255631E+02  0.42834717666E+02  0.51100000000E-03 0. -1.
         23    2    1    0    0    0  0.78246323410E+01  0.26640778888E+02 -0.10249328517E+02  0.95402623325E+02  0.90695401378E+02 0.  0.
         11    1    3    3    0    0  0.46789131363E+02  0.22873201179E+02  0.71399271137E+01  0.52567905659E+02  0.51100000000E-03 0.  1.
         22    1    1    0    0    0 -0.78246323410E+01 -0.26640778888E+02  0.10249328517E+02  0.29597376675E+02  0.00000000000E+00 0.  1.
</event>
<event>
 5    1  0.1626333E-003  0.9118800E+02  0.7818608E-02  0.1130116E+00
         25   -1    0    0    0    0  0.00000000000E+00  0.00000000000E+00  0.99999998245E-14  0.12500000000E+03  0.12500000000E+03 0.  0.
        -11    1    3    3    0    0  0.47186750468E+02  0.36701642179E+02 -0.99876466213E+01  0.60608192876E+02  0.51100000000E-03 0.  1.
         23    2    1    0    0    0  0.12024041789E+02  0.18386297603E+02  0.40385782497E+01  0.10266295376E+03  0.10020348517E+03 0.  0.
         11    1    3    3    0    0 -0.35162708678E+02 -0.18315344576E+02  0.14026224871E+02  0.42054760883E+02  0.51100000000E-03 0. -1.
         22    1    1    0    0    0 -0.12024041789E+02 -0.18386297603E+02 -0.40385782497E+01  0.22337046241E+02  0.00000000000E+00 0.  1.
</event>
<event>
 5    1  0.1626333E-003  0.9118800E+02  0.7818608E-02  0.1130116E+00
         25   -1    0    0    0    0  0.00000000000E+00  0.00000000000E+00  0.99999998245E-14  0.12500000000E+03  0.12500000000E+03 0.  0.
        -11    1    3    3    0    0 -0.63302671153E+01  0.30635708535E+02  0.40987014236E+02  0.51561170036E+02  0.51100000000E-03 0.  1.
         23    2    1    0    0    0  0.23610367493E+01 -0.99266469926E+01  0.28262646946E+02  0.94951871482E+02  0.90072014913E+02 0.  0.
         11    1    3    3    0    0  0.86913038646E+01 -0.40562355528E+02 -0.12724367290E+02  0.43390701446E+02  0.51100000000E-03 0. -1.
         22    1    1    0    0    0 -0.23610367493E+01  0.99266469926E+01 -0.28262646946E+02  0.30048128518E+02  0.00000000000E+00 0.  1.
</event>
<event>
 5    1  0.1626333E-003  0.9118800E+02  0.7818608E-02  0.1130116E+00
         25   -1    0    0    0    0  0.00000000000E+00  0.00000000000E+00  0.99999998245E-14  0.12500000000E+03  0.12500000000E+03 0.  0.
        -11    1    3    3    0    0  0.96246976608E+01  0.19942530354E+02  0.35344671938E+02  0.41708334379E+02  0.51100000000E-03 0. -1.
         23    2    1    0    0    0 -0.10118092563E+02  0.24219177069E+02 -0.14160326956E+02  0.95176197518E+02  0.90382793603E+02 0.  0.
         11    1    3    3    0    0 -0.19742790224E+02  0.42766467147E+01 -0.49504998894E+02  0.53467863139E+02  0.51100000000E-03 0.  1.
         22    1    1    0    0    0  0.10118092563E+02 -0.24219177069E+02  0.14160326956E+02  0.29823802482E+02  0.00000000000E+00 0.  1.
</event>
<event>
 5    1  0.1626333E-003  0.9118800E+02  0.7818608E-02  0.1130116E+00
         25   -1    0    0    0    0  0.00000000000E+00  0.00000000000E+00  0.99999998245E-14  0.12500000000E+03  0.12500000000E+03 0.  0.
        -11    1    3    3    0    0  0.25065539405E+02  0.25413077331E+02  0.51717923997E+01  0.36067342596E+02  0.51100000000E-03 0. -1.
         23    2    1    0    0    0 -0.13951046413E+02  0.20746528251E+02 -0.27979318329E+02  0.87478107928E+02  0.79022319518E+02 0.  0.
         11    1    3    3    0    0 -0.39016585818E+02 -0.46665490798E+01 -0.33151110729E+02  0.51410765332E+02  0.51100000000E-03 0.  1.
         22    1    1    0    0    0  0.13951046413E+02 -0.20746528251E+02  0.27979318329E+02  0.37521892072E+02  0.00000000000E+00 0.  1.
</event>
<event>
 5    1  0.1626333E-003  0.9118800E+02  0.7818608E-02  0.1130116E+00
         25   -1    0    0    0    0  0.00000000000E+00  0.00000000000E+00  0.99999998245E-14  0.12500000000E+03  0.12500000000E+03 0.  0.
        -11    1    3    3    0    0  0.97659574105E+01 -0.30313332608E+02 -0.21808410337E+02  0.38598948427E+02  0.51100000000E-03 0.  1.
         23    2    1    0    0    0  0.89179916545E+01  0.24154814420E+02 -0.18728474731E+02  0.93160694094E+02  0.87550976714E+02 0.  0.
         11    1    3    3    0    0 -0.84796575603E+00  0.54468147029E+02  0.30799356062E+01  0.54561745667E+02  0.51100000000E-03 0. -1.
         22    1    1    0    0    0 -0.89179916545E+01 -0.24154814420E+02  0.18728474731E+02  0.31839305906E+02  0.00000000000E+00 0. -1.
</event>
<event>
 5    1  0.1626333E-003  0.9118800E+02  0.7818608E-02  0.1130116E+00
         25   -1    0    0    0    0  0.00000000000E+00  0.00000000000E+00  0.99999998245E-14  0.12500000000E+03  0.12500000000E+03 0.  0.
        -11    1    3    3    0    0  0.13006147076E+02  0.41277221956E+02 -0.22343814077E+02  0.48705389249E+02  0.51100000000E-03 0.  1.
         23    2    1    0    0    0  0.28373121819E+02 -0.55957156511E+00 -0.88940065895E+01  0.95260287236E+02  0.90499015514E+02 0.  0.
         11    1    3    3    0    0  0.15366974743E+02 -0.41836793521E+02  0.13449807487E+02  0.46554897987E+02  0.51100000000E-03 0. -1.
         22    1    1    0    0    0 -0.28373121819E+02  0.55957156511E+00  0.88940065895E+01  0.29739712764E+02  0.00000000000E+00 0. -1.
</event>
<event>
 5    1  0.1626333E-003  0.9118800E+02  0.7818608E-02  0.1130116E+00
         25   -1    0    0    0    0  0.00000000000E+00  0.00000000000E+00  0.99999998245E-14  0.12500000000E+03  0.12500000000E+03 0.  0.
        -11    1    3    3    0    0  0.32497083934E+02  0.23151570871E+02  0.46420994288E+02  0.61212453055E+02  0.51100000000E-03 0. -1.
         23    2    1    0    0    0  0.59223480610E+01  0.98253777420E+01  0.23834825611E+02  0.98547945897E+02  0.94931483051E+02 0.  0.
         11    1    3    3    0    0 -0.26574735873E+02 -0.13326193129E+02 -0.22586168677E+02  0.37335492843E+02  0.51100000000E-03 0.  1.
         22    1    1    0    0    0 -0.59223480610E+01 -0.98253777420E+01 -0.23834825611E+02  0.26452054103E+02  0.00000000000E+00 0. -1.
</event>
<event>
 5    1  0.1626333E-003  0.9118800E+02  0.7818608E-02  0.1130116E+00
         25   -1    0    0    0    0  0.00000000000E+00  0.00000000000E+00  0.99999998245E-14  0.12500000000E+03  0.12500000000E+03 0.  0.
        -11    1    3    3    0    0 -0.77688116894E+01  0.34559368492E+02 -0.14745080093E+02  0.38368239116E+02  0.51100000000E-03 0.  1.
         23    2    1    0    0    0 -0.26942379380E+02 -0.11284361486E+02  0.10315868592E+02  0.94021850191E+02  0.88771969380E+02 0.  0.
         11    1    3    3    0    0 -0.19173567690E+02 -0.45843729979E+02  0.25060948686E+02  0.55653611075E+02  0.51100000000E-03 0. -1.
         22    1    1    0    0    0  0.26942379380E+02  0.11284361486E+02 -0.10315868592E+02  0.30978149809E+02  0.00000000000E+00 0. -1.
</event>
<event>
 5    1  0.1626333E-003  0.9118800E+02  0.7818608E-02  0.1130116E+00
         25   -1    0    0    0    0  0.00000000000E+00  0.00000000000E+00  0.99999998245E-14  0.12500000000E+03  0.12500000000E+03 0.  0.
        -11    1    3    3    0    0  0.13995900659E+02  0.17885739639E+02  0.29253666935E+02  0.37034604724E+02  0.51100000000E-03 0. -1.
         23    2    1    0    0    0 -0.21911683807E+02 -0.79529048468E+01 -0.13085023046E+02  0.98268213474E+02  0.94562431063E+02 0.  0.
         11    1    3    3    0    0 -0.35907584465E+02 -0.25838644486E+02 -0.42338689981E+02  0.61233608750E+02  0.51100000000E-03 0.  1.
         22    1    1    0    0    0  0.21911683807E+02  0.79529048468E+01  0.13085023046E+02  0.26731786526E+02  0.00000000000E+00 0.  1.
</event>
<event>
 5    1  0.1626333E-003  0.9118800E+02  0.7818608E-02  0.1130116E+00
         25   -1    0    0    0    0  0.00000000000E+00  0.00000000000E+00  0.99999998245E-14  0.12500000000E+03  0.12500000000E+03 0.  0.
        -11    1    3    3    0    0  0.33377113245E+02  0.43358988155E+02 -0.61175723285E+01  0.55058679914E+02  0.51100000000E-03 0.  1.
         23    2    1    0    0    0  0.14502499806E+02  0.12489772564E+02 -0.23077413993E+02  0.95018606505E+02  0.90164580774E+02 0.  0.
         11    1    3    3    0    0 -0.18874613439E+02 -0.30869215590E+02 -0.16959841664E+02  0.39959926591E+02  0.51100000000E-03 0. -1.
         22    1    1    0    0    0 -0.14502499806E+02 -0.12489772564E+02  0.23077413993E+02  0.29981393495E+02  0.00000000000E+00 0.  1.
</event>
<event>
 5    1  0.1626333E-003  0.9118800E+02  0.7818608E-02  0.1130116E+00
         25   -1    0    0    0    0  0.00000000000E+00  0.00000000000E+00  0.99999998245E-14  0.12500000000E+03  0.12500000000E+03 0.  0.
        -11    1    3    3    0    0  0.17400619744E+01  0.53333093608E+01  0.35325628698E+02  0.35768310662E+02  0.51100000000E-03 0. -1.
         23    2    1    0    0    0 -0.12628277725E+02  0.36053941354E+01 -0.24436690212E+02  0.97257900338E+02  0.93217353987E+02 0.  0.
         11    1    3    3    0    0 -0.14368339699E+02 -0.17279152253E+01 -0.59762318910E+02  0.61489589676E+02  0.51100000000E-03 0.  1.
         22    1    1    0    0    0  0.12628277725E+02 -0.36053941354E+01  0.24436690212E+02  0.27742099662E+02  0.00000000000E+00 0.  1.
</event>
<event>
 5    1  0.1626333E-003  0.9118800E+02  0.7818608E-02  0.1130116E+00
         25   -1    0    0    0    0  0.00000000000E+00  0.00000000000E+00  0.99999998245E-14  0.12500000000E+03  0.12500000000E+03 0.  0.
        -11    1    3    3    0    0  0.52076116336E+02  0.13465718895E+02 -0.29356146566E+02  0.61278306271E+02  0.51100000000E-03 0. -1.
         23    2    1    0    0    0  0.27003677813E+02  0.53977588355E+01 -0.52846130389E+01  0.96959644246E+02  0.92816545192E+02 0.  0.
         11    1    3    3    0    0 -0.25072438523E+02 -0.80679600599E+01  0.24071533527E+02  0.35681337974E+02  0.51100000000E-03 0.  1.
         22    1    1    0    0    0 -0.27003677813E+02 -0.53977588355E+01  0.52846130389E+01  0.28040355754E+02  0.00000000000E+00 0. -1.
</event>
<event>
 5    1  0.1626333E-003  0.9118800E+02  0.7818608E-02  0.1130116E+00
         25   -1    0    0    0    0  0.00000000000E+00  0.00000000000E+00  0.99999998245E-14  0.12500000000E+03  0.12500000000E+03 0.  0.
        -11    1    3    3    0    0 -0.41206550272E+02 -0.49329531866E+01 -0.42418922029E+02  0.59343733947E+02  0.51100000000E-03 0.  1.
         23    2    1    0    0    0 -0.15931352623E+02  0.11114670631E+02 -0.22354950831E+02  0.95384333094E+02  0.90670189553E+02 0.  0.
         11    1    3    3    0    0  0.25275197648E+02  0.16047623818E+02  0.20063971198E+02  0.36040599147E+02  0.51100000000E-03 0. -1.
         22    1    1    0    0    0  0.15931352623E+02 -0.11114670631E+02  0.22354950831E+02  0.29615666906E+02  0.00000000000E+00 0.  1.
</event>
<event>
 5    1  0.1626333E-003  0.9118800E+02  0.7818608E-02  0.1130116E+00
         25   -1    0    0    0    0  0.00000000000E+00  0.00000000000E+00  0.99999998245E-14  0.12500000000E+03  0.12500000000E+03 0.  0.
        -11    1    3    3    0    0 -0.39243382945E+02 -0.21791695163E+02  0.16924449646E+02  0.47972472097E+02  0.51100000000E-03 0.  1.
         23    2    1    0    0    0 -0.22199486266E+02  0.19430253466E+01 -0.19997746210E+02  0.95058350222E+02  0.90219662798E+02 0.  0.
         11    1    3    3    0    0  0.17043896679E+02  0.23734720510E+02 -0.36922195856E+02  0.47085878124E+02  0.51100000000E-03 0. -1.
         22    1    1    0    0    0  0.22199486266E+02 -0.19430253466E+01  0.19997746210E+02  0.29941649778E+02  0.00000000000E+00 0.  1.
</event>
<event>
 5    1  0.1626333E-003  0.9118800E+02  0.7818608E-02  0.1130116E+00
         25   -1    0    0    0    0  0.00000000000E+00  0.00000000000E+00  0.99999998245E-14  0.12500000000E+03  0.12500000000E+03 0.  0.
        -11    1    3    3    0    0  0.44936171569E+02 -0.24225459049E+02  0.14079694342E+02  0.52956304388E+02  0.51100000000E-03 0.  1.
         23    2    1    0    0    0  0.48349781960E+01 -0.28310249288E+02 -0.16668264661E+01  0.96231518300E+02  0.91830711502E+02 0.  0.
         11    1    3    3    0    0 -0.40101193373E+02 -0.40847902388E+01 -0.15746520808E+02  0.43275213911E+02  0.51100000000E-03 0. -1.
         22    1    1    0    0    0 -0.48349781960E+01  0.28310249288E+02  0.16668264661E+01  0.28768481700E+02  0.00000000000E+00 0.  1.
</event>
<event>
 5    1  0.1626333E-003  0.9118800E+02  0.7818608E-02  0.1130116E+00
         25   -1    0    0    0    0  0.00000000000E+00  0.00000000000E+00  0.99999998245E-14  0.12500000000E+03  0.12500000000E+03 0.  0.
        -11    1    3    3    0    0  0.47456172355E+02  0.26925983369E+02 -0.22692412305E+02  0.59093506001E+02  0.51100000000E-03 0.  1.
         23    2    1    0    0    0  0.98280646314E+01  0.18651090117E+02 -0.16744757640E+02  0.98077130068E+02  0.94309503853E+02 0.  0.
         11    1    3    3    0    0 -0.37628107723E+02 -0.82748932518E+01  0.59476546655E+01  0.38983624068E+02  0.51100000000E-03 0. -1.
         22    1    1    0    0    0 -0.98280646314E+01 -0.18651090117E+02  0.16744757640E+02  0.26922869932E+02  0.00000000000E+00 0. -1.
</event>
<event>
 5    1  0.1626333E-003  0.9118800E+02  0.7818608E-02  0.1130116E+00
         25   -1    0    0    0    0  0.00000000000E+00  0.00000000000E+00  0.99999998245E-14  0.12500000000E+03  0.12500000000E+03 0.  0.
        -11    1    3    3    0    0 -0.16280811981E+02  0.29311796035E+02 -0.15574426368E+02  0.36970379799E+02  0.51100000000E-03 0. -1.
         23    2    1    0    0    0 -0.36442256047E+01 -0.27855009519E+02 -0.53125366625E+01  0.96409704770E+02  0.92072939524E+02 0.  0.
         11    1    3    3    0    0  0.12636586376E+02 -0.57166805553E+02  0.10261889706E+02  0.59439324971E+02  0.51100000000E-03 0.  1.
         22    1    1    0    0    0  0.36442256047E+01  0.27855009519E+02  0.53125366625E+01  0.28590295230E+02  0.00000000000E+00 0.  1.
</event>
<event>
 5    1  0.1626333E-003  0.9118800E+02  0.7818608E-02  0.1130116E+00
         25   -1    0    0    0    0  0.00000000000E+00  0.00000000000E+00  0.99999998245E-14  0.12500000000E+03  0.12500000000E+03 0.  0.
        -11    1    3    3    0    0  0.28157959816E+02 -0.33138490625E+02  0.40861504545E+02  0.59671541088E+02  0.51100000000E-03 0. -1.
         23    2    1    0    0    0  0.89066708734E+01 -0.34072777577E+01  0.24542680035E+02  0.98669761280E+02  0.95091746855E+02 0.  0.
         11    1    3    3    0    0 -0.19251288942E+02  0.29731212867E+02 -0.16318824510E+02  0.38998220192E+02  0.51100000000E-03 0.  1.
         22    1    1    0    0    0 -0.89066708734E+01  0.34072777577E+01 -0.24542680035E+02  0.26330238720E+02  0.00000000000E+00 0. -1.
</event>
<event>
 5    1  0.1626333E-003  0.9118800E+02  0.7818608E-02  0.1130116E+00
         25   -1    0    0    0    0  0.00000000000E+00  0.00000000000E+00  0.99999998245E-14  0.12500000000E+03  0.12500000000E+03 0.  0.
        -11    1    3    3    0    0  0.21561608469E+02 -0.27753780532E+02 -0.71952339896E+01  0.35874039165E+02  0.51100000000E-03 0.  1.
         23    2    1    0    0    0 -0.24645049167E+02  0.33355228206E+01  0.15147182306E+02  0.95880568468E+02  0.91351749392E+02 0.  0.
         11    1    3    3    0    0 -0.46206657636E+02  0.31089303352E+02  0.22342416295E+02  0.60006529303E+02  0.51100000000E-03 0. -1.
         22    1    1    0    0    0  0.24645049167E+02 -0.33355228206E+01 -0.15147182306E+02  0.29119431532E+02  0.00000000000E+00 0. -1.
</event>
<event>
 5    1  0.1626333E-003  0.9118800E+02  0.7818608E-02  0.1130116E+00
         25   -1    0    0    0    0  0.00000000000E+00  0.00000000000E+00  0.99999998245E-14  0.12500000000E+03  0.12500000000E+03 0.  0.
        -11    1    3    3    0    0 -0.20869965543E+02 -0.48525895747E+01 -0.27209341020E+02  0.34633095824E+02  0.51100000000E-03 0. -1.
         23    2    1    0    0    0  0.82081865247E+01 -0.46841098601E+01  0.27134029764E+02  0.96267252438E+02  0.91879339950E+02 0.  0.
         11    1    3    3    0    0  0.29078152068E+02  0.16847971453E+00  0.54343370784E+02  0.61634156614E+02  0.51100000000E-03 0.  1.
         22    1    1    0    0    0 -0.82081865247E+01  0.46841098601E+01 -0.27134029764E+02  0.28732747562E+02  0.00000000000E+00 0.  1.
</event>
<event>
 5    1  0.1626333E-003  0.9118800E+02  0.7818608E-02  0.1130116E+00
         25   -1    0    0    0    0  0.00000000000E+00  0.00000000000E+00  0.99999998245E-14  0.12500000000E+03  0.12500000000E+03 0.  0.
        -11    1    3    3    0    0 -0.24067903998E+01  0.32301429660E+02  0.19476669497E+02  0.37795709453E+02  0.51100000000E-03 0.  1.
         23    2    1    0    0    0  0.20879156844E+01 -0.25049992341E+02  0.15517955964E+02  0.95459037499E+02  0.90773120332E+02 0.  0.
         11    1    3    3    0    0  0.44947060842E+01 -0.57351422001E+02 -0.39587135330E+01  0.57663328046E+02  0.51100000000E-03 0. -1.
         22    1    1    0    0    0 -0.20879156844E+01  0.25049992341E+02 -0.15517955964E+02  0.29540962501E+02  0.00000000000E+00 0. -1.
</event>
<event>
 5    1  0.1626333E-003  0.9118800E+02  0.7818608E-02  0.1130116E+00
         25   -1    0    0    0    0  0.00000000000E+00  0.00000000000E+00  0.99999998245E-14  0.12500000000E+03  0.12500000000E+03 0.  0.
        -11    1    3    3    0    0  0.29531634881E+01 -0.37170527575E+02  0.48265920670E+00  0.37290779758E+02  0.51100000000E-03 0. -1.
         23    2    1    0    0    0  0.19480767629E+02  0.19334562357E+02 -0.71001330279E+01  0.96649735487E+02  0.92398235219E+02 0.  0.
         11    1    3    3    0    0  0.16527604141E+02  0.56505089932E+02 -0.75827922346E+01  0.59358955729E+02  0.51100000000E-03 0.  1.
         22    1    1    0    0    0 -0.19480767629E+02 -0.19334562357E+02  0.71001330279E+01  0.28350264513E+02  0.00000000000E+00 0.  1.
</event>
<event>
 5    1  0.1626333E-003  0.9118800E+02  0.7818608E-02  0.1130116E+00
         25   -1    0    0    0    0  0.00000000000E+00  0.00000000000E+00  0.99999998245E-14  0.12500000000E+03  0.12500000000E+03 0.  0.
        -11    1    3    3    0    0  0.39038984679E+02  0.11532543513E+02 -0.14512998469E+02  0.43216536296E+02  0.51100000000E-03 0.  1.
         23    2    1    0    0    0 -0.23327800933E+01 -0.16337221978E+02 -0.25811811732E+02  0.94363480782E+02  0.89251723768E+02 0.  0.
         11    1    3    3    0    0 -0.41371764772E+02 -0.27869765490E+02 -0.11298813263E+02  0.51146944486E+02  0.51100000000E-03 0. -1.
         22    1    1    0    0    0  0.23327800933E+01  0.16337221978E+02  0.25811811732E+02  0.30636519218E+02  0.00000000000E+00 0. -1.
</event>
<event>
 5    1  0.1626333E-003  0.9118800E+02  0.7818608E-02  0.1130116E+00
         25   -1    0    0    0    0  0.00000000000E+00  0.00000000000E+00  0.99999998245E-14  0.12500000000E+03  0.12500000000E+03 0.  0.
        -11    1    3    3    0    0  0.89158849553E+01  0.14144934883E+02  0.29802825561E+02  0.34172804963E+02  0.51100000000E-03 0. -1.
         23    2    1    0    0    0 -0.13233900440E+02 -0.14741871829E+02 -0.20648278087E+02  0.96385138584E+02  0.92039581953E+02 0.  0.
         11    1    3    3    0    0 -0.22149785396E+02 -0.28886806712E+02 -0.50451103648E+02  0.62212333621E+02  0.51100000000E-03 0.  1.
         22    1    1    0    0    0  0.13233900440E+02  0.14741871829E+02  0.20648278087E+02  0.28614861416E+02  0.00000000000E+00 0.  1.
</event>
<event>
 5    1  0.1626333E-003  0.9118800E+02  0.7818608E-02  0.1130116E+00
         25   -1    0    0    0    0  0.00000000000E+00  0.00000000000E+00  0.99999998245E-14  0.12500000000E+03  0.12500000000E+03 0.  0.
        -11    1    3    3    0    0 -0.51292246080E+02 -0.34362142628E+02  0.54943698498E+01  0.61982573795E+02  0.51100000000E-03 0. -1.
         23    2    1    0    0    0 -0.24713830283E+02 -0.15769233564E+02 -0.30506205568E+01  0.95525461492E+02  0.90864544092E+02 0.  0.
         11    1    3    3    0    0  0.26578415797E+02  0.18592909064E+02 -0.85449904067E+01  0.33542887697E+02  0.51100000000E-03 0.  1.
         22    1    1    0    0    0  0.24713830283E+02  0.15769233564E+02  0.30506205568E+01  0.29474538508E+02  0.00000000000E+00 0. -1.
</event>
<event>
 5    1  0.1626333E-003  0.9118800E+02  0.7818608E-02  0.1130116E+00
         25   -1    0    0    0    0  0.00000000000E+00  0.00000000000E+00  0.99999998245E-14  0.12500000000E+03  0.12500000000E+03 0.  0.
        -11    1    3    3    0    0  0.17970264834E+02 -0.59867388908E+01 -0.28525895423E+02  0.34241760625E+02  0.51100000000E-03 0.  1.
         23    2    1    0    0    0  0.96801862095E+00  0.10628054217E+02  0.27715437929E+02  0.95300873817E+02  0.90555057585E+02 0.  0.
         11    1    3    3    0    0 -0.17002246213E+02  0.16614793108E+02  0.56241333352E+02  0.61059113192E+02  0.51100000000E-03 0. -1.
         22    1    1    0    0    0 -0.96801862095E+00 -0.10628054217E+02 -0.27715437929E+02  0.29699126183E+02  0.00000000000E+00 0. -1.
</event>
<event>
 5    1  0.1626333E-003  0.9118800E+02  0.7818608E-02  0.1130116E+00
         25   -1    0    0    0    0  0.00000000000E+00  0.00000000000E+00  0.99999998245E-14  0.12500000000E+03  0.12500000000E+03 0.  0.
        -11    1    3    3    0    0  0.39293032116E+01  0.36767858436E+02 -0.34551042980E+02  0.50607207085E+02  0.51100000000E-03 0.  1.
         23    2    1    0    0    0 -0.20661579407E+02  0.22188521591E+02 -0.10293131357E+01  0.94663704255E+02  0.89671210897E+02 0.  0.
         11    1    3    3    0    0 -0.24590882619E+02 -0.14579336845E+02  0.33521729845E+02  0.44056497170E+02  0.51100000000E-03 0. -1.
         22    1    1    0    0    0  0.20661579407E+02 -0.22188521591E+02  0.10293131357E+01  0.30336295745E+02  0.00000000000E+00 0. -1.
</event>
<event>
 5    1  0.1626333E-003  0.9118800E+02  0.7818608E-02  0.1130116E+00
         25   -1    0    0    0    0  0.00000000000E+00  0.00000000000E+00  0.99999998245E-14  0.12500000000E+03  0.12500000000E+03 0.  0.
        -11    1    3    3    0    0  0.34609020029E+02 -0.80285467855E+01 -0.31243794045E+01  0.35665159158E+02  0.51100000000E-03 0. -1.
         23    2    1    0    0    0 -0.19372814402E+02 -0.35642534265E+01 -0.24208453217E+02  0.93790080944E+02  0.88445012499E+02 0.  0.
         11    1    3    3    0    0 -0.53981834431E+02  0.44642933591E+01 -0.21084073813E+02  0.58124921785E+02  0.51100000000E-03 0.  1.
         22    1    1    0    0    0  0.19372814402E+02  0.35642534265E+01  0.24208453217E+02  0.31209919056E+02  0.00000000000E+00 0.  1.
</event>
<event>
 5    1  0.1626333E-003  0.9118800E+02  0.7818608E-02  0.1130116E+00
         25   -1    0    0    0    0  0.00000000000E+00  0.00000000000E+00  0.99999998245E-14  0.12500000000E+03  0.12500000000E+03 0.  0.
        -11    1    3    3    0    0 -0.11879279453E+02 -0.44311095031E+02 -0.39790601924E+02  0.60727937763E+02  0.51100000000E-03 0. -1.
         23    2    1    0    0    0 -0.10042315611E+01 -0.18537144681E+02 -0.28697247220E+02  0.90821553400E+02  0.84145043527E+02 0.  0.
         11    1    3    3    0    0  0.10875047891E+02  0.25773950350E+02  0.11093354705E+02  0.30093615637E+02  0.51100000000E-03 0.  1.
         22    1    1    0    0    0  0.10042315611E+01  0.18537144681E+02  0.28697247220E+02  0.34178446600E+02  0.00000000000E+00 0. -1.
</event>
<event>
 5    1  0.1626333E-003  0.9118800E+02  0.7818608E-02  0.1130116E+00
         25   -1    0    0    0    0  0.00000000000E+00  0.00000000000E+00  0.99999998245E-14  0.12500000000E+03  0.12500000000E+03 0.  0.
        -11    1    3    3    0    0 -0.27166334057E+02  0.53128513273E+02  0.16693532084E+01  0.59694517077E+02  0.51100000000E-03 0.  1.
         23    2    1    0    0    0 -0.72675801065E+00  0.28837814833E+02  0.48858431643E+01  0.95742194119E+02  0.91162209988E+02 0.  0.
         11    1    3    3    0    0  0.26439576047E+02 -0.24290698440E+02  0.32164899560E+01  0.36047677042E+02  0.51100000000E-03 0. -1.
         22    1    1    0    0    0  0.72675801065E+00 -0.28837814833E+02 -0.48858431643E+01  0.29257805881E+02  0.00000000000E+00 0.  1.
</event>
<event>
 5    1  0.1626333E-003  0.9118800E+02  0.7818608E-02  0.1130116E+00
         25   -1    0    0    0    0  0.00000000000E+00  0.00000000000E+00  0.99999998245E-14  0.12500000000E+03  0.12500000000E+03 0.  0.
        -11    1    3    3    0    0 -0.57634084093E+01 -0.34385272307E+02 -0.13301810410E+02  0.37316242959E+02  0.51100000000E-03 0.  1.
         23    2    1    0    0    0  0.18912339502E+02  0.19349000631E+02 -0.84977884962E+01  0.96640295837E+02  0.92385464004E+02 0.  0.
         11    1    3    3    0    0  0.24675747912E+02  0.53734272938E+02  0.48040219135E+01  0.59324052879E+02  0.51100000000E-03 0. -1.
         22    1    1    0    0    0 -0.18912339502E+02 -0.19349000631E+02  0.84977884962E+01  0.28359704163E+02  0.00000000000E+00 0. -1.
</event>
<event>
 5    1  0.1626333E-003  0.9118800E+02  0.7818608E-02  0.1130116E+00
         25   -1    0    0    0    0  0.00000000000E+00  0.00000000000E+00  0.99999998245E-14  0.12500000000E+03  0.12500000000E+03 0.  0.
        -11    1    3    3    0    0 -0.36128399779E+01 -0.55368508730E+02  0.11594929414E+02  0.56684801844E+02  0.51100000000E-03 0. -1.
         23    2    1    0    0    0 -0.18429452108E+02 -0.23655662018E+02 -0.35096126949E+01  0.94808073401E+02  0.89872233477E+02 0.  0.
         11    1    3    3    0    0 -0.14816612130E+02  0.31712846712E+02 -0.15104542109E+02  0.38123271557E+02  0.51100000000E-03 0.  1.
         22    1    1    0    0    0  0.18429452108E+02  0.23655662018E+02  0.35096126949E+01  0.30191926599E+02  0.00000000000E+00 0. -1.
</event>
<event>
 5    1  0.1626333E-003  0.9118800E+02  0.7818608E-02  0.1130116E+00
         25   -1    0    0    0    0  0.00000000000E+00  0.00000000000E+00  0.99999998245E-14  0.12500000000E+03  0.12500000000E+03 0.  0.
        -11    1    3    3    0    0 -0.22362758992E+02 -0.49243588166E+02  0.11976891551E+02  0.55393771281E+02  0.51100000000E-03 0.  1.
         23    2    1    0    0    0  0.10698379312E+02 -0.26011546857E+02  0.38247535928E+01  0.96615415630E+02  0.92351794285E+02 0.  0.
         11    1    3    3    0    0  0.33061138304E+02  0.23232041309E+02 -0.81521379577E+01  0.41221644350E+02  0.51100000000E-03 0. -1.
         22    1    1    0    0    0 -0.10698379312E+02  0.26011546857E+02 -0.38247535928E+01  0.28384584370E+02  0.00000000000E+00 0.  1.
</event>
<event>
 5    1  0.1626333E-003  0.9118800E+02  0.7818608E-02  0.1130116E+00
         25   -1    0    0    0    0  0.00000000000E+00  0.00000000000E+00  0.99999998245E-14  0.12500000000E+03  0.12500000000E+03 0.  0.
        -11    1    3    3    0    0  0.18657706951E+01 -0.31888543211E+01  0.36656016723E+02  0.36841735226E+02  0.51100000000E-03 0. -1.
         23    2    1    0    0    0  0.22166303019E+02  0.11301509383E+02 -0.16215757197E+02  0.95301180405E+02  0.90555480791E+02 0.  0.
         11    1    3    3    0    0  0.20300532324E+02  0.14490363704E+02 -0.52871773920E+02  0.58459445179E+02  0.51100000000E-03 0.  1.
         22    1    1    0    0    0 -0.22166303019E+02 -0.11301509383E+02  0.16215757197E+02  0.29698819595E+02  0.00000000000E+00 0.  1.
</event>
<event>
 5    1  0.1626333E-003  0.9118800E+02  0.7818608E-02  0.1130116E+00
         25   -1    0    0    0    0  0.00000000000E+00  0.00000000000E+00  0.99999998245E-14  0.12500000000E+03  0.12500000000E+03 0.  0.
        -11    1    3    3    0    0 -0.33977067983E+02  0.63534546842E+01 -0.19054863983E+02  0.39470183390E+02  0.51100000000E-03 0. -1.
         23    2    1    0    0    0  0.18226510554E+02 -0.12345224465E+02 -0.20469909226E+02  0.94939603499E+02  0.90054988062E+02 0.  0.
         11    1    3    3    0    0  0.52203578537E+02 -0.18698679149E+02 -0.14150452430E+01  0.55469420109E+02  0.51100000000E-03 0.  1.
         22    1    1    0    0    0 -0.18226510554E+02  0.12345224465E+02  0.20469909226E+02  0.30060396501E+02  0.00000000000E+00 0.  1.
</event>
<event>
 5    1  0.1626333E-003  0.9118800E+02  0.7818608E-02  0.1130116E+00
         25   -1    0    0    0    0  0.00000000000E+00  0.00000000000E+00  0.99999998245E-14  0.12500000000E+03  0.12500000000E+03 0.  0.
        -11    1    3    3    0    0  0.14352341840E+02  0.13307090501E+02  0.48465421526E+02  0.52268206951E+02  0.51100000000E-03 0.  1.
         23    2    1    0    0    0 -0.12027948348E+02 -0.11247014156E+02  0.24250626227E+02  0.95686867427E+02  0.91086315419E+02 0.  0.
         11    1    3    3    0    0 -0.26380290188E+02 -0.24554104657E+02 -0.24214795299E+02  0.43418660476E+02  0.51100000000E-03 0. -1.
         22    1    1    0    0    0  0.12027948348E+02  0.11247014156E+02 -0.24250626227E+02  0.29313132573E+02  0.00000000000E+00 0.  1.
</event>
<event>
 5    1  0.1626333E-003  0.9118800E+02  0.7818608E-02  0.1130116E+00
         25   -1    0    0    0    0  0.00000000000E+00  0.00000000000E+00  0.99999998245E-14  0.12500000000E+03  0.12500000000E+03 0.  0.
        -11    1    3    3    0    0 -0.90115735275E+01  0.44554343340E+02 -0.24204181691E+02  0.51498935712E+02  0.51100000000E-03 0. -1.
         23    2    1    0    0    0 -0.18189331588E+01  0.26805411193E+02  0.14345078832E+02  0.94543147343E+02  0.89502999032E+02 0.  0.
         11    1    3    3    0    0  0.71926403687E+01 -0.17748932147E+02  0.38549260523E+02  0.43044211631E+02  0.51100000000E-03 0.  1.
         22    1    1    0    0    0  0.18189331588E+01 -0.26805411193E+02 -0.14345078832E+02  0.30456852657E+02  0.00000000000E+00 0. -1.
</event>
<event>
 5    1  0.1626333E-003  0.9118800E+02  0.7818608E-02  0.1130116E+00
         25   -1    0    0    0    0  0.00000000000E+00  0.00000000000E+00  0.99999998245E-14  0.12500000000E+03  0.12500000000E+03 0.  0.
        -11    1    3    3    0    0 -0.22130622834E+02 -0.42999204896E+02  0.25935163678E+01  0.48429561387E+02  0.51100000000E-03 0.  1.
         23    2    1    0    0    0 -0.26334817749E+01 -0.91941347841E+01 -0.26318732651E+02  0.96997446026E+02  0.92867440508E+02 0.  0.
         11    1    3    3    0    0  0.19497141059E+02  0.33805070112E+02 -0.28912249019E+02  0.48567884639E+02  0.51100000000E-03 0. -1.
         22    1    1    0    0    0  0.26334817749E+01  0.91941347841E+01  0.26318732651E+02  0.28002553974E+02  0.00000000000E+00 0.  1.
</event>
<event>
 5    1  0.1626333E-003  0.9118800E+02  0.7818608E-02  0.1130116E+00
         25   -1    0    0    0    0  0.00000000000E+00  0.00000000000E+00  0.99999998245E-14  0.12500000000E+03  0.12500000000E+03 0.  0.
        -11    1    3    3    0    0  0.32025172680E+02  0.18075863661E+02  0.16351816994E+02  0.40245874963E+02  0.51100000000E-03 0.  1.
         23    2    1    0    0    0  0.18225601564E+00 -0.26312351488E+02  0.14611817580E+02  0.94902188267E+02  0.90003039209E+02 0.  0.
         11    1    3    3    0    0 -0.31842916664E+02 -0.44388215150E+02 -0.17399994139E+01  0.54656313305E+02  0.51100000000E-03 0. -1.
         22    1    1    0    0    0 -0.18225601564E+00  0.26312351488E+02 -0.14611817580E+02  0.30097811733E+02  0.00000000000E+00 0. -1.
</event>
<event>
 5    1  0.1626333E-003  0.9118800E+02  0.7818608E-02  0.1130116E+00
         25   -1    0    0    0    0  0.00000000000E+00  0.00000000000E+00  0.99999998245E-14  0.12500000000E+03  0.12500000000E+03 0.  0.
        -11    1    3    3    0    0 -0.30916273703E+02  0.86028992236E+01 -0.19793019523E+02  0.37703971632E+02  0.51100000000E-03 0. -1.
         23    2    1    0    0    0  0.22637723126E+02 -0.13950142320E+02 -0.97696362389E+01  0.96671237738E+02  0.92427319741E+02 0.  0.
         11    1    3    3    0    0  0.53553996829E+02 -0.22553041544E+02  0.10023383284E+02  0.58967266106E+02  0.51100000000E-03 0.  1.
         22    1    1    0    0    0 -0.22637723126E+02  0.13950142320E+02  0.97696362389E+01  0.28328762262E+02  0.00000000000E+00 0.  1.
</event>
<event>
 5    1  0.1626333E-003  0.9118800E+02  0.7818608E-02  0.1130116E+00
         25   -1    0    0    0    0  0.00000000000E+00  0.00000000000E+00  0.99999998245E-14  0.12500000000E+03  0.12500000000E+03 0.  0.
        -11    1    3    3    0    0  0.15330738505E+02 -0.49467885712E+02 -0.15984751956E+02  0.54199774495E+02  0.51100000000E-03 0.  1.
         23    2    1    0    0    0  0.22718457882E+02 -0.76212942639E+01 -0.15048677785E+02  0.96703796052E+02  0.92471341577E+02 0.  0.
         11    1    3    3    0    0  0.73877193769E+01  0.41846591448E+02  0.93607417140E+00  0.42504021557E+02  0.51100000000E-03 0. -1.
         22    1    1    0    0    0 -0.22718457882E+02  0.76212942639E+01  0.15048677785E+02  0.28296203948E+02  0.00000000000E+00 0. -1.
</event>
<event>
 5    1  0.1626333E-003  0.9118800E+02  0.7818608E-02  0.1130116E+00
         25   -1    0    0    0    0  0.00000000000E+00  0.00000000000E+00  0.99999998245E-14  0.12500000000E+03  0.12500000000E+03 0.  0.
        -11    1    3    3    0    0  0.15976594303E+02 -0.12661320484E+02  0.28416981481E+02  0.34972638429E+02  0.51100000000E-03 0.  1.
         23    2    1    0    0    0 -0.24413219034E+02  0.13927822330E+02 -0.83050911120E+01  0.95691911750E+02  0.91093237606E+02 0.  0.
         11    1    3    3    0    0 -0.40389813337E+02  0.26589142814E+02 -0.36722072593E+02  0.60719273322E+02  0.51100000000E-03 0. -1.
         22    1    1    0    0    0  0.24413219034E+02 -0.13927822330E+02  0.83050911120E+01  0.29308088250E+02  0.00000000000E+00 0. -1.
</event>
<event>
 5    1  0.1626333E-003  0.9118800E+02  0.7818608E-02  0.1130116E+00
         25   -1    0    0    0    0  0.00000000000E+00  0.00000000000E+00  0.99999998245E-14  0.12500000000E+03  0.12500000000E+03 0.  0.
        -11    1    3    3    0    0 -0.31775070920E+02  0.52384448248E+02 -0.71403912021E+01  0.61682823679E+02  0.51100000000E-03 0.  1.
         23    2    1    0    0    0 -0.19829436518E+02  0.21857022339E+02  0.10419402765E+01  0.95469987848E+02  0.90788198363E+02 0.  0.
         11    1    3    3    0    0  0.11945634402E+02 -0.30527425909E+02  0.81823314786E+01  0.33787164169E+02  0.51100000000E-03 0. -1.
         22    1    1    0    0    0  0.19829436518E+02 -0.21857022339E+02 -0.10419402765E+01  0.29530012152E+02  0.00000000000E+00 0.  1.
</event>
<event>
 5    1  0.1626333E-003  0.9118800E+02  0.7818608E-02  0.1130116E+00
         25   -1    0    0    0    0  0.00000000000E+00  0.00000000000E+00  0.99999998245E-14  0.12500000000E+03  0.12500000000E+03 0.  0.
        -11    1    3    3    0    0 -0.32539871925E+02 -0.23269526921E+02 -0.56964240912E-01  0.40003967218E+02  0.51100000000E-03 0.  1.
         23    2    1    0    0    0 -0.15778160098E+02  0.27395955645E+02 -0.79737246879E+00  0.93375254552E+02  0.87856779124E+02 0.  0.
         11    1    3    3    0    0  0.16761711827E+02  0.50665482566E+02 -0.74040822787E+00  0.53371287334E+02  0.51100000000E-03 0. -1.
         22    1    1    0    0    0  0.15778160098E+02 -0.27395955645E+02  0.79737246879E+00  0.31624745448E+02  0.00000000000E+00 0. -1.
</event>
<event>
 5    1  0.1626333E-003  0.9118800E+02  0.7818608E-02  0.1130116E+00
         25   -1    0    0    0    0  0.00000000000E+00  0.00000000000E+00  0.99999998245E-14  0.12500000000E+03  0.12500000000E+03 0.  0.
        -11    1    3    3    0    0 -0.84068348377E+01  0.50048313208E+02  0.31523667033E+02  0.59743201374E+02  0.51100000000E-03 0. -1.
         23    2    1    0    0    0 -0.50028386168E+01  0.35575544552E+02  0.70345825338E+01  0.88392171386E+02  0.80455222618E+02 0.  0.
         11    1    3    3    0    0  0.34039962209E+01 -0.14472768656E+02 -0.24489084499E+02  0.28648970012E+02  0.51100000000E-03 0.  1.
         22    1    1    0    0    0  0.50028386168E+01 -0.35575544552E+02 -0.70345825338E+01  0.36607828614E+02  0.00000000000E+00 0. -1.
</event>
<event>
 5    1  0.1626333E-003  0.9118800E+02  0.7818608E-02  0.1130116E+00
         25   -1    0    0    0    0  0.00000000000E+00  0.00000000000E+00  0.99999998245E-14  0.12500000000E+03  0.12500000000E+03 0.  0.
        -11    1    3    3    0    0  0.18895810105E+02  0.35650621721E+02 -0.41655852008E+02  0.57993348544E+02  0.51100000000E-03 0. -1.
         23    2    1    0    0    0 -0.59117727630E+01  0.12347723181E+02 -0.26336471340E+02  0.95317933906E+02  0.90578603856E+02 0.  0.
         11    1    3    3    0    0 -0.24807582868E+02 -0.23302898541E+02  0.15319380668E+02  0.37324585362E+02  0.51100000000E-03 0.  1.
         22    1    1    0    0    0  0.59117727630E+01 -0.12347723181E+02  0.26336471340E+02  0.29682066094E+02  0.00000000000E+00 0. -1.
</event>
<event>
 5    1  0.1626333E-003  0.9118800E+02  0.7818608E-02  0.1130116E+00
         25   -1    0    0    0    0  0.00000000000E+00  0.00000000000E+00  0.99999998245E-14  0.12500000000E+03  0.12500000000E+03 0.  0.
        -11    1    3    3    0    0  0.42044771879E+02 -0.42129751923E+02  0.16606238374E+02  0.61793575659E+02  0.51100000000E-03 0.  1.
         23    2    1    0    0    0  0.20269848777E+02 -0.17524415386E+02  0.14037512685E+02  0.94750641884E+02  0.89792318552E+02 0.  0.
         11    1    3    3    0    0 -0.21774923103E+02  0.24605336537E+02 -0.25687256894E+01  0.32957066225E+02  0.51100000000E-03 0. -1.
         22    1    1    0    0    0 -0.20269848777E+02  0.17524415386E+02 -0.14037512685E+02  0.30249358116E+02  0.00000000000E+00 0.  1.
</event>
<event>
 5    1  0.1626333E-003  0.9118800E+02  0.7818608E-02  0.1130116E+00
         25   -1    0    0    0    0  0.00000000000E+00  0.00000000000E+00  0.99999998245E-14  0.12500000000E+03  0.12500000000E+03 0.  0.
        -11    1    3    3    0    0 -0.19024531376E+02  0.13325703408E+02 -0.52878452697E+02  0.57754981822E+02  0.51100000000E-03 0.  1.
         23    2    1    0    0    0 -0.68874640975E+00  0.19134470380E+02 -0.13522646974E+02  0.10155934494E+03  0.98817185933E+02 0.  0.
         11    1    3    3    0    0  0.18335784966E+02  0.58087669719E+01  0.39355805723E+02  0.43804363121E+02  0.51100000000E-03 0. -1.
         22    1    1    0    0    0  0.68874640975E+00 -0.19134470380E+02  0.13522646974E+02  0.23440655057E+02  0.00000000000E+00 0.  1.
</event>
<event>
 5    1  0.1626333E-003  0.9118800E+02  0.7818608E-02  0.1130116E+00
         25   -1    0    0    0    0  0.00000000000E+00  0.00000000000E+00  0.99999998245E-14  0.12500000000E+03  0.12500000000E+03 0.  0.
        -11    1    3    3    0    0 -0.29761394644E+02 -0.82215015673E+01 -0.20444989162E+02  0.37031490401E+02  0.51100000000E-03 0.  1.
         23    2    1    0    0    0  0.13410205844E+02 -0.15132574095E+02  0.19977561946E+02  0.96575865874E+02  0.92298247375E+02 0.  0.
         11    1    3    3    0    0  0.43171600488E+02 -0.69110725278E+01  0.40422551108E+02  0.59544375473E+02  0.51100000000E-03 0. -1.
         22    1    1    0    0    0 -0.13410205844E+02  0.15132574095E+02 -0.19977561946E+02  0.28424134126E+02  0.00000000000E+00 0. -1.
</event>
<event>
 5    1  0.1626333E-003  0.9118800E+02  0.7818608E-02  0.1130116E+00
         25   -1    0    0    0    0  0.00000000000E+00  0.00000000000E+00  0.99999998245E-14  0.12500000000E+03  0.12500000000E+03 0.  0.
        -11    1    3    3    0    0 -0.39676573269E+02 -0.30295334947E+01 -0.33434627013E+02  0.51973866734E+02  0.51100000000E-03 0.  1.
         23    2    1    0    0    0  0.13538238292E+01 -0.19810281949E+02 -0.15567863012E+02  0.99768304285E+02  0.96525002312E+02 0.  0.
         11    1    3    3    0    0  0.41030397098E+02 -0.16780748454E+02  0.17866764001E+02  0.47794437551E+02  0.51100000000E-03 0. -1.
         22    1    1    0    0    0 -0.13538238292E+01  0.19810281949E+02  0.15567863012E+02  0.25231695715E+02  0.00000000000E+00 0. -1.
</event>
<event>
 5    1  0.1626333E-003  0.9118800E+02  0.7818608E-02  0.1130116E+00
         25   -1    0    0    0    0  0.00000000000E+00  0.00000000000E+00  0.99999998245E-14  0.12500000000E+03  0.12500000000E+03 0.  0.
        -11    1    3    3    0    0 -0.48328330601E+02 -0.23130066722E+02  0.14986577768E+02  0.55634746685E+02  0.51100000000E-03 0.  1.
         23    2    1    0    0    0 -0.16471078361E+02 -0.12192357097E+01  0.24500101287E+02  0.95452784883E+02  0.90764509698E+02 0.  0.
         11    1    3    3    0    0  0.31857252240E+02  0.21910831012E+02  0.95135235191E+01  0.39818038198E+02  0.51100000000E-03 0. -1.
         22    1    1    0    0    0  0.16471078361E+02  0.12192357097E+01 -0.24500101287E+02  0.29547215117E+02  0.00000000000E+00 0.  1.
</event>
<event>
 5    1  0.1626333E-003  0.9118800E+02  0.7818608E-02  0.1130116E+00
         25   -1    0    0    0    0  0.00000000000E+00  0.00000000000E+00  0.99999998245E-14  0.12500000000E+03  0.12500000000E+03 0.  0.
        -11    1    3    3    0    0 -0.32099743921E+02 -0.13206854426E+02  0.15701098933E+02  0.38096444343E+02  0.51100000000E-03 0.  1.
         23    2    1    0    0    0  0.23782821419E+01  0.19651571684E+02 -0.19417103176E+02  0.97271595947E+02  0.93235717334E+02 0.  0.
         11    1    3    3    0    0  0.34478026063E+02  0.32858426110E+02 -0.35118202109E+02  0.59175151603E+02  0.51100000000E-03 0. -1.
         22    1    1    0    0    0 -0.23782821419E+01 -0.19651571684E+02  0.19417103176E+02  0.27728404053E+02  0.00000000000E+00 0. -1.
</event>
<event>
 5    1  0.1626333E-003  0.9118800E+02  0.7818608E-02  0.1130116E+00
         25   -1    0    0    0    0  0.00000000000E+00  0.00000000000E+00  0.99999998245E-14  0.12500000000E+03  0.12500000000E+03 0.  0.
        -11    1    3    3    0    0 -0.32414869248E+02  0.49191257157E+02  0.18088261124E+02  0.61625390221E+02  0.51100000000E-03 0. -1.
         23    2    1    0    0    0 -0.13707237402E+02  0.25983472038E+02  0.18641308392E+01  0.95563557278E+02  0.90916936373E+02 0.  0.
         11    1    3    3    0    0  0.18707631846E+02 -0.23207785119E+02 -0.16224130285E+02  0.33938167057E+02  0.51100000000E-03 0.  1.
         22    1    1    0    0    0  0.13707237402E+02 -0.25983472038E+02 -0.18641308392E+01  0.29436442722E+02  0.00000000000E+00 0. -1.
</event>
<event>
 5    1  0.1626333E-003  0.9118800E+02  0.7818608E-02  0.1130116E+00
         25   -1    0    0    0    0  0.00000000000E+00  0.00000000000E+00  0.99999998245E-14  0.12500000000E+03  0.12500000000E+03 0.  0.
        -11    1    3    3    0    0 -0.32516426648E+02  0.14363563480E+02 -0.57170304208E+01  0.36004366331E+02  0.51100000000E-03 0. -1.
         23    2    1    0    0    0  0.24791603373E+02  0.89296076473E+01  0.11731524016E+02  0.96155760605E+02  0.91727532133E+02 0.  0.
         11    1    3    3    0    0  0.57308030021E+02 -0.54339558330E+01  0.17448554437E+02  0.60151394274E+02  0.51100000000E-03 0.  1.
         22    1    1    0    0    0 -0.24791603373E+02 -0.89296076473E+01 -0.11731524016E+02  0.28844239395E+02  0.00000000000E+00 0.  1.
</event>
<event>
 5    1  0.1626333E-003  0.9118800E+02  0.7818608E-02  0.1130116E+00
         25   -1    0    0    0    0  0.00000000000E+00  0.00000000000E+00  0.99999998245E-14  0.12500000000E+03  0.12500000000E+03 0.  0.
        -11    1    3    3    0    0  0.44709793114E+02 -0.21485228770E+01 -0.25554068848E+01  0.44834270992E+02  0.51100000000E-03 0.  1.
         23    2    1    0    0    0  0.10191024040E+02  0.29916731114E+02 -0.83697321391E+01  0.92305655113E+02  0.86321571917E+02 0.  0.
         11    1    3    3    0    0 -0.34518769074E+02  0.32065253991E+02 -0.58143252543E+01  0.47471384120E+02  0.51100000000E-03 0. -1.
         22    1    1    0    0    0 -0.10191024040E+02 -0.29916731114E+02  0.83697321391E+01  0.32694344887E+02  0.00000000000E+00 0. -1.
</event>
<event>
 5    1  0.1626333E-003  0.9118800E+02  0.7818608E-02  0.1130116E+00
         25   -1    0    0    0    0  0.00000000000E+00  0.00000000000E+00  0.99999998245E-14  0.12500000000E+03  0.12500000000E+03 0.  0.
        -11    1    3    3    0    0  0.41716743492E+02  0.35195947947E+02 -0.15712469544E+02  0.56797210661E+02  0.51100000000E-03 0. -1.
         23    2    1    0    0    0  0.10580746754E+02  0.33372510872E+02 -0.58778768796E+01  0.89500336335E+02  0.82158895341E+02 0.  0.
         11    1    3    3    0    0 -0.31135996739E+02 -0.18234370754E+01  0.98345926645E+01  0.32703125673E+02  0.51100000000E-03 0.  1.
         22    1    1    0    0    0 -0.10580746754E+02 -0.33372510872E+02  0.58778768796E+01  0.35499663665E+02  0.00000000000E+00 0. -1.
</event>
<event>
 5    1  0.1626333E-003  0.9118800E+02  0.7818608E-02  0.1130116E+00
         25   -1    0    0    0    0  0.00000000000E+00  0.00000000000E+00  0.99999998245E-14  0.12500000000E+03  0.12500000000E+03 0.  0.
        -11    1    3    3    0    0  0.20739492197E+02 -0.66624265622E+01 -0.57383122263E+02  0.61378637857E+02  0.51100000000E-03 0.  1.
         23    2    1    0    0    0  0.18932816706E+01 -0.12470943652E+01 -0.29199530627E+02  0.95712590611E+02  0.91121609143E+02 0.  0.
         11    1    3    3    0    0 -0.18846210526E+02  0.54153321970E+01  0.28183591635E+02  0.34333952754E+02  0.51100000000E-03 0. -1.
         22    1    1    0    0    0 -0.18932816706E+01  0.12470943652E+01  0.29199530627E+02  0.29287409389E+02  0.00000000000E+00 0.  1.
</event>
<event>
 5    1  0.1626333E-003  0.9118800E+02  0.7818608E-02  0.1130116E+00
         25   -1    0    0    0    0  0.00000000000E+00  0.00000000000E+00  0.99999998245E-14  0.12500000000E+03  0.12500000000E+03 0.  0.
        -11    1    3    3    0    0  0.96741466427E+01 -0.23496078239E+01 -0.38113755922E+02  0.39392488636E+02  0.51100000000E-03 0.  1.
         23    2    1    0    0    0 -0.10082262113E+02 -0.25699693126E+02  0.93457058296E+01  0.95854357898E+02  0.91315877450E+02 0.  0.
         11    1    3    3    0    0 -0.19756408756E+02 -0.23350085302E+02  0.47459461752E+02  0.56461869262E+02  0.51100000000E-03 0. -1.
         22    1    1    0    0    0  0.10082262113E+02  0.25699693126E+02 -0.93457058296E+01  0.29145642102E+02  0.00000000000E+00 0. -1.
</event>
<event>
 5    1  0.1626333E-003  0.9118800E+02  0.7818608E-02  0.1130116E+00
         25   -1    0    0    0    0  0.00000000000E+00  0.00000000000E+00  0.99999998245E-14  0.12500000000E+03  0.12500000000E+03 0.  0.
        -11    1    3    3    0    0 -0.27728398600E+02 -0.87771872604E+01 -0.28754708628E+02  0.40899099913E+02  0.51100000000E-03 0.  1.
         23    2    1    0    0    0 -0.10773961228E+02  0.24392245662E+02  0.11689589328E+02  0.95884602224E+02  0.91357268764E+02 0.  0.
         11    1    3    3    0    0  0.16954437372E+02  0.33169432923E+02  0.40444297956E+02  0.54985502311E+02  0.51100000000E-03 0. -1.
         22    1    1    0    0    0  0.10773961228E+02 -0.24392245662E+02 -0.11689589328E+02  0.29115397776E+02  0.00000000000E+00 0. -1.
</event>
<event>
 5    1  0.1626333E-003  0.9118800E+02  0.7818608E-02  0.1130116E+00
         25   -1    0    0    0    0  0.00000000000E+00  0.00000000000E+00  0.99999998245E-14  0.12500000000E+03  0.12500000000E+03 0.  0.
        -11    1    3    3    0    0 -0.39132347474E+02 -0.47098743947E+01  0.77508504470E+01  0.40169630551E+02  0.51100000000E-03 0. -1.
         23    2    1    0    0    0  0.16044350242E+02  0.18532816447E+02  0.47475059809E+00  0.10048241757E+03  0.97445391846E+02 0.  0.
         11    1    3    3    0    0  0.55176697717E+02  0.23242690842E+02 -0.72760998490E+01  0.60312787017E+02  0.51100000000E-03 0.  1.
         22    1    1    0    0    0 -0.16044350242E+02 -0.18532816447E+02 -0.47475059809E+00  0.24517582432E+02  0.00000000000E+00 0.  1.
</event>
<event>
 5    1  0.1626333E-003  0.9118800E+02  0.7818608E-02  0.1130116E+00
         25   -1    0    0    0    0  0.00000000000E+00  0.00000000000E+00  0.99999998245E-14  0.12500000000E+03  0.12500000000E+03 0.  0.
        -11    1    3    3    0    0 -0.21594420128E+02  0.13391131103E+02  0.45053146991E+02  0.51724534091E+02  0.51100000000E-03 0.  1.
         23    2    1    0    0    0 -0.18157596872E+02  0.22714938086E+02  0.20648080295E+01  0.95846438148E+02  0.91305035661E+02 0.  0.
         11    1    3    3    0    0  0.34368232553E+01  0.93238069836E+01 -0.42988338961E+02  0.44121904058E+02  0.51100000000E-03 0. -1.
         22    1    1    0    0    0  0.18157596872E+02 -0.22714938086E+02 -0.20648080295E+01  0.29153561852E+02  0.00000000000E+00 0.  1.
</event>
<event>
 5    1  0.1626333E-003  0.9118800E+02  0.7818608E-02  0.1130116E+00
         25   -1    0    0    0    0  0.00000000000E+00  0.00000000000E+00  0.99999998245E-14  0.12500000000E+03  0.12500000000E+03 0.  0.
        -11    1    3    3    0    0  0.30148258738E+02  0.35698042600E+02  0.35107539704E+02  0.58444906491E+02  0.51100000000E-03 0.  1.
         23    2    1    0    0    0  0.97653742559E+01  0.28349679377E+02  0.65212789951E+01  0.94314597365E+02  0.89183234642E+02 0.  0.
         11    1    3    3    0    0 -0.20382884482E+02 -0.73483632226E+01 -0.28586260708E+02  0.35869690874E+02  0.51100000000E-03 0. -1.
         22    1    1    0    0    0 -0.97653742559E+01 -0.28349679377E+02 -0.65212789951E+01  0.30685402635E+02  0.00000000000E+00 0.  1.
</event>
<event>
 5    1  0.1626333E-003  0.9118800E+02  0.7818608E-02  0.1130116E+00
         25   -1    0    0    0    0  0.00000000000E+00  0.00000000000E+00  0.99999998245E-14  0.12500000000E+03  0.12500000000E+03 0.  0.
        -11    1    3    3    0    0 -0.42487309220E+02  0.12035793234E+02 -0.10503270048E+02  0.45391083326E+02  0.51100000000E-03 0.  1.
         23    2    1    0    0    0 -0.13971004954E+02 -0.26454755967E+02  0.23560025936E+01  0.94990104283E+02  0.90125057952E+02 0.  0.
         11    1    3    3    0    0  0.28516304266E+02 -0.38490549201E+02  0.12859272642E+02  0.49599020957E+02  0.51100000000E-03 0. -1.
         22    1    1    0    0    0  0.13971004954E+02  0.26454755967E+02 -0.23560025936E+01  0.30009895717E+02  0.00000000000E+00 0.  1.
</event>
<event>
 5    1  0.1626333E-003  0.9118800E+02  0.7818608E-02  0.1130116E+00
         25   -1    0    0    0    0  0.00000000000E+00  0.00000000000E+00  0.99999998245E-14  0.12500000000E+03  0.12500000000E+03 0.  0.
        -11    1    3    3    0    0 -0.25514989911E+02  0.22735215876E+02 -0.33580688943E+01  0.34339210505E+02  0.51100000000E-03 0. -1.
         23    2    1    0    0    0  0.10898994301E+02 -0.26872791899E+02  0.48388600278E+00  0.95997083476E+02  0.91511042334E+02 0.  0.
         11    1    3    3    0    0  0.36413984212E+02 -0.49608007776E+02  0.38419548971E+01  0.61657872971E+02  0.51100000000E-03 0.  1.
         22    1    1    0    0    0 -0.10898994301E+02  0.26872791899E+02 -0.48388600278E+00  0.29002916524E+02  0.00000000000E+00 0.  1.
</event>
<event>
 5    1  0.1626333E-003  0.9118800E+02  0.7818608E-02  0.1130116E+00
         25   -1    0    0    0    0  0.00000000000E+00  0.00000000000E+00  0.99999998245E-14  0.12500000000E+03  0.12500000000E+03 0.  0.
        -11    1    3    3    0    0  0.24658031036E+02 -0.25482920114E+02 -0.33501590685E+02  0.48782725331E+02  0.51100000000E-03 0.  1.
         23    2    1    0    0    0 -0.17495042273E+02 -0.18957784107E+02 -0.13180126921E+02  0.96031226673E+02  0.91557668539E+02 0.  0.
         11    1    3    3    0    0 -0.42153073309E+02  0.65251360069E+01  0.20321463764E+02  0.47248501342E+02  0.51100000000E-03 0. -1.
         22    1    1    0    0    0  0.17495042273E+02  0.18957784107E+02  0.13180126921E+02  0.28968773327E+02  0.00000000000E+00 0. -1.
</event>
<event>
 5    1  0.1626333E-003  0.9118800E+02  0.7818608E-02  0.1130116E+00
         25   -1    0    0    0    0  0.00000000000E+00  0.00000000000E+00  0.99999998245E-14  0.12500000000E+03  0.12500000000E+03 0.  0.
        -11    1    3    3    0    0  0.13711951042E+02 -0.21638738207E+02 -0.48200630480E+02  0.54585285302E+02  0.51100000000E-03 0.  1.
         23    2    1    0    0    0  0.70890006405E+01  0.12497892023E+02 -0.24264699275E+02  0.96800232873E+02  0.92601610236E+02 0.  0.
         11    1    3    3    0    0 -0.66229504013E+01  0.34136630230E+02  0.23935931205E+02  0.42214947571E+02  0.51100000000E-03 0. -1.
         22    1    1    0    0    0 -0.70890006405E+01 -0.12497892023E+02  0.24264699275E+02  0.28199767127E+02  0.00000000000E+00 0.  1.
</event>
<event>
 5    1  0.1626333E-003  0.9118800E+02  0.7818608E-02  0.1130116E+00
         25   -1    0    0    0    0  0.00000000000E+00  0.00000000000E+00  0.99999998245E-14  0.12500000000E+03  0.12500000000E+03 0.  0.
        -11    1    3    3    0    0  0.24672156869E+02  0.13691724362E+02 -0.40957182450E+02  0.49735997377E+02  0.51100000000E-03 0. -1.
         23    2    1    0    0    0  0.17464318119E+02  0.23560682225E+02  0.31488920423E+01  0.95503836261E+02  0.90834789949E+02 0.  0.
         11    1    3    3    0    0 -0.72078387508E+01  0.98689578632E+01  0.44106074492E+02  0.45767838884E+02  0.51100000000E-03 0.  1.
         22    1    1    0    0    0 -0.17464318119E+02 -0.23560682225E+02 -0.31488920423E+01  0.29496163739E+02  0.00000000000E+00 0.  1.
</event>
<event>
 5    1  0.1626333E-003  0.9118800E+02  0.7818608E-02  0.1130116E+00
         25   -1    0    0    0    0  0.00000000000E+00  0.00000000000E+00  0.99999998245E-14  0.12500000000E+03  0.12500000000E+03 0.  0.
        -11    1    3    3    0    0  0.20382893871E+02 -0.43379948365E+02  0.22801829386E+02  0.53077355871E+02  0.51100000000E-03 0. -1.
         23    2    1    0    0    0 -0.34774435207E+01 -0.27088036705E+02 -0.91904420801E+01  0.96184751057E+02  0.91767029833E+02 0.  0.
         11    1    3    3    0    0 -0.23860337392E+02  0.16291911659E+02 -0.31992271466E+02  0.43107395186E+02  0.51100000000E-03 0.  1.
         22    1    1    0    0    0  0.34774435207E+01  0.27088036705E+02  0.91904420801E+01  0.28815248943E+02  0.00000000000E+00 0. -1.
</event>
<event>
 5    1  0.1626333E-003  0.9118800E+02  0.7818608E-02  0.1130116E+00
         25   -1    0    0    0    0  0.00000000000E+00  0.00000000000E+00  0.99999998245E-14  0.12500000000E+03  0.12500000000E+03 0.  0.
        -11    1    3    3    0    0  0.50987982508E+02  0.35842676134E+01  0.81422015161E+01  0.51758253258E+02  0.51100000000E-03 0.  1.
         23    2    1    0    0    0  0.50510983007E+01 -0.19278377410E+02 -0.44227121530E+01  0.10458603879E+03  0.10257441054E+03 0.  0.
         11    1    3    3    0    0 -0.45936884207E+02 -0.22862645024E+02 -0.12564913669E+02  0.52827785529E+02  0.51100000000E-03 0. -1.
         22    1    1    0    0    0 -0.50510983007E+01  0.19278377410E+02  0.44227121530E+01  0.20413961213E+02  0.00000000000E+00 0. -1.
</event>
<event>
 5    1  0.1626333E-003  0.9118800E+02  0.7818608E-02  0.1130116E+00
         25   -1    0    0    0    0  0.00000000000E+00  0.00000000000E+00  0.99999998245E-14  0.12500000000E+03  0.12500000000E+03 0.  0.
        -11    1    3    3    0    0  0.24272863420E+02 -0.11607463738E+02  0.16134725204E+02  0.31372511387E+02  0.51100000000E-03 0.  1.
         23    2    1    0    0    0 -0.23963469432E+02  0.16989378231E+02 -0.10954565021E+02  0.93648934074E+02  0.88245303096E+02 0.  0.
         11    1    3    3    0    0 -0.48236332852E+02  0.28596841970E+02 -0.27089290225E+02  0.62276422688E+02  0.51100000000E-03 0. -1.
         22    1    1    0    0    0  0.23963469432E+02 -0.16989378231E+02  0.10954565021E+02  0.31351065926E+02  0.00000000000E+00 0. -1.
</event>
<event>
 5    1  0.1626333E-003  0.9118800E+02  0.7818608E-02  0.1130116E+00
         25   -1    0    0    0    0  0.00000000000E+00  0.00000000000E+00  0.99999998245E-14  0.12500000000E+03  0.12500000000E+03 0.  0.
        -11    1    3    3    0    0  0.50748577152E+02  0.30357175509E+01  0.17290716914E+02  0.53699185801E+02  0.51100000000E-03 0.  1.
         23    2    1    0    0    0  0.22611769673E+02 -0.11271231565E+02 -0.12241282498E+02  0.96925424564E+02  0.92770448641E+02 0.  0.
         11    1    3    3    0    0 -0.28136807479E+02 -0.14306949115E+02 -0.29531999412E+02  0.43226238763E+02  0.51100000000E-03 0. -1.
         22    1    1    0    0    0 -0.22611769673E+02  0.11271231565E+02  0.12241282498E+02  0.28074575436E+02  0.00000000000E+00 0.  1.
</event>
<event>
 5    1  0.1626333E-003  0.9118800E+02  0.7818608E-02  0.1130116E+00
         25   -1    0    0    0    0  0.00000000000E+00  0.00000000000E+00  0.99999998245E-14  0.12500000000E+03  0.12500000000E+03 0.  0.
        -11    1    3    3    0    0 -0.46350225392E+02  0.32640189799E+02 -0.21152308266E+02  0.60507400616E+02  0.51100000000E-03 0. -1.
         23    2    1    0    0    0 -0.23438222417E+02  0.58107184418E+01 -0.15673157214E+02  0.96211763237E+02  0.91803816965E+02 0.  0.
         11    1    3    3    0    0  0.22912002976E+02 -0.26829471358E+02  0.54791510520E+01  0.35704362621E+02  0.51100000000E-03 0.  1.
         22    1    1    0    0    0  0.23438222417E+02 -0.58107184418E+01  0.15673157214E+02  0.28788236763E+02  0.00000000000E+00 0. -1.
</event>
<event>
 5    1  0.1626333E-003  0.9118800E+02  0.7818608E-02  0.1130116E+00
         25   -1    0    0    0    0  0.00000000000E+00  0.00000000000E+00  0.99999998245E-14  0.12500000000E+03  0.12500000000E+03 0.  0.
        -11    1    3    3    0    0 -0.27708146801E+02  0.30444190970E+02  0.25177380991E+02  0.48254436861E+02  0.51100000000E-03 0. -1.
         23    2    1    0    0    0 -0.22158135226E+02 -0.10109247499E+02 -0.62456234892E+01  0.99856657851E+02  0.96639352557E+02 0.  0.
         11    1    3    3    0    0  0.55500115753E+01 -0.40553438469E+02 -0.31423004481E+02  0.51602220989E+02  0.51100000000E-03 0.  1.
         22    1    1    0    0    0  0.22158135226E+02  0.10109247499E+02  0.62456234892E+01  0.25143342149E+02  0.00000000000E+00 0.  1.
</event>
<event>
 5    1  0.1626333E-003  0.9118800E+02  0.7818608E-02  0.1130116E+00
         25   -1    0    0    0    0  0.00000000000E+00  0.00000000000E+00  0.99999998245E-14  0.12500000000E+03  0.12500000000E+03 0.  0.
        -11    1    3    3    0    0 -0.34832663642E+02 -0.88707137892E+01 -0.12027551155E+02  0.37903377245E+02  0.51100000000E-03 0.  1.
         23    2    1    0    0    0 -0.18929891574E+02  0.22962499531E+02  0.22658721505E+02  0.87596325849E+02  0.79209099618E+02 0.  0.
         11    1    3    3    0    0  0.15902772067E+02  0.31833213320E+02  0.34686272660E+02  0.49692948605E+02  0.51100000000E-03 0. -1.
         22    1    1    0    0    0  0.18929891574E+02 -0.22962499531E+02 -0.22658721505E+02  0.37403674151E+02  0.00000000000E+00 0. -1.
</event>
<event>
 5    1  0.1626333E-003  0.9118800E+02  0.7818608E-02  0.1130116E+00
         25   -1    0    0    0    0  0.00000000000E+00  0.00000000000E+00  0.99999998245E-14  0.12500000000E+03  0.12500000000E+03 0.  0.
        -11    1    3    3    0    0 -0.52061190818E+02  0.27933884318E+02 -0.34061593241E+01  0.59179991585E+02  0.51100000000E-03 0.  1.
         23    2    1    0    0    0 -0.25509615770E+02  0.44665728137E+01  0.10238263085E+02  0.97151969541E+02  0.93075197476E+02 0.  0.
         11    1    3    3    0    0  0.26551575047E+02 -0.23467311504E+02  0.13644422409E+02  0.37971977956E+02  0.51100000000E-03 0. -1.
         22    1    1    0    0    0  0.25509615770E+02 -0.44665728137E+01 -0.10238263085E+02  0.27848030459E+02  0.00000000000E+00 0.  1.
</event>
<event>
 5    1  0.1626333E-003  0.9118800E+02  0.7818608E-02  0.1130116E+00
         25   -1    0    0    0    0  0.00000000000E+00  0.00000000000E+00  0.99999998245E-14  0.12500000000E+03  0.12500000000E+03 0.  0.
        -11    1    3    3    0    0 -0.63897250147E+01 -0.90447516784E+01  0.56995206857E+02  0.58061086139E+02  0.51100000000E-03 0.  1.
         23    2    1    0    0    0  0.13426534735E+02 -0.71049514070E+01  0.25137372573E+02  0.95629271895E+02  0.91007241327E+02 0.  0.
         11    1    3    3    0    0  0.19816259750E+02  0.19398002714E+01 -0.31857834283E+02  0.37568185757E+02  0.51100000000E-03 0. -1.
         22    1    1    0    0    0 -0.13426534735E+02  0.71049514070E+01 -0.25137372573E+02  0.29370728105E+02  0.00000000000E+00 0.  1.
</event>
<event>
 5    1  0.1626333E-003  0.9118800E+02  0.7818608E-02  0.1130116E+00
         25   -1    0    0    0    0  0.00000000000E+00  0.00000000000E+00  0.99999998245E-14  0.12500000000E+03  0.12500000000E+03 0.  0.
        -11    1    3    3    0    0  0.22304994795E+02  0.37215374078E+02  0.38204928451E+02  0.57811014684E+02  0.51100000000E-03 0. -1.
         23    2    1    0    0    0  0.14704607513E+02  0.25705066153E+02  0.34709390918E+01  0.95183505803E+02  0.90392900444E+02 0.  0.
         11    1    3    3    0    0 -0.76003872821E+01 -0.11510307925E+02 -0.34733989359E+02  0.37372491119E+02  0.51100000000E-03 0.  1.
         22    1    1    0    0    0 -0.14704607513E+02 -0.25705066153E+02 -0.34709390918E+01  0.29816494197E+02  0.00000000000E+00 0. -1.
</event>
<event>
 5    1  0.1626333E-003  0.9118800E+02  0.7818608E-02  0.1130116E+00
         25   -1    0    0    0    0  0.00000000000E+00  0.00000000000E+00  0.99999998245E-14  0.12500000000E+03  0.12500000000E+03 0.  0.
        -11    1    3    3    0    0 -0.15060135298E+02  0.26983228417E+02  0.28055691403E+02  0.41737562355E+02  0.51100000000E-03 0.  1.
         23    2    1    0    0    0 -0.22405549201E+02 -0.17236794886E+02  0.25971684046E+02  0.86611927568E+02  0.77640079160E+02 0.  0.
         11    1    3    3    0    0 -0.73454139027E+01 -0.44220023303E+02 -0.20840073574E+01  0.44874365212E+02  0.51100000000E-03 0. -1.
         22    1    1    0    0    0  0.22405549201E+02  0.17236794886E+02 -0.25971684046E+02  0.38388072432E+02  0.00000000000E+00 0. -1.
</event>
<event>
 5    1  0.1626333E-003  0.9118800E+02  0.7818608E-02  0.1130116E+00
         25   -1    0    0    0    0  0.00000000000E+00  0.00000000000E+00  0.99999998245E-14  0.12500000000E+03  0.12500000000E+03 0.  0.
        -11    1    3    3    0    0  0.10404754574E+02  0.16500703817E+02 -0.34357833495E+02  0.39509402259E+02  0.51100000000E-03 0.  1.
         23    2    1    0    0    0 -0.30936633691E+02  0.16715223652E+02 -0.68255646124E+01  0.89180140451E+02  0.81670282923E+02 0.  0.
         11    1    3    3    0    0 -0.41341388265E+02  0.21451983457E+00  0.27532268882E+02  0.49670738191E+02  0.51100000000E-03 0. -1.
         22    1    1    0    0    0  0.30936633691E+02 -0.16715223652E+02  0.68255646124E+01  0.35819859549E+02  0.00000000000E+00 0. -1.
</event>
<event>
 4    1  0.1626333E-003  0.9118800E+02  0.7818608E-02  0.1130116E+00
         25   -1    0    0    0    0  0.00000000000E+00  0.00000000000E+00  0.99999998245E-14  0.12500000000E+03  0.12500000000E+03 0.  0.
        -11    1    1    0    0    0 -0.23313827085E+02 -0.23299553823E+02  0.42146965069E+02  0.53504863391E+02  0.51100000000E-03 0. -1.
         11    1    1    0    0    0 -0.42291118266E+01  0.18935593613E+02  0.17590763159E+01  0.19481695051E+02  0.51100000000E-03 0.  1.
         22    1    1    0    0    0  0.27542938912E+02  0.43639602102E+01 -0.43906041385E+02  0.52013441558E+02  0.00000000000E+00 0. -1.
</event>
<event>
 5    1  0.1626333E-003  0.9118800E+02  0.7818608E-02  0.1130116E+00
         25   -1    0    0    0    0  0.00000000000E+00  0.00000000000E+00  0.99999998245E-14  0.12500000000E+03  0.12500000000E+03 0.  0.
        -11    1    3    3    0    0  0.17213299087E+02  0.13211848721E+02  0.29298023282E+02  0.36458535085E+02  0.51100000000E-03 0.  1.
         23    2    1    0    0    0 -0.22163298999E+02 -0.15090004944E+02 -0.72997680753E+01  0.97211392880E+02  0.93154968842E+02 0.  0.
         11    1    3    3    0    0 -0.39376598086E+02 -0.28301853665E+02 -0.36597791357E+02  0.60752857794E+02  0.51100000000E-03 0. -1.
         22    1    1    0    0    0  0.22163298999E+02  0.15090004944E+02  0.72997680753E+01  0.27788607120E+02  0.00000000000E+00 0. -1.
</event>
<event>
 5    1  0.1626333E-003  0.9118800E+02  0.7818608E-02  0.1130116E+00
         25   -1    0    0    0    0  0.00000000000E+00  0.00000000000E+00  0.99999998245E-14  0.12500000000E+03  0.12500000000E+03 0.  0.
        -11    1    3    3    0    0  0.93820659418E+01 -0.27267721534E+02  0.11412555533E+02  0.31012871893E+02  0.51100000000E-03 0. -1.
         23    2    1    0    0    0 -0.22792649581E+02  0.15864346775E+02  0.26202929049E+02  0.86819168890E+02  0.77973022402E+02 0.  0.
         11    1    3    3    0    0 -0.32174715522E+02  0.43132068309E+02  0.14790373516E+02  0.55806296997E+02  0.51100000000E-03 0.  1.
         22    1    1    0    0    0  0.22792649581E+02 -0.15864346775E+02 -0.26202929049E+02  0.38180831110E+02  0.00000000000E+00 0.  1.
</event>
<event>
 5    1  0.1626333E-003  0.9118800E+02  0.7818608E-02  0.1130116E+00
         25   -1    0    0    0    0  0.00000000000E+00  0.00000000000E+00  0.99999998245E-14  0.12500000000E+03  0.12500000000E+03 0.  0.
        -11    1    3    3    0    0 -0.34431846496E+02 -0.42429784507E+02 -0.12756994402E+02  0.56112205204E+02  0.51100000000E-03 0.  1.
         23    2    1    0    0    0 -0.28496909492E+02 -0.39737721372E+01 -0.60741515795E+01  0.95593197505E+02  0.90957679039E+02 0.  0.
         11    1    3    3    0    0  0.59349370040E+01  0.38456012370E+02  0.66828428226E+01  0.39480992301E+02  0.51100000000E-03 0. -1.
         22    1    1    0    0    0  0.28496909492E+02  0.39737721372E+01  0.60741515795E+01  0.29406802495E+02  0.00000000000E+00 0.  1.
</event>
<event>
 5    1  0.1626333E-003  0.9118800E+02  0.7818608E-02  0.1130116E+00
         25   -1    0    0    0    0  0.00000000000E+00  0.00000000000E+00  0.99999998245E-14  0.12500000000E+03  0.12500000000E+03 0.  0.
        -11    1    3    3    0    0 -0.23815882152E+02  0.46321780298E+01 -0.54231335763E+02  0.59411203446E+02  0.51100000000E-03 0. -1.
         23    2    1    0    0    0 -0.96414783229E+00  0.11210790264E+02 -0.28036133301E+02  0.94790131251E+02  0.89847274932E+02 0.  0.
         11    1    3    3    0    0  0.22851734319E+02  0.65786122339E+01  0.26195202462E+02  0.35378927805E+02  0.51100000000E-03 0.  1.
         22    1    1    0    0    0  0.96414783229E+00 -0.11210790264E+02  0.28036133301E+02  0.30209868749E+02  0.00000000000E+00 0. -1.
</event>
<event>
 5    1  0.1626333E-003  0.9118800E+02  0.7818608E-02  0.1130116E+00
         25   -1    0    0    0    0  0.00000000000E+00  0.00000000000E+00  0.99999998245E-14  0.12500000000E+03  0.12500000000E+03 0.  0.
        -11    1    3    3    0    0  0.26088901172E+02  0.42984671554E+02  0.10718950719E+02  0.51412145042E+02  0.51100000000E-03 0. -1.
         23    2    1    0    0    0  0.78716062798E+01  0.18695369810E+02 -0.21333562136E+02  0.95561930920E+02  0.90914700296E+02 0.  0.
         11    1    3    3    0    0 -0.18217294893E+02 -0.24289301744E+02 -0.32052512856E+02  0.44149785878E+02  0.51100000000E-03 0.  1.
         22    1    1    0    0    0 -0.78716062798E+01 -0.18695369810E+02  0.21333562136E+02  0.29438069080E+02  0.00000000000E+00 0. -1.
</event>
<event>
 5    1  0.1626333E-003  0.9118800E+02  0.7818608E-02  0.1130116E+00
         25   -1    0    0    0    0  0.00000000000E+00  0.00000000000E+00  0.99999998245E-14  0.12500000000E+03  0.12500000000E+03 0.  0.
        -11    1    3    3    0    0  0.33930788301E+02  0.16795125757E+02  0.49509615901E+02  0.62326372515E+02  0.51100000000E-03 0. -1.
         23    2    1    0    0    0  0.14115818036E+02  0.47365039419E+01  0.23535770820E+02  0.97149985700E+02  0.93072533139E+02 0.  0.
         11    1    3    3    0    0 -0.19814970265E+02 -0.12058621815E+02 -0.25973845081E+02  0.34823613185E+02  0.51100000000E-03 0.  1.
         22    1    1    0    0    0 -0.14115818036E+02 -0.47365039419E+01 -0.23535770820E+02  0.27850014300E+02  0.00000000000E+00 0. -1.
</event>
<event>
 5    1  0.1626333E-003  0.9118800E+02  0.7818608E-02  0.1130116E+00
         25   -1    0    0    0    0  0.00000000000E+00  0.00000000000E+00  0.99999998245E-14  0.12500000000E+03  0.12500000000E+03 0.  0.
        -11    1    3    3    0    0 -0.25782494999E+01  0.41114846696E+02 -0.46396416831E+02  0.62045994909E+02  0.51100000000E-03 0.  1.
         23    2    1    0    0    0  0.37406104844E+01  0.20436227636E+02 -0.20074966587E+02  0.96109935094E+02  0.91665062993E+02 0.  0.
         11    1    3    3    0    0  0.63188599842E+01 -0.20678619060E+02  0.26321450244E+02  0.34063940185E+02  0.51100000000E-03 0. -1.
         22    1    1    0    0    0 -0.37406104844E+01 -0.20436227636E+02  0.20074966587E+02  0.28890064906E+02  0.00000000000E+00 0.  1.
</event>
<event>
 5    1  0.1626333E-003  0.9118800E+02  0.7818608E-02  0.1130116E+00
         25   -1    0    0    0    0  0.00000000000E+00  0.00000000000E+00  0.99999998245E-14  0.12500000000E+03  0.12500000000E+03 0.  0.
        -11    1    3    3    0    0  0.20559033956E+02 -0.14841798701E+02 -0.54696542168E+02  0.60288179532E+02  0.51100000000E-03 0. -1.
         23    2    1    0    0    0  0.18723341818E+02 -0.18476601476E+02 -0.30948588117E+02  0.84382719966E+02  0.73964045262E+02 0.  0.
         11    1    3    3    0    0 -0.18356921381E+01 -0.36348027754E+01  0.23747954051E+02  0.24094540434E+02  0.51100000000E-03 0.  1.
         22    1    1    0    0    0 -0.18723341818E+02  0.18476601476E+02  0.30948588117E+02  0.40617280034E+02  0.00000000000E+00 0. -1.
</event>
<event>
 5    1  0.1626333E-003  0.9118800E+02  0.7818608E-02  0.1130116E+00
         25   -1    0    0    0    0  0.00000000000E+00  0.00000000000E+00  0.99999998245E-14  0.12500000000E+03  0.12500000000E+03 0.  0.
        -11    1    3    3    0    0 -0.25092092317E+02  0.31601840408E+02  0.37424276651E+02  0.55035133298E+02  0.51100000000E-03 0.  1.
         23    2    1    0    0    0 -0.10826976390E+02  0.27269770276E+02 -0.36325711763E+00  0.95657271013E+02  0.91045690471E+02 0.  0.
         11    1    3    3    0    0  0.14265115927E+02 -0.43320701314E+01 -0.37787533768E+02  0.40622137716E+02  0.51100000000E-03 0. -1.
         22    1    1    0    0    0  0.10826976390E+02 -0.27269770276E+02  0.36325711763E+00  0.29342728987E+02  0.00000000000E+00 0. -1.
</event>
<event>
 5    1  0.1626333E-003  0.9118800E+02  0.7818608E-02  0.1130116E+00
         25   -1    0    0    0    0  0.00000000000E+00  0.00000000000E+00  0.99999998245E-14  0.12500000000E+03  0.12500000000E+03 0.  0.
        -11    1    3    3    0    0 -0.24785786492E+02  0.32202090158E+02  0.47800524913E+00  0.40639122922E+02  0.51100000000E-03 0. -1.
         23    2    1    0    0    0  0.49348706256E+01 -0.70390138029E+01 -0.26756401017E+02  0.96896518743E+02  0.92731492416E+02 0.  0.
         11    1    3    3    0    0  0.29720657118E+02 -0.39241103961E+02 -0.27234406266E+02  0.56257395821E+02  0.51100000000E-03 0.  1.
         22    1    1    0    0    0 -0.49348706256E+01  0.70390138029E+01  0.26756401017E+02  0.28103481257E+02  0.00000000000E+00 0.  1.
</event>
<event>
 5    1  0.1626333E-003  0.9118800E+02  0.7818608E-02  0.1130116E+00
         25   -1    0    0    0    0  0.00000000000E+00  0.00000000000E+00  0.99999998245E-14  0.12500000000E+03  0.12500000000E+03 0.  0.
        -11    1    3    3    0    0 -0.90224554666E+00 -0.18671888234E+02  0.58151370762E+02  0.61082201819E+02  0.51100000000E-03 0.  1.
         23    2    1    0    0    0 -0.23764393012E+01 -0.77617252398E+00  0.32556616311E+02  0.92347539555E+02  0.86382202384E+02 0.  0.
         11    1    3    3    0    0 -0.14741937545E+01  0.17895715710E+02 -0.25594754452E+02  0.31265337736E+02  0.51100000000E-03 0. -1.
         22    1    1    0    0    0  0.23764393012E+01  0.77617252398E+00 -0.32556616311E+02  0.32652460445E+02  0.00000000000E+00 0.  1.
</event>
<event>
 5    1  0.1626333E-003  0.9118800E+02  0.7818608E-02  0.1130116E+00
         25   -1    0    0    0    0  0.00000000000E+00  0.00000000000E+00  0.99999998245E-14  0.12500000000E+03  0.12500000000E+03 0.  0.
        -11    1    3    3    0    0 -0.21987996615E+02 -0.48309058082E+02  0.25642558760E+02  0.58947246822E+02  0.51100000000E-03 0. -1.
         23    2    1    0    0    0 -0.67894795040E+01 -0.14962158391E+02  0.24360001128E+02  0.95616792711E+02  0.90990099339E+02 0.  0.
         11    1    3    3    0    0  0.15198517111E+02  0.33346899690E+02 -0.12825576320E+01  0.36669545889E+02  0.51100000000E-03 0.  1.
         22    1    1    0    0    0  0.67894795040E+01  0.14962158391E+02 -0.24360001128E+02  0.29383207289E+02  0.00000000000E+00 0. -1.
</event>
<event>
 5    1  0.1626333E-003  0.9118800E+02  0.7818608E-02  0.1130116E+00
         25   -1    0    0    0    0  0.00000000000E+00  0.00000000000E+00  0.99999998245E-14  0.12500000000E+03  0.12500000000E+03 0.  0.
        -11    1    3    3    0    0  0.36164332065E+02 -0.11856205143E+02  0.28482001708E+02  0.47535806879E+02  0.51100000000E-03 0.  1.
         23    2    1    0    0    0  0.23697562454E+02 -0.44026526510E+01 -0.17146405228E+02  0.95420327438E+02  0.90719798608E+02 0.  0.
         11    1    3    3    0    0 -0.12466769611E+02  0.74535524921E+01 -0.45628406936E+02  0.47884520558E+02  0.51100000000E-03 0. -1.
         22    1    1    0    0    0 -0.23697562454E+02  0.44026526510E+01  0.17146405228E+02  0.29579672562E+02  0.00000000000E+00 0.  1.
</event>
<event>
 5    1  0.1626333E-003  0.9118800E+02  0.7818608E-02  0.1130116E+00
         25   -1    0    0    0    0  0.00000000000E+00  0.00000000000E+00  0.99999998245E-14  0.12500000000E+03  0.12500000000E+03 0.  0.
        -11    1    3    3    0    0 -0.43246764783E+02 -0.14576972057E+02 -0.38331013653E+02  0.59598971354E+02  0.51100000000E-03 0.  1.
         23    2    1    0    0    0 -0.19741744174E+02  0.42123298465E+01 -0.25912843730E+02  0.92152539582E+02  0.86099563851E+02 0.  0.
         11    1    3    3    0    0  0.23505020609E+02  0.18789301904E+02  0.12418169923E+02  0.32553568228E+02  0.51100000000E-03 0. -1.
         22    1    1    0    0    0  0.19741744174E+02 -0.42123298465E+01  0.25912843730E+02  0.32847460418E+02  0.00000000000E+00 0.  1.
</event>
<event>
 5    1  0.1626333E-003  0.9118800E+02  0.7818608E-02  0.1130116E+00
         25   -1    0    0    0    0  0.00000000000E+00  0.00000000000E+00  0.99999998245E-14  0.12500000000E+03  0.12500000000E+03 0.  0.
        -11    1    3    3    0    0 -0.37319757070E+02  0.49427798492E+01  0.12225520308E+02  0.39581039495E+02  0.51100000000E-03 0.  1.
         23    2    1    0    0    0  0.12010108743E+02 -0.23774989127E+02 -0.16134528544E+01  0.98314872118E+02  0.94624087998E+02 0.  0.
         11    1    3    3    0    0  0.49329865813E+02 -0.28717768976E+02 -0.13838973163E+02  0.58733832623E+02  0.51100000000E-03 0. -1.
         22    1    1    0    0    0 -0.12010108743E+02  0.23774989127E+02  0.16134528544E+01  0.26685127882E+02  0.00000000000E+00 0. -1.
</event>
<event>
 5    1  0.1626333E-003  0.9118800E+02  0.7818608E-02  0.1130116E+00
         25   -1    0    0    0    0  0.00000000000E+00  0.00000000000E+00  0.99999998245E-14  0.12500000000E+03  0.12500000000E+03 0.  0.
        -11    1    3    3    0    0  0.26228714348E+02  0.86972003006E+01 -0.34092850025E+02  0.43885181696E+02  0.51100000000E-03 0.  1.
         23    2    1    0    0    0 -0.17694744410E+02  0.20342732679E+02 -0.57774686674E+01  0.97426282500E+02  0.93442873591E+02 0.  0.
         11    1    3    3    0    0 -0.43923458757E+02  0.11645532378E+02  0.28315381358E+02  0.53541100804E+02  0.51100000000E-03 0. -1.
         22    1    1    0    0    0  0.17694744410E+02 -0.20342732679E+02  0.57774686674E+01  0.27573717500E+02  0.00000000000E+00 0. -1.
</event>
<event>
 5    1  0.1626333E-003  0.9118800E+02  0.7818608E-02  0.1130116E+00
         25   -1    0    0    0    0  0.00000000000E+00  0.00000000000E+00  0.99999998245E-14  0.12500000000E+03  0.12500000000E+03 0.  0.
        -11    1    3    3    0    0 -0.19193626871E+02 -0.36887220011E+02  0.19084202503E+02  0.45752257846E+02  0.51100000000E-03 0. -1.
         23    2    1    0    0    0 -0.89624652631E+01  0.12623335430E+02  0.23885269765E+02  0.96536330301E+02  0.92244688602E+02 0.  0.
         11    1    3    3    0    0  0.10231161608E+02  0.49510555441E+02  0.48010672627E+01  0.50784072455E+02  0.51100000000E-03 0.  1.
         22    1    1    0    0    0  0.89624652631E+01 -0.12623335430E+02 -0.23885269765E+02  0.28463669699E+02  0.00000000000E+00 0. -1.
</event>
<event>
 5    1  0.1626333E-003  0.9118800E+02  0.7818608E-02  0.1130116E+00
         25   -1    0    0    0    0  0.00000000000E+00  0.00000000000E+00  0.99999998245E-14  0.12500000000E+03  0.12500000000E+03 0.  0.
        -11    1    3    3    0    0  0.72268904440E+01 -0.38794867030E+02 -0.32279527050E+02  0.50982717859E+02  0.51100000000E-03 0.  1.
         23    2    1    0    0    0  0.91767696504E+01  0.54426553703E+01 -0.27478653827E+02  0.95522686438E+02  0.90860726441E+02 0.  0.
         11    1    3    3    0    0  0.19498792064E+01  0.44237522401E+02  0.48008732230E+01  0.44539968579E+02  0.51100000000E-03 0. -1.
         22    1    1    0    0    0 -0.91767696504E+01 -0.54426553703E+01  0.27478653827E+02  0.29477313562E+02  0.00000000000E+00 0.  1.
</event>
<event>
 5    1  0.1626333E-003  0.9118800E+02  0.7818608E-02  0.1130116E+00
         25   -1    0    0    0    0  0.00000000000E+00  0.00000000000E+00  0.99999998245E-14  0.12500000000E+03  0.12500000000E+03 0.  0.
        -11    1    3    3    0    0  0.22747824831E+02 -0.21737837433E+02 -0.17991680313E+02  0.36244967534E+02  0.51100000000E-03 0.  1.
         23    2    1    0    0    0 -0.12626126004E+02 -0.26047839382E+00  0.25663299585E+02  0.96397694980E+02  0.92056633357E+02 0.  0.
         11    1    3    3    0    0 -0.35373950834E+02  0.21477359039E+02  0.43654979899E+02  0.60152727446E+02  0.51100000000E-03 0. -1.
         22    1    1    0    0    0  0.12626126004E+02  0.26047839382E+00 -0.25663299585E+02  0.28602305020E+02  0.00000000000E+00 0. -1.
</event>
<event>
 5    1  0.1626333E-003  0.9118800E+02  0.7818608E-02  0.1130116E+00
         25   -1    0    0    0    0  0.00000000000E+00  0.00000000000E+00  0.99999998245E-14  0.12500000000E+03  0.12500000000E+03 0.  0.
        -11    1    3    3    0    0  0.28271034272E+02 -0.22022486671E+02 -0.43011214561E+02  0.55983978746E+02  0.51100000000E-03 0.  1.
         23    2    1    0    0    0  0.26509066552E+02 -0.63781782886E+01 -0.47948695193E+01  0.97316023742E+02  0.93295262128E+02 0.  0.
         11    1    3    3    0    0 -0.17619677194E+01  0.15644308382E+02  0.38216345041E+02  0.41332044996E+02  0.51100000000E-03 0. -1.
         22    1    1    0    0    0 -0.26509066552E+02  0.63781782886E+01  0.47948695193E+01  0.27683976258E+02  0.00000000000E+00 0. -1.
</event>
<event>
 5    1  0.1626333E-003  0.9118800E+02  0.7818608E-02  0.1130116E+00
         25   -1    0    0    0    0  0.00000000000E+00  0.00000000000E+00  0.99999998245E-14  0.12500000000E+03  0.12500000000E+03 0.  0.
        -11    1    3    3    0    0  0.23714583642E+02 -0.18915703203E+01  0.55996848970E+02  0.60840830126E+02  0.51100000000E-03 0. -1.
         23    2    1    0    0    0  0.15136547686E+02 -0.98229261173E+01  0.23517172407E+02  0.95357760689E+02  0.90633548823E+02 0.  0.
         11    1    3    3    0    0 -0.85780359559E+01 -0.79313557970E+01 -0.32479676563E+02  0.34516930564E+02  0.51100000000E-03 0.  1.
         22    1    1    0    0    0 -0.15136547686E+02  0.98229261173E+01 -0.23517172407E+02  0.29642239311E+02  0.00000000000E+00 0. -1.
</event>
<event>
 5    1  0.1626333E-003  0.9118800E+02  0.7818608E-02  0.1130116E+00
         25   -1    0    0    0    0  0.00000000000E+00  0.00000000000E+00  0.99999998245E-14  0.12500000000E+03  0.12500000000E+03 0.  0.
        -11    1    3    3    0    0 -0.36137812712E+02  0.24271659453E+02 -0.19738917438E+02  0.47798324469E+02  0.51100000000E-03 0.  1.
         23    2    1    0    0    0  0.74841285125E+01  0.26735518241E+02  0.30391250792E+01  0.97070868319E+02  0.92966214722E+02 0.  0.
         11    1    3    3    0    0  0.43621941224E+02  0.24638587876E+01  0.22778042517E+02  0.49272543850E+02  0.51100000000E-03 0. -1.
         22    1    1    0    0    0 -0.74841285125E+01 -0.26735518241E+02 -0.30391250792E+01  0.27929131681E+02  0.00000000000E+00 0. -1.
</event>
<event>
 5    1  0.1626333E-003  0.9118800E+02  0.7818608E-02  0.1130116E+00
         25   -1    0    0    0    0  0.00000000000E+00  0.00000000000E+00  0.99999998245E-14  0.12500000000E+03  0.12500000000E+03 0.  0.
        -11    1    3    3    0    0  0.25640274416E+02 -0.54841668808E+02 -0.13233920912E+02  0.61969096917E+02  0.51100000000E-03 0.  1.
         23    2    1    0    0    0  0.14640411395E+02 -0.22897298028E+02 -0.10499134245E+02  0.95864802683E+02  0.91330173934E+02 0.  0.
         11    1    3    3    0    0 -0.10999863022E+02  0.31944370780E+02  0.27347866662E+01  0.33895705766E+02  0.51100000000E-03 0. -1.
         22    1    1    0    0    0 -0.14640411395E+02  0.22897298028E+02  0.10499134245E+02  0.29135197317E+02  0.00000000000E+00 0.  1.
</event>
<event>
 5    1  0.1626333E-003  0.9118800E+02  0.7818608E-02  0.1130116E+00
         25   -1    0    0    0    0  0.00000000000E+00  0.00000000000E+00  0.99999998245E-14  0.12500000000E+03  0.12500000000E+03 0.  0.
        -11    1    3    3    0    0 -0.39142667751E+01 -0.10685252544E+02  0.33856453422E+02  0.35717720321E+02  0.51100000000E-03 0. -1.
         23    2    1    0    0    0 -0.28882967404E+02 -0.75633360658E+01 -0.15678050016E+02  0.91277142606E+02  0.84819134938E+02 0.  0.
         11    1    3    3    0    0 -0.24968700629E+02  0.31219164785E+01 -0.49534503438E+02  0.55559422285E+02  0.51100000000E-03 0.  1.
         22    1    1    0    0    0  0.28882967404E+02  0.75633360658E+01  0.15678050016E+02  0.33722857394E+02  0.00000000000E+00 0.  1.
</event>
<event>
 5    1  0.1626333E-003  0.9118800E+02  0.7818608E-02  0.1130116E+00
         25   -1    0    0    0    0  0.00000000000E+00  0.00000000000E+00  0.99999998245E-14  0.12500000000E+03  0.12500000000E+03 0.  0.
        -11    1    3    3    0    0 -0.24576348148E+02  0.18651889225E+02 -0.52613268858E+02  0.60992179172E+02  0.51100000000E-03 0.  1.
         23    2    1    0    0    0 -0.26328055302E+01  0.11210924053E+02 -0.27628995688E+02  0.95067110300E+02  0.90231799134E+02 0.  0.
         11    1    3    3    0    0  0.21943542618E+02 -0.74409651722E+01  0.24984273170E+02  0.34074931128E+02  0.51100000000E-03 0. -1.
         22    1    1    0    0    0  0.26328055302E+01 -0.11210924053E+02  0.27628995688E+02  0.29932889700E+02  0.00000000000E+00 0.  1.
</event>
<event>
 5    1  0.1626333E-003  0.9118800E+02  0.7818608E-02  0.1130116E+00
         25   -1    0    0    0    0  0.00000000000E+00  0.00000000000E+00  0.99999998245E-14  0.12500000000E+03  0.12500000000E+03 0.  0.
        -11    1    3    3    0    0 -0.34194024512E+02  0.16662368602E+02 -0.29967822060E+01  0.38155557179E+02  0.51100000000E-03 0.  1.
         23    2    1    0    0    0  0.77188564173E+01 -0.95835810724E+01  0.26532030398E+02  0.95753215431E+02  0.91177320962E+02 0.  0.
         11    1    3    3    0    0  0.41912880929E+02 -0.26245949675E+02  0.29528812604E+02  0.57597658253E+02  0.51100000000E-03 0. -1.
         22    1    1    0    0    0 -0.77188564173E+01  0.95835810724E+01 -0.26532030398E+02  0.29246784569E+02  0.00000000000E+00 0. -1.
</event>
<event>
 5    1  0.1626333E-003  0.9118800E+02  0.7818608E-02  0.1130116E+00
         25   -1    0    0    0    0  0.00000000000E+00  0.00000000000E+00  0.99999998245E-14  0.12500000000E+03  0.12500000000E+03 0.  0.
        -11    1    3    3    0    0 -0.47120408862E+01 -0.13854074244E+02 -0.34156847175E+02  0.37159506343E+02  0.51100000000E-03 0. -1.
         23    2    1    0    0    0  0.25146166700E+02 -0.94565572010E+01  0.14541445920E+02  0.94451516842E+02  0.89374936143E+02 0.  0.
         11    1    3    3    0    0  0.29858207586E+02  0.43975170427E+01  0.48698293095E+02  0.57292010499E+02  0.51100000000E-03 0.  1.
         22    1    1    0    0    0 -0.25146166700E+02  0.94565572010E+01 -0.14541445920E+02  0.30548483158E+02  0.00000000000E+00 0.  1.
</event>
<event>
 5    1  0.1626333E-003  0.9118800E+02  0.7818608E-02  0.1130116E+00
         25   -1    0    0    0    0  0.00000000000E+00  0.00000000000E+00  0.99999998245E-14  0.12500000000E+03  0.12500000000E+03 0.  0.
        -11    1    3    3    0    0  0.30901211112E+02 -0.19095755139E+02 -0.40597102086E+02  0.54476209583E+02  0.51100000000E-03 0. -1.
         23    2    1    0    0    0  0.34719514082E+01  0.81189659883E+01 -0.28800451256E+02  0.94876287615E+02  0.89967060104E+02 0.  0.
         11    1    3    3    0    0 -0.27429259704E+02  0.27214721127E+02  0.11796650831E+02  0.40400078032E+02  0.51100000000E-03 0.  1.
         22    1    1    0    0    0 -0.34719514082E+01 -0.81189659883E+01  0.28800451256E+02  0.30123712385E+02  0.00000000000E+00 0. -1.
</event>
<event>
 5    1  0.1626333E-003  0.9118800E+02  0.7818608E-02  0.1130116E+00
         25   -1    0    0    0    0  0.00000000000E+00  0.00000000000E+00  0.99999998245E-14  0.12500000000E+03  0.12500000000E+03 0.  0.
        -11    1    3    3    0    0  0.79589388855E+01 -0.33429570564E+02  0.25829175347E+02  0.42988686833E+02  0.51100000000E-03 0. -1.
         23    2    1    0    0    0 -0.29625092886E+01  0.16456009421E+02  0.26037302470E+02  0.94056215046E+02  0.88820345426E+02 0.  0.
         11    1    3    3    0    0 -0.10921448174E+02  0.49885579985E+02  0.20812712328E+00  0.51067528213E+02  0.51100000000E-03 0.  1.
         22    1    1    0    0    0  0.29625092886E+01 -0.16456009421E+02 -0.26037302470E+02  0.30943784954E+02  0.00000000000E+00 0. -1.
</event>
<event>
 5    1  0.1626333E-003  0.9118800E+02  0.7818608E-02  0.1130116E+00
         25   -1    0    0    0    0  0.00000000000E+00  0.00000000000E+00  0.99999998245E-14  0.12500000000E+03  0.12500000000E+03 0.  0.
        -11    1    3    3    0    0  0.42042540237E+02  0.25410103740E+02 -0.13510264636E+02  0.50948756732E+02  0.51100000000E-03 0.  1.
         23    2    1    0    0    0  0.23501159574E+02  0.57254525010E+01  0.19719926684E+02  0.93791654704E+02  0.88447236679E+02 0.  0.
         11    1    3    3    0    0 -0.18541380663E+02 -0.19684651239E+02  0.33230191320E+02  0.42842897973E+02  0.51100000000E-03 0. -1.
         22    1    1    0    0    0 -0.23501159574E+02 -0.57254525010E+01 -0.19719926684E+02  0.31208345296E+02  0.00000000000E+00 0.  1.
</event>
<event>
 5    1  0.1626333E-003  0.9118800E+02  0.7818608E-02  0.1130116E+00
         25   -1    0    0    0    0  0.00000000000E+00  0.00000000000E+00  0.99999998245E-14  0.12500000000E+03  0.12500000000E+03 0.  0.
        -11    1    3    3    0    0  0.16358150783E+00  0.56883789260E+01  0.37881612068E+02  0.38306669743E+02  0.51100000000E-03 0.  1.
         23    2    1    0    0    0 -0.24676643362E+02 -0.96162404116E+01 -0.11866135578E+02  0.95979076844E+02  0.91486442771E+02 0.  0.
         11    1    3    3    0    0 -0.24840224870E+02 -0.15304619338E+02 -0.49747747646E+02  0.57672407100E+02  0.51100000000E-03 0. -1.
         22    1    1    0    0    0  0.24676643362E+02  0.96162404116E+01  0.11866135578E+02  0.29020923156E+02  0.00000000000E+00 0. -1.
</event>
<event>
 5    1  0.1626333E-003  0.9118800E+02  0.7818608E-02  0.1130116E+00
         25   -1    0    0    0    0  0.00000000000E+00  0.00000000000E+00  0.99999998245E-14  0.12500000000E+03  0.12500000000E+03 0.  0.
        -11    1    3    3    0    0  0.97081948589E+01 -0.55391034570E+02 -0.24031902586E+02  0.61155115079E+02  0.51100000000E-03 0. -1.
         23    2    1    0    0    0 -0.45897261255E+01 -0.26697107775E+02 -0.10770176075E+02  0.95848707710E+02  0.91308142723E+02 0.  0.
         11    1    3    3    0    0 -0.14297920984E+02  0.28693926795E+02  0.13261726511E+02  0.34693592632E+02  0.51100000000E-03 0.  1.
         22    1    1    0    0    0  0.45897261255E+01  0.26697107775E+02  0.10770176075E+02  0.29151292290E+02  0.00000000000E+00 0. -1.
</event>
<event>
 5    1  0.1626333E-003  0.9118800E+02  0.7818608E-02  0.1130116E+00
         25   -1    0    0    0    0  0.00000000000E+00  0.00000000000E+00  0.99999998245E-14  0.12500000000E+03  0.12500000000E+03 0.  0.
        -11    1    3    3    0    0 -0.15214320888E+02  0.89652176263E+01  0.43284160065E+02  0.46747932575E+02  0.51100000000E-03 0. -1.
         23    2    1    0    0    0  0.53074575913E+01 -0.24945874992E+02  0.15464080730E+02  0.95173777007E+02  0.90379445959E+02 0.  0.
         11    1    3    3    0    0  0.20521778480E+02 -0.33911092618E+02 -0.27820079335E+02  0.48425844433E+02  0.51100000000E-03 0.  1.
         22    1    1    0    0    0 -0.53074575913E+01  0.24945874992E+02 -0.15464080730E+02  0.29826222993E+02  0.00000000000E+00 0.  1.
</event>
<event>
 5    1  0.1626333E-003  0.9118800E+02  0.7818608E-02  0.1130116E+00
         25   -1    0    0    0    0  0.00000000000E+00  0.00000000000E+00  0.99999998245E-14  0.12500000000E+03  0.12500000000E+03 0.  0.
        -11    1    3    3    0    0  0.11924217253E+02 -0.36023523173E+02 -0.13307522074E+01  0.37969093755E+02  0.51100000000E-03 0. -1.
         23    2    1    0    0    0 -0.28204098912E+02  0.60807755985E+01 -0.22319133117E-01  0.96147833262E+02  0.91716728657E+02 0.  0.
         11    1    3    3    0    0 -0.40128316165E+02  0.42104298771E+02  0.13084330742E+01  0.58178739507E+02  0.51100000000E-03 0.  1.
         22    1    1    0    0    0  0.28204098912E+02 -0.60807755985E+01  0.22319133117E-01  0.28852166738E+02  0.00000000000E+00 0.  1.
</event>
<event>
 5    1  0.1626333E-003  0.9118800E+02  0.7818608E-02  0.1130116E+00
         25   -1    0    0    0    0  0.00000000000E+00  0.00000000000E+00  0.99999998245E-14  0.12500000000E+03  0.12500000000E+03 0.  0.
        -11    1    3    3    0    0  0.16961994552E+02 -0.41711014637E+02 -0.27483332534E+02  0.52752739916E+02  0.51100000000E-03 0.  1.
         23    2    1    0    0    0 -0.44639128505E+01 -0.57555304582E+01 -0.29458275912E+02  0.94654610425E+02  0.89658533371E+02 0.  0.
         11    1    3    3    0    0 -0.21425907403E+02  0.35955484178E+02 -0.19749433776E+01  0.41901870509E+02  0.51100000000E-03 0. -1.
         22    1    1    0    0    0  0.44639128505E+01  0.57555304582E+01  0.29458275912E+02  0.30345389575E+02  0.00000000000E+00 0.  1.
</event>
<event>
 5    1  0.1626333E-003  0.9118800E+02  0.7818608E-02  0.1130116E+00
         25   -1    0    0    0    0  0.00000000000E+00  0.00000000000E+00  0.99999998245E-14  0.12500000000E+03  0.12500000000E+03 0.  0.
        -11    1    3    3    0    0 -0.31171711025E+02 -0.36660737240E+01  0.32466820831E+02  0.45157614196E+02  0.51100000000E-03 0.  1.
         23    2    1    0    0    0 -0.40749385943E+01  0.28405033388E+02  0.36684989821E+01  0.96070621660E+02  0.91611437141E+02 0.  0.
         11    1    3    3    0    0  0.27096772430E+02  0.32071107112E+02 -0.28798321848E+02  0.50913007465E+02  0.51100000000E-03 0. -1.
         22    1    1    0    0    0  0.40749385943E+01 -0.28405033388E+02 -0.36684989821E+01  0.28929378340E+02  0.00000000000E+00 0. -1.
</event>
<event>
 5    1  0.1626333E-003  0.9118800E+02  0.7818608E-02  0.1130116E+00
         25   -1    0    0    0    0  0.00000000000E+00  0.00000000000E+00  0.99999998245E-14  0.12500000000E+03  0.12500000000E+03 0.  0.
        -11    1    3    3    0    0  0.25829601627E+02  0.58522842967E+01  0.43987523634E+02  0.51345104805E+02  0.51100000000E-03 0.  1.
         23    2    1    0    0    0 -0.32304103183E+01 -0.19494401535E+02  0.20652801937E+02  0.96416692461E+02  0.92082425659E+02 0.  0.
         11    1    3    3    0    0 -0.29060011946E+02 -0.25346685832E+02 -0.23334721697E+02  0.45071587656E+02  0.51100000000E-03 0. -1.
         22    1    1    0    0    0  0.32304103183E+01  0.19494401535E+02 -0.20652801937E+02  0.28583307539E+02  0.00000000000E+00 0.  1.
</event>
<event>
 5    1  0.1626333E-003  0.9118800E+02  0.7818608E-02  0.1130116E+00
         25   -1    0    0    0    0  0.00000000000E+00  0.00000000000E+00  0.99999998245E-14  0.12500000000E+03  0.12500000000E+03 0.  0.
        -11    1    3    3    0    0 -0.26126483371E+02 -0.23321426728E+02  0.72286735477E+00  0.35028625658E+02  0.51100000000E-03 0. -1.
         23    2    1    0    0    0  0.27327927622E+02 -0.17495807039E+01 -0.13600668015E+02  0.94424604152E+02  0.89337288061E+02 0.  0.
         11    1    3    3    0    0  0.53454410994E+02  0.21571846025E+02 -0.14323535370E+02  0.59395978495E+02  0.51100000000E-03 0.  1.
         22    1    1    0    0    0 -0.27327927622E+02  0.17495807039E+01  0.13600668015E+02  0.30575395848E+02  0.00000000000E+00 0.  1.
</event>
<event>
 5    1  0.1626333E-003  0.9118800E+02  0.7818608E-02  0.1130116E+00
         25   -1    0    0    0    0  0.00000000000E+00  0.00000000000E+00  0.99999998245E-14  0.12500000000E+03  0.12500000000E+03 0.  0.
        -11    1    3    3    0    0  0.85248118584E+01 -0.59057675064E+02  0.19768144229E+01  0.59702505783E+02  0.51100000000E-03 0. -1.
         23    2    1    0    0    0  0.95964783698E+01 -0.39137615325E+02 -0.10659818661E+02  0.83316945118E+02  0.72140392843E+02 0.  0.
         11    1    3    3    0    0  0.10716665114E+01  0.19920059740E+02 -0.12636633084E+02  0.23614439335E+02  0.51100000000E-03 0.  1.
         22    1    1    0    0    0 -0.95964783698E+01  0.39137615325E+02  0.10659818661E+02  0.41683054882E+02  0.00000000000E+00 0. -1.
</event>
<event>
 5    1  0.1626333E-003  0.9118800E+02  0.7818608E-02  0.1130116E+00
         25   -1    0    0    0    0  0.00000000000E+00  0.00000000000E+00  0.99999998245E-14  0.12500000000E+03  0.12500000000E+03 0.  0.
        -11    1    3    3    0    0 -0.33752576362E+02  0.74488856926E+00  0.52346219432E+02  0.62288987463E+02  0.51100000000E-03 0. -1.
         23    2    1    0    0    0 -0.12399350304E+02  0.31467507762E+00  0.25907191116E+02  0.96276743571E+02  0.91892251538E+02 0.  0.
         11    1    3    3    0    0  0.21353226058E+02 -0.43021349164E+00 -0.26439028315E+02  0.33987756108E+02  0.51100000000E-03 0.  1.
         22    1    1    0    0    0  0.12399350304E+02 -0.31467507762E+00 -0.25907191116E+02  0.28723256429E+02  0.00000000000E+00 0. -1.
</event>
<event>
 5    1  0.1626333E-003  0.9118800E+02  0.7818608E-02  0.1130116E+00
         25   -1    0    0    0    0  0.00000000000E+00  0.00000000000E+00  0.99999998245E-14  0.12500000000E+03  0.12500000000E+03 0.  0.
        -11    1    3    3    0    0  0.28483913581E+01 -0.28882558092E+02  0.49262499143E+02  0.57176125414E+02  0.51100000000E-03 0.  1.
         23    2    1    0    0    0  0.18251045674E+02 -0.64864766813E+01  0.22310887128E+02  0.95454260334E+02  0.90766541653E+02 0.  0.
         11    1    3    3    0    0  0.15402654316E+02  0.22396081411E+02 -0.26951612015E+02  0.38278134920E+02  0.51100000000E-03 0. -1.
         22    1    1    0    0    0 -0.18251045674E+02  0.64864766813E+01 -0.22310887128E+02  0.29545739666E+02  0.00000000000E+00 0.  1.
</event>
<event>
 5    1  0.1626333E-003  0.9118800E+02  0.7818608E-02  0.1130116E+00
         25   -1    0    0    0    0  0.00000000000E+00  0.00000000000E+00  0.99999998245E-14  0.12500000000E+03  0.12500000000E+03 0.  0.
        -11    1    3    3    0    0  0.19155159561E+02 -0.19165570959E+02 -0.19518056591E+02  0.33394517235E+02  0.51100000000E-03 0.  1.
         23    2    1    0    0    0 -0.10026410976E+01  0.27423416833E+02  0.13968650695E+02  0.94207593757E+02  0.89033131133E+02 0.  0.
         11    1    3    3    0    0 -0.20157800659E+02  0.46588987793E+02  0.33486707286E+02  0.60813076522E+02  0.51100000000E-03 0. -1.
         22    1    1    0    0    0  0.10026410976E+01 -0.27423416833E+02 -0.13968650695E+02  0.30792406243E+02  0.00000000000E+00 0. -1.
</event>
<event>
 5    1  0.1626333E-003  0.9118800E+02  0.7818608E-02  0.1130116E+00
         25   -1    0    0    0    0  0.00000000000E+00  0.00000000000E+00  0.99999998245E-14  0.12500000000E+03  0.12500000000E+03 0.  0.
        -11    1    3    3    0    0 -0.25386479172E+02  0.17422074217E+02 -0.51142138554E+02  0.59695228711E+02  0.51100000000E-03 0.  1.
         23    2    1    0    0    0 -0.70755410590E+01 -0.37483852597E+01 -0.27574787182E+02  0.96286195629E+02  0.91905108167E+02 0.  0.
         11    1    3    3    0    0  0.18310938113E+02 -0.21170459476E+02  0.23567351372E+02  0.36590966917E+02  0.51100000000E-03 0. -1.
         22    1    1    0    0    0  0.70755410590E+01  0.37483852597E+01  0.27574787182E+02  0.28713804371E+02  0.00000000000E+00 0.  1.
</event>
<event>
 5    1  0.1626333E-003  0.9118800E+02  0.7818608E-02  0.1130116E+00
         25   -1    0    0    0    0  0.00000000000E+00  0.00000000000E+00  0.99999998245E-14  0.12500000000E+03  0.12500000000E+03 0.  0.
        -11    1    3    3    0    0  0.44148534758E+02 -0.86125337475E+01  0.53391957146E+01  0.45296532648E+02  0.51100000000E-03 0. -1.
         23    2    1    0    0    0 -0.42466851241E+01 -0.27253701034E+02  0.35635001101E+01  0.97188184389E+02  0.93123821319E+02 0.  0.
         11    1    3    3    0    0 -0.48395219882E+02 -0.18641167286E+02 -0.17756956046E+01  0.51891651740E+02  0.51100000000E-03 0.  1.
         22    1    1    0    0    0  0.42466851241E+01  0.27253701034E+02 -0.35635001101E+01  0.27811815611E+02  0.00000000000E+00 0.  1.
</event>
<event>
 5    1  0.1626333E-003  0.9118800E+02  0.7818608E-02  0.1130116E+00
         25   -1    0    0    0    0  0.00000000000E+00  0.00000000000E+00  0.99999998245E-14  0.12500000000E+03  0.12500000000E+03 0.  0.
        -11    1    3    3    0    0  0.17617088947E+02 -0.48351965580E+02 -0.13400101896E+02  0.53177411836E+02  0.51100000000E-03 0. -1.
         23    2    1    0    0    0  0.13581701111E+02 -0.19293742950E+02  0.17377114501E+02  0.95696839241E+02  0.91099998958E+02 0.  0.
         11    1    3    3    0    0 -0.40353878365E+01  0.29058222630E+02  0.30777216397E+02  0.42519427405E+02  0.51100000000E-03 0.  1.
         22    1    1    0    0    0 -0.13581701111E+02  0.19293742950E+02 -0.17377114501E+02  0.29303160759E+02  0.00000000000E+00 0.  1.
</event>
<event>
 5    1  0.1626333E-003  0.9118800E+02  0.7818608E-02  0.1130116E+00
         25   -1    0    0    0    0  0.00000000000E+00  0.00000000000E+00  0.99999998245E-14  0.12500000000E+03  0.12500000000E+03 0.  0.
        -11    1    3    3    0    0 -0.10037770303E+02 -0.25119269460E+02 -0.56165685886E+02  0.62340346504E+02  0.51100000000E-03 0. -1.
         23    2    1    0    0    0 -0.25918184686E+01 -0.10331251024E+02 -0.28407050665E+02  0.94661694210E+02  0.89668408888E+02 0.  0.
         11    1    3    3    0    0  0.74459518343E+01  0.14788018436E+02  0.27758635221E+02  0.32321347707E+02  0.51100000000E-03 0.  1.
         22    1    1    0    0    0  0.25918184686E+01  0.10331251024E+02  0.28407050665E+02  0.30338305790E+02  0.00000000000E+00 0. -1.
</event>
<event>
 5    1  0.1626333E-003  0.9118800E+02  0.7818608E-02  0.1130116E+00
         25   -1    0    0    0    0  0.00000000000E+00  0.00000000000E+00  0.99999998245E-14  0.12500000000E+03  0.12500000000E+03 0.  0.
        -11    1    3    3    0    0 -0.14054011485E+02  0.42397813869E+02 -0.12873027033E+02  0.46484456380E+02  0.51100000000E-03 0. -1.
         23    2    1    0    0    0 -0.11103473789E+02  0.10873153810E+02  0.24823044525E+02  0.95713550173E+02  0.91122925454E+02 0.  0.
         11    1    3    3    0    0  0.29505376955E+01 -0.31524660059E+02  0.37696071558E+02  0.49229093793E+02  0.51100000000E-03 0.  1.
         22    1    1    0    0    0  0.11103473789E+02 -0.10873153810E+02 -0.24823044525E+02  0.29286449827E+02  0.00000000000E+00 0. -1.
</event>
<event>
 5    1  0.1626333E-003  0.9118800E+02  0.7818608E-02  0.1130116E+00
         25   -1    0    0    0    0  0.00000000000E+00  0.00000000000E+00  0.99999998245E-14  0.12500000000E+03  0.12500000000E+03 0.  0.
        -11    1    3    3    0    0 -0.32260234860E+02 -0.82335735749E+01 -0.89807151138E+01  0.34484311378E+02  0.51100000000E-03 0. -1.
         23    2    1    0    0    0 -0.18609402214E+02 -0.25208722903E+02  0.31573002323E+02  0.80518048190E+02  0.67115661715E+02 0.  0.
         11    1    3    3    0    0  0.13650832645E+02 -0.16975149328E+02  0.40553717437E+02  0.46033736811E+02  0.51100000000E-03 0.  1.
         22    1    1    0    0    0  0.18609402214E+02  0.25208722903E+02 -0.31573002323E+02  0.44481951810E+02  0.00000000000E+00 0.  1.
</event>
<event>
 5    1  0.1626333E-003  0.9118800E+02  0.7818608E-02  0.1130116E+00
         25   -1    0    0    0    0  0.00000000000E+00  0.00000000000E+00  0.99999998245E-14  0.12500000000E+03  0.12500000000E+03 0.  0.
        -11    1    3    3    0    0  0.46396758020E+02 -0.31583069895E+02 -0.17801273062E+02  0.58881531754E+02  0.51100000000E-03 0. -1.
         23    2    1    0    0    0  0.96296412862E+01 -0.23366927379E+02 -0.22921388672E+01  0.99622900343E+02  0.96336520000E+02 0.  0.
         11    1    3    3    0    0 -0.36767116734E+02  0.82161425167E+01  0.15509134195E+02  0.40741368589E+02  0.51100000000E-03 0.  1.
         22    1    1    0    0    0 -0.96296412862E+01  0.23366927379E+02  0.22921388672E+01  0.25377099657E+02  0.00000000000E+00 0. -1.
</event>
<event>
 5    1  0.1626333E-003  0.9118800E+02  0.7818608E-02  0.1130116E+00
         25   -1    0    0    0    0  0.00000000000E+00  0.00000000000E+00  0.99999998245E-14  0.12500000000E+03  0.12500000000E+03 0.  0.
        -11    1    3    3    0    0  0.46389233993E+02 -0.23176999317E+02  0.93044556169E+01  0.52684980994E+02  0.51100000000E-03 0. -1.
         23    2    1    0    0    0  0.13533517491E+02 -0.19987627459E+02 -0.17481977664E+02  0.95195958493E+02  0.90410119031E+02 0.  0.
         11    1    3    3    0    0 -0.32855716502E+02  0.31893718579E+01 -0.26786433281E+02  0.42510977499E+02  0.51100000000E-03 0.  1.
         22    1    1    0    0    0 -0.13533517491E+02  0.19987627459E+02  0.17481977664E+02  0.29804041507E+02  0.00000000000E+00 0. -1.
</event>
<event>
 5    1  0.1626333E-003  0.9118800E+02  0.7818608E-02  0.1130116E+00
         25   -1    0    0    0    0  0.00000000000E+00  0.00000000000E+00  0.99999998245E-14  0.12500000000E+03  0.12500000000E+03 0.  0.
        -11    1    3    3    0    0  0.30586310640E+02 -0.41689261458E+02  0.30196051190E+02  0.59877528566E+02  0.51100000000E-03 0.  1.
         23    2    1    0    0    0  0.24136968142E+02 -0.12880786778E+02  0.90798031158E+01  0.96173784089E+02  0.91752090016E+02 0.  0.
         11    1    3    3    0    0 -0.64493424984E+01  0.28808474679E+02 -0.21116248074E+02  0.36296255523E+02  0.51100000000E-03 0. -1.
         22    1    1    0    0    0 -0.24136968142E+02  0.12880786778E+02 -0.90798031158E+01  0.28826215911E+02  0.00000000000E+00 0.  1.
</event>
<event>
 5    1  0.1626333E-003  0.9118800E+02  0.7818608E-02  0.1130116E+00
         25   -1    0    0    0    0  0.00000000000E+00  0.00000000000E+00  0.99999998245E-14  0.12500000000E+03  0.12500000000E+03 0.  0.
        -11    1    3    3    0    0 -0.74480583654E+01  0.34265558329E+02 -0.42775076426E+02  0.55311022632E+02  0.51100000000E-03 0.  1.
         23    2    1    0    0    0 -0.12697015500E+02 -0.23296344961E+01 -0.26130343694E+02  0.95854910173E+02  0.91316633442E+02 0.  0.
         11    1    3    3    0    0 -0.52489571344E+01 -0.36595192826E+02  0.16644732732E+02  0.40543887541E+02  0.51100000000E-03 0. -1.
         22    1    1    0    0    0  0.12697015500E+02  0.23296344961E+01  0.26130343694E+02  0.29145089827E+02  0.00000000000E+00 0.  1.
</event>
<event>
 5    1  0.1626333E-003  0.9118800E+02  0.7818608E-02  0.1130116E+00
         25   -1    0    0    0    0  0.00000000000E+00  0.00000000000E+00  0.99999998245E-14  0.12500000000E+03  0.12500000000E+03 0.  0.
        -11    1    3    3    0    0 -0.17998967541E+01 -0.14868826451E+02  0.29306364679E+02  0.32911770529E+02  0.51100000000E-03 0.  1.
         23    2    1    0    0    0 -0.16669992241E+01  0.16948003486E+01 -0.30213292666E+02  0.94693329309E+02  0.89712498166E+02 0.  0.
         11    1    3    3    0    0  0.13289752997E+00  0.16563626800E+02 -0.59519657346E+02  0.61781558780E+02  0.51100000000E-03 0. -1.
         22    1    1    0    0    0  0.16669992241E+01 -0.16948003486E+01  0.30213292666E+02  0.30306670691E+02  0.00000000000E+00 0. -1.
</event>
<event>
 5    1  0.1626333E-003  0.9118800E+02  0.7818608E-02  0.1130116E+00
         25   -1    0    0    0    0  0.00000000000E+00  0.00000000000E+00  0.99999998245E-14  0.12500000000E+03  0.12500000000E+03 0.  0.
        -11    1    3    3    0    0 -0.11074368392E+02 -0.31315753426E+02 -0.20889550203E+01  0.33281853633E+02  0.51100000000E-03 0. -1.
         23    2    1    0    0    0  0.22613209774E+02 -0.32045963651E+01 -0.31491351952E+02  0.86098432655E+02  0.76808906800E+02 0.  0.
         11    1    3    3    0    0  0.33687578167E+02  0.28111157061E+02 -0.29402396931E+02  0.52816579022E+02  0.51100000000E-03 0.  1.
         22    1    1    0    0    0 -0.22613209774E+02  0.32045963651E+01  0.31491351952E+02  0.38901567345E+02  0.00000000000E+00 0.  1.
</event>
<event>
 5    1  0.1626333E-003  0.9118800E+02  0.7818608E-02  0.1130116E+00
         25   -1    0    0    0    0  0.00000000000E+00  0.00000000000E+00  0.99999998245E-14  0.12500000000E+03  0.12500000000E+03 0.  0.
        -11    1    3    3    0    0 -0.88253677061E+01  0.19439307438E+02  0.54222329775E+02  0.58273792011E+02  0.51100000000E-03 0. -1.
         23    2    1    0    0    0 -0.11361068295E+02  0.27071785122E+02  0.33761366861E+02  0.80258684476E+02  0.66630857108E+02 0.  0.
         11    1    3    3    0    0 -0.25357005891E+01  0.76324776845E+01 -0.20460962914E+02  0.21984892465E+02  0.51100000000E-03 0.  1.
         22    1    1    0    0    0  0.11361068295E+02 -0.27071785122E+02 -0.33761366861E+02  0.44741315524E+02  0.00000000000E+00 0. -1.
</event>
<event>
 5    1  0.1626333E-003  0.9118800E+02  0.7818608E-02  0.1130116E+00
         25   -1    0    0    0    0  0.00000000000E+00  0.00000000000E+00  0.99999998245E-14  0.12500000000E+03  0.12500000000E+03 0.  0.
        -11    1    3    3    0    0 -0.51613971192E+02  0.31763290448E+02  0.46948916352E+01  0.60786105731E+02  0.51100000000E-03 0.  1.
         23    2    1    0    0    0 -0.22684144570E+02  0.17500144059E+02 -0.76882978245E+01  0.95336295235E+02  0.90603939257E+02 0.  0.
         11    1    3    3    0    0  0.28929826622E+02 -0.14263146389E+02 -0.12383189460E+02  0.34550189504E+02  0.51100000000E-03 0. -1.
         22    1    1    0    0    0  0.22684144570E+02 -0.17500144059E+02  0.76882978245E+01  0.29663704765E+02  0.00000000000E+00 0.  1.
</event>
<event>
 5    1  0.1626333E-003  0.9118800E+02  0.7818608E-02  0.1130116E+00
         25   -1    0    0    0    0  0.00000000000E+00  0.00000000000E+00  0.99999998245E-14  0.12500000000E+03  0.12500000000E+03 0.  0.
        -11    1    3    3    0    0  0.14935449966E+02  0.55369464589E+02 -0.20618977672E+02  0.60942493508E+02  0.51100000000E-03 0.  1.
         23    2    1    0    0    0  0.10246172624E+02  0.18919467338E+02 -0.16424880831E+02  0.97931438751E+02  0.94116203109E+02 0.  0.
         11    1    3    3    0    0 -0.46892773416E+01 -0.36449997251E+02  0.41940968414E+01  0.36988945242E+02  0.51100000000E-03 0. -1.
         22    1    1    0    0    0 -0.10246172624E+02 -0.18919467338E+02  0.16424880831E+02  0.27068561249E+02  0.00000000000E+00 0.  1.
</event>
<event>
 5    1  0.1626333E-003  0.9118800E+02  0.7818608E-02  0.1130116E+00
         25   -1    0    0    0    0  0.00000000000E+00  0.00000000000E+00  0.99999998245E-14  0.12500000000E+03  0.12500000000E+03 0.  0.
        -11    1    3    3    0    0 -0.41373129725E+02 -0.15227958367E+02 -0.21643722583E+01  0.44139677013E+02  0.51100000000E-03 0.  1.
         23    2    1    0    0    0 -0.11747299431E+02  0.21005612765E+02  0.17842766311E+02  0.95040041369E+02  0.90194292182E+02 0.  0.
         11    1    3    3    0    0  0.29625830294E+02  0.36233571132E+02  0.20007138569E+02  0.50900364356E+02  0.51100000000E-03 0. -1.
         22    1    1    0    0    0  0.11747299431E+02 -0.21005612765E+02 -0.17842766311E+02  0.29959958631E+02  0.00000000000E+00 0.  1.
</event>
<event>
 5    1  0.1626333E-003  0.9118800E+02  0.7818608E-02  0.1130116E+00
         25   -1    0    0    0    0  0.00000000000E+00  0.00000000000E+00  0.99999998245E-14  0.12500000000E+03  0.12500000000E+03 0.  0.
        -11    1    3    3    0    0  0.16306311298E+02 -0.30413961034E+02 -0.17884419050E+02  0.38868460980E+02  0.51100000000E-03 0. -1.
         23    2    1    0    0    0 -0.25850307390E+01 -0.43291364840E+01  0.28897988962E+02  0.95665420189E+02  0.91056878089E+02 0.  0.
         11    1    3    3    0    0 -0.18891342037E+02  0.26084824550E+02  0.46782408012E+02  0.56796959209E+02  0.51100000000E-03 0.  1.
         22    1    1    0    0    0  0.25850307390E+01  0.43291364840E+01 -0.28897988962E+02  0.29334579811E+02  0.00000000000E+00 0.  1.
</event>
<event>
 5    1  0.1626333E-003  0.9118800E+02  0.7818608E-02  0.1130116E+00
         25   -1    0    0    0    0  0.00000000000E+00  0.00000000000E+00  0.99999998245E-14  0.12500000000E+03  0.12500000000E+03 0.  0.
        -11    1    3    3    0    0 -0.28443615854E+01  0.15174949713E+01  0.34778109442E+02  0.34927211175E+02  0.51100000000E-03 0.  1.
         23    2    1    0    0    0  0.24964399408E+01 -0.16742031274E+02 -0.23390068499E+02  0.96127467587E+02  0.91688968239E+02 0.  0.
         11    1    3    3    0    0  0.53408015262E+01 -0.18259526245E+02 -0.58168177941E+02  0.61200256412E+02  0.51100000000E-03 0. -1.
         22    1    1    0    0    0 -0.24964399408E+01  0.16742031274E+02  0.23390068499E+02  0.28872532413E+02  0.00000000000E+00 0. -1.
</event>
<event>
 5    1  0.1626333E-003  0.9118800E+02  0.7818608E-02  0.1130116E+00
         25   -1    0    0    0    0  0.00000000000E+00  0.00000000000E+00  0.99999998245E-14  0.12500000000E+03  0.12500000000E+03 0.  0.
        -11    1    3    3    0    0 -0.29886329456E+02  0.20762337348E+02 -0.84415373725E+01  0.37356751652E+02  0.51100000000E-03 0.  1.
         23    2    1    0    0    0  0.24575346247E+02  0.11962637549E+02  0.10550205615E+02  0.95702232529E+02  0.91107398889E+02 0.  0.
         11    1    3    3    0    0  0.54461675702E+02 -0.87996997996E+01  0.18991742988E+02  0.58345480877E+02  0.51100000000E-03 0. -1.
         22    1    1    0    0    0 -0.24575346247E+02 -0.11962637549E+02 -0.10550205615E+02  0.29297767471E+02  0.00000000000E+00 0. -1.
</event>
<event>
 5    1  0.1626333E-003  0.9118800E+02  0.7818608E-02  0.1130116E+00
         25   -1    0    0    0    0  0.00000000000E+00  0.00000000000E+00  0.99999998245E-14  0.12500000000E+03  0.12500000000E+03 0.  0.
        -11    1    3    3    0    0 -0.48610138785E+02 -0.14938660256E+01  0.32430759758E+02  0.58454524265E+02  0.51100000000E-03 0.  1.
         23    2    1    0    0    0 -0.15105693067E+02  0.14129363022E+02  0.15701340779E+02  0.99031693072E+02  0.95566329154E+02 0.  0.
         11    1    3    3    0    0  0.33504445717E+02  0.15623229048E+02 -0.16729418978E+02  0.40577168806E+02  0.51100000000E-03 0. -1.
         22    1    1    0    0    0  0.15105693067E+02 -0.14129363022E+02 -0.15701340779E+02  0.25968306928E+02  0.00000000000E+00 0.  1.
</event>
<event>
 5    1  0.1626333E-003  0.9118800E+02  0.7818608E-02  0.1130116E+00
         25   -1    0    0    0    0  0.00000000000E+00  0.00000000000E+00  0.99999998245E-14  0.12500000000E+03  0.12500000000E+03 0.  0.
        -11    1    3    3    0    0  0.31446848752E+01 -0.46049601700E+02  0.35921262867E+02  0.58487537014E+02  0.51100000000E-03 0.  1.
         23    2    1    0    0    0  0.14164005148E+02 -0.15920047133E+02  0.24472346998E+02  0.92550613101E+02  0.86675563311E+02 0.  0.
         11    1    3    3    0    0  0.11019320273E+02  0.30129554567E+02 -0.11448915869E+02  0.34063076087E+02  0.51100000000E-03 0. -1.
         22    1    1    0    0    0 -0.14164005148E+02  0.15920047133E+02 -0.24472346998E+02  0.32449386899E+02  0.00000000000E+00 0.  1.
</event>
<event>
 5    1  0.1626333E-003  0.9118800E+02  0.7818608E-02  0.1130116E+00
         25   -1    0    0    0    0  0.00000000000E+00  0.00000000000E+00  0.99999998245E-14  0.12500000000E+03  0.12500000000E+03 0.  0.
        -11    1    3    3    0    0 -0.15357278555E+02  0.23277580281E+02  0.45382133343E+02  0.53265652868E+02  0.51100000000E-03 0.  1.
         23    2    1    0    0    0 -0.31151349792E+02  0.52568452340E+01  0.25847436694E+02  0.84181732039E+02  0.73623590036E+02 0.  0.
         11    1    3    3    0    0 -0.15794071237E+02 -0.18020735047E+02 -0.19534696649E+02  0.30916079171E+02  0.51100000000E-03 0. -1.
         22    1    1    0    0    0  0.31151349792E+02 -0.52568452340E+01 -0.25847436694E+02  0.40818267961E+02  0.00000000000E+00 0.  1.
</event>
<event>
 5    1  0.1626333E-003  0.9118800E+02  0.7818608E-02  0.1130116E+00
         25   -1    0    0    0    0  0.00000000000E+00  0.00000000000E+00  0.99999998245E-14  0.12500000000E+03  0.12500000000E+03 0.  0.
        -11    1    3    3    0    0 -0.92600513728E+01  0.52740435588E+02  0.29648166237E+01  0.53629210653E+02  0.51100000000E-03 0.  1.
         23    2    1    0    0    0  0.16030284590E+02  0.17962992676E+02 -0.10564816497E+02  0.98708281198E+02  0.95142368583E+02 0.  0.
         11    1    3    3    0    0  0.25290335963E+02 -0.34777442911E+02 -0.13529633120E+02  0.45079070545E+02  0.51100000000E-03 0. -1.
         22    1    1    0    0    0 -0.16030284590E+02 -0.17962992676E+02  0.10564816497E+02  0.26291718802E+02  0.00000000000E+00 0.  1.
</event>
<event>
 5    1  0.1626333E-003  0.9118800E+02  0.7818608E-02  0.1130116E+00
         25   -1    0    0    0    0  0.00000000000E+00  0.00000000000E+00  0.99999998245E-14  0.12500000000E+03  0.12500000000E+03 0.  0.
        -11    1    3    3    0    0  0.76983086949E+01 -0.71809273003E+01  0.33297737958E+02  0.34922328488E+02  0.51100000000E-03 0.  1.
         23    2    1    0    0    0  0.41955738435E+01  0.25006370350E+02 -0.16808336377E+02  0.94578928853E+02  0.89552957591E+02 0.  0.
         11    1    3    3    0    0 -0.35027348513E+01  0.32187297650E+02 -0.50106074336E+02  0.59656600365E+02  0.51100000000E-03 0. -1.
         22    1    1    0    0    0 -0.41955738435E+01 -0.25006370350E+02  0.16808336377E+02  0.30421071147E+02  0.00000000000E+00 0. -1.
</event>
<event>
 5    1  0.1626333E-003  0.9118800E+02  0.7818608E-02  0.1130116E+00
         25   -1    0    0    0    0  0.00000000000E+00  0.00000000000E+00  0.99999998245E-14  0.12500000000E+03  0.12500000000E+03 0.  0.
        -11    1    3    3    0    0 -0.17654056187E+01 -0.40490237685E+02 -0.23508443657E+02  0.46853206168E+02  0.51100000000E-03 0. -1.
         23    2    1    0    0    0 -0.10779459352E+02  0.75561166133E+01 -0.26059455631E+02  0.95804334740E+02  0.91247376319E+02 0.  0.
         11    1    3    3    0    0 -0.90140537331E+01  0.48046354299E+02 -0.25510119734E+01  0.48951128572E+02  0.51100000000E-03 0.  1.
         22    1    1    0    0    0  0.10779459352E+02 -0.75561166133E+01  0.26059455631E+02  0.29195665260E+02  0.00000000000E+00 0. -1.
</event>
<event>
 5    1  0.1626333E-003  0.9118800E+02  0.7818608E-02  0.1130116E+00
         25   -1    0    0    0    0  0.00000000000E+00  0.00000000000E+00  0.99999998245E-14  0.12500000000E+03  0.12500000000E+03 0.  0.
        -11    1    3    3    0    0 -0.10203591032E+02  0.36692277288E+01  0.43231619361E+02  0.44570723742E+02  0.51100000000E-03 0.  1.
         23    2    1    0    0    0 -0.23384466843E+02  0.12189135339E+02 -0.74258813770E+01  0.97603795444E+02  0.93680034484E+02 0.  0.
         11    1    3    3    0    0 -0.13180875811E+02  0.85199076101E+01 -0.50657500738E+02  0.53033071702E+02  0.51100000000E-03 0. -1.
         22    1    1    0    0    0  0.23384466843E+02 -0.12189135339E+02  0.74258813770E+01  0.27396204556E+02  0.00000000000E+00 0.  1.
</event>
<event>
 5    1  0.1626333E-003  0.9118800E+02  0.7818608E-02  0.1130116E+00
         25   -1    0    0    0    0  0.00000000000E+00  0.00000000000E+00  0.99999998245E-14  0.12500000000E+03  0.12500000000E+03 0.  0.
        -11    1    3    3    0    0  0.19904456761E+02 -0.23361585329E+02  0.24706452857E+02  0.39399998491E+02  0.51100000000E-03 0.  1.
         23    2    1    0    0    0 -0.16958473932E+02  0.17015075310E+02  0.19002751589E+02  0.94369831964E+02  0.89260618366E+02 0.  0.
         11    1    3    3    0    0 -0.36862930693E+02  0.40376660640E+02 -0.57037012678E+01  0.54969833473E+02  0.51100000000E-03 0. -1.
         22    1    1    0    0    0  0.16958473932E+02 -0.17015075310E+02 -0.19002751589E+02  0.30630168036E+02  0.00000000000E+00 0. -1.
</event>
<event>
 5    1  0.1626333E-003  0.9118800E+02  0.7818608E-02  0.1130116E+00
         25   -1    0    0    0    0  0.00000000000E+00  0.00000000000E+00  0.99999998245E-14  0.12500000000E+03  0.12500000000E+03 0.  0.
        -11    1    3    3    0    0 -0.14683675967E+02  0.43871024351E+02  0.34458394933E+02  0.57685857011E+02  0.51100000000E-03 0.  1.
         23    2    1    0    0    0 -0.11973227518E+02  0.42382390392E+02  0.13406728826E+02  0.78963432249E+02  0.64154953528E+02 0.  0.
         11    1    3    3    0    0  0.27104484484E+01 -0.14886339591E+01 -0.21051666107E+02  0.21277575238E+02  0.51100000000E-03 0. -1.
         22    1    1    0    0    0  0.11973227518E+02 -0.42382390392E+02 -0.13406728826E+02  0.46036567751E+02  0.00000000000E+00 0.  1.
</event>
<event>
 5    1  0.1626333E-003  0.9118800E+02  0.7818608E-02  0.1130116E+00
         25   -1    0    0    0    0  0.00000000000E+00  0.00000000000E+00  0.99999998245E-14  0.12500000000E+03  0.12500000000E+03 0.  0.
        -11    1    3    3    0    0  0.49966288354E+01 -0.95537729628E+01  0.38381862319E+02  0.39867383070E+02  0.51100000000E-03 0.  1.
         23    2    1    0    0    0  0.12650486679E+02 -0.23041729927E+02 -0.14502466137E+02  0.94978713297E+02  0.90109257705E+02 0.  0.
         11    1    3    3    0    0  0.76538578440E+01 -0.13487956964E+02 -0.52884328455E+02  0.55111330227E+02  0.51100000000E-03 0. -1.
         22    1    1    0    0    0 -0.12650486679E+02  0.23041729927E+02  0.14502466137E+02  0.30021286703E+02  0.00000000000E+00 0. -1.
</event>
<event>
 5    1  0.1626333E-003  0.9118800E+02  0.7818608E-02  0.1130116E+00
         25   -1    0    0    0    0  0.00000000000E+00  0.00000000000E+00  0.99999998245E-14  0.12500000000E+03  0.12500000000E+03 0.  0.
        -11    1    3    3    0    0 -0.10677754194E+02 -0.18902646590E+02 -0.15579829484E+02  0.26721818234E+02  0.51100000000E-03 0. -1.
         23    2    1    0    0    0  0.20209221859E+02  0.24777788843E+02  0.16416536126E+02  0.89057627701E+02  0.81482555957E+02 0.  0.
         11    1    3    3    0    0  0.30886976053E+02  0.43680435433E+02  0.31996365610E+02  0.62335809467E+02  0.51100000000E-03 0.  1.
         22    1    1    0    0    0 -0.20209221859E+02 -0.24777788843E+02 -0.16416536126E+02  0.35942372299E+02  0.00000000000E+00 0.  1.
</event>
<event>
 5    1  0.1626333E-003  0.9118800E+02  0.7818608E-02  0.1130116E+00
         25   -1    0    0    0    0  0.00000000000E+00  0.00000000000E+00  0.99999998245E-14  0.12500000000E+03  0.12500000000E+03 0.  0.
        -11    1    3    3    0    0 -0.25028187441E+02 -0.11576982062E+02  0.32420981671E+02  0.42562386364E+02  0.51100000000E-03 0.  1.
         23    2    1    0    0    0 -0.38312633636E+01  0.28620516413E+02  0.48395056320E+01  0.95721452334E+02  0.91133764782E+02 0.  0.
         11    1    3    3    0    0  0.21196924078E+02  0.40197498474E+02 -0.27581476039E+02  0.53159065969E+02  0.51100000000E-03 0. -1.
         22    1    1    0    0    0  0.38312633636E+01 -0.28620516413E+02 -0.48395056320E+01  0.29278547666E+02  0.00000000000E+00 0.  1.
</event>
<event>
 5    1  0.1626333E-003  0.9118800E+02  0.7818608E-02  0.1130116E+00
         25   -1    0    0    0    0  0.00000000000E+00  0.00000000000E+00  0.99999998245E-14  0.12500000000E+03  0.12500000000E+03 0.  0.
        -11    1    3    3    0    0 -0.82064942016E+01  0.72477254059E+01  0.33070649731E+02  0.34835957638E+02  0.51100000000E-03 0. -1.
         23    2    1    0    0    0  0.20126654326E+02 -0.56351268803E+01 -0.19814223516E+02  0.96199994395E+02  0.91787791120E+02 0.  0.
         11    1    3    3    0    0  0.28333148528E+02 -0.12882852286E+02 -0.52884873247E+02  0.61364036757E+02  0.51100000000E-03 0.  1.
         22    1    1    0    0    0 -0.20126654326E+02  0.56351268803E+01  0.19814223516E+02  0.28800005605E+02  0.00000000000E+00 0.  1.
</event>
<event>
 5    1  0.1626333E-003  0.9118800E+02  0.7818608E-02  0.1130116E+00
         25   -1    0    0    0    0  0.00000000000E+00  0.00000000000E+00  0.99999998245E-14  0.12500000000E+03  0.12500000000E+03 0.  0.
        -11    1    3    3    0    0  0.42251290893E+02 -0.36954365198E+02 -0.14529018614E+02  0.57981799485E+02  0.51100000000E-03 0. -1.
         23    2    1    0    0    0  0.69208463260E+01 -0.28098804372E+02 -0.78880925489E+01  0.95005618442E+02  0.90146572927E+02 0.  0.
         11    1    3    3    0    0 -0.35330444567E+02  0.88555608265E+01  0.66409260655E+01  0.37023818957E+02  0.51100000000E-03 0.  1.
         22    1    1    0    0    0 -0.69208463260E+01  0.28098804372E+02  0.78880925489E+01  0.29994381558E+02  0.00000000000E+00 0. -1.
</event>
<event>
 5    1  0.1626333E-003  0.9118800E+02  0.7818608E-02  0.1130116E+00
         25   -1    0    0    0    0  0.00000000000E+00  0.00000000000E+00  0.99999998245E-14  0.12500000000E+03  0.12500000000E+03 0.  0.
        -11    1    3    3    0    0  0.42090563415E+02 -0.27699597666E+02 -0.15787864288E+02  0.52802839872E+02  0.51100000000E-03 0.  1.
         23    2    1    0    0    0  0.23866042688E+02 -0.22196401354E+01  0.14998533132E+02  0.96725085464E+02  0.92500115492E+02 0.  0.
         11    1    3    3    0    0 -0.18224520727E+02  0.25479957531E+02  0.30786397420E+02  0.43922245592E+02  0.51100000000E-03 0. -1.
         22    1    1    0    0    0 -0.23866042688E+02  0.22196401354E+01 -0.14998533132E+02  0.28274914536E+02  0.00000000000E+00 0.  1.
</event>
<event>
 5    1  0.1626333E-003  0.9118800E+02  0.7818608E-02  0.1130116E+00
         25   -1    0    0    0    0  0.00000000000E+00  0.00000000000E+00  0.99999998245E-14  0.12500000000E+03  0.12500000000E+03 0.  0.
        -11    1    3    3    0    0  0.11021295608E+02 -0.47651494320E+02  0.27906763841E+02  0.56310934428E+02  0.51100000000E-03 0.  1.
         23    2    1    0    0    0 -0.94501038684E+01 -0.27416130446E+02  0.58882887967E+00  0.95994907496E+02  0.91508069993E+02 0.  0.
         11    1    3    3    0    0 -0.20471399476E+02  0.20235363874E+02 -0.27317934961E+02  0.39683973068E+02  0.51100000000E-03 0. -1.
         22    1    1    0    0    0  0.94501038684E+01  0.27416130446E+02 -0.58882887967E+00  0.29005092504E+02  0.00000000000E+00 0.  1.
</event>
<event>
 5    1  0.1626333E-003  0.9118800E+02  0.7818608E-02  0.1130116E+00
         25   -1    0    0    0    0  0.00000000000E+00  0.00000000000E+00  0.99999998245E-14  0.12500000000E+03  0.12500000000E+03 0.  0.
        -11    1    3    3    0    0  0.32021207890E+02 -0.50626565140E+02  0.18881760981E+01  0.59933063177E+02  0.51100000000E-03 0.  1.
         23    2    1    0    0    0  0.69823539049E+01 -0.25609050159E+02 -0.90109620477E+01  0.96968336597E+02  0.92828250814E+02 0.  0.
         11    1    3    3    0    0 -0.25038853985E+02  0.25017514980E+02 -0.10899138146E+02  0.37035273420E+02  0.51100000000E-03 0. -1.
         22    1    1    0    0    0 -0.69823539049E+01  0.25609050159E+02  0.90109620477E+01  0.28031663403E+02  0.00000000000E+00 0.  1.
</event>
<event>
 5    1  0.1626333E-003  0.9118800E+02  0.7818608E-02  0.1130116E+00
         25   -1    0    0    0    0  0.00000000000E+00  0.00000000000E+00  0.99999998245E-14  0.12500000000E+03  0.12500000000E+03 0.  0.
        -11    1    3    3    0    0 -0.15427507398E+02 -0.19870231844E+02  0.23839236757E+02  0.34657514444E+02  0.51100000000E-03 0. -1.
         23    2    1    0    0    0 -0.52355146323E+01  0.30046297345E+02 -0.63080712063E+01  0.93855460190E+02  0.88537365262E+02 0.  0.
         11    1    3    3    0    0  0.10191992766E+02  0.49916529189E+02 -0.30147307963E+02  0.59197945746E+02  0.51100000000E-03 0.  1.
         22    1    1    0    0    0  0.52355146323E+01 -0.30046297345E+02  0.63080712063E+01  0.31144539810E+02  0.00000000000E+00 0. -1.
</event>
<event>
 5    1  0.1626333E-003  0.9118800E+02  0.7818608E-02  0.1130116E+00
         25   -1    0    0    0    0  0.00000000000E+00  0.00000000000E+00  0.99999998245E-14  0.12500000000E+03  0.12500000000E+03 0.  0.
        -11    1    3    3    0    0  0.36801548552E+02  0.13966186720E+02 -0.63706739385E+01  0.39874726758E+02  0.51100000000E-03 0.  1.
         23    2    1    0    0    0 -0.15857399567E+02  0.10958123522E+02 -0.22823549335E+02  0.95126064933E+02  0.90313433294E+02 0.  0.
         11    1    3    3    0    0 -0.52658948118E+02 -0.30080631980E+01 -0.16452875396E+02  0.55251338176E+02  0.51100000000E-03 0. -1.
         22    1    1    0    0    0  0.15857399567E+02 -0.10958123522E+02  0.22823549335E+02  0.29873935067E+02  0.00000000000E+00 0. -1.
</event>
<event>
 5    1  0.1626333E-003  0.9118800E+02  0.7818608E-02  0.1130116E+00
         25   -1    0    0    0    0  0.00000000000E+00  0.00000000000E+00  0.99999998245E-14  0.12500000000E+03  0.12500000000E+03 0.  0.
        -11    1    3    3    0    0 -0.12599045737E+02 -0.46614141797E+02 -0.57819344315E+01  0.48631727658E+02  0.51100000000E-03 0. -1.
         23    2    1    0    0    0  0.22833888745E+02 -0.17441324292E+02  0.51409305505E+01  0.95810696562E+02  0.91256090978E+02 0.  0.
         11    1    3    3    0    0  0.35432934482E+02  0.29172817505E+02  0.10922864982E+02  0.47178968904E+02  0.51100000000E-03 0.  1.
         22    1    1    0    0    0 -0.22833888745E+02  0.17441324292E+02 -0.51409305505E+01  0.29189303438E+02  0.00000000000E+00 0. -1.
</event>
<event>
 5    1  0.1626333E-003  0.9118800E+02  0.7818608E-02  0.1130116E+00
         25   -1    0    0    0    0  0.00000000000E+00  0.00000000000E+00  0.99999998245E-14  0.12500000000E+03  0.12500000000E+03 0.  0.
        -11    1    3    3    0    0 -0.42591980757E+02  0.30865375514E+02 -0.31042109588E+02  0.61076679661E+02  0.51100000000E-03 0.  1.
         23    2    1    0    0    0 -0.25714815920E+02  0.10054062221E+02 -0.84473697080E+01  0.96126240634E+02  0.91687295513E+02 0.  0.
         11    1    3    3    0    0  0.16877164837E+02 -0.20811313292E+02  0.22594739880E+02  0.35049560973E+02  0.51100000000E-03 0. -1.
         22    1    1    0    0    0  0.25714815920E+02 -0.10054062221E+02  0.84473697080E+01  0.28873759366E+02  0.00000000000E+00 0.  1.
</event>
<event>
 5    1  0.1626333E-003  0.9118800E+02  0.7818608E-02  0.1130116E+00
         25   -1    0    0    0    0  0.00000000000E+00  0.00000000000E+00  0.99999998245E-14  0.12500000000E+03  0.12500000000E+03 0.  0.
        -11    1    3    3    0    0  0.37022181868E+02  0.31141748804E+02 -0.38404295015E+02  0.61768441333E+02  0.51100000000E-03 0. -1.
         23    2    1    0    0    0  0.13004010059E+02  0.19749415536E+02 -0.18457611728E+02  0.95002881433E+02  0.90142777627E+02 0.  0.
         11    1    3    3    0    0 -0.24018171809E+02 -0.11392333268E+02  0.19946683288E+02  0.33234440100E+02  0.51100000000E-03 0.  1.
         22    1    1    0    0    0 -0.13004010059E+02 -0.19749415536E+02  0.18457611728E+02  0.29997118567E+02  0.00000000000E+00 0. -1.
</event>
<event>
 5    1  0.1626333E-003  0.9118800E+02  0.7818608E-02  0.1130116E+00
         25   -1    0    0    0    0  0.00000000000E+00  0.00000000000E+00  0.99999998245E-14  0.12500000000E+03  0.12500000000E+03 0.  0.
        -11    1    3    3    0    0 -0.28711697142E+02  0.30751745474E+02  0.37736005629E+02  0.56515816579E+02  0.51100000000E-03 0. -1.
         23    2    1    0    0    0 -0.13600848261E+02 -0.33514828699E+01  0.25734712526E+02  0.95699983965E+02  0.91104313791E+02 0.  0.
         11    1    3    3    0    0  0.15110848881E+02 -0.34103228344E+02 -0.12001293103E+02  0.39184167386E+02  0.51100000000E-03 0.  1.
         22    1    1    0    0    0  0.13600848261E+02  0.33514828699E+01 -0.25734712526E+02  0.29300016035E+02  0.00000000000E+00 0. -1.
</event>
<event>
 5    1  0.1626333E-003  0.9118800E+02  0.7818608E-02  0.1130116E+00
         25   -1    0    0    0    0  0.00000000000E+00  0.00000000000E+00  0.99999998245E-14  0.12500000000E+03  0.12500000000E+03 0.  0.
        -11    1    3    3    0    0 -0.17063372067E+02  0.48178950798E+02 -0.48059063970E+00  0.51113608109E+02  0.51100000000E-03 0. -1.
         23    2    1    0    0    0  0.17061050666E+02  0.21277271046E+02 -0.10617378476E+02  0.95733458717E+02  0.91150231372E+02 0.  0.
         11    1    3    3    0    0  0.34124422733E+02 -0.26901679752E+02 -0.10136787836E+02  0.44619850607E+02  0.51100000000E-03 0.  1.
         22    1    1    0    0    0 -0.17061050666E+02 -0.21277271046E+02  0.10617378476E+02  0.29266541283E+02  0.00000000000E+00 0. -1.
</event>
<event>
 5    1  0.1626333E-003  0.9118800E+02  0.7818608E-02  0.1130116E+00
         25   -1    0    0    0    0  0.00000000000E+00  0.00000000000E+00  0.99999998245E-14  0.12500000000E+03  0.12500000000E+03 0.  0.
        -11    1    3    3    0    0 -0.35397842333E+02 -0.45476300122E+02 -0.15621261838E+02  0.59708667179E+02  0.51100000000E-03 0.  1.
         23    2    1    0    0    0 -0.25678393544E+02 -0.11683766277E+02 -0.77899476350E+01  0.95732721794E+02  0.91149220779E+02 0.  0.
         11    1    3    3    0    0  0.97194487889E+01  0.33792533846E+02  0.78313142032E+01  0.36024054615E+02  0.51100000000E-03 0. -1.
         22    1    1    0    0    0  0.25678393544E+02  0.11683766277E+02  0.77899476350E+01  0.29267278206E+02  0.00000000000E+00 0.  1.
</event>
<event>
 5    1  0.1626333E-003  0.9118800E+02  0.7818608E-02  0.1130116E+00
         25   -1    0    0    0    0  0.00000000000E+00  0.00000000000E+00  0.99999998245E-14  0.12500000000E+03  0.12500000000E+03 0.  0.
        -11    1    3    3    0    0  0.39456201608E+02  0.69754638440E+01 -0.34351970754E+01  0.40215040972E+02  0.51100000000E-03 0.  1.
         23    2    1    0    0    0 -0.53143419246E+01 -0.35179862809E+01  0.28238167680E+02  0.96051553211E+02  0.91585415338E+02 0.  0.
         11    1    3    3    0    0 -0.44770543533E+02 -0.10493450125E+02  0.31673364756E+02  0.55836512239E+02  0.51100000000E-03 0. -1.
         22    1    1    0    0    0  0.53143419246E+01  0.35179862809E+01 -0.28238167680E+02  0.28948446789E+02  0.00000000000E+00 0. -1.
</event>
<event>
 5    1  0.1626333E-003  0.9118800E+02  0.7818608E-02  0.1130116E+00
         25   -1    0    0    0    0  0.00000000000E+00  0.00000000000E+00  0.99999998245E-14  0.12500000000E+03  0.12500000000E+03 0.  0.
        -11    1    3    3    0    0 -0.17004387492E+02 -0.31749957749E+02  0.37075987740E+02  0.51689823739E+02  0.51100000000E-03 0. -1.
         23    2    1    0    0    0  0.16258874320E+02 -0.24083299290E+02  0.15591912432E+02  0.92023280452E+02  0.85911699512E+02 0.  0.
         11    1    3    3    0    0  0.33263261813E+02  0.76666584596E+01 -0.21484075307E+02  0.40333456713E+02  0.51100000000E-03 0.  1.
         22    1    1    0    0    0 -0.16258874320E+02  0.24083299290E+02 -0.15591912432E+02  0.32976719548E+02  0.00000000000E+00 0. -1.
</event>
<event>
 5    1  0.1626333E-003  0.9118800E+02  0.7818608E-02  0.1130116E+00
         25   -1    0    0    0    0  0.00000000000E+00  0.00000000000E+00  0.99999998245E-14  0.12500000000E+03  0.12500000000E+03 0.  0.
        -11    1    3    3    0    0 -0.18736993598E+02 -0.29713603286E+02 -0.74114409464E+01  0.35901289760E+02  0.51100000000E-03 0. -1.
         23    2    1    0    0    0  0.10570463272E+02  0.88093664101E+01  0.26594504447E+02  0.95056598438E+02  0.90217235656E+02 0.  0.
         11    1    3    3    0    0  0.29307456870E+02  0.38522969696E+02  0.34005945393E+02  0.59155308677E+02  0.51100000000E-03 0.  1.
         22    1    1    0    0    0 -0.10570463272E+02 -0.88093664101E+01 -0.26594504447E+02  0.29943401562E+02  0.00000000000E+00 0.  1.
</event>
<event>
 4    1  0.1626333E-003  0.9118800E+02  0.7818608E-02  0.1130116E+00
         25   -1    0    0    0    0  0.00000000000E+00  0.00000000000E+00  0.99999998245E-14  0.12500000000E+03  0.12500000000E+03 0.  0.
        -11    1    1    0    0    0 -0.27703800818E+02 -0.30894578540E+02  0.15283412870E+02  0.44221694587E+02  0.51100000000E-03 0.  1.
         11    1    1    0    0    0 -0.20204488912E+01  0.46636107588E+01  0.24258870564E+02  0.24785565968E+02  0.51100000000E-03 0. -1.
         22    1    1    0    0    0  0.29724249709E+02  0.26230967781E+02 -0.39542283434E+02  0.55992739446E+02  0.00000000000E+00 0.  1.
</event>
<event>
 5    1  0.1626333E-003  0.9118800E+02  0.7818608E-02  0.1130116E+00
         25   -1    0    0    0    0  0.00000000000E+00  0.00000000000E+00  0.99999998245E-14  0.12500000000E+03  0.12500000000E+03 0.  0.
        -11    1    3    3    0    0 -0.42325788718E+02 -0.38389511748E+01  0.14111265711E+02  0.44780997721E+02  0.51100000000E-03 0.  1.
         23    2    1    0    0    0  0.11826733373E+01 -0.15996611613E+02  0.28588327151E+02  0.92219171020E+02  0.86196245597E+02 0.  0.
         11    1    3    3    0    0  0.43508462055E+02 -0.12157660438E+02  0.14477061440E+02  0.47438173299E+02  0.51100000000E-03 0. -1.
         22    1    1    0    0    0 -0.11826733373E+01  0.15996611613E+02 -0.28588327151E+02  0.32780828980E+02  0.00000000000E+00 0. -1.
</event>
<event>
 5    1  0.1626333E-003  0.9118800E+02  0.7818608E-02  0.1130116E+00
         25   -1    0    0    0    0  0.00000000000E+00  0.00000000000E+00  0.99999998245E-14  0.12500000000E+03  0.12500000000E+03 0.  0.
        -11    1    3    3    0    0 -0.29468701769E+02  0.59563892296E+01  0.19810885686E+02  0.36004918394E+02  0.51100000000E-03 0.  1.
         23    2    1    0    0    0  0.15701421432E+02  0.17243985302E+02 -0.17641253084E+02  0.95757847643E+02  0.91183671294E+02 0.  0.
         11    1    3    3    0    0  0.45170123202E+02  0.11287596073E+02 -0.37452138770E+02  0.59752929249E+02  0.51100000000E-03 0. -1.
         22    1    1    0    0    0 -0.15701421432E+02 -0.17243985302E+02  0.17641253084E+02  0.29242152357E+02  0.00000000000E+00 0. -1.
</event>
<event>
 5    1  0.1626333E-003  0.9118800E+02  0.7818608E-02  0.1130116E+00
         25   -1    0    0    0    0  0.00000000000E+00  0.00000000000E+00  0.99999998245E-14  0.12500000000E+03  0.12500000000E+03 0.  0.
        -11    1    3    3    0    0  0.25842680385E+02 -0.19333383659E+02  0.98779139472E+01  0.33751993088E+02  0.51100000000E-03 0.  1.
         23    2    1    0    0    0 -0.20553672352E+02  0.18614639930E+02 -0.77099384048E+01  0.96218036601E+02  0.91812358375E+02 0.  0.
         11    1    3    3    0    0 -0.46396352737E+02  0.37948023588E+02 -0.17587852352E+02  0.62466043514E+02  0.51100000000E-03 0. -1.
         22    1    1    0    0    0  0.20553672352E+02 -0.18614639930E+02  0.77099384048E+01  0.28781963399E+02  0.00000000000E+00 0. -1.
</event>
<event>
 5    1  0.1626333E-003  0.9118800E+02  0.7818608E-02  0.1130116E+00
         25   -1    0    0    0    0  0.00000000000E+00  0.00000000000E+00  0.99999998245E-14  0.12500000000E+03  0.12500000000E+03 0.  0.
        -11    1    3    3    0    0  0.49792160338E+02  0.12242534808E+02  0.34914143416E+02  0.62033348292E+02  0.51100000000E-03 0.  1.
         23    2    1    0    0    0  0.28160861471E+02  0.10507192430E+02  0.25058669194E+02  0.85867250118E+02  0.76431750794E+02 0.  0.
         11    1    3    3    0    0 -0.21631298867E+02 -0.17353423782E+01 -0.98554742218E+01  0.23833901826E+02  0.51100000000E-03 0. -1.
         22    1    1    0    0    0 -0.28160861471E+02 -0.10507192430E+02 -0.25058669194E+02  0.39132749882E+02  0.00000000000E+00 0.  1.
</event>
<event>
 5    1  0.1626333E-003  0.9118800E+02  0.7818608E-02  0.1130116E+00
         25   -1    0    0    0    0  0.00000000000E+00  0.00000000000E+00  0.99999998245E-14  0.12500000000E+03  0.12500000000E+03 0.  0.
        -11    1    3    3    0    0  0.82405574134E+01  0.48233444236E+02  0.19875513309E+02  0.52814846009E+02  0.51100000000E-03 0.  1.
         23    2    1    0    0    0  0.20724100520E+02  0.10905279381E+02  0.22841736168E+02  0.92286724837E+02  0.86294155128E+02 0.  0.
         11    1    3    3    0    0  0.12483543106E+02 -0.37328164855E+02  0.29662228591E+01  0.39471878828E+02  0.51100000000E-03 0. -1.
         22    1    1    0    0    0 -0.20724100520E+02 -0.10905279381E+02 -0.22841736168E+02  0.32713275163E+02  0.00000000000E+00 0.  1.
</event>
<event>
 5    1  0.1626333E-003  0.9118800E+02  0.7818608E-02  0.1130116E+00
         25   -1    0    0    0    0  0.00000000000E+00  0.00000000000E+00  0.99999998245E-14  0.12500000000E+03  0.12500000000E+03 0.  0.
        -11    1    3    3    0    0 -0.17084941233E+02 -0.54451106439E+02  0.86747499375E+00  0.57075132260E+02  0.51100000000E-03 0.  1.
         23    2    1    0    0    0  0.89142703660E+01 -0.27276970126E+02 -0.69187238277E+01  0.95481089877E+02  0.90803482694E+02 0.  0.
         11    1    3    3    0    0  0.25999211599E+02  0.27174136313E+02 -0.77861988215E+01  0.38405957617E+02  0.51100000000E-03 0. -1.
         22    1    1    0    0    0 -0.89142703660E+01  0.27276970126E+02  0.69187238277E+01  0.29518910123E+02  0.00000000000E+00 0.  1.
</event>
<event>
 5    1  0.1626333E-003  0.9118800E+02  0.7818608E-02  0.1130116E+00
         25   -1    0    0    0    0  0.00000000000E+00  0.00000000000E+00  0.99999998245E-14  0.12500000000E+03  0.12500000000E+03 0.  0.
        -11    1    3    3    0    0  0.15208648904E+02 -0.22747134249E+00 -0.59464656345E+02  0.61379150362E+02  0.51100000000E-03 0.  1.
         23    2    1    0    0    0  0.11162433621E+02 -0.72377696823E+01 -0.26181466246E+02  0.95632425890E+02  0.91011573289E+02 0.  0.
         11    1    3    3    0    0 -0.40462152828E+01 -0.70102983398E+01  0.33283190099E+02  0.34253275527E+02  0.51100000000E-03 0. -1.
         22    1    1    0    0    0 -0.11162433621E+02  0.72377696823E+01  0.26181466246E+02  0.29367574110E+02  0.00000000000E+00 0.  1.
</event>
<event>
 5    1  0.1626333E-003  0.9118800E+02  0.7818608E-02  0.1130116E+00
         25   -1    0    0    0    0  0.00000000000E+00  0.00000000000E+00  0.99999998245E-14  0.12500000000E+03  0.12500000000E+03 0.  0.
        -11    1    3    3    0    0  0.32777743754E+02 -0.15848195367E+01  0.67424748891E+01  0.33501538867E+02  0.51100000000E-03 0. -1.
         23    2    1    0    0    0 -0.29112092000E+02  0.11354368208E+01 -0.41177843410E+00  0.95862864264E+02  0.91327520858E+02 0.  0.
         11    1    3    3    0    0 -0.61889835755E+02  0.27202563576E+01 -0.71542533232E+01  0.62361325397E+02  0.51100000000E-03 0.  1.
         22    1    1    0    0    0  0.29112092000E+02 -0.11354368208E+01  0.41177843410E+00  0.29137135736E+02  0.00000000000E+00 0.  1.
</event>
<event>
 5    1  0.1626333E-003  0.9118800E+02  0.7818608E-02  0.1130116E+00
         25   -1    0    0    0    0  0.00000000000E+00  0.00000000000E+00  0.99999998245E-14  0.12500000000E+03  0.12500000000E+03 0.  0.
        -11    1    3    3    0    0 -0.50324822994E+02 -0.10661476423E+02 -0.16554609422E+02  0.54039892508E+02  0.51100000000E-03 0. -1.
         23    2    1    0    0    0 -0.27106792032E+02 -0.32902504259E+01  0.14954417210E+02  0.93867404281E+02  0.88554226721E+02 0.  0.
         11    1    3    3    0    0  0.23218030962E+02  0.73712259974E+01  0.31509026632E+02  0.39827511773E+02  0.51100000000E-03 0.  1.
         22    1    1    0    0    0  0.27106792032E+02  0.32902504259E+01 -0.14954417210E+02  0.31132595719E+02  0.00000000000E+00 0. -1.
</event>
<event>
 5    1  0.1626333E-003  0.9118800E+02  0.7818608E-02  0.1130116E+00
         25   -1    0    0    0    0  0.00000000000E+00  0.00000000000E+00  0.99999998245E-14  0.12500000000E+03  0.12500000000E+03 0.  0.
        -11    1    3    3    0    0  0.28941710499E+02  0.38528454259E+01 -0.19041960021E+02  0.34857757618E+02  0.51100000000E-03 0.  1.
         23    2    1    0    0    0 -0.61309615338E+01 -0.23840088296E+02 -0.34914338679E+02  0.82280571813E+02  0.70321710397E+02 0.  0.
         11    1    3    3    0    0 -0.35072672032E+02 -0.27692933722E+02 -0.15872378657E+02  0.47422814194E+02  0.51100000000E-03 0. -1.
         22    1    1    0    0    0  0.61309615338E+01  0.23840088296E+02  0.34914338679E+02  0.42719428187E+02  0.00000000000E+00 0. -1.
</event>
<event>
 5    1  0.1626333E-003  0.9118800E+02  0.7818608E-02  0.1130116E+00
         25   -1    0    0    0    0  0.00000000000E+00  0.00000000000E+00  0.99999998245E-14  0.12500000000E+03  0.12500000000E+03 0.  0.
        -11    1    3    3    0    0  0.27323483930E+01  0.54249933587E+02  0.22663495493E+02  0.58857073068E+02  0.51100000000E-03 0.  1.
         23    2    1    0    0    0 -0.86722830327E+01  0.14901003743E+02  0.17975632315E+02  0.10009273675E+03  0.96944232356E+02 0.  0.
         11    1    3    3    0    0 -0.11404631426E+02 -0.39348929843E+02 -0.46878631779E+01  0.41235663681E+02  0.51100000000E-03 0. -1.
         22    1    1    0    0    0  0.86722830327E+01 -0.14901003743E+02 -0.17975632315E+02  0.24907263251E+02  0.00000000000E+00 0.  1.
</event>
<event>
 5    1  0.1626333E-003  0.9118800E+02  0.7818608E-02  0.1130116E+00
         25   -1    0    0    0    0  0.00000000000E+00  0.00000000000E+00  0.99999998245E-14  0.12500000000E+03  0.12500000000E+03 0.  0.
        -11    1    3    3    0    0  0.38350798219E+02  0.42505820801E+02  0.48544243620E+00  0.57251761376E+02  0.51100000000E-03 0.  1.
         23    2    1    0    0    0  0.96820252438E+01  0.26766229331E+02  0.14760754793E+02  0.92936741783E+02  0.87230645107E+02 0.  0.
         11    1    3    3    0    0 -0.28668772975E+02 -0.15739591470E+02  0.14275312357E+02  0.35684980407E+02  0.51100000000E-03 0. -1.
         22    1    1    0    0    0 -0.96820252438E+01 -0.26766229331E+02 -0.14760754793E+02  0.32063258217E+02  0.00000000000E+00 0.  1.
</event>
<event>
 5    1  0.1626333E-003  0.9118800E+02  0.7818608E-02  0.1130116E+00
         25   -1    0    0    0    0  0.00000000000E+00  0.00000000000E+00  0.99999998245E-14  0.12500000000E+03  0.12500000000E+03 0.  0.
        -11    1    3    3    0    0 -0.10135312491E+02 -0.10418304071E+01  0.37154159526E+02  0.38525855477E+02  0.51100000000E-03 0.  1.
         23    2    1    0    0    0  0.27382683259E+02  0.24662694048E+01 -0.70556549656E+01  0.96615565987E+02  0.92351997795E+02 0.  0.
         11    1    3    3    0    0  0.37517995750E+02  0.35080998119E+01 -0.44209814492E+02  0.58089710510E+02  0.51100000000E-03 0. -1.
         22    1    1    0    0    0 -0.27382683259E+02 -0.24662694048E+01  0.70556549656E+01  0.28384434013E+02  0.00000000000E+00 0. -1.
</event>
<event>
 5    1  0.1626333E-003  0.9118800E+02  0.7818608E-02  0.1130116E+00
         25   -1    0    0    0    0  0.00000000000E+00  0.00000000000E+00  0.99999998245E-14  0.12500000000E+03  0.12500000000E+03 0.  0.
        -11    1    3    3    0    0 -0.55576786196E+02  0.12938805024E+02 -0.15887571284E+02  0.59233493573E+02  0.51100000000E-03 0.  1.
         23    2    1    0    0    0 -0.22204287132E+02  0.60427952644E+01 -0.21186312649E+02  0.93720524536E+02  0.88346653213E+02 0.  0.
         11    1    3    3    0    0  0.33372499064E+02 -0.68960097594E+01 -0.52987413648E+01  0.34487030963E+02  0.51100000000E-03 0. -1.
         22    1    1    0    0    0  0.22204287132E+02 -0.60427952644E+01  0.21186312649E+02  0.31279475464E+02  0.00000000000E+00 0.  1.
</event>
<event>
 5    1  0.1626333E-003  0.9118800E+02  0.7818608E-02  0.1130116E+00
         25   -1    0    0    0    0  0.00000000000E+00  0.00000000000E+00  0.99999998245E-14  0.12500000000E+03  0.12500000000E+03 0.  0.
        -11    1    3    3    0    0 -0.51953205788E+02  0.18246597711E+02  0.14282596065E+02  0.56886434853E+02  0.51100000000E-03 0. -1.
         23    2    1    0    0    0 -0.25504752180E+02 -0.74775391813E+01  0.16273731020E+02  0.93835271583E+02  0.88508857725E+02 0.  0.
         11    1    3    3    0    0  0.26448453607E+02 -0.25724136892E+02  0.19911349551E+01  0.36948836730E+02  0.51100000000E-03 0.  1.
         22    1    1    0    0    0  0.25504752180E+02  0.74775391813E+01 -0.16273731020E+02  0.31164728417E+02  0.00000000000E+00 0. -1.
</event>
<event>
 5    1  0.1626333E-003  0.9118800E+02  0.7818608E-02  0.1130116E+00
         25   -1    0    0    0    0  0.00000000000E+00  0.00000000000E+00  0.99999998245E-14  0.12500000000E+03  0.12500000000E+03 0.  0.
        -11    1    3    3    0    0 -0.33908165991E+02 -0.60856992007E+01  0.24739423117E+02  0.42412716396E+02  0.51100000000E-03 0. -1.
         23    2    1    0    0    0 -0.15658352970E+02  0.18313144623E+02 -0.18016417077E+02  0.94914346143E+02  0.90019922993E+02 0.  0.
         11    1    3    3    0    0  0.18249813021E+02  0.24398843824E+02 -0.42755840194E+02  0.52501629747E+02  0.51100000000E-03 0.  1.
         22    1    1    0    0    0  0.15658352970E+02 -0.18313144623E+02  0.18016417077E+02  0.30085653857E+02  0.00000000000E+00 0.  1.
</event>
<event>
 5    1  0.1626333E-003  0.9118800E+02  0.7818608E-02  0.1130116E+00
         25   -1    0    0    0    0  0.00000000000E+00  0.00000000000E+00  0.99999998245E-14  0.12500000000E+03  0.12500000000E+03 0.  0.
        -11    1    3    3    0    0 -0.20697949605E+02  0.21004979484E+02  0.34899776824E+02  0.45690356790E+02  0.51100000000E-03 0.  1.
         23    2    1    0    0    0  0.14286992603E+02 -0.11713634536E+02  0.23819078356E+02  0.94855748717E+02  0.89938518886E+02 0.  0.
         11    1    3    3    0    0  0.34984942207E+02 -0.32718614019E+02 -0.11080698468E+02  0.49165391928E+02  0.51100000000E-03 0. -1.
         22    1    1    0    0    0 -0.14286992603E+02  0.11713634536E+02 -0.23819078356E+02  0.30144251283E+02  0.00000000000E+00 0.  1.
</event>
<event>
 5    1  0.1626333E-003  0.9118800E+02  0.7818608E-02  0.1130116E+00
         25   -1    0    0    0    0  0.00000000000E+00  0.00000000000E+00  0.99999998245E-14  0.12500000000E+03  0.12500000000E+03 0.  0.
        -11    1    3    3    0    0  0.14089642966E+02  0.18663127051E+02 -0.29989269359E+02  0.38028760527E+02  0.51100000000E-03 0.  1.
         23    2    1    0    0    0  0.20436139682E+02 -0.17559447131E+02  0.13401916510E+02  0.94907121195E+02  0.90009890005E+02 0.  0.
         11    1    3    3    0    0  0.63464967155E+01 -0.36222574181E+02  0.43391185870E+02  0.56878360668E+02  0.51100000000E-03 0. -1.
         22    1    1    0    0    0 -0.20436139682E+02  0.17559447131E+02 -0.13401916510E+02  0.30092878805E+02  0.00000000000E+00 0. -1.
</event>
<event>
 5    1  0.1626333E-003  0.9118800E+02  0.7818608E-02  0.1130116E+00
         25   -1    0    0    0    0  0.00000000000E+00  0.00000000000E+00  0.99999998245E-14  0.12500000000E+03  0.12500000000E+03 0.  0.
        -11    1    3    3    0    0 -0.57499174257E+02 -0.15462988373E+02 -0.24144677066E+01  0.59591011941E+02  0.51100000000E-03 0.  1.
         23    2    1    0    0    0 -0.21137686772E+02 -0.73297389658E+01  0.12084277720E+02  0.99572521883E+02  0.96271129996E+02 0.  0.
         11    1    3    3    0    0  0.36361487484E+02  0.81332494072E+01  0.14498745426E+02  0.39981509941E+02  0.51100000000E-03 0. -1.
         22    1    1    0    0    0  0.21137686772E+02  0.73297389658E+01 -0.12084277720E+02  0.25427478117E+02  0.00000000000E+00 0.  1.
</event>
<event>
 5    1  0.1626333E-003  0.9118800E+02  0.7818608E-02  0.1130116E+00
         25   -1    0    0    0    0  0.00000000000E+00  0.00000000000E+00  0.99999998245E-14  0.12500000000E+03  0.12500000000E+03 0.  0.
        -11    1    3    3    0    0  0.18930589235E+02  0.22786365802E+02 -0.43746569650E+02  0.52833209553E+02  0.51100000000E-03 0. -1.
         23    2    1    0    0    0  0.27866161902E+02  0.83857714587E+01 -0.45380804838E+01  0.95547694206E+02  0.90895123915E+02 0.  0.
         11    1    3    3    0    0  0.89355726662E+01 -0.14400594343E+02  0.39208489166E+02  0.42714484654E+02  0.51100000000E-03 0.  1.
         22    1    1    0    0    0 -0.27866161902E+02 -0.83857714587E+01  0.45380804838E+01  0.29452305794E+02  0.00000000000E+00 0.  1.
</event>
<event>
 5    1  0.1626333E-003  0.9118800E+02  0.7818608E-02  0.1130116E+00
         25   -1    0    0    0    0  0.00000000000E+00  0.00000000000E+00  0.99999998245E-14  0.12500000000E+03  0.12500000000E+03 0.  0.
        -11    1    3    3    0    0  0.19266173191E+02  0.24690224647E+02  0.16313033362E+02  0.35311579974E+02  0.51100000000E-03 0. -1.
         23    2    1    0    0    0 -0.26800101601E+02 -0.26760803996E+01 -0.11537784198E+02  0.95699363209E+02  0.91103462077E+02 0.  0.
         11    1    3    3    0    0 -0.46066274792E+02 -0.27366305046E+02 -0.27850817560E+02  0.60387783236E+02  0.51100000000E-03 0.  1.
         22    1    1    0    0    0  0.26800101601E+02  0.26760803996E+01  0.11537784198E+02  0.29300636791E+02  0.00000000000E+00 0.  1.
</event>
<event>
 5    1  0.1626333E-003  0.9118800E+02  0.7818608E-02  0.1130116E+00
         25   -1    0    0    0    0  0.00000000000E+00  0.00000000000E+00  0.99999998245E-14  0.12500000000E+03  0.12500000000E+03 0.  0.
        -11    1    3    3    0    0 -0.32547652681E+02  0.89898223906E+00 -0.43204838761E+02  0.54100055053E+02  0.51100000000E-03 0.  1.
         23    2    1    0    0    0 -0.26160698626E+02  0.13243115255E+02 -0.43607082944E+01  0.95355809488E+02  0.90630857726E+02 0.  0.
         11    1    3    3    0    0  0.63869540556E+01  0.12344133016E+02  0.38844130467E+02  0.41255754435E+02  0.51100000000E-03 0. -1.
         22    1    1    0    0    0  0.26160698626E+02 -0.13243115255E+02  0.43607082944E+01  0.29644190512E+02  0.00000000000E+00 0.  1.
</event>
<event>
 5    1  0.1626333E-003  0.9118800E+02  0.7818608E-02  0.1130116E+00
         25   -1    0    0    0    0  0.00000000000E+00  0.00000000000E+00  0.99999998245E-14  0.12500000000E+03  0.12500000000E+03 0.  0.
        -11    1    3    3    0    0 -0.16185726429E+02 -0.53092733582E+02 -0.92893766352E+01  0.56277070088E+02  0.51100000000E-03 0.  1.
         23    2    1    0    0    0  0.11229258866E+02 -0.24693869326E+02 -0.10857474285E+02  0.95780688153E+02  0.91214977050E+02 0.  0.
         11    1    3    3    0    0  0.27414985294E+02  0.28398864255E+02 -0.15680976498E+01  0.39503618064E+02  0.51100000000E-03 0. -1.
         22    1    1    0    0    0 -0.11229258866E+02  0.24693869326E+02  0.10857474285E+02  0.29219311847E+02  0.00000000000E+00 0.  1.
</event>
<event>
 5    1  0.1626333E-003  0.9118800E+02  0.7818608E-02  0.1130116E+00
         25   -1    0    0    0    0  0.00000000000E+00  0.00000000000E+00  0.99999998245E-14  0.12500000000E+03  0.12500000000E+03 0.  0.
        -11    1    3    3    0    0 -0.97636657914E+01  0.39505438857E+02  0.42676243757E+01  0.40917251705E+02  0.51100000000E-03 0. -1.
         23    2    1    0    0    0 -0.24963730097E+02 -0.28350525156E+01  0.24195354484E+02  0.90119625551E+02  0.83095766364E+02 0.  0.
         11    1    3    3    0    0 -0.15200064306E+02 -0.42340491373E+02  0.19927730108E+02  0.49202373846E+02  0.51100000000E-03 0.  1.
         22    1    1    0    0    0  0.24963730097E+02  0.28350525156E+01 -0.24195354484E+02  0.34880374449E+02  0.00000000000E+00 0.  1.
</event>
<event>
 5    1  0.1626333E-003  0.9118800E+02  0.7818608E-02  0.1130116E+00
         25   -1    0    0    0    0  0.00000000000E+00  0.00000000000E+00  0.99999998245E-14  0.12500000000E+03  0.12500000000E+03 0.  0.
        -11    1    3    3    0    0  0.34731323360E+02  0.23534294141E+02 -0.12042064670E+02  0.43647899661E+02  0.51100000000E-03 0.  1.
         23    2    1    0    0    0  0.11571517753E+02 -0.15721570963E+02  0.18170827847E+02  0.98330789264E+02  0.94645112478E+02 0.  0.
         11    1    3    3    0    0 -0.23159805607E+02 -0.39255865104E+02  0.30212892517E+02  0.54682889603E+02  0.51100000000E-03 0. -1.
         22    1    1    0    0    0 -0.11571517753E+02  0.15721570963E+02 -0.18170827847E+02  0.26669210736E+02  0.00000000000E+00 0. -1.
</event>
<event>
 5    1  0.1626333E-003  0.9118800E+02  0.7818608E-02  0.1130116E+00
         25   -1    0    0    0    0  0.00000000000E+00  0.00000000000E+00  0.99999998245E-14  0.12500000000E+03  0.12500000000E+03 0.  0.
        -11    1    3    3    0    0 -0.41711878879E+01 -0.83515566144E+01  0.53052787498E+02  0.53867852823E+02  0.51100000000E-03 0.  1.
         23    2    1    0    0    0 -0.40682418797E+01  0.19300951140E+02  0.21548218989E+02  0.95786937023E+02  0.91223540031E+02 0.  0.
         11    1    3    3    0    0  0.10294600824E+00  0.27652507754E+02 -0.31504568509E+02  0.41919084200E+02  0.51100000000E-03 0. -1.
         22    1    1    0    0    0  0.40682418797E+01 -0.19300951140E+02 -0.21548218989E+02  0.29213062977E+02  0.00000000000E+00 0.  1.
</event>
<event>
 5    1  0.1626333E-003  0.9118800E+02  0.7818608E-02  0.1130116E+00
         25   -1    0    0    0    0  0.00000000000E+00  0.00000000000E+00  0.99999998245E-14  0.12500000000E+03  0.12500000000E+03 0.  0.
        -11    1    3    3    0    0 -0.33982149651E+02 -0.44333547833E+02 -0.84551902096E+01  0.56495488316E+02  0.51100000000E-03 0.  1.
         23    2    1    0    0    0 -0.51961934573E+01 -0.26668412057E+02  0.11244786280E+02  0.95595071050E+02  0.90960253751E+02 0.  0.
         11    1    3    3    0    0  0.28785956194E+02  0.17665135776E+02  0.19699976490E+02  0.39099582733E+02  0.51100000000E-03 0. -1.
         22    1    1    0    0    0  0.51961934573E+01  0.26668412057E+02 -0.11244786280E+02  0.29404928950E+02  0.00000000000E+00 0.  1.
</event>
<event>
 5    1  0.1626333E-003  0.9118800E+02  0.7818608E-02  0.1130116E+00
         25   -1    0    0    0    0  0.00000000000E+00  0.00000000000E+00  0.99999998245E-14  0.12500000000E+03  0.12500000000E+03 0.  0.
        -11    1    3    3    0    0  0.45931282273E+02  0.77029232556E+00 -0.18246168176E+02  0.49428723378E+02  0.51100000000E-03 0. -1.
         23    2    1    0    0    0  0.34415217287E+01 -0.22389011023E+02 -0.14797817512E+02  0.97942888374E+02  0.94131408645E+02 0.  0.
         11    1    3    3    0    0 -0.42489760544E+02 -0.23159303349E+02  0.34483506639E+01  0.48514164996E+02  0.51100000000E-03 0.  1.
         22    1    1    0    0    0 -0.34415217287E+01  0.22389011023E+02  0.14797817512E+02  0.27057111626E+02  0.00000000000E+00 0. -1.
</event>
<event>
 5    1  0.1626333E-003  0.9118800E+02  0.7818608E-02  0.1130116E+00
         25   -1    0    0    0    0  0.00000000000E+00  0.00000000000E+00  0.99999998245E-14  0.12500000000E+03  0.12500000000E+03 0.  0.
        -11    1    3    3    0    0  0.45364887976E+01 -0.55320694527E+02  0.88842166488E+01  0.56212883571E+02  0.51100000000E-03 0.  1.
         23    2    1    0    0    0  0.10293876907E+02 -0.22303449948E+02 -0.13934188573E+02  0.96758728914E+02  0.92545568390E+02 0.  0.
         11    1    3    3    0    0  0.57573881091E+01  0.33017244580E+02 -0.22818405222E+02  0.40545845344E+02  0.51100000000E-03 0. -1.
         22    1    1    0    0    0 -0.10293876907E+02  0.22303449948E+02  0.13934188573E+02  0.28241271086E+02  0.00000000000E+00 0.  1.
</event>
<event>
 5    1  0.1626333E-003  0.9118800E+02  0.7818608E-02  0.1130116E+00
         25   -1    0    0    0    0  0.00000000000E+00  0.00000000000E+00  0.99999998245E-14  0.12500000000E+03  0.12500000000E+03 0.  0.
        -11    1    3    3    0    0  0.75682779626E+01  0.45892547169E+02 -0.16791028521E+02  0.49450413103E+02  0.51100000000E-03 0. -1.
         23    2    1    0    0    0  0.29487733502E+02  0.93960656353E+01 -0.47863344752E+01  0.93683527111E+02  0.88294290743E+02 0.  0.
         11    1    3    3    0    0  0.21919455539E+02 -0.36496481534E+02  0.12004694046E+02  0.44233114008E+02  0.51100000000E-03 0.  1.
         22    1    1    0    0    0 -0.29487733502E+02 -0.93960656353E+01  0.47863344752E+01  0.31316472889E+02  0.00000000000E+00 0. -1.
</event>
<event>
 5    1  0.1626333E-003  0.9118800E+02  0.7818608E-02  0.1130116E+00
         25   -1    0    0    0    0  0.00000000000E+00  0.00000000000E+00  0.99999998245E-14  0.12500000000E+03  0.12500000000E+03 0.  0.
        -11    1    3    3    0    0  0.29561542811E+02  0.51696325593E+01  0.22629994633E+02  0.37586255088E+02  0.51100000000E-03 0. -1.
         23    2    1    0    0    0 -0.11396133199E+01 -0.98522400437E+01 -0.26083569798E+02  0.97094481445E+02  0.92997958909E+02 0.  0.
         11    1    3    3    0    0 -0.30701156131E+02 -0.15021872603E+02 -0.48713564432E+02  0.59508226357E+02  0.51100000000E-03 0.  1.
         22    1    1    0    0    0  0.11396133199E+01  0.98522400437E+01  0.26083569798E+02  0.27905518555E+02  0.00000000000E+00 0.  1.
</event>
<event>
 5    1  0.1626333E-003  0.9118800E+02  0.7818608E-02  0.1130116E+00
         25   -1    0    0    0    0  0.00000000000E+00  0.00000000000E+00  0.99999998245E-14  0.12500000000E+03  0.12500000000E+03 0.  0.
        -11    1    3    3    0    0  0.27259714223E+02  0.17657064640E+02 -0.94920514292E+01  0.33837301781E+02  0.51100000000E-03 0. -1.
         23    2    1    0    0    0 -0.28336934563E+02 -0.30414068494E+00  0.92406699199E+01  0.95192881009E+02  0.90405864037E+02 0.  0.
         11    1    3    3    0    0 -0.55596648786E+02 -0.17961205325E+02  0.18732721349E+02  0.61355579228E+02  0.51100000000E-03 0.  1.
         22    1    1    0    0    0  0.28336934563E+02  0.30414068494E+00 -0.92406699199E+01  0.29807118991E+02  0.00000000000E+00 0.  1.
</event>
<event>
 5    1  0.1626333E-003  0.9118800E+02  0.7818608E-02  0.1130116E+00
         25   -1    0    0    0    0  0.00000000000E+00  0.00000000000E+00  0.99999998245E-14  0.12500000000E+03  0.12500000000E+03 0.  0.
        -11    1    3    3    0    0  0.42937015676E+02 -0.31421112665E+02  0.29372767703E+02  0.60775267330E+02  0.51100000000E-03 0.  1.
         23    2    1    0    0    0  0.13675040117E+02 -0.22802964885E+02  0.12819454313E+02  0.95481864242E+02  0.90804548677E+02 0.  0.
         11    1    3    3    0    0 -0.29261975559E+02  0.86181477800E+01 -0.16553313390E+02  0.34706596912E+02  0.51100000000E-03 0. -1.
         22    1    1    0    0    0 -0.13675040117E+02  0.22802964885E+02 -0.12819454313E+02  0.29518135758E+02  0.00000000000E+00 0.  1.
</event>
<event>
 5    1  0.1626333E-003  0.9118800E+02  0.7818608E-02  0.1130116E+00
         25   -1    0    0    0    0  0.00000000000E+00  0.00000000000E+00  0.99999998245E-14  0.12500000000E+03  0.12500000000E+03 0.  0.
        -11    1    3    3    0    0  0.15832916353E+02  0.42853703811E+02  0.43653480505E+01  0.45893108790E+02  0.51100000000E-03 0.  1.
         23    2    1    0    0    0  0.19412022893E+02 -0.50787811013E+01  0.20227159318E+02  0.96508621930E+02  0.92207133577E+02 0.  0.
         11    1    3    3    0    0  0.35791065404E+01 -0.47932484912E+02  0.15861811267E+02  0.50615513140E+02  0.51100000000E-03 0. -1.
         22    1    1    0    0    0 -0.19412022893E+02  0.50787811013E+01 -0.20227159318E+02  0.28491378070E+02  0.00000000000E+00 0.  1.
</event>
<event>
 5    1  0.1626333E-003  0.9118800E+02  0.7818608E-02  0.1130116E+00
         25   -1    0    0    0    0  0.00000000000E+00  0.00000000000E+00  0.99999998245E-14  0.12500000000E+03  0.12500000000E+03 0.  0.
        -11    1    3    3    0    0  0.24942223736E+02  0.52093298459E+02  0.22554142385E+02  0.62004157991E+02  0.51100000000E-03 0. -1.
         23    2    1    0    0    0  0.16173794301E+02  0.23340197538E+02  0.74667001391E+01  0.95638323376E+02  0.91019672841E+02 0.  0.
         11    1    3    3    0    0 -0.87684294346E+01 -0.28753100922E+02 -0.15087442245E+02  0.33634165385E+02  0.51100000000E-03 0.  1.
         22    1    1    0    0    0 -0.16173794301E+02 -0.23340197538E+02 -0.74667001391E+01  0.29361676624E+02  0.00000000000E+00 0. -1.
</event>
<event>
 5    1  0.1626333E-003  0.9118800E+02  0.7818608E-02  0.1130116E+00
         25   -1    0    0    0    0  0.00000000000E+00  0.00000000000E+00  0.99999998245E-14  0.12500000000E+03  0.12500000000E+03 0.  0.
        -11    1    3    3    0    0  0.18577984354E+02 -0.11125610140E+02  0.48618805285E+02  0.53223199183E+02  0.51100000000E-03 0. -1.
         23    2    1    0    0    0  0.27620886868E+02 -0.39760462876E+01  0.72502190682E+01  0.96167934309E+02  0.91744120124E+02 0.  0.
         11    1    3    3    0    0  0.90429025140E+01  0.71495638521E+01 -0.41368586217E+02  0.42944735126E+02  0.51100000000E-03 0.  1.
         22    1    1    0    0    0 -0.27620886868E+02  0.39760462876E+01 -0.72502190682E+01  0.28832065691E+02  0.00000000000E+00 0.  1.
</event>
<event>
 5    1  0.1626333E-003  0.9118800E+02  0.7818608E-02  0.1130116E+00
         25   -1    0    0    0    0  0.00000000000E+00  0.00000000000E+00  0.99999998245E-14  0.12500000000E+03  0.12500000000E+03 0.  0.
        -11    1    3    3    0    0  0.14137630780E+02 -0.31040724968E+02  0.10561011683E+02  0.35706220447E+02  0.51100000000E-03 0.  1.
         23    2    1    0    0    0  0.45040868643E+00  0.22366475441E+02  0.23727026120E+02  0.92389666360E+02  0.86443140792E+02 0.  0.
         11    1    3    3    0    0 -0.13687222094E+02  0.53407200409E+02  0.13166014436E+02  0.56683445913E+02  0.51100000000E-03 0. -1.
         22    1    1    0    0    0 -0.45040868643E+00 -0.22366475441E+02 -0.23727026120E+02  0.32610333640E+02  0.00000000000E+00 0. -1.
</event>
<event>
 5    1  0.1626333E-003  0.9118800E+02  0.7818608E-02  0.1130116E+00
         25   -1    0    0    0    0  0.00000000000E+00  0.00000000000E+00  0.99999998245E-14  0.12500000000E+03  0.12500000000E+03 0.  0.
        -11    1    3    3    0    0 -0.43673396605E+01  0.47057191479E+01 -0.60802461711E+02  0.61140467767E+02  0.51100000000E-03 0. -1.
         23    2    1    0    0    0 -0.90345790642E+01  0.80238641263E+01 -0.27069486451E+02  0.95356061140E+02  0.90631204809E+02 0.  0.
         11    1    3    3    0    0 -0.46672394037E+01  0.33181449784E+01  0.33732975260E+02  0.34215593373E+02  0.51100000000E-03 0.  1.
         22    1    1    0    0    0  0.90345790642E+01 -0.80238641263E+01  0.27069486451E+02  0.29643938860E+02  0.00000000000E+00 0. -1.
</event>
<event>
 5    1  0.1626333E-003  0.9118800E+02  0.7818608E-02  0.1130116E+00
         25   -1    0    0    0    0  0.00000000000E+00  0.00000000000E+00  0.99999998245E-14  0.12500000000E+03  0.12500000000E+03 0.  0.
        -11    1    3    3    0    0  0.14235142876E+00 -0.17693237771E+00  0.38115651688E+02  0.38116328166E+02  0.51100000000E-03 0.  1.
         23    2    1    0    0    0  0.28950560081E+02  0.29231367325E+01 -0.99570996048E+01  0.94245756555E+02  0.89086694510E+02 0.  0.
         11    1    3    3    0    0  0.28808208652E+02  0.31000691102E+01 -0.48072751292E+02  0.56129428389E+02  0.51100000000E-03 0. -1.
         22    1    1    0    0    0 -0.28950560081E+02 -0.29231367325E+01  0.99570996048E+01  0.30754243445E+02  0.00000000000E+00 0. -1.
</event>
<event>
 5    1  0.1626333E-003  0.9118800E+02  0.7818608E-02  0.1130116E+00
         25   -1    0    0    0    0  0.00000000000E+00  0.00000000000E+00  0.99999998245E-14  0.12500000000E+03  0.12500000000E+03 0.  0.
        -11    1    3    3    0    0  0.57409413186E+02  0.92005355759E+01 -0.12674814899E+01  0.58155800114E+02  0.51100000000E-03 0.  1.
         23    2    1    0    0    0  0.22903444485E+02  0.10342325256E+02 -0.15472218712E+02  0.95488629092E+02  0.90813860578E+02 0.  0.
         11    1    3    3    0    0 -0.34505968702E+02  0.11417896806E+01 -0.14204737222E+02  0.37332828978E+02  0.51100000000E-03 0. -1.
         22    1    1    0    0    0 -0.22903444485E+02 -0.10342325256E+02  0.15472218712E+02  0.29511370908E+02  0.00000000000E+00 0.  1.
</event>
<event>
 5    1  0.1626333E-003  0.9118800E+02  0.7818608E-02  0.1130116E+00
         25   -1    0    0    0    0  0.00000000000E+00  0.00000000000E+00  0.99999998245E-14  0.12500000000E+03  0.12500000000E+03 0.  0.
        -11    1    3    3    0    0  0.56637687835E+01  0.17890444277E+02  0.29287455395E+02  0.34783635765E+02  0.51100000000E-03 0.  1.
         23    2    1    0    0    0 -0.20410890543E+02 -0.63680550436E+00 -0.21844881661E+02  0.95096675289E+02  0.90272746841E+02 0.  0.
         11    1    3    3    0    0 -0.26074659327E+02 -0.18527249781E+02 -0.51132337056E+02  0.60313039523E+02  0.51100000000E-03 0. -1.
         22    1    1    0    0    0  0.20410890543E+02  0.63680550436E+00  0.21844881661E+02  0.29903324711E+02  0.00000000000E+00 0. -1.
</event>
<event>
 5    1  0.1626333E-003  0.9118800E+02  0.7818608E-02  0.1130116E+00
         25   -1    0    0    0    0  0.00000000000E+00  0.00000000000E+00  0.99999998245E-14  0.12500000000E+03  0.12500000000E+03 0.  0.
        -11    1    3    3    0    0  0.47660000060E+02 -0.32087543632E+02 -0.73800976057E+01  0.57927125795E+02  0.51100000000E-03 0. -1.
         23    2    1    0    0    0  0.13331700725E+02 -0.24858911922E+02  0.71523930060E+01  0.95899201525E+02  0.91377242141E+02 0.  0.
         11    1    3    3    0    0 -0.34328299334E+02  0.72286317099E+01  0.14532490612E+02  0.37972075730E+02  0.51100000000E-03 0.  1.
         22    1    1    0    0    0 -0.13331700725E+02  0.24858911922E+02 -0.71523930060E+01  0.29100798475E+02  0.00000000000E+00 0. -1.
</event>
<event>
 5    1  0.1626333E-003  0.9118800E+02  0.7818608E-02  0.1130116E+00
         25   -1    0    0    0    0  0.00000000000E+00  0.00000000000E+00  0.99999998245E-14  0.12500000000E+03  0.12500000000E+03 0.  0.
        -11    1    3    3    0    0  0.30032769089E+01 -0.24562255194E+02  0.55878266126E+02  0.61112230182E+02  0.51100000000E-03 0. -1.
         23    2    1    0    0    0  0.64454565175E+01 -0.18166539409E+02  0.22046193454E+02  0.95715162462E+02  0.91125137122E+02 0.  0.
         11    1    3    3    0    0  0.34421796085E+01  0.63957157847E+01 -0.33832072671E+02  0.34602932280E+02  0.51100000000E-03 0.  1.
         22    1    1    0    0    0 -0.64454565175E+01  0.18166539409E+02 -0.22046193454E+02  0.29284837538E+02  0.00000000000E+00 0. -1.
</event>
<event>
 5    1  0.1626333E-003  0.9118800E+02  0.7818608E-02  0.1130116E+00
         25   -1    0    0    0    0  0.00000000000E+00  0.00000000000E+00  0.99999998245E-14  0.12500000000E+03  0.12500000000E+03 0.  0.
        -11    1    3    3    0    0  0.30789521404E+02  0.21599047142E+02 -0.44533307290E+02  0.58290041381E+02  0.51100000000E-03 0.  1.
         23    2    1    0    0    0  0.31418259668E+01  0.12500813269E+01 -0.28712355610E+02  0.96089221069E+02  0.91636811747E+02 0.  0.
         11    1    3    3    0    0 -0.27647695437E+02 -0.20348965815E+02  0.15820951680E+02  0.37799179688E+02  0.51100000000E-03 0. -1.
         22    1    1    0    0    0 -0.31418259668E+01 -0.12500813269E+01  0.28712355610E+02  0.28910778931E+02  0.00000000000E+00 0.  1.
</event>
<event>
 5    1  0.1626333E-003  0.9118800E+02  0.7818608E-02  0.1130116E+00
         25   -1    0    0    0    0  0.00000000000E+00  0.00000000000E+00  0.99999998245E-14  0.12500000000E+03  0.12500000000E+03 0.  0.
        -11    1    3    3    0    0  0.12849053112E+02 -0.16732726133E+02  0.53277316687E+02  0.57302310279E+02  0.51100000000E-03 0.  1.
         23    2    1    0    0    0 -0.11976691811E+02 -0.58334897614E+01  0.26129536715E+02  0.95670434056E+02  0.91063760706E+02 0.  0.
         11    1    3    3    0    0 -0.24825744923E+02  0.10899236372E+02 -0.27147779972E+02  0.38368123776E+02  0.51100000000E-03 0. -1.
         22    1    1    0    0    0  0.11976691811E+02  0.58334897614E+01 -0.26129536715E+02  0.29329565944E+02  0.00000000000E+00 0.  1.
</event>
<event>
 5    1  0.1626333E-003  0.9118800E+02  0.7818608E-02  0.1130116E+00
         25   -1    0    0    0    0  0.00000000000E+00  0.00000000000E+00  0.99999998245E-14  0.12500000000E+03  0.12500000000E+03 0.  0.
        -11    1    3    3    0    0 -0.30885743963E+02 -0.48571533677E+02  0.23322019379E+02  0.62105069455E+02  0.51100000000E-03 0.  1.
         23    2    1    0    0    0 -0.10155864349E+02 -0.24647472377E+02  0.12474358265E+02  0.95567890164E+02  0.90922893383E+02 0.  0.
         11    1    3    3    0    0  0.20729879613E+02  0.23924061300E+02 -0.10847661114E+02  0.33462820709E+02  0.51100000000E-03 0. -1.
         22    1    1    0    0    0  0.10155864349E+02  0.24647472377E+02 -0.12474358265E+02  0.29432109836E+02  0.00000000000E+00 0.  1.
</event>
<event>
 5    1  0.1626333E-003  0.9118800E+02  0.7818608E-02  0.1130116E+00
         25   -1    0    0    0    0  0.00000000000E+00  0.00000000000E+00  0.99999998245E-14  0.12500000000E+03  0.12500000000E+03 0.  0.
        -11    1    3    3    0    0 -0.19957193853E+02  0.39968805689E+02  0.32353412368E+02  0.55159208722E+02  0.51100000000E-03 0.  1.
         23    2    1    0    0    0 -0.24167234302E+02  0.48709597617E+01  0.21906550387E+02  0.92020030129E+02  0.85906970219E+02 0.  0.
         11    1    3    3    0    0 -0.42100404494E+01 -0.35097845927E+02 -0.10446861980E+02  0.36860821407E+02  0.51100000000E-03 0. -1.
         22    1    1    0    0    0  0.24167234302E+02 -0.48709597617E+01 -0.21906550387E+02  0.32979969871E+02  0.00000000000E+00 0.  1.
</event>
<event>
 5    1  0.1626333E-003  0.9118800E+02  0.7818608E-02  0.1130116E+00
         25   -1    0    0    0    0  0.00000000000E+00  0.00000000000E+00  0.99999998245E-14  0.12500000000E+03  0.12500000000E+03 0.  0.
        -11    1    3    3    0    0 -0.15287116766E+02 -0.48633253473E+02  0.45814546597E+01  0.51184753682E+02  0.51100000000E-03 0. -1.
         23    2    1    0    0    0  0.14221827326E+02 -0.17922721779E+02  0.18054079637E+02  0.95854946903E+02  0.91316683721E+02 0.  0.
         11    1    3    3    0    0  0.29508944093E+02  0.30710531694E+02  0.13472624977E+02  0.44670193221E+02  0.51100000000E-03 0.  1.
         22    1    1    0    0    0 -0.14221827326E+02  0.17922721779E+02 -0.18054079637E+02  0.29145053097E+02  0.00000000000E+00 0.  1.
</event>
<event>
 5    1  0.1626333E-003  0.9118800E+02  0.7818608E-02  0.1130116E+00
         25   -1    0    0    0    0  0.00000000000E+00  0.00000000000E+00  0.99999998245E-14  0.12500000000E+03  0.12500000000E+03 0.  0.
        -11    1    3    3    0    0  0.35893791177E+02 -0.10703620919E+01 -0.18380457198E+02  0.40340440344E+02  0.51100000000E-03 0.  1.
         23    2    1    0    0    0 -0.67051790540E+01 -0.24057952287E+02  0.11793599025E+02  0.97380559883E+02  0.93381689697E+02 0.  0.
         11    1    3    3    0    0 -0.42598970231E+02 -0.22987590196E+02  0.30174056223E+02  0.57040119539E+02  0.51100000000E-03 0. -1.
         22    1    1    0    0    0  0.67051790540E+01  0.24057952287E+02 -0.11793599025E+02  0.27619440117E+02  0.00000000000E+00 0. -1.
</event>
<event>
 5    1  0.1626333E-003  0.9118800E+02  0.7818608E-02  0.1130116E+00
         25   -1    0    0    0    0  0.00000000000E+00  0.00000000000E+00  0.99999998245E-14  0.12500000000E+03  0.12500000000E+03 0.  0.
        -11    1    3    3    0    0  0.95213383471E+01  0.22784231422E+02  0.42465840048E+02  0.49123565187E+02  0.51100000000E-03 0. -1.
         23    2    1    0    0    0 -0.13591288595E+02  0.23610068146E+02 -0.31498156817E+00  0.97755594025E+02  0.93882365257E+02 0.  0.
         11    1    3    3    0    0 -0.23112626942E+02  0.82583672371E+00 -0.42780821617E+02  0.48632028838E+02  0.51100000000E-03 0.  1.
         22    1    1    0    0    0  0.13591288595E+02 -0.23610068146E+02  0.31498156817E+00  0.27244405975E+02  0.00000000000E+00 0.  1.
</event>
<event>
 5    1  0.1626333E-003  0.9118800E+02  0.7818608E-02  0.1130116E+00
         25   -1    0    0    0    0  0.00000000000E+00  0.00000000000E+00  0.99999998245E-14  0.12500000000E+03  0.12500000000E+03 0.  0.
        -11    1    3    3    0    0  0.46243147546E+02  0.20641412986E+02 -0.24605457691E+02  0.56302088535E+02  0.51100000000E-03 0.  1.
         23    2    1    0    0    0  0.19834623008E+02 -0.82890814283E+01 -0.19812598199E+02  0.95765428202E+02  0.91194062584E+02 0.  0.
         11    1    3    3    0    0 -0.26408524537E+02 -0.28930494414E+02  0.47928594923E+01  0.39463339667E+02  0.51100000000E-03 0. -1.
         22    1    1    0    0    0 -0.19834623008E+02  0.82890814283E+01  0.19812598199E+02  0.29234571798E+02  0.00000000000E+00 0.  1.
</event>
<event>
 5    1  0.1626333E-003  0.9118800E+02  0.7818608E-02  0.1130116E+00
         25   -1    0    0    0    0  0.00000000000E+00  0.00000000000E+00  0.99999998245E-14  0.12500000000E+03  0.12500000000E+03 0.  0.
        -11    1    3    3    0    0 -0.40589242690E+01  0.26219682827E+02 -0.53237145902E+02  0.59482269104E+02  0.51100000000E-03 0. -1.
         23    2    1    0    0    0  0.50026971927E+01  0.79331060356E+01 -0.40247800738E+02  0.83673899109E+02  0.72756269677E+02 0.  0.
         11    1    3    3    0    0  0.90616214618E+01 -0.18286576791E+02  0.12989345163E+02  0.24191630005E+02  0.51100000000E-03 0.  1.
         22    1    1    0    0    0 -0.50026971927E+01 -0.79331060356E+01  0.40247800738E+02  0.41326100891E+02  0.00000000000E+00 0. -1.
</event>
<event>
 5    1  0.1626333E-003  0.9118800E+02  0.7818608E-02  0.1130116E+00
         25   -1    0    0    0    0  0.00000000000E+00  0.00000000000E+00  0.99999998245E-14  0.12500000000E+03  0.12500000000E+03 0.  0.
        -11    1    3    3    0    0 -0.51383856674E+02  0.24801025499E+02 -0.11703846735E+02  0.58244069407E+02  0.51100000000E-03 0. -1.
         23    2    1    0    0    0 -0.26979527780E+02  0.45590022211E+01  0.90976169559E+01  0.96165193693E+02  0.91740386000E+02 0.  0.
         11    1    3    3    0    0  0.24404328894E+02 -0.20242023278E+02  0.20801463691E+02  0.37921124286E+02  0.51100000000E-03 0.  1.
         22    1    1    0    0    0  0.26979527780E+02 -0.45590022211E+01 -0.90976169559E+01  0.28834806307E+02  0.00000000000E+00 0. -1.
</event>
<event>
 5    1  0.1626333E-003  0.9118800E+02  0.7818608E-02  0.1130116E+00
         25   -1    0    0    0    0  0.00000000000E+00  0.00000000000E+00  0.99999998245E-14  0.12500000000E+03  0.12500000000E+03 0.  0.
        -11    1    3    3    0    0 -0.17132894107E+02 -0.26153436328E+02  0.23214079139E+02  0.38941388814E+02  0.51100000000E-03 0. -1.
         23    2    1    0    0    0 -0.14702858621E+01  0.25567980319E+02 -0.33733436014E+01  0.99168569433E+02  0.95745194961E+02 0.  0.
         11    1    3    3    0    0  0.15662608245E+02  0.51721416647E+02 -0.26587422740E+02  0.60227180618E+02  0.51100000000E-03 0.  1.
         22    1    1    0    0    0  0.14702858621E+01 -0.25567980319E+02  0.33733436014E+01  0.25831430567E+02  0.00000000000E+00 0.  1.
</event>
<event>
 5    1  0.1626333E-003  0.9118800E+02  0.7818608E-02  0.1130116E+00
         25   -1    0    0    0    0  0.00000000000E+00  0.00000000000E+00  0.99999998245E-14  0.12500000000E+03  0.12500000000E+03 0.  0.
        -11    1    3    3    0    0  0.43036286294E+01 -0.36127353640E+02 -0.10227402887E+02  0.37792944718E+02  0.51100000000E-03 0.  1.
         23    2    1    0    0    0 -0.22292915470E+02  0.12074071576E+02  0.11733470978E+02  0.97063793641E+02  0.92956701803E+02 0.  0.
         11    1    3    3    0    0 -0.26596544099E+02  0.48201425216E+02  0.21960873865E+02  0.59270848923E+02  0.51100000000E-03 0. -1.
         22    1    1    0    0    0  0.22292915470E+02 -0.12074071576E+02 -0.11733470978E+02  0.27936206359E+02  0.00000000000E+00 0. -1.
</event>
<event>
 5    1  0.1626333E-003  0.9118800E+02  0.7818608E-02  0.1130116E+00
         25   -1    0    0    0    0  0.00000000000E+00  0.00000000000E+00  0.99999998245E-14  0.12500000000E+03  0.12500000000E+03 0.  0.
        -11    1    3    3    0    0 -0.88795833094E+01 -0.87278724653E+01  0.54779382414E+02  0.56176538656E+02  0.51100000000E-03 0. -1.
         23    2    1    0    0    0  0.13022594553E+02 -0.13865954343E+02  0.22257297641E+02  0.95721339562E+02  0.91133610104E+02 0.  0.
         11    1    3    3    0    0  0.21902177863E+02 -0.51380818777E+01 -0.32522084772E+02  0.39544800906E+02  0.51100000000E-03 0.  1.
         22    1    1    0    0    0 -0.13022594553E+02  0.13865954343E+02 -0.22257297641E+02  0.29278660438E+02  0.00000000000E+00 0. -1.
</event>
<event>
 5    1  0.1626333E-003  0.9118800E+02  0.7818608E-02  0.1130116E+00
         25   -1    0    0    0    0  0.00000000000E+00  0.00000000000E+00  0.99999998245E-14  0.12500000000E+03  0.12500000000E+03 0.  0.
        -11    1    3    3    0    0 -0.32546079087E+02 -0.27117679883E+01  0.78632903959E+00  0.32668322014E+02  0.51100000000E-03 0.  1.
         23    2    1    0    0    0  0.29321873848E+02 -0.20261001558E-01  0.68428142061E+01  0.94890254024E+02  0.89986462904E+02 0.  0.
         11    1    3    3    0    0  0.61867952935E+02  0.26915069867E+01  0.60564851665E+01  0.62221932010E+02  0.51100000000E-03 0. -1.
         22    1    1    0    0    0 -0.29321873848E+02  0.20261001558E-01 -0.68428142061E+01  0.30109745976E+02  0.00000000000E+00 0. -1.
</event>
<event>
 5    1  0.1626333E-003  0.9118800E+02  0.7818608E-02  0.1130116E+00
         25   -1    0    0    0    0  0.00000000000E+00  0.00000000000E+00  0.99999998245E-14  0.12500000000E+03  0.12500000000E+03 0.  0.
        -11    1    3    3    0    0  0.28704878627E+02  0.13159559496E+02 -0.98832848290E+01  0.33088115425E+02  0.51100000000E-03 0. -1.
         23    2    1    0    0    0  0.32435324363E+02 -0.28288700610E+02  0.12288431655E+02  0.80241689026E+02  0.66598965881E+02 0.  0.
         11    1    3    3    0    0  0.37304457358E+01 -0.41448260106E+02  0.22171716484E+02  0.47153573600E+02  0.51100000000E-03 0.  1.
         22    1    1    0    0    0 -0.32435324363E+02  0.28288700610E+02 -0.12288431655E+02  0.44758310974E+02  0.00000000000E+00 0.  1.
</event>
<event>
 5    1  0.1626333E-003  0.9118800E+02  0.7818608E-02  0.1130116E+00
         25   -1    0    0    0    0  0.00000000000E+00  0.00000000000E+00  0.99999998245E-14  0.12500000000E+03  0.12500000000E+03 0.  0.
        -11    1    3    3    0    0  0.23713737051E+02 -0.47923624113E+02 -0.18469071213E+02  0.56569617860E+02  0.51100000000E-03 0.  1.
         23    2    1    0    0    0  0.23493637143E+02 -0.83976530524E+01 -0.14113211735E+02  0.96335486948E+02  0.91972124783E+02 0.  0.
         11    1    3    3    0    0 -0.22009990781E+00  0.39525971061E+02  0.43558594781E+01  0.39765869088E+02  0.51100000000E-03 0. -1.
         22    1    1    0    0    0 -0.23493637143E+02  0.83976530524E+01  0.14113211735E+02  0.28664513052E+02  0.00000000000E+00 0.  1.
</event>
<event>
 5    1  0.1626333E-003  0.9118800E+02  0.7818608E-02  0.1130116E+00
         25   -1    0    0    0    0  0.00000000000E+00  0.00000000000E+00  0.99999998245E-14  0.12500000000E+03  0.12500000000E+03 0.  0.
        -11    1    3    3    0    0 -0.37042064726E+02  0.12478832263E+02 -0.33303451895E+01  0.39229160240E+02  0.51100000000E-03 0. -1.
         23    2    1    0    0    0  0.31312446418E+01 -0.24397012026E+02 -0.16566238519E+02  0.95344323521E+02  0.90615014651E+02 0.  0.
         11    1    3    3    0    0  0.40173309367E+02 -0.36875844289E+02 -0.13235893329E+02  0.56115163281E+02  0.51100000000E-03 0.  1.
         22    1    1    0    0    0 -0.31312446418E+01  0.24397012026E+02  0.16566238519E+02  0.29655676479E+02  0.00000000000E+00 0.  1.
</event>
<event>
 5    1  0.1626333E-003  0.9118800E+02  0.7818608E-02  0.1130116E+00
         25   -1    0    0    0    0  0.00000000000E+00  0.00000000000E+00  0.99999998245E-14  0.12500000000E+03  0.12500000000E+03 0.  0.
        -11    1    3    3    0    0 -0.17016547986E+02 -0.21018478147E+02 -0.56067886366E+02  0.62249073975E+02  0.51100000000E-03 0.  1.
         23    2    1    0    0    0 -0.12315106284E+02 -0.10099861959E+02 -0.27022315656E+02  0.93633224619E+02  0.88223047753E+02 0.  0.
         11    1    3    3    0    0  0.47014417018E+01  0.10918616189E+02  0.29045570710E+02  0.31384150644E+02  0.51100000000E-03 0. -1.
         22    1    1    0    0    0  0.12315106284E+02  0.10099861959E+02  0.27022315656E+02  0.31366775381E+02  0.00000000000E+00 0.  1.
</event>
<event>
 5    1  0.1626333E-003  0.9118800E+02  0.7818608E-02  0.1130116E+00
         25   -1    0    0    0    0  0.00000000000E+00  0.00000000000E+00  0.99999998245E-14  0.12500000000E+03  0.12500000000E+03 0.  0.
        -11    1    3    3    0    0 -0.35081194340E+02  0.91482483405E+01 -0.16361083057E+02  0.39775189290E+02  0.51100000000E-03 0.  1.
         23    2    1    0    0    0  0.17242397526E+02  0.23228039290E+02 -0.11748151543E+01  0.96047931467E+02  0.91580472082E+02 0.  0.
         11    1    3    3    0    0  0.52323591866E+02  0.14079790949E+02  0.15186267903E+02  0.56272742176E+02  0.51100000000E-03 0. -1.
         22    1    1    0    0    0 -0.17242397526E+02 -0.23228039290E+02  0.11748151543E+01  0.28952068533E+02  0.00000000000E+00 0. -1.
</event>
<event>
 5    1  0.1626333E-003  0.9118800E+02  0.7818608E-02  0.1130116E+00
         25   -1    0    0    0    0  0.00000000000E+00  0.00000000000E+00  0.99999998245E-14  0.12500000000E+03  0.12500000000E+03 0.  0.
        -11    1    3    3    0    0  0.23073588002E+02 -0.33917649546E+02 -0.35600271530E+02  0.54315529522E+02  0.51100000000E-03 0.  1.
         23    2    1    0    0    0  0.25388420417E+02  0.16083187623E+01 -0.15820700717E+02  0.95042477544E+02  0.90197668407E+02 0.  0.
         11    1    3    3    0    0  0.23148324150E+01  0.35525968308E+02  0.19779570814E+02  0.40726948022E+02  0.51100000000E-03 0. -1.
         22    1    1    0    0    0 -0.25388420417E+02 -0.16083187623E+01  0.15820700717E+02  0.29957522456E+02  0.00000000000E+00 0.  1.
</event>
<event>
 5    1  0.1626333E-003  0.9118800E+02  0.7818608E-02  0.1130116E+00
         25   -1    0    0    0    0  0.00000000000E+00  0.00000000000E+00  0.99999998245E-14  0.12500000000E+03  0.12500000000E+03 0.  0.
        -11    1    3    3    0    0 -0.11123827520E+02 -0.78642609699E+01 -0.52795809334E+02  0.54525073340E+02  0.51100000000E-03 0. -1.
         23    2    1    0    0    0  0.12196786690E+02 -0.17417019667E+02 -0.20785279890E+02  0.95265473944E+02  0.90506179270E+02 0.  0.
         11    1    3    3    0    0  0.23320614210E+02 -0.95527586974E+01  0.32010529443E+02  0.40740400604E+02  0.51100000000E-03 0.  1.
         22    1    1    0    0    0 -0.12196786690E+02  0.17417019667E+02  0.20785279890E+02  0.29734526056E+02  0.00000000000E+00 0. -1.
</event>
<event>
 5    1  0.1626333E-003  0.9118800E+02  0.7818608E-02  0.1130116E+00
         25   -1    0    0    0    0  0.00000000000E+00  0.00000000000E+00  0.99999998245E-14  0.12500000000E+03  0.12500000000E+03 0.  0.
        -11    1    3    3    0    0 -0.29490956437E+02 -0.44951175837E+01  0.20497065763E+02  0.36194644615E+02  0.51100000000E-03 0.  1.
         23    2    1    0    0    0  0.11340425556E+01  0.74657824355E+01 -0.28675925710E+02  0.95346455942E+02  0.90617956198E+02 0.  0.
         11    1    3    3    0    0  0.30624998993E+02  0.11960900019E+02 -0.49172991473E+02  0.59151811327E+02  0.51100000000E-03 0. -1.
         22    1    1    0    0    0 -0.11340425556E+01 -0.74657824355E+01  0.28675925710E+02  0.29653544058E+02  0.00000000000E+00 0. -1.
</event>
<event>
 5    1  0.1626333E-003  0.9118800E+02  0.7818608E-02  0.1130116E+00
         25   -1    0    0    0    0  0.00000000000E+00  0.00000000000E+00  0.99999998245E-14  0.12500000000E+03  0.12500000000E+03 0.  0.
        -11    1    3    3    0    0  0.20508236484E+02 -0.21286534864E+02 -0.17494044223E+02  0.34347429507E+02  0.51100000000E-03 0. -1.
         23    2    1    0    0    0 -0.37674534592E+01  0.98271826254E+01  0.28303965346E+02  0.94802621335E+02  0.89864650079E+02 0.  0.
         11    1    3    3    0    0 -0.24275689943E+02  0.31113717489E+02  0.45798009569E+02  0.60455191828E+02  0.51100000000E-03 0.  1.
         22    1    1    0    0    0  0.37674534592E+01 -0.98271826254E+01 -0.28303965346E+02  0.30197378665E+02  0.00000000000E+00 0.  1.
</event>
<event>
 5    1  0.1626333E-003  0.9118800E+02  0.7818608E-02  0.1130116E+00
         25   -1    0    0    0    0  0.00000000000E+00  0.00000000000E+00  0.99999998245E-14  0.12500000000E+03  0.12500000000E+03 0.  0.
        -11    1    3    3    0    0  0.30393459840E+02  0.21945943781E+02 -0.26750038803E+02  0.46053788397E+02  0.51100000000E-03 0. -1.
         23    2    1    0    0    0  0.24749574217E+02 -0.81877930109E+01  0.12688946076E+02  0.96007057224E+02  0.91524665014E+02 0.  0.
         11    1    3    3    0    0 -0.56438856235E+01 -0.30133736792E+02  0.39438984879E+02  0.49953268827E+02  0.51100000000E-03 0.  1.
         22    1    1    0    0    0 -0.24749574217E+02  0.81877930109E+01 -0.12688946076E+02  0.28992942776E+02  0.00000000000E+00 0. -1.
</event>
<event>
 5    1  0.1626333E-003  0.9118800E+02  0.7818608E-02  0.1130116E+00
         25   -1    0    0    0    0  0.00000000000E+00  0.00000000000E+00  0.99999998245E-14  0.12500000000E+03  0.12500000000E+03 0.  0.
        -11    1    3    3    0    0  0.53018584018E+02  0.31201549361E+02  0.61749997885E+01  0.61827482210E+02  0.51100000000E-03 0.  1.
         23    2    1    0    0    0  0.29229322321E+02  0.10135895889E+02  0.81222492899E+00  0.94052473796E+02  0.88815080076E+02 0.  0.
         11    1    3    3    0    0 -0.23789261697E+02 -0.21065653472E+02 -0.53627748595E+01  0.32224991586E+02  0.51100000000E-03 0. -1.
         22    1    1    0    0    0 -0.29229322321E+02 -0.10135895889E+02 -0.81222492899E+00  0.30947526204E+02  0.00000000000E+00 0.  1.
</event>
<event>
 5    1  0.1626333E-003  0.9118800E+02  0.7818608E-02  0.1130116E+00
         25   -1    0    0    0    0  0.00000000000E+00  0.00000000000E+00  0.99999998245E-14  0.12500000000E+03  0.12500000000E+03 0.  0.
        -11    1    3    3    0    0  0.50503170421E+02  0.16036129365E+02  0.19517135384E+01  0.53023927180E+02  0.51100000000E-03 0.  1.
         23    2    1    0    0    0  0.16858026870E+02  0.11756455295E+02 -0.22265630509E+02  0.94698752286E+02  0.89720053898E+02 0.  0.
         11    1    3    3    0    0 -0.33645143551E+02 -0.42796740697E+01 -0.24217344047E+02  0.41674825106E+02  0.51100000000E-03 0. -1.
         22    1    1    0    0    0 -0.16858026870E+02 -0.11756455295E+02  0.22265630509E+02  0.30301247714E+02  0.00000000000E+00 0. -1.
</event>
<event>
 5    1  0.1626333E-003  0.9118800E+02  0.7818608E-02  0.1130116E+00
         25   -1    0    0    0    0  0.00000000000E+00  0.00000000000E+00  0.99999998245E-14  0.12500000000E+03  0.12500000000E+03 0.  0.
        -11    1    3    3    0    0  0.42758099184E+02  0.32285754539E+02  0.23863190948E+02  0.58652168540E+02  0.51100000000E-03 0. -1.
         23    2    1    0    0    0  0.24509413396E+02  0.82571589301E+00  0.15557641526E+02  0.95958075794E+02  0.91457744060E+02 0.  0.
         11    1    3    3    0    0 -0.18248685788E+02 -0.31460038646E+02 -0.83055494215E+01  0.37305907254E+02  0.51100000000E-03 0.  1.
         22    1    1    0    0    0 -0.24509413396E+02 -0.82571589301E+00 -0.15557641526E+02  0.29041924206E+02  0.00000000000E+00 0. -1.
</event>
<event>
 5    1  0.1626333E-003  0.9118800E+02  0.7818608E-02  0.1130116E+00
         25   -1    0    0    0    0  0.00000000000E+00  0.00000000000E+00  0.99999998245E-14  0.12500000000E+03  0.12500000000E+03 0.  0.
        -11    1    3    3    0    0  0.30757710005E+01  0.37932509237E+02  0.59532795784E+01  0.38519828171E+02  0.51100000000E-03 0.  1.
         23    2    1    0    0    0 -0.14297651075E+02 -0.10437600782E+01 -0.28323962833E+02  0.93254777809E+02  0.87685200874E+02 0.  0.
         11    1    3    3    0    0 -0.17373422076E+02 -0.38976269316E+02 -0.34277242411E+02  0.54734949639E+02  0.51100000000E-03 0. -1.
         22    1    1    0    0    0  0.14297651075E+02  0.10437600782E+01  0.28323962833E+02  0.31745222191E+02  0.00000000000E+00 0. -1.
</event>
<event>
 5    1  0.1626333E-003  0.9118800E+02  0.7818608E-02  0.1130116E+00
         25   -1    0    0    0    0  0.00000000000E+00  0.00000000000E+00  0.99999998245E-14  0.12500000000E+03  0.12500000000E+03 0.  0.
        -11    1    3    3    0    0  0.14546458433E+02 -0.31579080902E+02  0.23624181794E+02  0.42034982684E+02  0.51100000000E-03 0.  1.
         23    2    1    0    0    0  0.33073163621E+02  0.89088530899E+01  0.46535575303E+01  0.90433290394E+02  0.83566276683E+02 0.  0.
         11    1    3    3    0    0  0.18526705188E+02  0.40487933991E+02 -0.18970624264E+02  0.48398307711E+02  0.51100000000E-03 0. -1.
         22    1    1    0    0    0 -0.33073163621E+02 -0.89088530899E+01 -0.46535575303E+01  0.34566709606E+02  0.00000000000E+00 0.  1.
</event>
<event>
 5    1  0.1626333E-003  0.9118800E+02  0.7818608E-02  0.1130116E+00
         25   -1    0    0    0    0  0.00000000000E+00  0.00000000000E+00  0.99999998245E-14  0.12500000000E+03  0.12500000000E+03 0.  0.
        -11    1    3    3    0    0  0.36736996594E+02 -0.19813098302E+02  0.28147799970E+02  0.50343464586E+02  0.51100000000E-03 0. -1.
         23    2    1    0    0    0  0.22913246475E+02  0.17822021362E+02  0.10831008026E+02  0.94016907121E+02  0.88765008761E+02 0.  0.
         11    1    3    3    0    0 -0.13823750119E+02  0.37635119664E+02 -0.17316791944E+02  0.43673442536E+02  0.51100000000E-03 0.  1.
         22    1    1    0    0    0 -0.22913246475E+02 -0.17822021362E+02 -0.10831008026E+02  0.30983092879E+02  0.00000000000E+00 0.  1.
</event>
<event>
 5    1  0.1626333E-003  0.9118800E+02  0.7818608E-02  0.1130116E+00
         25   -1    0    0    0    0  0.00000000000E+00  0.00000000000E+00  0.99999998245E-14  0.12500000000E+03  0.12500000000E+03 0.  0.
        -11    1    3    3    0    0 -0.15603882882E+02  0.15096540911E+02  0.29455894889E+02  0.36592847012E+02  0.51100000000E-03 0. -1.
         23    2    1    0    0    0  0.44934097743E+01 -0.27517875092E+02 -0.71011268276E+01  0.96227614224E+02  0.91825397119E+02 0.  0.
         11    1    3    3    0    0  0.20097292656E+02 -0.42614416003E+02 -0.36557021717E+02  0.59634767212E+02  0.51100000000E-03 0.  1.
         22    1    1    0    0    0 -0.44934097743E+01  0.27517875092E+02  0.71011268276E+01  0.28772385776E+02  0.00000000000E+00 0.  1.
</event>
<event>
 5    1  0.1626333E-003  0.9118800E+02  0.7818608E-02  0.1130116E+00
         25   -1    0    0    0    0  0.00000000000E+00  0.00000000000E+00  0.99999998245E-14  0.12500000000E+03  0.12500000000E+03 0.  0.
        -11    1    3    3    0    0  0.40769094694E+02 -0.23163334907E+02 -0.27201176002E+02  0.54208515404E+02  0.51100000000E-03 0. -1.
         23    2    1    0    0    0  0.77950834187E+01 -0.29894164758E+02 -0.74855588165E+01  0.93212297930E+02  0.87624622581E+02 0.  0.
         11    1    3    3    0    0 -0.32974011275E+02 -0.67308298507E+01  0.19715617186E+02  0.39003782526E+02  0.51100000000E-03 0.  1.
         22    1    1    0    0    0 -0.77950834187E+01  0.29894164758E+02  0.74855588165E+01  0.31787702070E+02  0.00000000000E+00 0. -1.
</event>
<event>
 5    1  0.1626333E-003  0.9118800E+02  0.7818608E-02  0.1130116E+00
         25   -1    0    0    0    0  0.00000000000E+00  0.00000000000E+00  0.99999998245E-14  0.12500000000E+03  0.12500000000E+03 0.  0.
        -11    1    3    3    0    0 -0.26385090620E+02  0.25427078882E+02 -0.47982827322E+02  0.60374341119E+02  0.51100000000E-03 0.  1.
         23    2    1    0    0    0 -0.67475750583E+01  0.33230638176E+01 -0.27867545540E+02  0.96135270368E+02  0.91699605191E+02 0.  0.
         11    1    3    3    0    0  0.19637515561E+02 -0.22104015064E+02  0.20115281782E+02  0.35760929250E+02  0.51100000000E-03 0. -1.
         22    1    1    0    0    0  0.67475750583E+01 -0.33230638176E+01  0.27867545540E+02  0.28864729632E+02  0.00000000000E+00 0.  1.
</event>
<event>
 5    1  0.1626333E-003  0.9118800E+02  0.7818608E-02  0.1130116E+00
         25   -1    0    0    0    0  0.00000000000E+00  0.00000000000E+00  0.99999998245E-14  0.12500000000E+03  0.12500000000E+03 0.  0.
        -11    1    3    3    0    0  0.12819903260E+02 -0.51437671096E+02  0.18603867867E+02  0.56180849292E+02  0.51100000000E-03 0. -1.
         23    2    1    0    0    0  0.23721113536E+02 -0.14793520834E+02  0.94181520613E+01  0.95500151283E+02  0.90829718819E+02 0.  0.
         11    1    3    3    0    0  0.10901210276E+02  0.36644150262E+02 -0.91857158054E+01  0.39319301991E+02  0.51100000000E-03 0.  1.
         22    1    1    0    0    0 -0.23721113536E+02  0.14793520834E+02 -0.94181520613E+01  0.29499848717E+02  0.00000000000E+00 0. -1.
</event>
<event>
 5    1  0.1626333E-003  0.9118800E+02  0.7818608E-02  0.1130116E+00
         25   -1    0    0    0    0  0.00000000000E+00  0.00000000000E+00  0.99999998245E-14  0.12500000000E+03  0.12500000000E+03 0.  0.
        -11    1    3    3    0    0  0.38066107848E+00 -0.51288897050E+02  0.17433640022E+02  0.54172203833E+02  0.51100000000E-03 0. -1.
         23    2    1    0    0    0  0.21496905420E+02 -0.20972382356E+02  0.13521804848E+00  0.94967083921E+02  0.90093123934E+02 0.  0.
         11    1    3    3    0    0  0.21116244341E+02  0.30316514694E+02 -0.17298421974E+02  0.40794880087E+02  0.51100000000E-03 0.  1.
         22    1    1    0    0    0 -0.21496905420E+02  0.20972382356E+02 -0.13521804848E+00  0.30032916079E+02  0.00000000000E+00 0. -1.
</event>
<event>
 5    1  0.1626333E-003  0.9118800E+02  0.7818608E-02  0.1130116E+00
         25   -1    0    0    0    0  0.00000000000E+00  0.00000000000E+00  0.99999998245E-14  0.12500000000E+03  0.12500000000E+03 0.  0.
        -11    1    3    3    0    0 -0.20262333615E+02  0.17712019373E+02 -0.35216029728E+02  0.44322077386E+02  0.51100000000E-03 0.  1.
         23    2    1    0    0    0 -0.35033908122E+01  0.24342937363E+02  0.13976483277E+02  0.96712291867E+02  0.92482825252E+02 0.  0.
         11    1    3    3    0    0  0.16758942802E+02  0.66309179895E+01  0.49192513005E+02  0.52390214480E+02  0.51100000000E-03 0. -1.
         22    1    1    0    0    0  0.35033908122E+01 -0.24342937363E+02 -0.13976483277E+02  0.28287708133E+02  0.00000000000E+00 0. -1.
</event>
<event>
 5    1  0.1626333E-003  0.9118800E+02  0.7818608E-02  0.1130116E+00
         25   -1    0    0    0    0  0.00000000000E+00  0.00000000000E+00  0.99999998245E-14  0.12500000000E+03  0.12500000000E+03 0.  0.
        -11    1    3    3    0    0 -0.34022344217E+02 -0.12375864666E+02 -0.41634883084E+01  0.36441961629E+02  0.51100000000E-03 0. -1.
         23    2    1    0    0    0  0.24079184061E+02  0.71292932204E+01 -0.99186596690E+01  0.97999745622E+02  0.94206880881E+02 0.  0.
         11    1    3    3    0    0  0.58101528278E+02  0.19505157886E+02 -0.57551713605E+01  0.61557783992E+02  0.51100000000E-03 0.  1.
         22    1    1    0    0    0 -0.24079184061E+02 -0.71292932204E+01  0.99186596690E+01  0.27000254378E+02  0.00000000000E+00 0.  1.
</event>
<event>
 5    1  0.1626333E-003  0.9118800E+02  0.7818608E-02  0.1130116E+00
         25   -1    0    0    0    0  0.00000000000E+00  0.00000000000E+00  0.99999998245E-14  0.12500000000E+03  0.12500000000E+03 0.  0.
        -11    1    3    3    0    0  0.58043983791E-01 -0.34975941857E+02  0.33189791272E+02  0.48217031460E+02  0.51100000000E-03 0. -1.
         23    2    1    0    0    0  0.26741207752E+02 -0.40560083203E+01  0.59587553773E+01  0.97304329559E+02  0.93279592569E+02 0.  0.
         11    1    3    3    0    0  0.26683163768E+02  0.30919933536E+02 -0.27231035894E+02  0.49087298099E+02  0.51100000000E-03 0.  1.
         22    1    1    0    0    0 -0.26741207752E+02  0.40560083203E+01 -0.59587553773E+01  0.27695670441E+02  0.00000000000E+00 0. -1.
</event>
<event>
 5    1  0.1626333E-003  0.9118800E+02  0.7818608E-02  0.1130116E+00
         25   -1    0    0    0    0  0.00000000000E+00  0.00000000000E+00  0.99999998245E-14  0.12500000000E+03  0.12500000000E+03 0.  0.
        -11    1    3    3    0    0  0.10811840981E+02 -0.32600269101E+02 -0.45359479613E+02  0.56896009015E+02  0.51100000000E-03 0.  1.
         23    2    1    0    0    0  0.12699485773E+01 -0.77425526749E+01 -0.40230322250E+02  0.84011724608E+02  0.73334379059E+02 0.  0.
         11    1    3    3    0    0 -0.95418924038E+01  0.24857716426E+02  0.51291573632E+01  0.27115715592E+02  0.51100000000E-03 0. -1.
         22    1    1    0    0    0 -0.12699485773E+01  0.77425526749E+01  0.40230322250E+02  0.40988275392E+02  0.00000000000E+00 0.  1.
</event>
<event>
 5    1  0.1626333E-003  0.9118800E+02  0.7818608E-02  0.1130116E+00
         25   -1    0    0    0    0  0.00000000000E+00  0.00000000000E+00  0.99999998245E-14  0.12500000000E+03  0.12500000000E+03 0.  0.
        -11    1    3    3    0    0 -0.15520296979E+01 -0.24620007969E+02  0.23185913708E+02  0.33854692191E+02  0.51100000000E-03 0. -1.
         23    2    1    0    0    0  0.27939048627E+01  0.65463861957E+01 -0.29188877684E+02  0.94955838220E+02  0.90077519698E+02 0.  0.
         11    1    3    3    0    0  0.43459345606E+01  0.31166394165E+02 -0.52374791392E+02  0.61101146029E+02  0.51100000000E-03 0.  1.
         22    1    1    0    0    0 -0.27939048627E+01 -0.65463861957E+01  0.29188877684E+02  0.30044161780E+02  0.00000000000E+00 0.  1.
</event>
<event>
 5    1  0.1626333E-003  0.9118800E+02  0.7818608E-02  0.1130116E+00
         25   -1    0    0    0    0  0.00000000000E+00  0.00000000000E+00  0.99999998245E-14  0.12500000000E+03  0.12500000000E+03 0.  0.
        -11    1    3    3    0    0 -0.89557225383E+01  0.50360337247E+02  0.23465753019E+02  0.56276194779E+02  0.51100000000E-03 0.  1.
         23    2    1    0    0    0  0.15347718563E+02  0.21547145185E+02  0.13669931616E+02  0.95222509154E+02  0.90446820223E+02 0.  0.
         11    1    3    3    0    0  0.24303441101E+02 -0.28813192062E+02 -0.97958214026E+01  0.38946314374E+02  0.51100000000E-03 0. -1.
         22    1    1    0    0    0 -0.15347718563E+02 -0.21547145185E+02 -0.13669931616E+02  0.29777490846E+02  0.00000000000E+00 0.  1.
</event>
<event>
 5    1  0.1626333E-003  0.9118800E+02  0.7818608E-02  0.1130116E+00
         25   -1    0    0    0    0  0.00000000000E+00  0.00000000000E+00  0.99999998245E-14  0.12500000000E+03  0.12500000000E+03 0.  0.
        -11    1    3    3    0    0  0.18965364742E+02 -0.40683481105E+02 -0.37492571789E+02  0.58485242876E+02  0.51100000000E-03 0.  1.
         23    2    1    0    0    0  0.16111862495E+02 -0.23888258929E+02 -0.42023216311E+01  0.95881268317E+02  0.91352707017E+02 0.  0.
         11    1    3    3    0    0 -0.28535022464E+01  0.16795222176E+02  0.33290250158E+02  0.37396025442E+02  0.51100000000E-03 0. -1.
         22    1    1    0    0    0 -0.16111862495E+02  0.23888258929E+02  0.42023216311E+01  0.29118731683E+02  0.00000000000E+00 0.  1.
</event>
<event>
 5    1  0.1626333E-003  0.9118800E+02  0.7818608E-02  0.1130116E+00
         25   -1    0    0    0    0  0.00000000000E+00  0.00000000000E+00  0.99999998245E-14  0.12500000000E+03  0.12500000000E+03 0.  0.
        -11    1    3    3    0    0  0.41604758018E+02  0.92183371815E+01  0.22766908495E+02  0.48314239648E+02  0.51100000000E-03 0.  1.
         23    2    1    0    0    0 -0.38726710968E+01  0.22951240190E+02  0.17018044356E+02  0.96166497935E+02  0.91742163064E+02 0.  0.
         11    1    3    3    0    0 -0.45477429115E+02  0.13732903008E+02 -0.57488641395E+01  0.47852258286E+02  0.51100000000E-03 0. -1.
         22    1    1    0    0    0  0.38726710968E+01 -0.22951240190E+02 -0.17018044356E+02  0.28833502065E+02  0.00000000000E+00 0. -1.
</event>
<event>
 5    1  0.1626333E-003  0.9118800E+02  0.7818608E-02  0.1130116E+00
         25   -1    0    0    0    0  0.00000000000E+00  0.00000000000E+00  0.99999998245E-14  0.12500000000E+03  0.12500000000E+03 0.  0.
        -11    1    3    3    0    0  0.16496367616E+02 -0.35034414354E+02 -0.41606750526E+02  0.56838912932E+02  0.51100000000E-03 0. -1.
         23    2    1    0    0    0  0.21896179170E+02 -0.20589672008E+02 -0.78739330536E+01  0.93929498276E+02  0.88641833064E+02 0.  0.
         11    1    3    3    0    0  0.53998115542E+01  0.14444742346E+02  0.33732817473E+02  0.37090585344E+02  0.51100000000E-03 0.  1.
         22    1    1    0    0    0 -0.21896179170E+02  0.20589672008E+02  0.78739330536E+01  0.31070501724E+02  0.00000000000E+00 0. -1.
</event>
<event>
 5    1  0.1626333E-003  0.9118800E+02  0.7818608E-02  0.1130116E+00
         25   -1    0    0    0    0  0.00000000000E+00  0.00000000000E+00  0.99999998245E-14  0.12500000000E+03  0.12500000000E+03 0.  0.
        -11    1    3    3    0    0  0.31261869407E+02 -0.14341244676E+02  0.72850531546E+01  0.35157471146E+02  0.51100000000E-03 0. -1.
         23    2    1    0    0    0 -0.18718977961E+01  0.96956905576E+01 -0.31767944601E+02  0.91732707941E+02  0.85487876248E+02 0.  0.
         11    1    3    3    0    0 -0.33133767203E+02  0.24036935233E+02 -0.39052997756E+02  0.56575236795E+02  0.51100000000E-03 0.  1.
         22    1    1    0    0    0  0.18718977961E+01 -0.96956905576E+01  0.31767944601E+02  0.33267292059E+02  0.00000000000E+00 0.  1.
</event>
<event>
 5    1  0.1626333E-003  0.9118800E+02  0.7818608E-02  0.1130116E+00
         25   -1    0    0    0    0  0.00000000000E+00  0.00000000000E+00  0.99999998245E-14  0.12500000000E+03  0.12500000000E+03 0.  0.
        -11    1    3    3    0    0 -0.18755039599E+02 -0.21833859561E+02  0.14305876597E+02  0.32142293620E+02  0.51100000000E-03 0.  1.
         23    2    1    0    0    0  0.92491153725E+01  0.15194470923E+02 -0.25915004171E+02  0.93567444854E+02  0.88129797535E+02 0.  0.
         11    1    3    3    0    0  0.28004154972E+02  0.37028330484E+02 -0.40220880768E+02  0.61425151234E+02  0.51100000000E-03 0. -1.
         22    1    1    0    0    0 -0.92491153725E+01 -0.15194470923E+02  0.25915004171E+02  0.31432555146E+02  0.00000000000E+00 0. -1.
</event>
<event>
 5    1  0.1626333E-003  0.9118800E+02  0.7818608E-02  0.1130116E+00
         25   -1    0    0    0    0  0.00000000000E+00  0.00000000000E+00  0.99999998245E-14  0.12500000000E+03  0.12500000000E+03 0.  0.
        -11    1    3    3    0    0 -0.59781759200E+01  0.47595484688E+02 -0.39140561458E+02  0.61911649159E+02  0.51100000000E-03 0. -1.
         23    2    1    0    0    0  0.39282426425E+00  0.18883195785E+02 -0.22201241644E+02  0.95851680589E+02  0.91312212476E+02 0.  0.
         11    1    3    3    0    0  0.63710001842E+01 -0.28712288904E+02  0.16939319814E+02  0.33940031430E+02  0.51100000000E-03 0.  1.
         22    1    1    0    0    0 -0.39282426425E+00 -0.18883195785E+02  0.22201241644E+02  0.29148319411E+02  0.00000000000E+00 0. -1.
</event>
<event>
 5    1  0.1626333E-003  0.9118800E+02  0.7818608E-02  0.1130116E+00
         25   -1    0    0    0    0  0.00000000000E+00  0.00000000000E+00  0.99999998245E-14  0.12500000000E+03  0.12500000000E+03 0.  0.
        -11    1    3    3    0    0  0.18261425700E+02 -0.41264357407E+02 -0.87542813005E+01  0.45965903691E+02  0.51100000000E-03 0.  1.
         23    2    1    0    0    0  0.25322197789E+02  0.51051179773E+01  0.11081468585E+02  0.96891729395E+02  0.92725036256E+02 0.  0.
         11    1    3    3    0    0  0.70607720886E+01  0.46369475384E+02  0.19835749885E+02  0.50925825704E+02  0.51100000000E-03 0. -1.
         22    1    1    0    0    0 -0.25322197789E+02 -0.51051179773E+01 -0.11081468585E+02  0.28108270605E+02  0.00000000000E+00 0. -1.
</event>
<event>
 5    1  0.1626333E-003  0.9118800E+02  0.7818608E-02  0.1130116E+00
         25   -1    0    0    0    0  0.00000000000E+00  0.00000000000E+00  0.99999998245E-14  0.12500000000E+03  0.12500000000E+03 0.  0.
        -11    1    3    3    0    0 -0.42899776346E+02  0.26620065492E+02  0.16681069371E+02  0.53172142828E+02  0.51100000000E-03 0. -1.
         23    2    1    0    0    0 -0.18733843189E+02 -0.84017786990E+01  0.20616324271E+02  0.95903959163E+02  0.91383750146E+02 0.  0.
         11    1    3    3    0    0  0.24165933157E+02 -0.35021844191E+02  0.39352548999E+01  0.42731816334E+02  0.51100000000E-03 0.  1.
         22    1    1    0    0    0  0.18733843189E+02  0.84017786990E+01 -0.20616324271E+02  0.29096040837E+02  0.00000000000E+00 0. -1.
</event>
<event>
 5    1  0.1626333E-003  0.9118800E+02  0.7818608E-02  0.1130116E+00
         25   -1    0    0    0    0  0.00000000000E+00  0.00000000000E+00  0.99999998245E-14  0.12500000000E+03  0.12500000000E+03 0.  0.
        -11    1    3    3    0    0  0.53763014227E+01  0.48082406114E+02 -0.94100516032E+01  0.49288654538E+02  0.51100000000E-03 0. -1.
         23    2    1    0    0    0  0.19576819612E+02  0.12588181072E+02  0.17364264521E+02  0.95961545303E+02  0.91462485893E+02 0.  0.
         11    1    3    3    0    0  0.14200518189E+02 -0.35494225042E+02  0.26774316124E+02  0.46672890765E+02  0.51100000000E-03 0.  1.
         22    1    1    0    0    0 -0.19576819612E+02 -0.12588181072E+02 -0.17364264521E+02  0.29038454697E+02  0.00000000000E+00 0.  1.
</event>
<event>
 5    1  0.1626333E-003  0.9118800E+02  0.7818608E-02  0.1130116E+00
         25   -1    0    0    0    0  0.00000000000E+00  0.00000000000E+00  0.99999998245E-14  0.12500000000E+03  0.12500000000E+03 0.  0.
        -11    1    3    3    0    0  0.78524854439E+01 -0.29489918913E+02 -0.13691223015E+02  0.33447966052E+02  0.51100000000E-03 0.  1.
         23    2    1    0    0    0 -0.14196579565E+02  0.16833276082E+02  0.20349014316E+02  0.95016930800E+02  0.90162257625E+02 0.  0.
         11    1    3    3    0    0 -0.22049065009E+02  0.46323194995E+02  0.34040237331E+02  0.61568964748E+02  0.51100000000E-03 0. -1.
         22    1    1    0    0    0  0.14196579565E+02 -0.16833276082E+02 -0.20349014316E+02  0.29983069200E+02  0.00000000000E+00 0. -1.
</event>
<event>
 5    1  0.1626333E-003  0.9118800E+02  0.7818608E-02  0.1130116E+00
         25   -1    0    0    0    0  0.00000000000E+00  0.00000000000E+00  0.99999998245E-14  0.12500000000E+03  0.12500000000E+03 0.  0.
        -11    1    3    3    0    0 -0.45181183398E+02  0.27803345933E+02 -0.51341409600E+01  0.53298450090E+02  0.51100000000E-03 0.  1.
         23    2    1    0    0    0 -0.45420512554E+01  0.29806517100E+02  0.26801877178E+01  0.94730508801E+02  0.89764286886E+02 0.  0.
         11    1    3    3    0    0  0.40639132143E+02  0.20031711674E+01  0.78143286778E+01  0.41432058711E+02  0.51100000000E-03 0. -1.
         22    1    1    0    0    0  0.45420512554E+01 -0.29806517100E+02 -0.26801877178E+01  0.30269491199E+02  0.00000000000E+00 0.  1.
</event>
<event>
 5    1  0.1626333E-003  0.9118800E+02  0.7818608E-02  0.1130116E+00
         25   -1    0    0    0    0  0.00000000000E+00  0.00000000000E+00  0.99999998245E-14  0.12500000000E+03  0.12500000000E+03 0.  0.
        -11    1    3    3    0    0 -0.43273899566E+02 -0.42364929996E+02 -0.12741072482E+02  0.61884994995E+02  0.51100000000E-03 0. -1.
         23    2    1    0    0    0 -0.17246614377E+02 -0.22820925003E+02 -0.13701887191E+01  0.96362302073E+02  0.92008562200E+02 0.  0.
         11    1    3    3    0    0  0.26027285190E+02  0.19544004994E+02  0.11370883763E+02  0.34477307078E+02  0.51100000000E-03 0.  1.
         22    1    1    0    0    0  0.17246614377E+02  0.22820925003E+02  0.13701887191E+01  0.28637697927E+02  0.00000000000E+00 0. -1.
</event>
<event>
 5    1  0.1626333E-003  0.9118800E+02  0.7818608E-02  0.1130116E+00
         25   -1    0    0    0    0  0.00000000000E+00  0.00000000000E+00  0.99999998245E-14  0.12500000000E+03  0.12500000000E+03 0.  0.
        -11    1    3    3    0    0  0.20636874163E+02 -0.21532708068E+02  0.38873491936E+02  0.48996800584E+02  0.51100000000E-03 0. -1.
         23    2    1    0    0    0 -0.16869089272E+01  0.86157330069E+01  0.37446982820E+02  0.86537641268E+02  0.77520386460E+02 0.  0.
         11    1    3    3    0    0 -0.22323783090E+02  0.30148441075E+02 -0.14265091162E+01  0.37540840683E+02  0.51100000000E-03 0.  1.
         22    1    1    0    0    0  0.16869089272E+01 -0.86157330069E+01 -0.37446982820E+02  0.38462358732E+02  0.00000000000E+00 0. -1.
</event>
<event>
 5    1  0.1626333E-003  0.9118800E+02  0.7818608E-02  0.1130116E+00
         25   -1    0    0    0    0  0.00000000000E+00  0.00000000000E+00  0.99999998245E-14  0.12500000000E+03  0.12500000000E+03 0.  0.
        -11    1    3    3    0    0 -0.16642581641E+02 -0.21687999736E+02 -0.21215514064E+02  0.34604087815E+02  0.51100000000E-03 0. -1.
         23    2    1    0    0    0  0.60585429463E+01  0.97548254918E+01  0.26515941208E+02  0.96104365362E+02  0.91657467456E+02 0.  0.
         11    1    3    3    0    0  0.22701124587E+02  0.31442825228E+02  0.47731455271E+02  0.61500277547E+02  0.51100000000E-03 0.  1.
         22    1    1    0    0    0 -0.60585429463E+01 -0.97548254918E+01 -0.26515941208E+02  0.28895634638E+02  0.00000000000E+00 0.  1.
</event>
<event>
 5    1  0.1626333E-003  0.9118800E+02  0.7818608E-02  0.1130116E+00
         25   -1    0    0    0    0  0.00000000000E+00  0.00000000000E+00  0.99999998245E-14  0.12500000000E+03  0.12500000000E+03 0.  0.
        -11    1    3    3    0    0 -0.39995130834E+02  0.23221023416E+02 -0.25691746867E+01  0.46318755140E+02  0.51100000000E-03 0. -1.
         23    2    1    0    0    0 -0.57945680514E+01  0.62106772868E+01 -0.30307204905E+02  0.93524990859E+02  0.88069561795E+02 0.  0.
         11    1    3    3    0    0  0.34200562783E+02 -0.17010346129E+02 -0.27738030218E+02  0.47206235719E+02  0.51100000000E-03 0.  1.
         22    1    1    0    0    0  0.57945680514E+01 -0.62106772868E+01  0.30307204905E+02  0.31475009141E+02  0.00000000000E+00 0. -1.
</event>
<event>
 5    1  0.1626333E-003  0.9118800E+02  0.7818608E-02  0.1130116E+00
         25   -1    0    0    0    0  0.00000000000E+00  0.00000000000E+00  0.99999998245E-14  0.12500000000E+03  0.12500000000E+03 0.  0.
        -11    1    3    3    0    0  0.52080578519E+02  0.22953206038E+02  0.25745312462E+02  0.62466450518E+02  0.51100000000E-03 0.  1.
         23    2    1    0    0    0  0.25442861854E+02  0.10323753143E+02  0.13729157090E+02  0.94301321646E+02  0.89164625337E+02 0.  0.
         11    1    3    3    0    0 -0.26637716664E+02 -0.12629452895E+02 -0.12016155373E+02  0.31834871128E+02  0.51100000000E-03 0. -1.
         22    1    1    0    0    0 -0.25442861854E+02 -0.10323753143E+02 -0.13729157090E+02  0.30698678354E+02  0.00000000000E+00 0.  1.
</event>
<event>
 5    1  0.1626333E-003  0.9118800E+02  0.7818608E-02  0.1130116E+00
         25   -1    0    0    0    0  0.00000000000E+00  0.00000000000E+00  0.99999998245E-14  0.12500000000E+03  0.12500000000E+03 0.  0.
        -11    1    3    3    0    0  0.53239239409E+01 -0.34262349745E+02  0.46493041433E+02  0.57998755832E+02  0.51100000000E-03 0. -1.
         23    2    1    0    0    0  0.18019942943E+02 -0.27480986515E+02  0.25728530005E+02  0.83264161447E+02  0.72048874812E+02 0.  0.
         11    1    3    3    0    0  0.12696019002E+02  0.67813632297E+01 -0.20764511428E+02  0.25265405614E+02  0.51100000000E-03 0.  1.
         22    1    1    0    0    0 -0.18019942943E+02  0.27480986515E+02 -0.25728530005E+02  0.41735838553E+02  0.00000000000E+00 0. -1.
</event>
<event>
 5    1  0.1626333E-003  0.9118800E+02  0.7818608E-02  0.1130116E+00
         25   -1    0    0    0    0  0.00000000000E+00  0.00000000000E+00  0.99999998245E-14  0.12500000000E+03  0.12500000000E+03 0.  0.
        -11    1    3    3    0    0 -0.21606627343E+02  0.33253722187E+02 -0.33894374613E+02  0.52167854231E+02  0.51100000000E-03 0.  1.
         23    2    1    0    0    0  0.14165645239E+02  0.88790292868E+01 -0.22571235594E+02  0.96911508721E+02  0.92751696374E+02 0.  0.
         11    1    3    3    0    0  0.35772272582E+02 -0.24374692900E+02  0.11323139019E+02  0.44743654490E+02  0.51100000000E-03 0. -1.
         22    1    1    0    0    0 -0.14165645239E+02 -0.88790292868E+01  0.22571235594E+02  0.28088491279E+02  0.00000000000E+00 0.  1.
</event>
<event>
 5    1  0.1626333E-003  0.9118800E+02  0.7818608E-02  0.1130116E+00
         25   -1    0    0    0    0  0.00000000000E+00  0.00000000000E+00  0.99999998245E-14  0.12500000000E+03  0.12500000000E+03 0.  0.
        -11    1    3    3    0    0  0.18331347432E+02 -0.20006547862E+02  0.39880408486E+02  0.48236368409E+02  0.51100000000E-03 0. -1.
         23    2    1    0    0    0 -0.20968647837E+02 -0.15364267833E+02  0.14821671850E+02  0.95076315826E+02  0.90244550840E+02 0.  0.
         11    1    3    3    0    0 -0.39299995268E+02  0.46422800289E+01 -0.25058736636E+02  0.46839947417E+02  0.51100000000E-03 0.  1.
         22    1    1    0    0    0  0.20968647837E+02  0.15364267833E+02 -0.14821671850E+02  0.29923684174E+02  0.00000000000E+00 0. -1.
</event>
<event>
 5    1  0.1626333E-003  0.9118800E+02  0.7818608E-02  0.1130116E+00
         25   -1    0    0    0    0  0.00000000000E+00  0.00000000000E+00  0.99999998245E-14  0.12500000000E+03  0.12500000000E+03 0.  0.
        -11    1    3    3    0    0  0.24346185119E+02 -0.25449212279E+02 -0.10744876505E+02  0.36821888963E+02  0.51100000000E-03 0.  1.
         23    2    1    0    0    0 -0.46200866891E+01  0.77668560406E+01  0.28046123445E+02  0.95533844939E+02  0.90876076251E+02 0.  0.
         11    1    3    3    0    0 -0.28966271809E+02  0.33216068319E+02  0.38790999950E+02  0.58711955976E+02  0.51100000000E-03 0. -1.
         22    1    1    0    0    0  0.46200866891E+01 -0.77668560406E+01 -0.28046123445E+02  0.29466155061E+02  0.00000000000E+00 0. -1.
</event>
<event>
 5    1  0.1626333E-003  0.9118800E+02  0.7818608E-02  0.1130116E+00
         25   -1    0    0    0    0  0.00000000000E+00  0.00000000000E+00  0.99999998245E-14  0.12500000000E+03  0.12500000000E+03 0.  0.
        -11    1    3    3    0    0  0.29142199492E+02 -0.21420432241E+02  0.63884654391E+01  0.36727580911E+02  0.51100000000E-03 0. -1.
         23    2    1    0    0    0 -0.23193279407E+02  0.11084617490E+01  0.18896459879E+02  0.95062847613E+02  0.90225893751E+02 0.  0.
         11    1    3    3    0    0 -0.52335478899E+02  0.22528893990E+02  0.12507994440E+02  0.58335266702E+02  0.51100000000E-03 0.  1.
         22    1    1    0    0    0  0.23193279407E+02 -0.11084617490E+01 -0.18896459879E+02  0.29937152387E+02  0.00000000000E+00 0.  1.
</event>
<event>
 5    1  0.1626333E-003  0.9118800E+02  0.7818608E-02  0.1130116E+00
         25   -1    0    0    0    0  0.00000000000E+00  0.00000000000E+00  0.99999998245E-14  0.12500000000E+03  0.12500000000E+03 0.  0.
        -11    1    3    3    0    0  0.53686493030E+02 -0.98928228935E+01  0.16269306218E+02  0.56963126702E+02  0.51100000000E-03 0.  1.
         23    2    1    0    0    0  0.25995911647E+02 -0.96114913351E+01 -0.10388489977E+02  0.95401200834E+02  0.90693440825E+02 0.  0.
         11    1    3    3    0    0 -0.27690581383E+02  0.28133155847E+00 -0.26657796195E+02  0.38438074132E+02  0.51100000000E-03 0. -1.
         22    1    1    0    0    0 -0.25995911647E+02  0.96114913351E+01  0.10388489977E+02  0.29598799166E+02  0.00000000000E+00 0.  1.
</event>
<event>
 5    1  0.1626333E-003  0.9118800E+02  0.7818608E-02  0.1130116E+00
         25   -1    0    0    0    0  0.00000000000E+00  0.00000000000E+00  0.99999998245E-14  0.12500000000E+03  0.12500000000E+03 0.  0.
        -11    1    3    3    0    0 -0.24686725337E+02 -0.53760848026E+02  0.10389087867E+01  0.59167072938E+02  0.51100000000E-03 0. -1.
         23    2    1    0    0    0  0.61923378609E+00 -0.28023161497E+02  0.78342521541E+01  0.95895764267E+02  0.91372540004E+02 0.  0.
         11    1    3    3    0    0  0.25305959123E+02  0.25737686529E+02  0.67953433674E+01  0.36728691329E+02  0.51100000000E-03 0.  1.
         22    1    1    0    0    0 -0.61923378609E+00  0.28023161497E+02 -0.78342521541E+01  0.29104235733E+02  0.00000000000E+00 0. -1.
</event>
<event>
 5    1  0.1626333E-003  0.9118800E+02  0.7818608E-02  0.1130116E+00
         25   -1    0    0    0    0  0.00000000000E+00  0.00000000000E+00  0.99999998245E-14  0.12500000000E+03  0.12500000000E+03 0.  0.
        -11    1    3    3    0    0  0.15931602457E+02 -0.11639521275E+02  0.30622930993E+02  0.36428811609E+02  0.51100000000E-03 0.  1.
         23    2    1    0    0    0 -0.15713136073E+02  0.24196629362E+02 -0.45644593123E+01  0.95790176198E+02  0.91227978436E+02 0.  0.
         11    1    3    3    0    0 -0.31644738530E+02  0.35836150637E+02 -0.35187390306E+02  0.59361364589E+02  0.51100000000E-03 0. -1.
         22    1    1    0    0    0  0.15713136073E+02 -0.24196629362E+02  0.45644593123E+01  0.29209823802E+02  0.00000000000E+00 0. -1.
</event>
<event>
 5    1  0.1626333E-003  0.9118800E+02  0.7818608E-02  0.1130116E+00
         25   -1    0    0    0    0  0.00000000000E+00  0.00000000000E+00  0.99999998245E-14  0.12500000000E+03  0.12500000000E+03 0.  0.
        -11    1    3    3    0    0 -0.67132630973E+01 -0.35235164857E+02 -0.35120604657E+01  0.36040523205E+02  0.51100000000E-03 0.  1.
         23    2    1    0    0    0 -0.12778106018E+02  0.23569426448E+02  0.94709974886E+01  0.96565906909E+02  0.92284758910E+02 0.  0.
         11    1    3    3    0    0 -0.60648429204E+01  0.58804591306E+02  0.12983057954E+02  0.60525383703E+02  0.51100000000E-03 0. -1.
         22    1    1    0    0    0  0.12778106018E+02 -0.23569426448E+02 -0.94709974886E+01  0.28434093091E+02  0.00000000000E+00 0. -1.
</event>
<event>
 5    1  0.1626333E-003  0.9118800E+02  0.7818608E-02  0.1130116E+00
         25   -1    0    0    0    0  0.00000000000E+00  0.00000000000E+00  0.99999998245E-14  0.12500000000E+03  0.12500000000E+03 0.  0.
        -11    1    3    3    0    0  0.36417048875E+02 -0.32872952185E+02 -0.29350052408E+02  0.57168680330E+02  0.51100000000E-03 0. -1.
         23    2    1    0    0    0  0.20475057700E+02 -0.19657353994E+02  0.39100234098E+01  0.96348161718E+02  0.91989349544E+02 0.  0.
         11    1    3    3    0    0 -0.15941991175E+02  0.13215598190E+02  0.33260075817E+02  0.39179481388E+02  0.51100000000E-03 0.  1.
         22    1    1    0    0    0 -0.20475057700E+02  0.19657353994E+02 -0.39100234098E+01  0.28651838282E+02  0.00000000000E+00 0. -1.
</event>
<event>
 5    1  0.1626333E-003  0.9118800E+02  0.7818608E-02  0.1130116E+00
         25   -1    0    0    0    0  0.00000000000E+00  0.00000000000E+00  0.99999998245E-14  0.12500000000E+03  0.12500000000E+03 0.  0.
        -11    1    3    3    0    0 -0.32452121598E+02 -0.12481125917E+02 -0.24366435273E+01  0.34854783492E+02  0.51100000000E-03 0.  1.
         23    2    1    0    0    0  0.27571131337E+02 -0.97643895553E+01 -0.63598692202E+01  0.95067433737E+02  0.90232247197E+02 0.  0.
         11    1    3    3    0    0  0.60023252935E+02  0.27167363614E+01 -0.39232256929E+01  0.60212650245E+02  0.51100000000E-03 0. -1.
         22    1    1    0    0    0 -0.27571131337E+02  0.97643895553E+01  0.63598692202E+01  0.29932566263E+02  0.00000000000E+00 0. -1.
</event>
<event>
 5    1  0.1626333E-003  0.9118800E+02  0.7818608E-02  0.1130116E+00
         25   -1    0    0    0    0  0.00000000000E+00  0.00000000000E+00  0.99999998245E-14  0.12500000000E+03  0.12500000000E+03 0.  0.
        -11    1    3    3    0    0 -0.46257999543E+02  0.14298214550E+02 -0.37545948174E+02  0.61269402524E+02  0.51100000000E-03 0. -1.
         23    2    1    0    0    0 -0.17939590949E+02  0.48545938776E+01 -0.25468572823E+02  0.93471533389E+02  0.87993655154E+02 0.  0.
         11    1    3    3    0    0  0.28318408594E+02 -0.94436206727E+01  0.12077375350E+02  0.32202130866E+02  0.51100000000E-03 0.  1.
         22    1    1    0    0    0  0.17939590949E+02 -0.48545938776E+01  0.25468572823E+02  0.31528466611E+02  0.00000000000E+00 0. -1.
</event>
<event>
 5    1  0.1626333E-003  0.9118800E+02  0.7818608E-02  0.1130116E+00
         25   -1    0    0    0    0  0.00000000000E+00  0.00000000000E+00  0.99999998245E-14  0.12500000000E+03  0.12500000000E+03 0.  0.
        -11    1    3    3    0    0  0.20798554525E+02 -0.27869009874E+02  0.37942969333E+00  0.34776508578E+02  0.51100000000E-03 0.  1.
         23    2    1    0    0    0 -0.10020349212E+02  0.22253679538E+02 -0.15955781613E+02  0.95841457200E+02  0.91298216302E+02 0.  0.
         11    1    3    3    0    0 -0.30818903737E+02  0.50122689413E+02 -0.16335211306E+02  0.61064948622E+02  0.51100000000E-03 0. -1.
         22    1    1    0    0    0  0.10020349212E+02 -0.22253679538E+02  0.15955781613E+02  0.29158542800E+02  0.00000000000E+00 0. -1.
</event>
<event>
 5    1  0.1626333E-003  0.9118800E+02  0.7818608E-02  0.1130116E+00
         25   -1    0    0    0    0  0.00000000000E+00  0.00000000000E+00  0.99999998245E-14  0.12500000000E+03  0.12500000000E+03 0.  0.
        -11    1    3    3    0    0  0.10176367014E+01  0.38789446216E+02 -0.15520346972E+02  0.41791600742E+02  0.51100000000E-03 0. -1.
         23    2    1    0    0    0 -0.22838372795E+02 -0.81454690113E+01 -0.18462848727E+02  0.94523505443E+02  0.89475562925E+02 0.  0.
         11    1    3    3    0    0 -0.23856009497E+02 -0.46934915228E+02 -0.29425017552E+01  0.52731904701E+02  0.51100000000E-03 0.  1.
         22    1    1    0    0    0  0.22838372795E+02  0.81454690113E+01  0.18462848727E+02  0.30476494557E+02  0.00000000000E+00 0.  1.
</event>
<event>
 5    1  0.1626333E-003  0.9118800E+02  0.7818608E-02  0.1130116E+00
         25   -1    0    0    0    0  0.00000000000E+00  0.00000000000E+00  0.99999998245E-14  0.12500000000E+03  0.12500000000E+03 0.  0.
        -11    1    3    3    0    0 -0.26354850687E+02 -0.17778975424E+02  0.16614969553E+02  0.35870981801E+02  0.51100000000E-03 0.  1.
         23    2    1    0    0    0  0.21090816752E+02  0.61941557232E+01 -0.15615043859E+02  0.98036696955E+02  0.94255897633E+02 0.  0.
         11    1    3    3    0    0  0.47445667440E+02  0.23973131147E+02 -0.32230013412E+02  0.62165715154E+02  0.51100000000E-03 0. -1.
         22    1    1    0    0    0 -0.21090816752E+02 -0.61941557232E+01  0.15615043859E+02  0.26963303045E+02  0.00000000000E+00 0. -1.
</event>
<event>
 5    1  0.1626333E-003  0.9118800E+02  0.7818608E-02  0.1130116E+00
         25   -1    0    0    0    0  0.00000000000E+00  0.00000000000E+00  0.99999998245E-14  0.12500000000E+03  0.12500000000E+03 0.  0.
        -11    1    3    3    0    0 -0.43645727233E+01 -0.38946544734E+02  0.91639828594E+01  0.40247502082E+02  0.51100000000E-03 0.  1.
         23    2    1    0    0    0 -0.24136638360E+02  0.36008344767E+01 -0.18195882673E+02  0.94559345169E+02  0.89525618078E+02 0.  0.
         11    1    3    3    0    0 -0.19772065637E+02  0.42547379210E+02 -0.27359865533E+02  0.54311843087E+02  0.51100000000E-03 0. -1.
         22    1    1    0    0    0  0.24136638360E+02 -0.36008344767E+01  0.18195882673E+02  0.30440654831E+02  0.00000000000E+00 0. -1.
</event>
<event>
 5    1  0.1626333E-003  0.9118800E+02  0.7818608E-02  0.1130116E+00
         25   -1    0    0    0    0  0.00000000000E+00  0.00000000000E+00  0.99999998245E-14  0.12500000000E+03  0.12500000000E+03 0.  0.
        -11    1    3    3    0    0 -0.17120434019E-01  0.12455834727E+02 -0.56373638605E+02  0.57733311370E+02  0.51100000000E-03 0. -1.
         23    2    1    0    0    0  0.14485168537E+02 -0.37174885284E+01 -0.24119067706E+02  0.96620971555E+02  0.92359314033E+02 0.  0.
         11    1    3    3    0    0  0.14502288971E+02 -0.16173323255E+02  0.32254570900E+02  0.38887660185E+02  0.51100000000E-03 0.  1.
         22    1    1    0    0    0 -0.14485168537E+02  0.37174885284E+01  0.24119067706E+02  0.28379028445E+02  0.00000000000E+00 0. -1.
</event>
<event>
 5    1  0.1626333E-003  0.9118800E+02  0.7818608E-02  0.1130116E+00
         25   -1    0    0    0    0  0.00000000000E+00  0.00000000000E+00  0.99999998245E-14  0.12500000000E+03  0.12500000000E+03 0.  0.
        -11    1    3    3    0    0  0.54640841265E+02 -0.14344753157E+01  0.17096421747E+02  0.57270995193E+02  0.51100000000E-03 0. -1.
         23    2    1    0    0    0  0.28358474793E+02  0.15973032724E+02  0.15619883031E+01  0.92415023792E+02  0.86479800810E+02 0.  0.
         11    1    3    3    0    0 -0.26282366472E+02  0.17407508040E+02 -0.15534433444E+02  0.35144028599E+02  0.51100000000E-03 0.  1.
         22    1    1    0    0    0 -0.28358474793E+02 -0.15973032724E+02 -0.15619883031E+01  0.32584976208E+02  0.00000000000E+00 0. -1.
</event>
<event>
 5    1  0.1626333E-003  0.9118800E+02  0.7818608E-02  0.1130116E+00
         25   -1    0    0    0    0  0.00000000000E+00  0.00000000000E+00  0.99999998245E-14  0.12500000000E+03  0.12500000000E+03 0.  0.
        -11    1    3    3    0    0 -0.14618780756E+02 -0.21135477722E+02  0.32224614073E+02  0.41217022233E+02  0.51100000000E-03 0.  1.
         23    2    1    0    0    0  0.18075651443E+02 -0.19958257181E+02 -0.11411065781E+02  0.95754938416E+02  0.91179683066E+02 0.  0.
         11    1    3    3    0    0  0.32694432198E+02  0.11772205410E+01 -0.43635679855E+02  0.54537916183E+02  0.51100000000E-03 0. -1.
         22    1    1    0    0    0 -0.18075651443E+02  0.19958257181E+02  0.11411065781E+02  0.29245061584E+02  0.00000000000E+00 0. -1.
</event>
<event>
 5    1  0.1626333E-003  0.9118800E+02  0.7818608E-02  0.1130116E+00
         25   -1    0    0    0    0  0.00000000000E+00  0.00000000000E+00  0.99999998245E-14  0.12500000000E+03  0.12500000000E+03 0.  0.
        -11    1    3    3    0    0 -0.26930335668E+02 -0.29571586212E+02 -0.34690350014E+02  0.52944707712E+02  0.51100000000E-03 0.  1.
         23    2    1    0    0    0  0.13321047718E+02 -0.15678206157E+02 -0.11340666964E+02  0.10150814635E+03  0.98752400417E+02 0.  0.
         11    1    3    3    0    0  0.40251383386E+02  0.13893380055E+02  0.23349683050E+02  0.48563438641E+02  0.51100000000E-03 0. -1.
         22    1    1    0    0    0 -0.13321047718E+02  0.15678206157E+02  0.11340666964E+02  0.23491853647E+02  0.00000000000E+00 0.  1.
</event>
<event>
 5    1  0.1626333E-003  0.9118800E+02  0.7818608E-02  0.1130116E+00
         25   -1    0    0    0    0  0.00000000000E+00  0.00000000000E+00  0.99999998245E-14  0.12500000000E+03  0.12500000000E+03 0.  0.
        -11    1    3    3    0    0  0.38232889441E+02 -0.36522149620E+02 -0.17332676430E+02  0.55642096657E+02  0.51100000000E-03 0. -1.
         23    2    1    0    0    0  0.12376559697E+02 -0.17189731618E+02 -0.28221751360E+02  0.89713552845E+02  0.82482654002E+02 0.  0.
         11    1    3    3    0    0 -0.25856329744E+02  0.19332418003E+02 -0.10889074930E+02  0.34071456188E+02  0.51100000000E-03 0.  1.
         22    1    1    0    0    0 -0.12376559697E+02  0.17189731618E+02  0.28221751360E+02  0.35286447155E+02  0.00000000000E+00 0. -1.
</event>
<event>
 5    1  0.1626333E-003  0.9118800E+02  0.7818608E-02  0.1130116E+00
         25   -1    0    0    0    0  0.00000000000E+00  0.00000000000E+00  0.99999998245E-14  0.12500000000E+03  0.12500000000E+03 0.  0.
        -11    1    3    3    0    0 -0.35374762434E+02  0.16649939226E+02 -0.15196596840E+02  0.41946762083E+02  0.51100000000E-03 0.  1.
         23    2    1    0    0    0  0.17778440265E+02  0.21019055004E+02 -0.10684683635E+02  0.95469743044E+02  0.90787861308E+02 0.  0.
         11    1    3    3    0    0  0.53153202699E+02  0.43691157777E+01  0.45119132051E+01  0.53522980961E+02  0.51100000000E-03 0. -1.
         22    1    1    0    0    0 -0.17778440265E+02 -0.21019055004E+02  0.10684683635E+02  0.29530256956E+02  0.00000000000E+00 0. -1.
</event>
<event>
 5    1  0.1626333E-003  0.9118800E+02  0.7818608E-02  0.1130116E+00
         25   -1    0    0    0    0  0.00000000000E+00  0.00000000000E+00  0.99999998245E-14  0.12500000000E+03  0.12500000000E+03 0.  0.
        -11    1    3    3    0    0  0.11299297377E+02 -0.54117417253E+02 -0.25239193202E+02  0.60773232966E+02  0.51100000000E-03 0.  1.
         23    2    1    0    0    0  0.52514884151E+01 -0.28702429591E+02 -0.19760032738E+01  0.95754279220E+02  0.91178779357E+02 0.  0.
         11    1    3    3    0    0 -0.60478089622E+01  0.25414987663E+02  0.23263189929E+02  0.34981046254E+02  0.51100000000E-03 0. -1.
         22    1    1    0    0    0 -0.52514884151E+01  0.28702429591E+02  0.19760032738E+01  0.29245720780E+02  0.00000000000E+00 0.  1.
</event>
<event>
 5    1  0.1626333E-003  0.9118800E+02  0.7818608E-02  0.1130116E+00
         25   -1    0    0    0    0  0.00000000000E+00  0.00000000000E+00  0.99999998245E-14  0.12500000000E+03  0.12500000000E+03 0.  0.
        -11    1    3    3    0    0  0.11818395441E+02 -0.28549573845E+02 -0.47648210481E+02  0.56790004401E+02  0.51100000000E-03 0. -1.
         23    2    1    0    0    0  0.18886029034E+01 -0.27006078793E+02 -0.93903643145E+01  0.96345610203E+02  0.91985882345E+02 0.  0.
         11    1    3    3    0    0 -0.99297925375E+01  0.15434950522E+01  0.38257846167E+02  0.39555605802E+02  0.51100000000E-03 0.  1.
         22    1    1    0    0    0 -0.18886029034E+01  0.27006078793E+02  0.93903643145E+01  0.28654389797E+02  0.00000000000E+00 0. -1.
</event>
<event>
 5    1  0.1626333E-003  0.9118800E+02  0.7818608E-02  0.1130116E+00
         25   -1    0    0    0    0  0.00000000000E+00  0.00000000000E+00  0.99999998245E-14  0.12500000000E+03  0.12500000000E+03 0.  0.
        -11    1    3    3    0    0 -0.36179475435E+02  0.11770162793E+02  0.32590012163E+01  0.38185236206E+02  0.51100000000E-03 0.  1.
         23    2    1    0    0    0  0.19049466530E+01 -0.16777899773E+02 -0.25957628862E+02  0.94033481974E+02  0.88788346608E+02 0.  0.
         11    1    3    3    0    0  0.38084422088E+02 -0.28548062565E+02 -0.29216630078E+02  0.55848245768E+02  0.51100000000E-03 0. -1.
         22    1    1    0    0    0 -0.19049466530E+01  0.16777899773E+02  0.25957628862E+02  0.30966518026E+02  0.00000000000E+00 0. -1.
</event>
<event>
 5    1  0.1626333E-003  0.9118800E+02  0.7818608E-02  0.1130116E+00
         25   -1    0    0    0    0  0.00000000000E+00  0.00000000000E+00  0.99999998245E-14  0.12500000000E+03  0.12500000000E+03 0.  0.
        -11    1    3    3    0    0  0.17717575957E+02  0.10080408924E+01 -0.41696520899E+02  0.45315874697E+02  0.51100000000E-03 0. -1.
         23    2    1    0    0    0 -0.98769634631E+01 -0.26079847667E+02 -0.98033828300E+01  0.95439567383E+02  0.90746304860E+02 0.  0.
         11    1    3    3    0    0 -0.27594539420E+02 -0.27087888559E+02  0.31893138069E+02  0.50123692686E+02  0.51100000000E-03 0.  1.
         22    1    1    0    0    0  0.98769634631E+01  0.26079847667E+02  0.98033828300E+01  0.29560432617E+02  0.00000000000E+00 0.  1.
</event>
<event>
 5    1  0.1626333E-003  0.9118800E+02  0.7818608E-02  0.1130116E+00
         25   -1    0    0    0    0  0.00000000000E+00  0.00000000000E+00  0.99999998245E-14  0.12500000000E+03  0.12500000000E+03 0.  0.
        -11    1    3    3    0    0 -0.20482376871E+02 -0.18953515014E+02 -0.25948657891E+02  0.38106381884E+02  0.51100000000E-03 0.  1.
         23    2    1    0    0    0  0.24663560230E+02 -0.14957430946E+02  0.83805780781E+01  0.94962522865E+02  0.90086795459E+02 0.  0.
         11    1    3    3    0    0  0.45145937102E+02  0.39960840687E+01  0.34329235969E+02  0.56856140980E+02  0.51100000000E-03 0. -1.
         22    1    1    0    0    0 -0.24663560230E+02  0.14957430946E+02 -0.83805780781E+01  0.30037477135E+02  0.00000000000E+00 0. -1.
</event>
<event>
 5    1  0.1626333E-003  0.9118800E+02  0.7818608E-02  0.1130116E+00
         25   -1    0    0    0    0  0.00000000000E+00  0.00000000000E+00  0.99999998245E-14  0.12500000000E+03  0.12500000000E+03 0.  0.
        -11    1    3    3    0    0 -0.27425542316E+02 -0.40521986292E+02  0.17443864250E+02  0.51946897353E+02  0.51100000000E-03 0.  1.
         23    2    1    0    0    0  0.14021991497E+02 -0.17600954191E+02  0.11639709247E+02  0.99664399251E+02  0.96390351243E+02 0.  0.
         11    1    3    3    0    0  0.41447533813E+02  0.22921032102E+02 -0.58041550025E+01  0.47717501897E+02  0.51100000000E-03 0. -1.
         22    1    1    0    0    0 -0.14021991497E+02  0.17600954191E+02 -0.11639709247E+02  0.25335600749E+02  0.00000000000E+00 0.  1.
</event>
<event>
 5    1  0.1626333E-003  0.9118800E+02  0.7818608E-02  0.1130116E+00
         25   -1    0    0    0    0  0.00000000000E+00  0.00000000000E+00  0.99999998245E-14  0.12500000000E+03  0.12500000000E+03 0.  0.
        -11    1    3    3    0    0 -0.22593465308E+02  0.75507464657E+01 -0.29807260012E+02  0.38156928551E+02  0.51100000000E-03 0. -1.
         23    2    1    0    0    0  0.13043891813E+02 -0.25828867964E+02  0.12703661840E+01  0.96036447660E+02  0.91564796264E+02 0.  0.
         11    1    3    3    0    0  0.35637357121E+02 -0.33379614430E+02  0.31077626196E+02  0.57879519109E+02  0.51100000000E-03 0.  1.
         22    1    1    0    0    0 -0.13043891813E+02  0.25828867964E+02 -0.12703661840E+01  0.28963552340E+02  0.00000000000E+00 0.  1.
</event>
<event>
 5    1  0.1626333E-003  0.9118800E+02  0.7818608E-02  0.1130116E+00
         25   -1    0    0    0    0  0.00000000000E+00  0.00000000000E+00  0.99999998245E-14  0.12500000000E+03  0.12500000000E+03 0.  0.
        -11    1    3    3    0    0  0.37743181817E+02 -0.39607932780E+02  0.15016154209E+02  0.56734654315E+02  0.51100000000E-03 0.  1.
         23    2    1    0    0    0  0.15442205666E+02 -0.92522415445E+01  0.23551385633E+02  0.95356561356E+02  0.90631894711E+02 0.  0.
         11    1    3    3    0    0 -0.22300976152E+02  0.30355691235E+02  0.85352314244E+01  0.38621907040E+02  0.51100000000E-03 0. -1.
         22    1    1    0    0    0 -0.15442205666E+02  0.92522415445E+01 -0.23551385633E+02  0.29643438644E+02  0.00000000000E+00 0.  1.
</event>
<event>
 5    1  0.1626333E-003  0.9118800E+02  0.7818608E-02  0.1130116E+00
         25   -1    0    0    0    0  0.00000000000E+00  0.00000000000E+00  0.99999998245E-14  0.12500000000E+03  0.12500000000E+03 0.  0.
        -11    1    3    3    0    0  0.89089730588E+01  0.79488108343E+01 -0.40180525903E+02  0.41916918503E+02  0.51100000000E-03 0.  1.
         23    2    1    0    0    0  0.35971249675E+02 -0.88305040442E+01 -0.81644507577E+01  0.87071556043E+02  0.78376584582E+02 0.  0.
         11    1    3    3    0    0  0.27062276616E+02 -0.16779314879E+02  0.32016075145E+02  0.45154637540E+02  0.51100000000E-03 0. -1.
         22    1    1    0    0    0 -0.35971249675E+02  0.88305040442E+01  0.81644507577E+01  0.37928443957E+02  0.00000000000E+00 0. -1.
</event>
<event>
 5    1  0.1626333E-003  0.9118800E+02  0.7818608E-02  0.1130116E+00
         25   -1    0    0    0    0  0.00000000000E+00  0.00000000000E+00  0.99999998245E-14  0.12500000000E+03  0.12500000000E+03 0.  0.
        -11    1    3    3    0    0 -0.28017512350E+02  0.22148795213E+02  0.52644693618E-01  0.35714883444E+02  0.51100000000E-03 0.  1.
         23    2    1    0    0    0  0.89224663589E+01 -0.26478424326E+02 -0.32456258947E+01  0.96870807901E+02  0.92696828291E+02 0.  0.
         11    1    3    3    0    0  0.36939978709E+02 -0.48627219539E+02 -0.32982705883E+01  0.61155924457E+02  0.51100000000E-03 0. -1.
         22    1    1    0    0    0 -0.89224663589E+01  0.26478424326E+02  0.32456258947E+01  0.28129192099E+02  0.00000000000E+00 0. -1.
</event>
<event>
 5    1  0.1626333E-003  0.9118800E+02  0.7818608E-02  0.1130116E+00
         25   -1    0    0    0    0  0.00000000000E+00  0.00000000000E+00  0.99999998245E-14  0.12500000000E+03  0.12500000000E+03 0.  0.
        -11    1    3    3    0    0  0.15419340112E+01  0.44967335142E+02 -0.39715168225E+02  0.60014443075E+02  0.51100000000E-03 0. -1.
         23    2    1    0    0    0  0.48377521885E+01  0.27269235631E+02 -0.85329068021E+01  0.96020256098E+02  0.91542689629E+02 0.  0.
         11    1    3    3    0    0  0.32958181773E+01 -0.17698099511E+02  0.31182261422E+02  0.36005813023E+02  0.51100000000E-03 0.  1.
         22    1    1    0    0    0 -0.48377521885E+01 -0.27269235631E+02  0.85329068021E+01  0.28979743902E+02  0.00000000000E+00 0. -1.
</event>
<event>
 5    1  0.1626333E-003  0.9118800E+02  0.7818608E-02  0.1130116E+00
         25   -1    0    0    0    0  0.00000000000E+00  0.00000000000E+00  0.99999998245E-14  0.12500000000E+03  0.12500000000E+03 0.  0.
        -11    1    3    3    0    0 -0.47490642662E+02 -0.21788699788E+02  0.31306856525E+01  0.52344147446E+02  0.51100000000E-03 0. -1.
         23    2    1    0    0    0 -0.92044638246E+01 -0.30015992820E+02  0.98902742161E+01  0.92083446363E+02  0.85999195292E+02 0.  0.
         11    1    3    3    0    0  0.38286178838E+02 -0.82272930317E+01  0.67595885636E+01  0.39739298917E+02  0.51100000000E-03 0.  1.
         22    1    1    0    0    0  0.92044638246E+01  0.30015992820E+02 -0.98902742161E+01  0.32916553637E+02  0.00000000000E+00 0. -1.
</event>
<event>
 5    1  0.1626333E-003  0.9118800E+02  0.7818608E-02  0.1130116E+00
         25   -1    0    0    0    0  0.00000000000E+00  0.00000000000E+00  0.99999998245E-14  0.12500000000E+03  0.12500000000E+03 0.  0.
        -11    1    3    3    0    0 -0.43407611095E+02 -0.26970178981E+02 -0.27988298415E+01  0.51180510978E+02  0.51100000000E-03 0.  1.
         23    2    1    0    0    0 -0.69116543743E+01 -0.15756468257E+02  0.22272086081E+02  0.96856029481E+02  0.92676897717E+02 0.  0.
         11    1    3    3    0    0  0.36495956720E+02  0.11213710723E+02  0.25070915923E+02  0.45675518504E+02  0.51100000000E-03 0. -1.
         22    1    1    0    0    0  0.69116543743E+01  0.15756468257E+02 -0.22272086081E+02  0.28143970519E+02  0.00000000000E+00 0.  1.
</event>
<event>
 5    1  0.1626333E-003  0.9118800E+02  0.7818608E-02  0.1130116E+00
         25   -1    0    0    0    0  0.00000000000E+00  0.00000000000E+00  0.99999998245E-14  0.12500000000E+03  0.12500000000E+03 0.  0.
        -11    1    3    3    0    0 -0.11635490193E+02  0.77277382852E+01 -0.51209002593E+02  0.53079793876E+02  0.51100000000E-03 0. -1.
         23    2    1    0    0    0 -0.21969191122E+02  0.15092616055E+02 -0.94562069146E+01  0.96718340445E+02  0.92491000164E+02 0.  0.
         11    1    3    3    0    0 -0.10333700929E+02  0.73648777701E+01  0.41752795679E+02  0.43638546570E+02  0.51100000000E-03 0.  1.
         22    1    1    0    0    0  0.21969191122E+02 -0.15092616055E+02  0.94562069146E+01  0.28281659555E+02  0.00000000000E+00 0. -1.
</event>
<event>
 5    1  0.1626333E-003  0.9118800E+02  0.7818608E-02  0.1130116E+00
         25   -1    0    0    0    0  0.00000000000E+00  0.00000000000E+00  0.99999998245E-14  0.12500000000E+03  0.12500000000E+03 0.  0.
        -11    1    3    3    0    0  0.29941533198E+02 -0.77509558146E+01 -0.12235499913E+02  0.33260790500E+02  0.51100000000E-03 0. -1.
         23    2    1    0    0    0 -0.21329542394E+02  0.38360082892E+01  0.20486574674E+02  0.95177792164E+02  0.90384998982E+02 0.  0.
         11    1    3    3    0    0 -0.51271075592E+02  0.11586964104E+02  0.32722074587E+02  0.61917001664E+02  0.51100000000E-03 0.  1.
         22    1    1    0    0    0  0.21329542394E+02 -0.38360082892E+01 -0.20486574674E+02  0.29822207836E+02  0.00000000000E+00 0.  1.
</event>
<event>
 5    1  0.1626333E-003  0.9118800E+02  0.7818608E-02  0.1130116E+00
         25   -1    0    0    0    0  0.00000000000E+00  0.00000000000E+00  0.99999998245E-14  0.12500000000E+03  0.12500000000E+03 0.  0.
        -11    1    3    3    0    0 -0.34984664850E+01 -0.18816840817E+02  0.48961528273E+02  0.52569420933E+02  0.51100000000E-03 0. -1.
         23    2    1    0    0    0  0.76810912858E+01  0.14400788438E+02  0.25424182771E+02  0.94787900759E+02  0.89844171707E+02 0.  0.
         11    1    3    3    0    0  0.11179557771E+02  0.33217629255E+02 -0.23537345502E+02  0.42218479826E+02  0.51100000000E-03 0.  1.
         22    1    1    0    0    0 -0.76810912858E+01 -0.14400788438E+02 -0.25424182771E+02  0.30212099241E+02  0.00000000000E+00 0. -1.
</event>
<event>
 5    1  0.1626333E-003  0.9118800E+02  0.7818608E-02  0.1130116E+00
         25   -1    0    0    0    0  0.00000000000E+00  0.00000000000E+00  0.99999998245E-14  0.12500000000E+03  0.12500000000E+03 0.  0.
        -11    1    3    3    0    0  0.50759680464E+02 -0.27502644898E+02  0.16991475008E+02  0.60180153377E+02  0.51100000000E-03 0.  1.
         23    2    1    0    0    0  0.18923713132E+02 -0.14111434200E+02  0.18884672218E+02  0.94769711568E+02  0.89818861561E+02 0.  0.
         11    1    3    3    0    0 -0.31835967332E+02  0.13391210698E+02  0.18931972101E+01  0.34589558191E+02  0.51100000000E-03 0. -1.
         22    1    1    0    0    0 -0.18923713132E+02  0.14111434200E+02 -0.18884672218E+02  0.30230288432E+02  0.00000000000E+00 0.  1.
</event>
<event>
 5    1  0.1626333E-003  0.9118800E+02  0.7818608E-02  0.1130116E+00
         25   -1    0    0    0    0  0.00000000000E+00  0.00000000000E+00  0.99999998245E-14  0.12500000000E+03  0.12500000000E+03 0.  0.
        -11    1    3    3    0    0  0.41848685271E+02 -0.10599043339E+02 -0.27100171890E+02  0.50971281084E+02  0.51100000000E-03 0.  1.
         23    2    1    0    0    0  0.27516379030E+02 -0.24016981048E+02  0.45272856600E+01  0.88196972828E+02  0.80151376826E+02 0.  0.
         11    1    3    3    0    0 -0.14332306241E+02 -0.13417937708E+02  0.31627457550E+02  0.37225691744E+02  0.51100000000E-03 0. -1.
         22    1    1    0    0    0 -0.27516379030E+02  0.24016981048E+02 -0.45272856600E+01  0.36803027172E+02  0.00000000000E+00 0.  1.
</event>
<event>
 5    1  0.1626333E-003  0.9118800E+02  0.7818608E-02  0.1130116E+00
         25   -1    0    0    0    0  0.00000000000E+00  0.00000000000E+00  0.99999998245E-14  0.12500000000E+03  0.12500000000E+03 0.  0.
        -11    1    3    3    0    0  0.26081266675E+02 -0.98575559914E+01 -0.44976226927E+02  0.52917528952E+02  0.51100000000E-03 0.  1.
         23    2    1    0    0    0  0.15671188034E+02 -0.15647244170E+02  0.32717106839E+01  0.10261414564E+03  0.10014258041E+03 0.  0.
         11    1    3    3    0    0 -0.10410078641E+02 -0.57896881788E+01  0.48247937611E+02  0.49696616691E+02  0.51100000000E-03 0. -1.
         22    1    1    0    0    0 -0.15671188034E+02  0.15647244170E+02 -0.32717106839E+01  0.22385854358E+02  0.00000000000E+00 0.  1.
</event>
<event>
 5    1  0.1626333E-003  0.9118800E+02  0.7818608E-02  0.1130116E+00
         25   -1    0    0    0    0  0.00000000000E+00  0.00000000000E+00  0.99999998245E-14  0.12500000000E+03  0.12500000000E+03 0.  0.
        -11    1    3    3    0    0  0.24664119834E+02  0.44433008243E+02 -0.35702647314E+02  0.62107085378E+02  0.51100000000E-03 0. -1.
         23    2    1    0    0    0  0.15138760600E+02  0.20491312499E+02 -0.13252440681E+02  0.96282354824E+02  0.91899884146E+02 0.  0.
         11    1    3    3    0    0 -0.95253592337E+01 -0.23941695744E+02  0.22450206633E+02  0.34175269446E+02  0.51100000000E-03 0.  1.
         22    1    1    0    0    0 -0.15138760600E+02 -0.20491312499E+02  0.13252440681E+02  0.28717645176E+02  0.00000000000E+00 0. -1.
</event>
<event>
 5    1  0.1626333E-003  0.9118800E+02  0.7818608E-02  0.1130116E+00
         25   -1    0    0    0    0  0.00000000000E+00  0.00000000000E+00  0.99999998245E-14  0.12500000000E+03  0.12500000000E+03 0.  0.
        -11    1    3    3    0    0 -0.50130346427E+02 -0.28054415966E+02 -0.22119017585E+02  0.61557719477E+02  0.51100000000E-03 0.  1.
         23    2    1    0    0    0 -0.26650978133E+02 -0.66584532879E+01 -0.13016514513E+02  0.94601985497E+02  0.89585134784E+02 0.  0.
         11    1    3    3    0    0  0.23479368294E+02  0.21395962678E+02  0.91025030715E+01  0.33044266020E+02  0.51100000000E-03 0. -1.
         22    1    1    0    0    0  0.26650978133E+02  0.66584532879E+01  0.13016514513E+02  0.30398014503E+02  0.00000000000E+00 0.  1.
</event>
<event>
 5    1  0.1626333E-003  0.9118800E+02  0.7818608E-02  0.1130116E+00
         25   -1    0    0    0    0  0.00000000000E+00  0.00000000000E+00  0.99999998245E-14  0.12500000000E+03  0.12500000000E+03 0.  0.
        -11    1    3    3    0    0 -0.20384239573E+02  0.50123665885E+02 -0.50290635304E+01  0.54343266234E+02  0.51100000000E-03 0. -1.
         23    2    1    0    0    0 -0.25118502009E+02  0.10932257192E+02  0.88862727916E+01  0.96200360512E+02  0.91788289711E+02 0.  0.
         11    1    3    3    0    0 -0.47342624365E+01 -0.39191408693E+02  0.13915336322E+02  0.41857094278E+02  0.51100000000E-03 0.  1.
         22    1    1    0    0    0  0.25118502009E+02 -0.10932257192E+02 -0.88862727916E+01  0.28799639488E+02  0.00000000000E+00 0. -1.
</event>
<event>
 5    1  0.1626333E-003  0.9118800E+02  0.7818608E-02  0.1130116E+00
         25   -1    0    0    0    0  0.00000000000E+00  0.00000000000E+00  0.99999998245E-14  0.12500000000E+03  0.12500000000E+03 0.  0.
        -11    1    3    3    0    0  0.27089297601E+01 -0.17314140442E+02 -0.27524001568E+02  0.32629563624E+02  0.51100000000E-03 0. -1.
         23    2    1    0    0    0  0.42870262548E+01 -0.12055603619E+02  0.31027440553E+02  0.91437845123E+02  0.85055636384E+02 0.  0.
         11    1    3    3    0    0  0.15780964947E+01  0.52585368235E+01  0.58551442122E+02  0.58808281499E+02  0.51100000000E-03 0.  1.
         22    1    1    0    0    0 -0.42870262548E+01  0.12055603619E+02 -0.31027440553E+02  0.33562154877E+02  0.00000000000E+00 0.  1.
</event>
<event>
 5    1  0.1626333E-003  0.9118800E+02  0.7818608E-02  0.1130116E+00
         25   -1    0    0    0    0  0.00000000000E+00  0.00000000000E+00  0.99999998245E-14  0.12500000000E+03  0.12500000000E+03 0.  0.
        -11    1    3    3    0    0 -0.42510744037E+02 -0.27810435392E+02  0.40929541930E+01  0.50964065277E+02  0.51100000000E-03 0.  1.
         23    2    1    0    0    0 -0.52297526103E+01 -0.67518576178E+01 -0.22202676656E+02  0.10121141567E+03  0.98376084075E+02 0.  0.
         11    1    3    3    0    0  0.37280991427E+02  0.21058577774E+02 -0.26295630849E+02  0.50247350394E+02  0.51100000000E-03 0. -1.
         22    1    1    0    0    0  0.52297526103E+01  0.67518576178E+01  0.22202676656E+02  0.23788584329E+02  0.00000000000E+00 0. -1.
</event>
<event>
 5    1  0.1626333E-003  0.9118800E+02  0.7818608E-02  0.1130116E+00
         25   -1    0    0    0    0  0.00000000000E+00  0.00000000000E+00  0.99999998245E-14  0.12500000000E+03  0.12500000000E+03 0.  0.
        -11    1    3    3    0    0  0.29557383134E+02 -0.43476546728E+02 -0.15617239398E+02  0.54842931904E+02  0.51100000000E-03 0. -1.
         23    2    1    0    0    0  0.13003693963E+02 -0.66950367413E+01 -0.24798549001E+02  0.96209591768E+02  0.91800860246E+02 0.  0.
         11    1    3    3    0    0 -0.16553689171E+02  0.36781509986E+02 -0.91813096022E+01  0.41366659864E+02  0.51100000000E-03 0.  1.
         22    1    1    0    0    0 -0.13003693963E+02  0.66950367413E+01  0.24798549001E+02  0.28790408232E+02  0.00000000000E+00 0. -1.
</event>
<event>
 5    1  0.1626333E-003  0.9118800E+02  0.7818608E-02  0.1130116E+00
         25   -1    0    0    0    0  0.00000000000E+00  0.00000000000E+00  0.99999998245E-14  0.12500000000E+03  0.12500000000E+03 0.  0.
        -11    1    3    3    0    0  0.22054269122E+02  0.42421815818E+02 -0.25363832739E+02  0.54123241360E+02  0.51100000000E-03 0.  1.
         23    2    1    0    0    0  0.33712747587E+02  0.16029837186E+02 -0.14112582812E+02  0.85091729884E+02  0.75152727635E+02 0.  0.
         11    1    3    3    0    0  0.11658478465E+02 -0.26391978633E+02  0.11251249927E+02  0.30968488524E+02  0.51100000000E-03 0. -1.
         22    1    1    0    0    0 -0.33712747587E+02 -0.16029837186E+02  0.14112582812E+02  0.39908270116E+02  0.00000000000E+00 0.  1.
</event>
<event>
 5    1  0.1626333E-003  0.9118800E+02  0.7818608E-02  0.1130116E+00
         25   -1    0    0    0    0  0.00000000000E+00  0.00000000000E+00  0.99999998245E-14  0.12500000000E+03  0.12500000000E+03 0.  0.
        -11    1    3    3    0    0  0.39606236113E+02 -0.29839687516E+02  0.27348880024E+02  0.56630575919E+02  0.51100000000E-03 0.  1.
         23    2    1    0    0    0  0.21218099927E+02 -0.23595675933E+02 -0.34917069068E+01  0.93075781851E+02  0.87429660087E+02 0.  0.
         11    1    3    3    0    0 -0.18388136186E+02  0.62440115822E+01 -0.30840586930E+02  0.36445205933E+02  0.51100000000E-03 0. -1.
         22    1    1    0    0    0 -0.21218099927E+02  0.23595675933E+02  0.34917069068E+01  0.31924218149E+02  0.00000000000E+00 0.  1.
</event>
<event>
 5    1  0.1626333E-003  0.9118800E+02  0.7818608E-02  0.1130116E+00
         25   -1    0    0    0    0  0.00000000000E+00  0.00000000000E+00  0.99999998245E-14  0.12500000000E+03  0.12500000000E+03 0.  0.
        -11    1    3    3    0    0 -0.48124167961E+02  0.89825511818E+01 -0.34830303344E+02  0.60081376473E+02  0.51100000000E-03 0. -1.
         23    2    1    0    0    0 -0.15959236902E+02 -0.84302814519E+01 -0.92164692414E+01  0.10473401389E+03  0.10275457884E+03 0.  0.
         11    1    3    3    0    0  0.32164931058E+02 -0.17412832634E+02  0.25613834102E+02  0.44652637414E+02  0.51100000000E-03 0.  1.
         22    1    1    0    0    0  0.15959236902E+02  0.84302814519E+01  0.92164692414E+01  0.20265986113E+02  0.00000000000E+00 0. -1.
</event>
<event>
 5    1  0.1626333E-003  0.9118800E+02  0.7818608E-02  0.1130116E+00
         25   -1    0    0    0    0  0.00000000000E+00  0.00000000000E+00  0.99999998245E-14  0.12500000000E+03  0.12500000000E+03 0.  0.
        -11    1    3    3    0    0  0.25439769278E+02  0.18702545773E+02  0.18202225819E+02  0.36445687047E+02  0.51100000000E-03 0. -1.
         23    2    1    0    0    0 -0.14060931078E+02  0.12318722284E+02 -0.23984957590E+02  0.94590480239E+02  0.89569079820E+02 0.  0.
         11    1    3    3    0    0 -0.39500700357E+02 -0.63838234896E+01 -0.42187183409E+02  0.58144793192E+02  0.51100000000E-03 0.  1.
         22    1    1    0    0    0  0.14060931078E+02 -0.12318722284E+02  0.23984957590E+02  0.30409519761E+02  0.00000000000E+00 0.  1.
</event>
<event>
 5    1  0.1626333E-003  0.9118800E+02  0.7818608E-02  0.1130116E+00
         25   -1    0    0    0    0  0.00000000000E+00  0.00000000000E+00  0.99999998245E-14  0.12500000000E+03  0.12500000000E+03 0.  0.
        -11    1    3    3    0    0 -0.11814071568E+02 -0.37008433111E+02 -0.47489601103E+02  0.61355184145E+02  0.51100000000E-03 0. -1.
         23    2    1    0    0    0 -0.91141452363E+01 -0.10254130625E+02 -0.25304419023E+02  0.96215829691E+02  0.91809353679E+02 0.  0.
         11    1    3    3    0    0  0.26999263317E+01  0.26754302486E+02  0.22185182080E+02  0.34860645546E+02  0.51100000000E-03 0.  1.
         22    1    1    0    0    0  0.91141452363E+01  0.10254130625E+02  0.25304419023E+02  0.28784170309E+02  0.00000000000E+00 0. -1.
</event>
<event>
 5    1  0.1626333E-003  0.9118800E+02  0.7818608E-02  0.1130116E+00
         25   -1    0    0    0    0  0.00000000000E+00  0.00000000000E+00  0.99999998245E-14  0.12500000000E+03  0.12500000000E+03 0.  0.
        -11    1    3    3    0    0  0.25863448788E+02 -0.26455450427E+02  0.28318663710E+01  0.37105637145E+02  0.51100000000E-03 0. -1.
         23    2    1    0    0    0 -0.40110352291E+01  0.22690907523E+02  0.17031203705E+02  0.96346421036E+02  0.91986984182E+02 0.  0.
         11    1    3    3    0    0 -0.29874484018E+02  0.49146357950E+02  0.14199337334E+02  0.59240783891E+02  0.51100000000E-03 0.  1.
         22    1    1    0    0    0  0.40110352291E+01 -0.22690907523E+02 -0.17031203705E+02  0.28653578964E+02  0.00000000000E+00 0.  1.
</event>
<event>
 5    1  0.1626333E-003  0.9118800E+02  0.7818608E-02  0.1130116E+00
         25   -1    0    0    0    0  0.00000000000E+00  0.00000000000E+00  0.99999998245E-14  0.12500000000E+03  0.12500000000E+03 0.  0.
        -11    1    3    3    0    0 -0.45825353419E+02  0.29246939877E+02 -0.24088823373E+02  0.59461062217E+02  0.51100000000E-03 0.  1.
         23    2    1    0    0    0 -0.11228660929E+02  0.17728283334E+02 -0.19751007680E+02  0.96181999365E+02  0.91763281552E+02 0.  0.
         11    1    3    3    0    0  0.34596692490E+02 -0.11518656543E+02  0.43378156932E+01  0.36720937148E+02  0.51100000000E-03 0. -1.
         22    1    1    0    0    0  0.11228660929E+02 -0.17728283334E+02  0.19751007680E+02  0.28818000635E+02  0.00000000000E+00 0.  1.
</event>
<event>
 5    1  0.1626333E-003  0.9118800E+02  0.7818608E-02  0.1130116E+00
         25   -1    0    0    0    0  0.00000000000E+00  0.00000000000E+00  0.99999998245E-14  0.12500000000E+03  0.12500000000E+03 0.  0.
        -11    1    3    3    0    0 -0.36479102785E+02  0.78477498333E+01  0.49742458792E+02  0.62182186552E+02  0.51100000000E-03 0. -1.
         23    2    1    0    0    0 -0.14315065810E+02  0.10483859927E+01  0.25581028145E+02  0.95667267034E+02  0.91059413343E+02 0.  0.
         11    1    3    3    0    0  0.22164036975E+02 -0.67993638406E+01 -0.24161430647E+02  0.33485080481E+02  0.51100000000E-03 0.  1.
         22    1    1    0    0    0  0.14315065810E+02 -0.10483859927E+01 -0.25581028145E+02  0.29332732966E+02  0.00000000000E+00 0. -1.
</event>
<event>
 5    1  0.1626333E-003  0.9118800E+02  0.7818608E-02  0.1130116E+00
         25   -1    0    0    0    0  0.00000000000E+00  0.00000000000E+00  0.99999998245E-14  0.12500000000E+03  0.12500000000E+03 0.  0.
        -11    1    3    3    0    0  0.33807995695E+02  0.20598984359E+02  0.84373353432E+01  0.40478233132E+02  0.51100000000E-03 0.  1.
         23    2    1    0    0    0 -0.22781116584E+02  0.11613908601E+02 -0.40211639142E+01  0.99115025497E+02  0.95675265216E+02 0.  0.
         11    1    3    3    0    0 -0.56589112279E+02 -0.89850757576E+01 -0.12458499257E+02  0.58636792365E+02  0.51100000000E-03 0. -1.
         22    1    1    0    0    0  0.22781116584E+02 -0.11613908601E+02  0.40211639142E+01  0.25884974503E+02  0.00000000000E+00 0. -1.
</event>
<event>
 5    1  0.1626333E-003  0.9118800E+02  0.7818608E-02  0.1130116E+00
         25   -1    0    0    0    0  0.00000000000E+00  0.00000000000E+00  0.99999998245E-14  0.12500000000E+03  0.12500000000E+03 0.  0.
        -11    1    3    3    0    0  0.42306087854E+02 -0.24359135909E+02 -0.91765919745E+01  0.49672753218E+02  0.51100000000E-03 0. -1.
         23    2    1    0    0    0 -0.54183640125E+01 -0.26068285799E+02 -0.69633252663E+01  0.97479060847E+02  0.93513449363E+02 0.  0.
         11    1    3    3    0    0 -0.47724451867E+02 -0.17091498903E+01  0.22132667082E+01  0.47806307629E+02  0.51100000000E-03 0.  1.
         22    1    1    0    0    0  0.54183640125E+01  0.26068285799E+02  0.69633252663E+01  0.27520939153E+02  0.00000000000E+00 0. -1.
</event>
<event>
 5    1  0.1626333E-003  0.9118800E+02  0.7818608E-02  0.1130116E+00
         25   -1    0    0    0    0  0.00000000000E+00  0.00000000000E+00  0.99999998245E-14  0.12500000000E+03  0.12500000000E+03 0.  0.
        -11    1    3    3    0    0  0.35749861419E+02  0.43507393177E+02  0.16774760578E+02  0.58756603419E+02  0.51100000000E-03 0.  1.
         23    2    1    0    0    0  0.37349574098E+01  0.28071163221E+02  0.10193140427E+02  0.94902820345E+02  0.90003917060E+02 0.  0.
         11    1    3    3    0    0 -0.32014904010E+02 -0.15436229956E+02 -0.65816201508E+01  0.36146216926E+02  0.51100000000E-03 0. -1.
         22    1    1    0    0    0 -0.37349574098E+01 -0.28071163221E+02 -0.10193140427E+02  0.30097179655E+02  0.00000000000E+00 0.  1.
</event>
<event>
 5    1  0.1626333E-003  0.9118800E+02  0.7818608E-02  0.1130116E+00
         25   -1    0    0    0    0  0.00000000000E+00  0.00000000000E+00  0.99999998245E-14  0.12500000000E+03  0.12500000000E+03 0.  0.
        -11    1    3    3    0    0  0.34042256669E+02 -0.42602864294E+02  0.20743658470E+01  0.54572724681E+02  0.51100000000E-03 0. -1.
         23    2    1    0    0    0  0.33697159704E+01 -0.21552414890E+02 -0.17886065678E+02  0.96790552668E+02  0.92588542310E+02 0.  0.
         11    1    3    3    0    0 -0.30672540699E+02  0.21050449404E+02 -0.19960431525E+02  0.42217827987E+02  0.51100000000E-03 0.  1.
         22    1    1    0    0    0 -0.33697159704E+01  0.21552414890E+02  0.17886065678E+02  0.28209447332E+02  0.00000000000E+00 0. -1.
</event>
<event>
 5    1  0.1626333E-003  0.9118800E+02  0.7818608E-02  0.1130116E+00
         25   -1    0    0    0    0  0.00000000000E+00  0.00000000000E+00  0.99999998245E-14  0.12500000000E+03  0.12500000000E+03 0.  0.
        -11    1    3    3    0    0  0.11485199956E+02  0.32700426777E+02 -0.23516280604E+02  0.41883686360E+02  0.51100000000E-03 0.  1.
         23    2    1    0    0    0 -0.26866728378E+02  0.10402697506E+01  0.24781794547E+01  0.97999173562E+02  0.94206121832E+02 0.  0.
         11    1    3    3    0    0 -0.38351928334E+02 -0.31660157026E+02  0.25994460059E+02  0.56115487202E+02  0.51100000000E-03 0. -1.
         22    1    1    0    0    0  0.26866728378E+02 -0.10402697506E+01 -0.24781794547E+01  0.27000826438E+02  0.00000000000E+00 0. -1.
</event>
<event>
 5    1  0.1626333E-003  0.9118800E+02  0.7818608E-02  0.1130116E+00
         25   -1    0    0    0    0  0.00000000000E+00  0.00000000000E+00  0.99999998245E-14  0.12500000000E+03  0.12500000000E+03 0.  0.
        -11    1    3    3    0    0  0.16702733296E+02  0.14401615247E+02  0.41118686952E+02  0.46659771091E+02  0.51100000000E-03 0.  1.
         23    2    1    0    0    0  0.25057961023E+02 -0.15170658230E+02  0.31013555930E+01  0.95543783538E+02  0.90889745761E+02 0.  0.
         11    1    3    3    0    0  0.83552277266E+01 -0.29572273478E+02 -0.38017331359E+02  0.48884012447E+02  0.51100000000E-03 0. -1.
         22    1    1    0    0    0 -0.25057961023E+02  0.15170658230E+02 -0.31013555930E+01  0.29456216462E+02  0.00000000000E+00 0. -1.
</event>
<event>
 5    1  0.1626333E-003  0.9118800E+02  0.7818608E-02  0.1130116E+00
         25   -1    0    0    0    0  0.00000000000E+00  0.00000000000E+00  0.99999998245E-14  0.12500000000E+03  0.12500000000E+03 0.  0.
        -11    1    3    3    0    0  0.19687953227E+02 -0.62686681020E+00  0.53280296425E+02  0.56804915735E+02  0.51100000000E-03 0. -1.
         23    2    1    0    0    0  0.66021373523E+01 -0.18787903035E+02  0.21301015183E+02  0.95839980009E+02  0.91296193799E+02 0.  0.
         11    1    3    3    0    0 -0.13085815874E+02 -0.18161036224E+02 -0.31979281242E+02  0.39035064274E+02  0.51100000000E-03 0.  1.
         22    1    1    0    0    0 -0.66021373523E+01  0.18787903035E+02 -0.21301015183E+02  0.29160019991E+02  0.00000000000E+00 0. -1.
</event>
<event>
 5    1  0.1626333E-003  0.9118800E+02  0.7818608E-02  0.1130116E+00
         25   -1    0    0    0    0  0.00000000000E+00  0.00000000000E+00  0.99999998245E-14  0.12500000000E+03  0.12500000000E+03 0.  0.
        -11    1    3    3    0    0 -0.32419181289E+02  0.18684738855E+02 -0.48558123212E+02  0.61302643595E+02  0.51100000000E-03 0. -1.
         23    2    1    0    0    0 -0.15042223562E+02 -0.40865147077E+00 -0.22044674762E+02  0.98309118203E+02  0.94616486676E+02 0.  0.
         11    1    3    3    0    0  0.17376957728E+02 -0.19093390326E+02  0.26513448449E+02  0.37006474609E+02  0.51100000000E-03 0.  1.
         22    1    1    0    0    0  0.15042223562E+02  0.40865147077E+00  0.22044674762E+02  0.26690881797E+02  0.00000000000E+00 0. -1.
</event>
<event>
 5    1  0.1626333E-003  0.9118800E+02  0.7818608E-02  0.1130116E+00
         25   -1    0    0    0    0  0.00000000000E+00  0.00000000000E+00  0.99999998245E-14  0.12500000000E+03  0.12500000000E+03 0.  0.
        -11    1    3    3    0    0  0.13213999938E+01  0.25759332389E+02 -0.27431429772E+02  0.37653321802E+02  0.51100000000E-03 0.  1.
         23    2    1    0    0    0  0.19216345359E+02 -0.15938874270E+02  0.11566256469E+02  0.97484660085E+02  0.93520933599E+02 0.  0.
         11    1    3    3    0    0  0.17894945365E+02 -0.41698206660E+02  0.38997686242E+02  0.59831338283E+02  0.51100000000E-03 0. -1.
         22    1    1    0    0    0 -0.19216345359E+02  0.15938874270E+02 -0.11566256469E+02  0.27515339915E+02  0.00000000000E+00 0. -1.
</event>
<event>
 5    1  0.1626333E-003  0.9118800E+02  0.7818608E-02  0.1130116E+00
         25   -1    0    0    0    0  0.00000000000E+00  0.00000000000E+00  0.99999998245E-14  0.12500000000E+03  0.12500000000E+03 0.  0.
        -11    1    3    3    0    0  0.43634044742E+02  0.15392580893E+02  0.27991194280E+02  0.54077429345E+02  0.51100000000E-03 0.  1.
         23    2    1    0    0    0  0.53543478674E+01  0.49987308532E+01  0.30316395573E+02  0.93811216892E+02  0.88474879050E+02 0.  0.
         11    1    3    3    0    0 -0.38279696875E+02 -0.10393850039E+02  0.23252012930E+01  0.39733787547E+02  0.51100000000E-03 0. -1.
         22    1    1    0    0    0 -0.53543478674E+01 -0.49987308532E+01 -0.30316395573E+02  0.31188783108E+02  0.00000000000E+00 0.  1.
</event>
<event>
 5    1  0.1626333E-003  0.9118800E+02  0.7818608E-02  0.1130116E+00
         25   -1    0    0    0    0  0.00000000000E+00  0.00000000000E+00  0.99999998245E-14  0.12500000000E+03  0.12500000000E+03 0.  0.
        -11    1    3    3    0    0 -0.24112376994E+02  0.17881865621E+02 -0.19709863772E+02  0.35911649539E+02  0.51100000000E-03 0.  1.
         23    2    1    0    0    0  0.26787434121E+02 -0.51006489497E+00  0.84325037968E+01  0.96912032589E+02  0.92752402380E+02 0.  0.
         11    1    3    3    0    0  0.50899811115E+02 -0.18391930516E+02  0.28142367569E+02  0.61000383051E+02  0.51100000000E-03 0. -1.
         22    1    1    0    0    0 -0.26787434121E+02  0.51006489497E+00 -0.84325037968E+01  0.28087967411E+02  0.00000000000E+00 0. -1.
</event>
<event>
 5    1  0.1626333E-003  0.9118800E+02  0.7818608E-02  0.1130116E+00
         25   -1    0    0    0    0  0.00000000000E+00  0.00000000000E+00  0.99999998245E-14  0.12500000000E+03  0.12500000000E+03 0.  0.
        -11    1    3    3    0    0 -0.11940865855E+02 -0.19923973074E+02  0.28641346359E+02  0.36876492539E+02  0.51100000000E-03 0.  1.
         23    2    1    0    0    0  0.23484223268E+02 -0.73981658754E+01 -0.16311765505E+02  0.95465015749E+02  0.90781352365E+02 0.  0.
         11    1    3    3    0    0  0.35425089123E+02  0.12525807199E+02 -0.44953111865E+02  0.58588523210E+02  0.51100000000E-03 0. -1.
         22    1    1    0    0    0 -0.23484223268E+02  0.73981658754E+01  0.16311765505E+02  0.29534984251E+02  0.00000000000E+00 0. -1.
</event>
<event>
 5    1  0.1626333E-003  0.9118800E+02  0.7818608E-02  0.1130116E+00
         25   -1    0    0    0    0  0.00000000000E+00  0.00000000000E+00  0.99999998245E-14  0.12500000000E+03  0.12500000000E+03 0.  0.
        -11    1    3    3    0    0  0.35835248348E+01 -0.24254188933E+01  0.34987769577E+02  0.35254337709E+02  0.51100000000E-03 0.  1.
         23    2    1    0    0    0 -0.13407315742E+02 -0.88044731900E+01 -0.23530672173E+02  0.96522510706E+02  0.92225959884E+02 0.  0.
         11    1    3    3    0    0 -0.16990840577E+02 -0.63790542967E+01 -0.58518441750E+02  0.61268172997E+02  0.51100000000E-03 0. -1.
         22    1    1    0    0    0  0.13407315742E+02  0.88044731900E+01  0.23530672173E+02  0.28477489294E+02  0.00000000000E+00 0. -1.
</event>
<event>
 5    1  0.1626333E-003  0.9118800E+02  0.7818608E-02  0.1130116E+00
         25   -1    0    0    0    0  0.00000000000E+00  0.00000000000E+00  0.99999998245E-14  0.12500000000E+03  0.12500000000E+03 0.  0.
        -11    1    3    3    0    0  0.25774742737E+02  0.19652440312E+02  0.10769463450E+02  0.34154606083E+02  0.51100000000E-03 0. -1.
         23    2    1    0    0    0 -0.19109628259E+02 -0.14182156243E+02 -0.15910739674E+02  0.96373734353E+02  0.92024092434E+02 0.  0.
         11    1    3    3    0    0 -0.44884370996E+02 -0.33834596555E+02 -0.26680203124E+02  0.62219128271E+02  0.51100000000E-03 0.  1.
         22    1    1    0    0    0  0.19109628259E+02  0.14182156243E+02  0.15910739674E+02  0.28626265647E+02  0.00000000000E+00 0.  1.
</event>
<event>
 5    1  0.1626333E-003  0.9118800E+02  0.7818608E-02  0.1130116E+00
         25   -1    0    0    0    0  0.00000000000E+00  0.00000000000E+00  0.99999998245E-14  0.12500000000E+03  0.12500000000E+03 0.  0.
        -11    1    3    3    0    0 -0.26865594185E+02  0.14345222039E+02 -0.14578637502E+02  0.33765103553E+02  0.51100000000E-03 0.  1.
         23    2    1    0    0    0  0.29503704674E+02 -0.46728386399E+01 -0.10271667241E+02  0.93411850982E+02  0.87908832011E+02 0.  0.
         11    1    3    3    0    0  0.56369298859E+02 -0.19018060679E+02  0.43069702603E+01  0.59646747430E+02  0.51100000000E-03 0. -1.
         22    1    1    0    0    0 -0.29503704674E+02  0.46728386399E+01  0.10271667241E+02  0.31588149018E+02  0.00000000000E+00 0. -1.
</event>
<event>
 5    1  0.1626333E-003  0.9118800E+02  0.7818608E-02  0.1130116E+00
         25   -1    0    0    0    0  0.00000000000E+00  0.00000000000E+00  0.99999998245E-14  0.12500000000E+03  0.12500000000E+03 0.  0.
        -11    1    3    3    0    0  0.12269551044E+02  0.39012767534E+02  0.20496906582E+02  0.45745612830E+02  0.51100000000E-03 0. -1.
         23    2    1    0    0    0  0.29103929802E+02 -0.31005496691E+01 -0.50805284876E+00  0.95726970504E+02  0.91141333247E+02 0.  0.
         11    1    3    3    0    0  0.16834378758E+02 -0.42113317204E+02 -0.21004959430E+02  0.49981357675E+02  0.51100000000E-03 0.  1.
         22    1    1    0    0    0 -0.29103929802E+02  0.31005496691E+01  0.50805284876E+00  0.29273029496E+02  0.00000000000E+00 0. -1.
</event>
<event>
 5    1  0.1626333E-003  0.9118800E+02  0.7818608E-02  0.1130116E+00
         25   -1    0    0    0    0  0.00000000000E+00  0.00000000000E+00  0.99999998245E-14  0.12500000000E+03  0.12500000000E+03 0.  0.
        -11    1    3    3    0    0 -0.18348943410E+02  0.98575233385E+01 -0.27061418683E+02  0.34149302658E+02  0.51100000000E-03 0.  1.
         23    2    1    0    0    0 -0.78326368737E+01 -0.50779403569E+01  0.29747287747E+02  0.93822495177E+02  0.88490811921E+02 0.  0.
         11    1    3    3    0    0  0.10516306536E+02 -0.14935463695E+02  0.56808706430E+02  0.59673192519E+02  0.51100000000E-03 0. -1.
         22    1    1    0    0    0  0.78326368737E+01  0.50779403569E+01 -0.29747287747E+02  0.31177504823E+02  0.00000000000E+00 0. -1.
</event>
<event>
 5    1  0.1626333E-003  0.9118800E+02  0.7818608E-02  0.1130116E+00
         25   -1    0    0    0    0  0.00000000000E+00  0.00000000000E+00  0.99999998245E-14  0.12500000000E+03  0.12500000000E+03 0.  0.
        -11    1    3    3    0    0 -0.20383288788E+02  0.15849393468E+02 -0.13057790075E+02  0.28934194598E+02  0.51100000000E-03 0. -1.
         23    2    1    0    0    0  0.30626449241E+02 -0.12970906650E+02  0.72808887273E+01  0.90952457459E+02  0.84339281268E+02 0.  0.
         11    1    3    3    0    0  0.51009738028E+02 -0.28820300119E+02  0.20338678802E+02  0.62018262861E+02  0.51100000000E-03 0.  1.
         22    1    1    0    0    0 -0.30626449241E+02  0.12970906650E+02 -0.72808887273E+01  0.34047542541E+02  0.00000000000E+00 0.  1.
</event>
<event>
 5    1  0.1626333E-003  0.9118800E+02  0.7818608E-02  0.1130116E+00
         25   -1    0    0    0    0  0.00000000000E+00  0.00000000000E+00  0.99999998245E-14  0.12500000000E+03  0.12500000000E+03 0.  0.
        -11    1    3    3    0    0 -0.16623152304E+02 -0.30742662287E+02  0.52865212068E+01  0.35346679954E+02  0.51100000000E-03 0. -1.
         23    2    1    0    0    0 -0.30217600893E+02  0.13812902329E+02 -0.17767550246E+02  0.87322612667E+02  0.78775968206E+02 0.  0.
         11    1    3    3    0    0 -0.13594448589E+02  0.44555564615E+02 -0.23054071453E+02  0.51975932714E+02  0.51100000000E-03 0.  1.
         22    1    1    0    0    0  0.30217600893E+02 -0.13812902329E+02  0.17767550246E+02  0.37677387333E+02  0.00000000000E+00 0.  1.
</event>
<event>
 5    1  0.1626333E-003  0.9118800E+02  0.7818608E-02  0.1130116E+00
         25   -1    0    0    0    0  0.00000000000E+00  0.00000000000E+00  0.99999998245E-14  0.12500000000E+03  0.12500000000E+03 0.  0.
        -11    1    3    3    0    0  0.41962723643E+02  0.42286503784E+01 -0.31399449920E+01  0.42291972222E+02  0.51100000000E-03 0. -1.
         23    2    1    0    0    0 -0.38287836141E+01  0.13648229939E+02  0.24567632687E+02  0.96636249538E+02  0.92379989092E+02 0.  0.
         11    1    3    3    0    0 -0.45791507257E+02  0.94195795606E+01  0.27707577679E+02  0.54344277317E+02  0.51100000000E-03 0.  1.
         22    1    1    0    0    0  0.38287836141E+01 -0.13648229939E+02 -0.24567632687E+02  0.28363750462E+02  0.00000000000E+00 0.  1.
</event>
<event>
 5    1  0.1626333E-003  0.9118800E+02  0.7818608E-02  0.1130116E+00
         25   -1    0    0    0    0  0.00000000000E+00  0.00000000000E+00  0.99999998245E-14  0.12500000000E+03  0.12500000000E+03 0.  0.
        -11    1    3    3    0    0  0.32754198327E+02 -0.26942754613E+02  0.37152184863E+02  0.56382926268E+02  0.51100000000E-03 0.  1.
         23    2    1    0    0    0 -0.53983699391E+00 -0.24180098528E+02  0.17547941794E+02  0.95118586880E+02  0.90303082562E+02 0.  0.
         11    1    3    3    0    0 -0.33294035320E+02  0.27626560847E+01 -0.19604243069E+02  0.38735660613E+02  0.51100000000E-03 0. -1.
         22    1    1    0    0    0  0.53983699391E+00  0.24180098528E+02 -0.17547941794E+02  0.29881413120E+02  0.00000000000E+00 0.  1.
</event>
<event>
 5    1  0.1626333E-003  0.9118800E+02  0.7818608E-02  0.1130116E+00
         25   -1    0    0    0    0  0.00000000000E+00  0.00000000000E+00  0.99999998245E-14  0.12500000000E+03  0.12500000000E+03 0.  0.
        -11    1    3    3    0    0  0.36953014222E+02 -0.33001759086E+02 -0.91290477267E+01  0.50378377063E+02  0.51100000000E-03 0. -1.
         23    2    1    0    0    0  0.18147727370E+02 -0.47544774008E+01  0.21762380191E+02  0.96267679251E+02  0.91879920618E+02 0.  0.
         11    1    3    3    0    0 -0.18805286852E+02  0.28247281686E+02  0.30891427918E+02  0.45889302188E+02  0.51100000000E-03 0.  1.
         22    1    1    0    0    0 -0.18147727370E+02  0.47544774008E+01 -0.21762380191E+02  0.28732320749E+02  0.00000000000E+00 0.  1.
</event>
<event>
 5    1  0.1626333E-003  0.9118800E+02  0.7818608E-02  0.1130116E+00
         25   -1    0    0    0    0  0.00000000000E+00  0.00000000000E+00  0.99999998245E-14  0.12500000000E+03  0.12500000000E+03 0.  0.
        -11    1    3    3    0    0  0.15761775181E+02  0.34207963511E+02 -0.69117022995E+01  0.38293471420E+02  0.51100000000E-03 0.  1.
         23    2    1    0    0    0  0.17851064819E+02 -0.23034813495E+02 -0.28743764977E+01  0.95716468994E+02  0.91126929327E+02 0.  0.
         11    1    3    3    0    0  0.20892896382E+01 -0.57242777006E+02  0.40373258019E+01  0.57422997574E+02  0.51100000000E-03 0. -1.
         22    1    1    0    0    0 -0.17851064819E+02  0.23034813495E+02  0.28743764977E+01  0.29283531006E+02  0.00000000000E+00 0. -1.
</event>
<event>
 5    1  0.1626333E-003  0.9118800E+02  0.7818608E-02  0.1130116E+00
         25   -1    0    0    0    0  0.00000000000E+00  0.00000000000E+00  0.99999998245E-14  0.12500000000E+03  0.12500000000E+03 0.  0.
        -11    1    3    3    0    0 -0.36322148686E+02 -0.33489492876E+02  0.35840815988E+02  0.61036126263E+02  0.51100000000E-03 0.  1.
         23    2    1    0    0    0 -0.21082836096E+02 -0.67249124659E+01  0.16374030791E+02  0.97471481880E+02  0.93503317962E+02 0.  0.
         11    1    3    3    0    0  0.15239312590E+02  0.26764580410E+02 -0.19466785197E+02  0.36435355617E+02  0.51100000000E-03 0. -1.
         22    1    1    0    0    0  0.21082836096E+02  0.67249124659E+01 -0.16374030791E+02  0.27528518120E+02  0.00000000000E+00 0.  1.
</event>
<event>
 5    1  0.1626333E-003  0.9118800E+02  0.7818608E-02  0.1130116E+00
         25   -1    0    0    0    0  0.00000000000E+00  0.00000000000E+00  0.99999998245E-14  0.12500000000E+03  0.12500000000E+03 0.  0.
        -11    1    3    3    0    0  0.16465114432E+02  0.54968014749E+02 -0.93658890937E+01  0.58140369087E+02  0.51100000000E-03 0. -1.
         23    2    1    0    0    0  0.55458002117E+01  0.22095924470E+02 -0.20323886438E+02  0.94470569313E+02  0.89401579003E+02 0.  0.
         11    1    3    3    0    0 -0.10919314220E+02 -0.32872090280E+02 -0.10957997344E+02  0.36330200226E+02  0.51100000000E-03 0.  1.
         22    1    1    0    0    0 -0.55458002117E+01 -0.22095924470E+02  0.20323886438E+02  0.30529430687E+02  0.00000000000E+00 0. -1.
</event>
<event>
 5    1  0.1626333E-003  0.9118800E+02  0.7818608E-02  0.1130116E+00
         25   -1    0    0    0    0  0.00000000000E+00  0.00000000000E+00  0.99999998245E-14  0.12500000000E+03  0.12500000000E+03 0.  0.
        -11    1    3    3    0    0  0.39384099293E+02  0.11864428147E+02  0.22806422382E+00  0.41133003123E+02  0.51100000000E-03 0. -1.
         23    2    1    0    0    0  0.56316168444E+01 -0.28430286937E+02  0.94841517683E+01  0.94504992894E+02  0.89449696609E+02 0.  0.
         11    1    3    3    0    0 -0.33752482449E+02 -0.40294715085E+02  0.92560875445E+01  0.53371989771E+02  0.51100000000E-03 0.  1.
         22    1    1    0    0    0 -0.56316168444E+01  0.28430286937E+02 -0.94841517683E+01  0.30495007106E+02  0.00000000000E+00 0.  1.
</event>
<event>
 5    1  0.1626333E-003  0.9118800E+02  0.7818608E-02  0.1130116E+00
         25   -1    0    0    0    0  0.00000000000E+00  0.00000000000E+00  0.99999998245E-14  0.12500000000E+03  0.12500000000E+03 0.  0.
        -11    1    3    3    0    0 -0.35449100895E+02  0.30167572995E+01  0.33816571028E+02  0.49084621372E+02  0.51100000000E-03 0.  1.
         23    2    1    0    0    0 -0.17386086715E+02 -0.23038172299E+02 -0.93172441701E+00  0.96122647204E+02  0.91682396353E+02 0.  0.
         11    1    3    3    0    0  0.18063014180E+02 -0.26054929598E+02 -0.34748295445E+02  0.47038025832E+02  0.51100000000E-03 0. -1.
         22    1    1    0    0    0  0.17386086715E+02  0.23038172299E+02  0.93172441701E+00  0.28877352796E+02  0.00000000000E+00 0. -1.
</event>
<event>
 5    1  0.1626333E-003  0.9118800E+02  0.7818608E-02  0.1130116E+00
         25   -1    0    0    0    0  0.00000000000E+00  0.00000000000E+00  0.99999998245E-14  0.12500000000E+03  0.12500000000E+03 0.  0.
        -11    1    3    3    0    0  0.18151929890E+02 -0.38267997452E+02 -0.30323395840E+02  0.52090695169E+02  0.51100000000E-03 0. -1.
         23    2    1    0    0    0 -0.17028227995E+02 -0.13722863101E+02 -0.17868982349E+02  0.96758575629E+02  0.92545361349E+02 0.  0.
         11    1    3    3    0    0 -0.35180157885E+02  0.24545134351E+02  0.12454413492E+02  0.44667880460E+02  0.51100000000E-03 0.  1.
         22    1    1    0    0    0  0.17028227995E+02  0.13722863101E+02  0.17868982349E+02  0.28241424371E+02  0.00000000000E+00 0. -1.
</event>
<event>
 5    1  0.1626333E-003  0.9118800E+02  0.7818608E-02  0.1130116E+00
         25   -1    0    0    0    0  0.00000000000E+00  0.00000000000E+00  0.99999998245E-14  0.12500000000E+03  0.12500000000E+03 0.  0.
        -11    1    3    3    0    0 -0.10327936969E+02 -0.15389714598E+02  0.50682657158E+02  0.53965186318E+02  0.51100000000E-03 0.  1.
         23    2    1    0    0    0 -0.78352349072E+01 -0.25659992567E+02  0.94121729090E+01  0.96567358135E+02  0.92286724580E+02 0.  0.
         11    1    3    3    0    0  0.24927020622E+01 -0.10270277969E+02 -0.41270484249E+02  0.42602171817E+02  0.51100000000E-03 0. -1.
         22    1    1    0    0    0  0.78352349072E+01  0.25659992567E+02 -0.94121729090E+01  0.28432641865E+02  0.00000000000E+00 0.  1.
</event>
<event>
 5    1  0.1626333E-003  0.9118800E+02  0.7818608E-02  0.1130116E+00
         25   -1    0    0    0    0  0.00000000000E+00  0.00000000000E+00  0.99999998245E-14  0.12500000000E+03  0.12500000000E+03 0.  0.
        -11    1    3    3    0    0  0.44618535936E+02  0.26114012587E+02  0.27382998898E+01  0.51771166580E+02  0.51100000000E-03 0.  1.
         23    2    1    0    0    0  0.26143016114E+02 -0.69387611482E+01 -0.15526741019E+02  0.93812127606E+02  0.88476165725E+02 0.  0.
         11    1    3    3    0    0 -0.18475519823E+02 -0.33052773735E+02 -0.18265040909E+02  0.42040961026E+02  0.51100000000E-03 0. -1.
         22    1    1    0    0    0 -0.26143016114E+02  0.69387611482E+01  0.15526741019E+02  0.31187872394E+02  0.00000000000E+00 0.  1.
</event>
<event>
 5    1  0.1626333E-003  0.9118800E+02  0.7818608E-02  0.1130116E+00
         25   -1    0    0    0    0  0.00000000000E+00  0.00000000000E+00  0.99999998245E-14  0.12500000000E+03  0.12500000000E+03 0.  0.
        -11    1    3    3    0    0 -0.36188682630E+02  0.32202961378E+02 -0.21573224333E+02  0.53028817453E+02  0.51100000000E-03 0.  1.
         23    2    1    0    0    0 -0.27243087215E+02 -0.33187538838E+01  0.33754662813E+01  0.97348712490E+02  0.93339049291E+02 0.  0.
         11    1    3    3    0    0  0.89455954153E+01 -0.35521715262E+02  0.24948690615E+02  0.44319895037E+02  0.51100000000E-03 0. -1.
         22    1    1    0    0    0  0.27243087215E+02  0.33187538838E+01 -0.33754662813E+01  0.27651287510E+02  0.00000000000E+00 0.  1.
</event>
<event>
 5    1  0.1626333E-003  0.9118800E+02  0.7818608E-02  0.1130116E+00
         25   -1    0    0    0    0  0.00000000000E+00  0.00000000000E+00  0.99999998245E-14  0.12500000000E+03  0.12500000000E+03 0.  0.
        -11    1    3    3    0    0 -0.89007900713E+01 -0.33543379643E+02 -0.82524575731E+01  0.35671913854E+02  0.51100000000E-03 0. -1.
         23    2    1    0    0    0  0.20760052383E+02  0.14360539534E+02  0.13864119411E+02  0.96200370181E+02  0.91788302879E+02 0.  0.
         11    1    3    3    0    0  0.29660842454E+02  0.47903919177E+02  0.22116576984E+02  0.60528456327E+02  0.51100000000E-03 0.  1.
         22    1    1    0    0    0 -0.20760052383E+02 -0.14360539534E+02 -0.13864119411E+02  0.28799629819E+02  0.00000000000E+00 0.  1.
</event>
<event>
 5    1  0.1626333E-003  0.9118800E+02  0.7818608E-02  0.1130116E+00
         25   -1    0    0    0    0  0.00000000000E+00  0.00000000000E+00  0.99999998245E-14  0.12500000000E+03  0.12500000000E+03 0.  0.
        -11    1    3    3    0    0  0.25937786887E+02 -0.58071200739E+01  0.43648779352E+02  0.51104866415E+02  0.51100000000E-03 0.  1.
         23    2    1    0    0    0 -0.10252459592E+02  0.10756534514E+02  0.26864035897E+02  0.94299961121E+02  0.89162717995E+02 0.  0.
         11    1    3    3    0    0 -0.36190246479E+02  0.16563654588E+02 -0.16784743455E+02  0.43195094706E+02  0.51100000000E-03 0. -1.
         22    1    1    0    0    0  0.10252459592E+02 -0.10756534514E+02 -0.26864035897E+02  0.30700038879E+02  0.00000000000E+00 0.  1.
</event>
<event>
 5    1  0.1626333E-003  0.9118800E+02  0.7818608E-02  0.1130116E+00
         25   -1    0    0    0    0  0.00000000000E+00  0.00000000000E+00  0.99999998245E-14  0.12500000000E+03  0.12500000000E+03 0.  0.
        -11    1    3    3    0    0 -0.11722476827E+02  0.34236469147E+02  0.82027219149E+01  0.37105753323E+02  0.51100000000E-03 0.  1.
         23    2    1    0    0    0  0.88813127696E+01 -0.13898946571E+02 -0.21962722255E+02  0.97533300141E+02  0.93585923274E+02 0.  0.
         11    1    3    3    0    0  0.20603789597E+02 -0.48135415718E+02 -0.30165444170E+02  0.60427546817E+02  0.51100000000E-03 0. -1.
         22    1    1    0    0    0 -0.88813127696E+01  0.13898946571E+02  0.21962722255E+02  0.27466699859E+02  0.00000000000E+00 0. -1.
</event>
<event>
 5    1  0.1626333E-003  0.9118800E+02  0.7818608E-02  0.1130116E+00
         25   -1    0    0    0    0  0.00000000000E+00  0.00000000000E+00  0.99999998245E-14  0.12500000000E+03  0.12500000000E+03 0.  0.
        -11    1    3    3    0    0 -0.37547281144E+02 -0.42719450002E+01 -0.39295026419E+02  0.54517400313E+02  0.51100000000E-03 0. -1.
         23    2    1    0    0    0 -0.21750378343E+02 -0.17383261447E+02 -0.20055743776E+01  0.97084429700E+02  0.92984447221E+02 0.  0.
         11    1    3    3    0    0  0.15796902801E+02 -0.13111316447E+02  0.37289452041E+02  0.42567029387E+02  0.51100000000E-03 0.  1.
         22    1    1    0    0    0  0.21750378343E+02  0.17383261447E+02  0.20055743776E+01  0.27915570300E+02  0.00000000000E+00 0. -1.
</event>
<event>
 5    1  0.1626333E-003  0.9118800E+02  0.7818608E-02  0.1130116E+00
         25   -1    0    0    0    0  0.00000000000E+00  0.00000000000E+00  0.99999998245E-14  0.12500000000E+03  0.12500000000E+03 0.  0.
        -11    1    3    3    0    0 -0.22897707131E+02  0.14059478346E+02  0.18442694403E+02  0.32589981594E+02  0.51100000000E-03 0.  1.
         23    2    1    0    0    0  0.26059094996E+02  0.17104539919E+01 -0.16605532343E+02  0.94052531780E+02  0.88815161684E+02 0.  0.
         11    1    3    3    0    0  0.48956802126E+02 -0.12349024354E+02 -0.35048226747E+02  0.61462550185E+02  0.51100000000E-03 0. -1.
         22    1    1    0    0    0 -0.26059094996E+02 -0.17104539919E+01  0.16605532343E+02  0.30947468220E+02  0.00000000000E+00 0. -1.
</event>
<event>
 5    1  0.1626333E-003  0.9118800E+02  0.7818608E-02  0.1130116E+00
         25   -1    0    0    0    0  0.00000000000E+00  0.00000000000E+00  0.99999998245E-14  0.12500000000E+03  0.12500000000E+03 0.  0.
        -11    1    3    3    0    0  0.43059747854E+02 -0.96218723080E+01 -0.33605516848E+02  0.55462176975E+02  0.51100000000E-03 0.  1.
         23    2    1    0    0    0  0.59580825480E+01  0.15777892818E+01 -0.29987222515E+02  0.94385923485E+02  0.89283149985E+02 0.  0.
         11    1    3    3    0    0 -0.37101665306E+02  0.11199661590E+02  0.36182943327E+01  0.38923746510E+02  0.51100000000E-03 0. -1.
         22    1    1    0    0    0 -0.59580825480E+01 -0.15777892818E+01  0.29987222515E+02  0.30614076515E+02  0.00000000000E+00 0.  1.
</event>
<event>
 5    1  0.1626333E-003  0.9118800E+02  0.7818608E-02  0.1130116E+00
         25   -1    0    0    0    0  0.00000000000E+00  0.00000000000E+00  0.99999998245E-14  0.12500000000E+03  0.12500000000E+03 0.  0.
        -11    1    3    3    0    0  0.12620280241E+02  0.16168612524E+02  0.32993878359E+02  0.38849601205E+02  0.51100000000E-03 0.  1.
         23    2    1    0    0    0 -0.94892308182E+01  0.15091429195E+02 -0.21147390930E+02  0.97341206104E+02  0.93328996169E+02 0.  0.
         11    1    3    3    0    0 -0.22109511059E+02 -0.10771833298E+01 -0.54141269289E+02  0.58491604899E+02  0.51100000000E-03 0. -1.
         22    1    1    0    0    0  0.94892308182E+01 -0.15091429195E+02  0.21147390930E+02  0.27658793896E+02  0.00000000000E+00 0. -1.
</event>
<event>
 5    1  0.1626333E-003  0.9118800E+02  0.7818608E-02  0.1130116E+00
         25   -1    0    0    0    0  0.00000000000E+00  0.00000000000E+00  0.99999998245E-14  0.12500000000E+03  0.12500000000E+03 0.  0.
        -11    1    3    3    0    0  0.31934033145E+02  0.38781407065E+02  0.23919409808E+02  0.55640975663E+02  0.51100000000E-03 0. -1.
         23    2    1    0    0    0 -0.49330659731E+01  0.21631824502E+02  0.17362248795E+02  0.96826987126E+02  0.92637717921E+02 0.  0.
         11    1    3    3    0    0 -0.36867099118E+02 -0.17149582563E+02 -0.65571610135E+01  0.41186011464E+02  0.51100000000E-03 0.  1.
         22    1    1    0    0    0  0.49330659731E+01 -0.21631824502E+02 -0.17362248795E+02  0.28173012874E+02  0.00000000000E+00 0. -1.
</event>
<event>
 5    1  0.1626333E-003  0.9118800E+02  0.7818608E-02  0.1130116E+00
         25   -1    0    0    0    0  0.00000000000E+00  0.00000000000E+00  0.99999998245E-14  0.12500000000E+03  0.12500000000E+03 0.  0.
        -11    1    3    3    0    0  0.95988778450E+01 -0.12691707976E+02 -0.41235891595E+02  0.44199736008E+02  0.51100000000E-03 0.  1.
         23    2    1    0    0    0  0.21386926754E+02 -0.19630256367E+02  0.76628179494E+01  0.94975570282E+02  0.90104897594E+02 0.  0.
         11    1    3    3    0    0  0.11788048909E+02 -0.69385483911E+01  0.48898709545E+02  0.50775834274E+02  0.51100000000E-03 0. -1.
         22    1    1    0    0    0 -0.21386926754E+02  0.19630256367E+02 -0.76628179494E+01  0.30024429718E+02  0.00000000000E+00 0. -1.
</event>
<event>
 5    1  0.1626333E-003  0.9118800E+02  0.7818608E-02  0.1130116E+00
         25   -1    0    0    0    0  0.00000000000E+00  0.00000000000E+00  0.99999998245E-14  0.12500000000E+03  0.12500000000E+03 0.  0.
        -11    1    3    3    0    0 -0.41152052085E+02  0.24227305744E+02  0.30079580571E+02  0.56437885343E+02  0.51100000000E-03 0.  1.
         23    2    1    0    0    0 -0.19352100265E+01  0.21859072398E+02  0.14473639779E+02  0.98712163794E+02  0.95147469480E+02 0.  0.
         11    1    3    3    0    0  0.39216842059E+02 -0.23682333462E+01 -0.15605940793E+02  0.42274278451E+02  0.51100000000E-03 0. -1.
         22    1    1    0    0    0  0.19352100265E+01 -0.21859072398E+02 -0.14473639779E+02  0.26287836206E+02  0.00000000000E+00 0.  1.
</event>
<event>
 5    1  0.1626333E-003  0.9118800E+02  0.7818608E-02  0.1130116E+00
         25   -1    0    0    0    0  0.00000000000E+00  0.00000000000E+00  0.99999998245E-14  0.12500000000E+03  0.12500000000E+03 0.  0.
        -11    1    3    3    0    0 -0.32432366831E+01  0.19954815476E+01 -0.14015289625E+02  0.14523390593E+02  0.51100000000E-03 0.  1.
         23    2    1    0    0    0 -0.18629153444E+02 -0.17433973036E+02  0.42045762810E+02  0.75818347485E+02  0.57702572484E+02 0.  0.
         11    1    3    3    0    0 -0.15385916761E+02 -0.19429454583E+02  0.56061052435E+02  0.61294956892E+02  0.51100000000E-03 0. -1.
         22    1    1    0    0    0  0.18629153444E+02  0.17433973036E+02 -0.42045762810E+02  0.49181652515E+02  0.00000000000E+00 0. -1.
</event>
<event>
 5    1  0.1626333E-003  0.9118800E+02  0.7818608E-02  0.1130116E+00
         25   -1    0    0    0    0  0.00000000000E+00  0.00000000000E+00  0.99999998245E-14  0.12500000000E+03  0.12500000000E+03 0.  0.
        -11    1    3    3    0    0 -0.43096435143E+01  0.26342300785E+02  0.31391922743E+02  0.41206099690E+02  0.51100000000E-03 0. -1.
         23    2    1    0    0    0 -0.27894708649E+02 -0.11520787656E+01 -0.91940139494E+01  0.95606600255E+02  0.90976096111E+02 0.  0.
         11    1    3    3    0    0 -0.23585065135E+02 -0.27494379551E+02 -0.40585936692E+02  0.54400500565E+02  0.51100000000E-03 0.  1.
         22    1    1    0    0    0  0.27894708649E+02  0.11520787656E+01  0.91940139494E+01  0.29393399745E+02  0.00000000000E+00 0.  1.
</event>
<event>
 5    1  0.1626333E-003  0.9118800E+02  0.7818608E-02  0.1130116E+00
         25   -1    0    0    0    0  0.00000000000E+00  0.00000000000E+00  0.99999998245E-14  0.12500000000E+03  0.12500000000E+03 0.  0.
        -11    1    3    3    0    0 -0.16640559464E+02  0.24735025555E+01 -0.54729893015E+02  0.57257205869E+02  0.51100000000E-03 0. -1.
         23    2    1    0    0    0 -0.18220891392E+02 -0.10464402301E+02 -0.14698038811E+02  0.99357516823E+02  0.95991557991E+02 0.  0.
         11    1    3    3    0    0 -0.15803319277E+01 -0.12937904856E+02  0.40031854205E+02  0.42100310954E+02  0.51100000000E-03 0.  1.
         22    1    1    0    0    0  0.18220891392E+02  0.10464402301E+02  0.14698038811E+02  0.25642483177E+02  0.00000000000E+00 0. -1.
</event>
<event>
 5    1  0.1626333E-003  0.9118800E+02  0.7818608E-02  0.1130116E+00
         25   -1    0    0    0    0  0.00000000000E+00  0.00000000000E+00  0.99999998245E-14  0.12500000000E+03  0.12500000000E+03 0.  0.
        -11    1    3    3    0    0 -0.48648184327E+02 -0.36156210366E+01 -0.35509383368E+02  0.60337673648E+02  0.51100000000E-03 0. -1.
         23    2    1    0    0    0 -0.29936480383E+02 -0.46803064149E+01 -0.79356535076E+01  0.93677919570E+02  0.88286351677E+02 0.  0.
         11    1    3    3    0    0  0.18711703944E+02 -0.10646853784E+01  0.27573729861E+02  0.33340245922E+02  0.51100000000E-03 0.  1.
         22    1    1    0    0    0  0.29936480383E+02  0.46803064149E+01  0.79356535076E+01  0.31322080430E+02  0.00000000000E+00 0. -1.
</event>
<event>
 5    1  0.1626333E-003  0.9118800E+02  0.7818608E-02  0.1130116E+00
         25   -1    0    0    0    0  0.00000000000E+00  0.00000000000E+00  0.99999998245E-14  0.12500000000E+03  0.12500000000E+03 0.  0.
        -11    1    3    3    0    0 -0.31969264290E+02 -0.36799651050E+02  0.27812197978E+02  0.56122780876E+02  0.51100000000E-03 0.  1.
         23    2    1    0    0    0 -0.28999447676E+01 -0.11396723854E+02  0.27894736174E+02  0.94727713986E+02  0.89760394922E+02 0.  0.
         11    1    3    3    0    0  0.29069319523E+02  0.25402927195E+02  0.82538195720E-01  0.38604933110E+02  0.51100000000E-03 0. -1.
         22    1    1    0    0    0  0.28999447676E+01  0.11396723854E+02 -0.27894736174E+02  0.30272286014E+02  0.00000000000E+00 0.  1.
</event>
<event>
 5    1  0.1626333E-003  0.9118800E+02  0.7818608E-02  0.1130116E+00
         25   -1    0    0    0    0  0.00000000000E+00  0.00000000000E+00  0.99999998245E-14  0.12500000000E+03  0.12500000000E+03 0.  0.
        -11    1    3    3    0    0  0.19480893794E+02  0.47943919202E+02  0.42158742505E+01  0.51922039708E+02  0.51100000000E-03 0.  1.
         23    2    1    0    0    0 -0.17570127576E+02  0.16008156769E+02  0.43443131869E+01  0.10083714580E+03  0.97899368993E+02 0.  0.
         11    1    3    3    0    0 -0.37051021371E+02 -0.31935762434E+02  0.12843893634E+00  0.48915106089E+02  0.51100000000E-03 0. -1.
         22    1    1    0    0    0  0.17570127576E+02 -0.16008156769E+02 -0.43443131869E+01  0.24162854203E+02  0.00000000000E+00 0. -1.
</event>
<event>
 5    1  0.1626333E-003  0.9118800E+02  0.7818608E-02  0.1130116E+00
         25   -1    0    0    0    0  0.00000000000E+00  0.00000000000E+00  0.99999998245E-14  0.12500000000E+03  0.12500000000E+03 0.  0.
        -11    1    3    3    0    0 -0.57789494160E+02 -0.22560868576E+00  0.80411456224E+01  0.58346692774E+02  0.51100000000E-03 0. -1.
         23    2    1    0    0    0 -0.23263281974E+02  0.15745658983E+02  0.23578767534E+01  0.96810185389E+02  0.92615043850E+02 0.  0.
         11    1    3    3    0    0  0.34526212186E+02  0.15971267669E+02 -0.56832688690E+01  0.38463492615E+02  0.51100000000E-03 0.  1.
         22    1    1    0    0    0  0.23263281974E+02 -0.15745658983E+02 -0.23578767534E+01  0.28189814611E+02  0.00000000000E+00 0. -1.
</event>
<event>
 5    1  0.1626333E-003  0.9118800E+02  0.7818608E-02  0.1130116E+00
         25   -1    0    0    0    0  0.00000000000E+00  0.00000000000E+00  0.99999998245E-14  0.12500000000E+03  0.12500000000E+03 0.  0.
        -11    1    3    3    0    0  0.34535708053E+02 -0.20606733911E+02  0.42307173420E+02  0.58371650107E+02  0.51100000000E-03 0. -1.
         23    2    1    0    0    0  0.11115809428E+01 -0.54270772958E+01  0.25782512411E+02  0.98629055262E+02  0.95038222918E+02 0.  0.
         11    1    3    3    0    0 -0.33424127110E+02  0.15179656615E+02 -0.16524661009E+02  0.40257405154E+02  0.51100000000E-03 0.  1.
         22    1    1    0    0    0 -0.11115809428E+01  0.54270772958E+01 -0.25782512411E+02  0.26370944738E+02  0.00000000000E+00 0. -1.
</event>
<event>
 5    1  0.1626333E-003  0.9118800E+02  0.7818608E-02  0.1130116E+00
         25   -1    0    0    0    0  0.00000000000E+00  0.00000000000E+00  0.99999998245E-14  0.12500000000E+03  0.12500000000E+03 0.  0.
        -11    1    3    3    0    0 -0.31672168855E+02  0.53373941570E+02 -0.63575204146E+01  0.62388476378E+02  0.51100000000E-03 0. -1.
         23    2    1    0    0    0 -0.13461138010E+02  0.24898678386E+02 -0.52861745003E+01  0.96206075941E+02  0.91796072820E+02 0.  0.
         11    1    3    3    0    0  0.18211030845E+02 -0.28475263185E+02  0.10713459144E+01  0.33817599563E+02  0.51100000000E-03 0.  1.
         22    1    1    0    0    0  0.13461138010E+02 -0.24898678386E+02  0.52861745003E+01  0.28793924059E+02  0.00000000000E+00 0. -1.
</event>
<event>
 5    1  0.1626333E-003  0.9118800E+02  0.7818608E-02  0.1130116E+00
         25   -1    0    0    0    0  0.00000000000E+00  0.00000000000E+00  0.99999998245E-14  0.12500000000E+03  0.12500000000E+03 0.  0.
        -11    1    3    3    0    0  0.15977888656E+02 -0.18506652491E+02 -0.46037386990E+02  0.52127057403E+02  0.51100000000E-03 0. -1.
         23    2    1    0    0    0 -0.18091652288E+02 -0.67003652729E+01 -0.23278265097E+02  0.94766237362E+02  0.89814026414E+02 0.  0.
         11    1    3    3    0    0 -0.34069540944E+02  0.11806287218E+02  0.22759121893E+02  0.42639179960E+02  0.51100000000E-03 0.  1.
         22    1    1    0    0    0  0.18091652288E+02  0.67003652729E+01  0.23278265097E+02  0.30233762638E+02  0.00000000000E+00 0. -1.
</event>
<event>
 5    1  0.1626333E-003  0.9118800E+02  0.7818608E-02  0.1130116E+00
         25   -1    0    0    0    0  0.00000000000E+00  0.00000000000E+00  0.99999998245E-14  0.12500000000E+03  0.12500000000E+03 0.  0.
        -11    1    3    3    0    0  0.96952257680E+01 -0.41257477213E+02 -0.16276665532E+02  0.45399412659E+02  0.51100000000E-03 0.  1.
         23    2    1    0    0    0 -0.17866036549E+02  0.13035435738E+01 -0.22226930061E+02  0.96453005276E+02  0.92131706372E+02 0.  0.
         11    1    3    3    0    0 -0.27561262317E+02  0.42561020787E+02 -0.59502645286E+01  0.51053592617E+02  0.51100000000E-03 0. -1.
         22    1    1    0    0    0  0.17866036549E+02 -0.13035435738E+01  0.22226930061E+02  0.28546994724E+02  0.00000000000E+00 0. -1.
</event>
<event>
 5    1  0.1626333E-003  0.9118800E+02  0.7818608E-02  0.1130116E+00
         25   -1    0    0    0    0  0.00000000000E+00  0.00000000000E+00  0.99999998245E-14  0.12500000000E+03  0.12500000000E+03 0.  0.
        -11    1    3    3    0    0  0.46200981311E+02  0.33172034395E+02  0.22793524239E+02  0.61273642682E+02  0.51100000000E-03 0.  1.
         23    2    1    0    0    0  0.20315694499E+02  0.21264045177E+02  0.42099845052E+01  0.95291229750E+02  0.90541744171E+02 0.  0.
         11    1    3    3    0    0 -0.25885286813E+02 -0.11907989219E+02 -0.18583539734E+02  0.34017587068E+02  0.51100000000E-03 0. -1.
         22    1    1    0    0    0 -0.20315694499E+02 -0.21264045177E+02 -0.42099845052E+01  0.29708770250E+02  0.00000000000E+00 0.  1.
</event>
<event>
 5    1  0.1626333E-003  0.9118800E+02  0.7818608E-02  0.1130116E+00
         25   -1    0    0    0    0  0.00000000000E+00  0.00000000000E+00  0.99999998245E-14  0.12500000000E+03  0.12500000000E+03 0.  0.
        -11    1    3    3    0    0 -0.38797326059E+02 -0.31593317035E+02  0.80933774773E+01  0.50684050251E+02  0.51100000000E-03 0. -1.
         23    2    1    0    0    0 -0.27309032765E+02 -0.13124550391E+02  0.30568016992E+02  0.81960009800E+02  0.69749569533E+02 0.  0.
         11    1    3    3    0    0  0.11488293293E+02  0.18468766644E+02  0.22474639515E+02  0.31275959549E+02  0.51100000000E-03 0.  1.
         22    1    1    0    0    0  0.27309032765E+02  0.13124550391E+02 -0.30568016992E+02  0.43039990200E+02  0.00000000000E+00 0. -1.
</event>
<event>
 4    1  0.1626333E-003  0.9118800E+02  0.7818608E-02  0.1130116E+00
         25   -1    0    0    0    0  0.00000000000E+00  0.00000000000E+00  0.99999998245E-14  0.12500000000E+03  0.12500000000E+03 0.  0.
        -11    1    1    0    0    0  0.33983283979E+02 -0.61510752632E+01  0.88832673479E+01  0.35659665673E+02  0.51100000000E-03 0. -1.
         11    1    1    0    0    0  0.15542203133E+02 -0.12333115346E+01 -0.30923335011E+02  0.34631398817E+02  0.51100000000E-03 0.  1.
         22    1    1    0    0    0 -0.49525487112E+02  0.73843867978E+01  0.22040067663E+02  0.54708935510E+02  0.00000000000E+00 0.  1.
</event>
<event>
 5    1  0.1626333E-003  0.9118800E+02  0.7818608E-02  0.1130116E+00
         25   -1    0    0    0    0  0.00000000000E+00  0.00000000000E+00  0.99999998245E-14  0.12500000000E+03  0.12500000000E+03 0.  0.
        -11    1    3    3    0    0  0.51864089395E+02 -0.22121105210E+02 -0.15790932302E+02  0.58554082759E+02  0.51100000000E-03 0.  1.
         23    2    1    0    0    0  0.16786873389E+02 -0.20318125375E+02 -0.16893310250E+02  0.93694900285E+02  0.88310390506E+02 0.  0.
         11    1    3    3    0    0 -0.35077216006E+02  0.18029798344E+01 -0.11023779478E+01  0.35140817526E+02  0.51100000000E-03 0. -1.
         22    1    1    0    0    0 -0.16786873389E+02  0.20318125375E+02  0.16893310250E+02  0.31305099715E+02  0.00000000000E+00 0.  1.
</event>
<event>
 5    1  0.1626333E-003  0.9118800E+02  0.7818608E-02  0.1130116E+00
         25   -1    0    0    0    0  0.00000000000E+00  0.00000000000E+00  0.99999998245E-14  0.12500000000E+03  0.12500000000E+03 0.  0.
        -11    1    3    3    0    0 -0.29781105796E+02 -0.20720831421E+02 -0.17899962705E+01  0.36324526206E+02  0.51100000000E-03 0.  1.
         23    2    1    0    0    0  0.81467362164E+01  0.24122178062E+02  0.12301704694E+02  0.96723141550E+02  0.92497488547E+02 0.  0.
         11    1    3    3    0    0  0.37927842012E+02  0.44843009483E+02  0.14091700964E+02  0.60398615344E+02  0.51100000000E-03 0. -1.
         22    1    1    0    0    0 -0.81467362164E+01 -0.24122178062E+02 -0.12301704694E+02  0.28276858450E+02  0.00000000000E+00 0. -1.
</event>
<event>
 5    1  0.1626333E-003  0.9118800E+02  0.7818608E-02  0.1130116E+00
         25   -1    0    0    0    0  0.00000000000E+00  0.00000000000E+00  0.99999998245E-14  0.12500000000E+03  0.12500000000E+03 0.  0.
        -11    1    3    3    0    0 -0.34037879969E+01  0.30642178650E+02  0.26053002255E+02  0.40364437466E+02  0.51100000000E-03 0.  1.
         23    2    1    0    0    0  0.89271189559E+01 -0.22522247786E+02  0.16287779627E+02  0.95806903841E+02  0.91250895668E+02 0.  0.
         11    1    3    3    0    0  0.12330906953E+02 -0.53164426436E+02 -0.97652226287E+01  0.55442466375E+02  0.51100000000E-03 0. -1.
         22    1    1    0    0    0 -0.89271189559E+01  0.22522247786E+02 -0.16287779627E+02  0.29193096159E+02  0.00000000000E+00 0. -1.
</event>
<event>
 5    1  0.1626333E-003  0.9118800E+02  0.7818608E-02  0.1130116E+00
         25   -1    0    0    0    0  0.00000000000E+00  0.00000000000E+00  0.99999998245E-14  0.12500000000E+03  0.12500000000E+03 0.  0.
        -11    1    3    3    0    0 -0.94605569840E+01  0.26221645442E+01  0.33878779780E+02  0.35272504944E+02  0.51100000000E-03 0.  1.
         23    2    1    0    0    0  0.16314311751E+02  0.19812268351E+01 -0.22424393706E+02  0.97198283133E+02  0.93137375866E+02 0.  0.
         11    1    3    3    0    0  0.25774868735E+02 -0.64093770913E+00 -0.56303173486E+02  0.61925778189E+02  0.51100000000E-03 0. -1.
         22    1    1    0    0    0 -0.16314311751E+02 -0.19812268351E+01  0.22424393706E+02  0.27801716867E+02  0.00000000000E+00 0. -1.
</event>
<event>
 5    1  0.1626333E-003  0.9118800E+02  0.7818608E-02  0.1130116E+00
         25   -1    0    0    0    0  0.00000000000E+00  0.00000000000E+00  0.99999998245E-14  0.12500000000E+03  0.12500000000E+03 0.  0.
        -11    1    3    3    0    0  0.81080640382E+01 -0.72237638815E+01  0.56128829680E+02  0.57169650940E+02  0.51100000000E-03 0.  1.
         23    2    1    0    0    0 -0.46069358560E+01 -0.19004115162E+02  0.21225948057E+02  0.96139627133E+02  0.91705543907E+02 0.  0.
         11    1    3    3    0    0 -0.12714999894E+02 -0.11780351281E+02 -0.34902881623E+02  0.38969976193E+02  0.51100000000E-03 0. -1.
         22    1    1    0    0    0  0.46069358560E+01  0.19004115162E+02 -0.21225948057E+02  0.28860372867E+02  0.00000000000E+00 0. -1.
</event>
<event>
 5    1  0.1626333E-003  0.9118800E+02  0.7818608E-02  0.1130116E+00
         25   -1    0    0    0    0  0.00000000000E+00  0.00000000000E+00  0.99999998245E-14  0.12500000000E+03  0.12500000000E+03 0.  0.
        -11    1    3    3    0    0 -0.17246790513E+02 -0.16390994080E+01 -0.32294042640E+02  0.36647559539E+02  0.51100000000E-03 0.  1.
         23    2    1    0    0    0 -0.54737864235E+01  0.20978188802E+02  0.20427921608E+02  0.95211634411E+02  0.90431789780E+02 0.  0.
         11    1    3    3    0    0  0.11773004090E+02  0.22617288210E+02  0.52721964248E+02  0.58564074873E+02  0.51100000000E-03 0. -1.
         22    1    1    0    0    0  0.54737864235E+01 -0.20978188802E+02 -0.20427921608E+02  0.29788365589E+02  0.00000000000E+00 0. -1.
</event>
<event>
 5    1  0.1626333E-003  0.9118800E+02  0.7818608E-02  0.1130116E+00
         25   -1    0    0    0    0  0.00000000000E+00  0.00000000000E+00  0.99999998245E-14  0.12500000000E+03  0.12500000000E+03 0.  0.
        -11    1    3    3    0    0 -0.85102570093E+01 -0.34397362875E+02 -0.15277408070E+02  0.38587591849E+02  0.51100000000E-03 0.  1.
         23    2    1    0    0    0 -0.69288476782E+01  0.19469789297E+01  0.28556241559E+02  0.95550745526E+02  0.90899320028E+02 0.  0.
         11    1    3    3    0    0  0.15814093311E+01  0.36344341805E+02  0.43833649629E+02  0.56963153677E+02  0.51100000000E-03 0. -1.
         22    1    1    0    0    0  0.69288476782E+01 -0.19469789297E+01 -0.28556241559E+02  0.29449254474E+02  0.00000000000E+00 0. -1.
</event>
<event>
 5    1  0.1626333E-003  0.9118800E+02  0.7818608E-02  0.1130116E+00
         25   -1    0    0    0    0  0.00000000000E+00  0.00000000000E+00  0.99999998245E-14  0.12500000000E+03  0.12500000000E+03 0.  0.
        -11    1    3    3    0    0  0.37235783639E+02 -0.64109943180E+01 -0.25644703826E+02  0.45664595322E+02  0.51100000000E-03 0. -1.
         23    2    1    0    0    0 -0.14239229842E+01  0.25118657188E+02 -0.96692952345E+01  0.98046896915E+02  0.94269423615E+02 0.  0.
         11    1    3    3    0    0 -0.38659706623E+02  0.31529651506E+02  0.15975408591E+02  0.52382301593E+02  0.51100000000E-03 0.  1.
         22    1    1    0    0    0  0.14239229842E+01 -0.25118657188E+02  0.96692952345E+01  0.26953103085E+02  0.00000000000E+00 0.  1.
</event>
<event>
 5    1  0.1626333E-003  0.9118800E+02  0.7818608E-02  0.1130116E+00
         25   -1    0    0    0    0  0.00000000000E+00  0.00000000000E+00  0.99999998245E-14  0.12500000000E+03  0.12500000000E+03 0.  0.
        -11    1    3    3    0    0 -0.40648563330E+02  0.22528467164E+02 -0.24618303945E+02  0.52591809467E+02  0.51100000000E-03 0.  1.
         23    2    1    0    0    0 -0.13772775079E-01  0.20058588218E+02 -0.24544604343E+02  0.93301660085E+02  0.87752008646E+02 0.  0.
         11    1    3    3    0    0  0.40634790555E+02 -0.24698789460E+01  0.73699602669E-01  0.40709850618E+02  0.51100000000E-03 0. -1.
         22    1    1    0    0    0  0.13772775079E-01 -0.20058588218E+02  0.24544604343E+02  0.31698339915E+02  0.00000000000E+00 0.  1.
</event>
<event>
 5    1  0.1626333E-003  0.9118800E+02  0.7818608E-02  0.1130116E+00
         25   -1    0    0    0    0  0.00000000000E+00  0.00000000000E+00  0.99999998245E-14  0.12500000000E+03  0.12500000000E+03 0.  0.
        -11    1    3    3    0    0 -0.24541407778E+02  0.13623871435E+02  0.25992339557E+02  0.38255617686E+02  0.51100000000E-03 0.  1.
         23    2    1    0    0    0 -0.55695959154E+01 -0.26216747296E+02 -0.11186653693E+02  0.95957282182E+02  0.91456659382E+02 0.  0.
         11    1    3    3    0    0  0.18971811862E+02 -0.39840618731E+02 -0.37178993250E+02  0.57701664496E+02  0.51100000000E-03 0. -1.
         22    1    1    0    0    0  0.55695959154E+01  0.26216747296E+02  0.11186653693E+02  0.29042717818E+02  0.00000000000E+00 0. -1.
</event>
<event>
 5    1  0.1626333E-003  0.9118800E+02  0.7818608E-02  0.1130116E+00
         25   -1    0    0    0    0  0.00000000000E+00  0.00000000000E+00  0.99999998245E-14  0.12500000000E+03  0.12500000000E+03 0.  0.
        -11    1    3    3    0    0  0.32069533132E+02  0.98395784622E+01  0.33256372291E+00  0.33546726495E+02  0.51100000000E-03 0.  1.
         23    2    1    0    0    0 -0.27846542346E+02 -0.77210447674E+01 -0.20647460371E+01  0.96029193502E+02  0.91554892690E+02 0.  0.
         11    1    3    3    0    0 -0.59916075478E+02 -0.17560623230E+02 -0.23973097600E+01  0.62482467007E+02  0.51100000000E-03 0. -1.
         22    1    1    0    0    0  0.27846542346E+02  0.77210447674E+01  0.20647460371E+01  0.28970806498E+02  0.00000000000E+00 0. -1.
</event>
<event>
 5    1  0.1626333E-003  0.9118800E+02  0.7818608E-02  0.1130116E+00
         25   -1    0    0    0    0  0.00000000000E+00  0.00000000000E+00  0.99999998245E-14  0.12500000000E+03  0.12500000000E+03 0.  0.
        -11    1    3    3    0    0  0.23599706432E+01 -0.14783301764E+02 -0.52857587095E+02  0.54936690711E+02  0.51100000000E-03 0. -1.
         23    2    1    0    0    0 -0.20036888058E+02 -0.26667025596E+01 -0.19393456586E+02  0.96987603745E+02  0.92854191808E+02 0.  0.
         11    1    3    3    0    0 -0.22396858702E+02  0.12116599204E+02  0.33464130510E+02  0.42050913034E+02  0.51100000000E-03 0.  1.
         22    1    1    0    0    0  0.20036888058E+02  0.26667025596E+01  0.19393456586E+02  0.28012396255E+02  0.00000000000E+00 0. -1.
</event>
<event>
 5    1  0.1626333E-003  0.9118800E+02  0.7818608E-02  0.1130116E+00
         25   -1    0    0    0    0  0.00000000000E+00  0.00000000000E+00  0.99999998245E-14  0.12500000000E+03  0.12500000000E+03 0.  0.
        -11    1    3    3    0    0  0.56263666718E+02 -0.68005403540E+01  0.24724247700E+02  0.61831512728E+02  0.51100000000E-03 0.  1.
         23    2    1    0    0    0  0.26266465925E+02  0.30765407281E+01  0.13129463592E+02  0.95474161329E+02  0.90793944358E+02 0.  0.
         11    1    3    3    0    0 -0.29997200793E+02  0.98770810822E+01 -0.11594784108E+02  0.33642648601E+02  0.51100000000E-03 0. -1.
         22    1    1    0    0    0 -0.26266465925E+02 -0.30765407281E+01 -0.13129463592E+02  0.29525838671E+02  0.00000000000E+00 0.  1.
</event>
<event>
 5    1  0.1626333E-003  0.9118800E+02  0.7818608E-02  0.1130116E+00
         25   -1    0    0    0    0  0.00000000000E+00  0.00000000000E+00  0.99999998245E-14  0.12500000000E+03  0.12500000000E+03 0.  0.
        -11    1    3    3    0    0  0.41526437040E+02  0.31030539666E+02  0.16905649730E+02  0.54526510601E+02  0.51100000000E-03 0. -1.
         23    2    1    0    0    0 -0.24818122863E+01  0.19942107492E+02  0.14951328921E+02  0.99952259983E+02  0.96762931931E+02 0.  0.
         11    1    3    3    0    0 -0.44008249327E+02 -0.11088432174E+02 -0.19543208094E+01  0.45425749383E+02  0.51100000000E-03 0.  1.
         22    1    1    0    0    0  0.24818122863E+01 -0.19942107492E+02 -0.14951328921E+02  0.25047740017E+02  0.00000000000E+00 0. -1.
</event>
<event>
 5    1  0.1626333E-003  0.9118800E+02  0.7818608E-02  0.1130116E+00
         25   -1    0    0    0    0  0.00000000000E+00  0.00000000000E+00  0.99999998245E-14  0.12500000000E+03  0.12500000000E+03 0.  0.
        -11    1    3    3    0    0 -0.36702694282E+02 -0.39876212677E+02 -0.36329439384E+01  0.54317569781E+02  0.51100000000E-03 0. -1.
         23    2    1    0    0    0 -0.22124325092E+02 -0.46386170176E+01  0.16092778612E+02  0.97251485588E+02  0.93208751719E+02 0.  0.
         11    1    3    3    0    0  0.14578369190E+02  0.35237595659E+02  0.19725722550E+02  0.42933915807E+02  0.51100000000E-03 0.  1.
         22    1    1    0    0    0  0.22124325092E+02  0.46386170176E+01 -0.16092778612E+02  0.27748514412E+02  0.00000000000E+00 0. -1.
</event>
<event>
 5    1  0.1626333E-003  0.9118800E+02  0.7818608E-02  0.1130116E+00
         25   -1    0    0    0    0  0.00000000000E+00  0.00000000000E+00  0.99999998245E-14  0.12500000000E+03  0.12500000000E+03 0.  0.
        -11    1    3    3    0    0 -0.31090094366E+02  0.41521795825E+02 -0.26615147507E+01  0.51939745448E+02  0.51100000000E-03 0.  1.
         23    2    1    0    0    0 -0.61800364250E+01  0.13548153457E+02 -0.25253846125E+02  0.95682734499E+02  0.91080643525E+02 0.  0.
         11    1    3    3    0    0  0.24910057941E+02 -0.27973642368E+02 -0.22592331375E+02  0.43742989051E+02  0.51100000000E-03 0. -1.
         22    1    1    0    0    0  0.61800364250E+01 -0.13548153457E+02  0.25253846125E+02  0.29317265501E+02  0.00000000000E+00 0.  1.
</event>
<event>
 5    1  0.1626333E-003  0.9118800E+02  0.7818608E-02  0.1130116E+00
         25   -1    0    0    0    0  0.00000000000E+00  0.00000000000E+00  0.99999998245E-14  0.12500000000E+03  0.12500000000E+03 0.  0.
        -11    1    3    3    0    0 -0.15748736029E+02 -0.15906421404E+02  0.41214657744E+02  0.46900798945E+02  0.51100000000E-03 0. -1.
         23    2    1    0    0    0 -0.26450425546E+02 -0.31355881243E+02  0.10923865198E+02  0.82548296489E+02  0.70796003576E+02 0.  0.
         11    1    3    3    0    0 -0.10701689517E+02 -0.15449459839E+02 -0.30290792547E+02  0.35647497545E+02  0.51100000000E-03 0.  1.
         22    1    1    0    0    0  0.26450425546E+02  0.31355881243E+02 -0.10923865198E+02  0.42451703511E+02  0.00000000000E+00 0. -1.
</event>
<event>
 5    1  0.1626333E-003  0.9118800E+02  0.7818608E-02  0.1130116E+00
         25   -1    0    0    0    0  0.00000000000E+00  0.00000000000E+00  0.99999998245E-14  0.12500000000E+03  0.12500000000E+03 0.  0.
        -11    1    3    3    0    0 -0.62815309022E+01  0.34152456962E+02  0.39735604731E+02  0.52770884308E+02  0.51100000000E-03 0. -1.
         23    2    1    0    0    0 -0.25226917835E+02  0.59771711555E+01  0.12932359925E+02  0.96028118948E+02  0.91553425588E+02 0.  0.
         11    1    3    3    0    0 -0.18945386933E+02 -0.28175285806E+02 -0.26803244806E+02  0.43257234640E+02  0.51100000000E-03 0.  1.
         22    1    1    0    0    0  0.25226917835E+02 -0.59771711555E+01 -0.12932359925E+02  0.28971881052E+02  0.00000000000E+00 0. -1.
</event>
<event>
 5    1  0.1626333E-003  0.9118800E+02  0.7818608E-02  0.1130116E+00
         25   -1    0    0    0    0  0.00000000000E+00  0.00000000000E+00  0.99999998245E-14  0.12500000000E+03  0.12500000000E+03 0.  0.
        -11    1    3    3    0    0 -0.19117527303E+02  0.15066625641E+02 -0.51631243846E+02  0.57081243853E+02  0.51100000000E-03 0.  1.
         23    2    1    0    0    0 -0.22614175537E+02 -0.42451206853E+01 -0.18998323914E+02  0.95161127763E+02  0.90361949629E+02 0.  0.
         11    1    3    3    0    0 -0.34966482334E+01 -0.19311746326E+02  0.32632919932E+02  0.38079883910E+02  0.51100000000E-03 0. -1.
         22    1    1    0    0    0  0.22614175537E+02  0.42451206853E+01  0.18998323914E+02  0.29838872237E+02  0.00000000000E+00 0.  1.
</event>
<event>
 5    1  0.1626333E-003  0.9118800E+02  0.7818608E-02  0.1130116E+00
         25   -1    0    0    0    0  0.00000000000E+00  0.00000000000E+00  0.99999998245E-14  0.12500000000E+03  0.12500000000E+03 0.  0.
        -11    1    3    3    0    0 -0.46947623877E+02  0.22503247902E+02  0.22875665974E+01  0.52112460266E+02  0.51100000000E-03 0. -1.
         23    2    1    0    0    0 -0.21566815090E+02 -0.46627014363E+01  0.21699342662E+02  0.94052790598E+02  0.88815525949E+02 0.  0.
         11    1    3    3    0    0  0.25380808786E+02 -0.27165949338E+02  0.19411776064E+02  0.41940330332E+02  0.51100000000E-03 0.  1.
         22    1    1    0    0    0  0.21566815090E+02  0.46627014363E+01 -0.21699342662E+02  0.30947209402E+02  0.00000000000E+00 0. -1.
</event>
<event>
 5    1  0.1626333E-003  0.9118800E+02  0.7818608E-02  0.1130116E+00
         25   -1    0    0    0    0  0.00000000000E+00  0.00000000000E+00  0.99999998245E-14  0.12500000000E+03  0.12500000000E+03 0.  0.
        -11    1    3    3    0    0  0.38224566992E+01 -0.58753641543E+02 -0.41112513808E+01  0.59021216168E+02  0.51100000000E-03 0.  1.
         23    2    1    0    0    0 -0.95077541914E+01 -0.28235028275E+02 -0.11379320569E+02  0.93107945377E+02  0.87475632860E+02 0.  0.
         11    1    3    3    0    0 -0.13330210891E+02  0.30518613268E+02 -0.72680691878E+01  0.34086729209E+02  0.51100000000E-03 0. -1.
         22    1    1    0    0    0  0.95077541914E+01  0.28235028275E+02  0.11379320569E+02  0.31892054623E+02  0.00000000000E+00 0.  1.
</event>
<event>
 5    1  0.1626333E-003  0.9118800E+02  0.7818608E-02  0.1130116E+00
         25   -1    0    0    0    0  0.00000000000E+00  0.00000000000E+00  0.99999998245E-14  0.12500000000E+03  0.12500000000E+03 0.  0.
        -11    1    3    3    0    0  0.26067096253E+02 -0.54117411961E+02  0.50940043997E+00  0.60070352700E+02  0.51100000000E-03 0.  1.
         23    2    1    0    0    0  0.26086531551E+01 -0.28859211322E+02 -0.66324351759E+01  0.95273776800E+02  0.90517645793E+02 0.  0.
         11    1    3    3    0    0 -0.23458443097E+02  0.25258200640E+02 -0.71418356159E+01  0.35203424100E+02  0.51100000000E-03 0. -1.
         22    1    1    0    0    0 -0.26086531551E+01  0.28859211322E+02  0.66324351759E+01  0.29726223200E+02  0.00000000000E+00 0.  1.
</event>
<event>
 5    1  0.1626333E-003  0.9118800E+02  0.7818608E-02  0.1130116E+00
         25   -1    0    0    0    0  0.00000000000E+00  0.00000000000E+00  0.99999998245E-14  0.12500000000E+03  0.12500000000E+03 0.  0.
        -11    1    3    3    0    0 -0.16836264075E+02  0.17904565848E+02 -0.17646209089E+02  0.30255940932E+02  0.51100000000E-03 0. -1.
         23    2    1    0    0    0  0.94956928113E+01 -0.10436449318E+02  0.30129454563E+02  0.91730318779E+02  0.85484382753E+02 0.  0.
         11    1    3    3    0    0  0.26331956887E+02 -0.28341015165E+02  0.47775663651E+02  0.61474377847E+02  0.51100000000E-03 0.  1.
         22    1    1    0    0    0 -0.94956928113E+01  0.10436449318E+02 -0.30129454563E+02  0.33269681221E+02  0.00000000000E+00 0.  1.
</event>
<event>
 5    1  0.1626333E-003  0.9118800E+02  0.7818608E-02  0.1130116E+00
         25   -1    0    0    0    0  0.00000000000E+00  0.00000000000E+00  0.99999998245E-14  0.12500000000E+03  0.12500000000E+03 0.  0.
        -11    1    3    3    0    0 -0.17229618933E+02 -0.19639527690E+02 -0.54031847387E+02  0.60016758899E+02  0.51100000000E-03 0.  1.
         23    2    1    0    0    0  0.58881421267E+01 -0.32698472945E+01 -0.17531490311E+02  0.10621928458E+03  0.10454578493E+03 0.  0.
         11    1    3    3    0    0  0.23117761059E+02  0.16369680395E+02  0.36500357076E+02  0.46202525684E+02  0.51100000000E-03 0. -1.
         22    1    1    0    0    0 -0.58881421267E+01  0.32698472945E+01  0.17531490311E+02  0.18780715417E+02  0.00000000000E+00 0.  1.
</event>
<event>
 5    1  0.1626333E-003  0.9118800E+02  0.7818608E-02  0.1130116E+00
         25   -1    0    0    0    0  0.00000000000E+00  0.00000000000E+00  0.99999998245E-14  0.12500000000E+03  0.12500000000E+03 0.  0.
        -11    1    3    3    0    0 -0.10427464091E+02  0.16912250675E+02  0.29740864913E+02  0.35766957884E+02  0.51100000000E-03 0. -1.
         23    2    1    0    0    0 -0.17683676418E+02 -0.22147165434E+02 -0.12737760451E+02  0.93928149560E+02  0.88639931126E+02 0.  0.
         11    1    3    3    0    0 -0.72562123275E+01 -0.39059416109E+02 -0.42478625364E+02  0.58161191676E+02  0.51100000000E-03 0.  1.
         22    1    1    0    0    0  0.17683676418E+02  0.22147165434E+02  0.12737760451E+02  0.31071850440E+02  0.00000000000E+00 0.  1.
</event>
<event>
 5    1  0.1626333E-003  0.9118800E+02  0.7818608E-02  0.1130116E+00
         25   -1    0    0    0    0  0.00000000000E+00  0.00000000000E+00  0.99999998245E-14  0.12500000000E+03  0.12500000000E+03 0.  0.
        -11    1    3    3    0    0 -0.28153854001E+02  0.32517043177E+02  0.83776575858E+01  0.43819889764E+02  0.51100000000E-03 0. -1.
         23    2    1    0    0    0  0.18525535660E+02  0.12583193978E+02 -0.13234337280E+02  0.98986927797E+02  0.95507758582E+02 0.  0.
         11    1    3    3    0    0  0.46679389661E+02 -0.19933849198E+02 -0.21611994866E+02  0.55167038033E+02  0.51100000000E-03 0.  1.
         22    1    1    0    0    0 -0.18525535660E+02 -0.12583193978E+02  0.13234337280E+02  0.26013072203E+02  0.00000000000E+00 0.  1.
</event>
<event>
 5    1  0.1626333E-003  0.9118800E+02  0.7818608E-02  0.1130116E+00
         25   -1    0    0    0    0  0.00000000000E+00  0.00000000000E+00  0.99999998245E-14  0.12500000000E+03  0.12500000000E+03 0.  0.
        -11    1    3    3    0    0 -0.30961725449E+01  0.40600291514E+02 -0.42866430569E+02  0.59122760638E+02  0.51100000000E-03 0. -1.
         23    2    1    0    0    0 -0.13786401576E+02  0.11810171333E+02 -0.22999925448E+02  0.95699119707E+02  0.91103127975E+02 0.  0.
         11    1    3    3    0    0 -0.10690229031E+02 -0.28790120181E+02  0.19866505121E+02  0.36576359069E+02  0.51100000000E-03 0.  1.
         22    1    1    0    0    0  0.13786401576E+02 -0.11810171333E+02  0.22999925448E+02  0.29300880293E+02  0.00000000000E+00 0. -1.
</event>
<event>
 5    1  0.1626333E-003  0.9118800E+02  0.7818608E-02  0.1130116E+00
         25   -1    0    0    0    0  0.00000000000E+00  0.00000000000E+00  0.99999998245E-14  0.12500000000E+03  0.12500000000E+03 0.  0.
        -11    1    3    3    0    0  0.12786912583E+02  0.35461799696E+02  0.11441921295E+02  0.39394948080E+02  0.51100000000E-03 0. -1.
         23    2    1    0    0    0  0.36477368864E+02 -0.45840074625E+01 -0.30007303087E+01  0.88113472025E+02  0.80021047271E+02 0.  0.
         11    1    3    3    0    0  0.23690456281E+02 -0.40045807158E+02 -0.14442651604E+02  0.48718523945E+02  0.51100000000E-03 0.  1.
         22    1    1    0    0    0 -0.36477368864E+02  0.45840074625E+01  0.30007303087E+01  0.36886527975E+02  0.00000000000E+00 0.  1.
</event>
<event>
 5    1  0.1626333E-003  0.9118800E+02  0.7818608E-02  0.1130116E+00
         25   -1    0    0    0    0  0.00000000000E+00  0.00000000000E+00  0.99999998245E-14  0.12500000000E+03  0.12500000000E+03 0.  0.
        -11    1    3    3    0    0  0.26291041580E+01 -0.19680924732E+02 -0.58165705334E+02  0.61461372131E+02  0.51100000000E-03 0.  1.
         23    2    1    0    0    0  0.34816406088E+01 -0.16232197909E+02 -0.23962694297E+02  0.95848382750E+02  0.91307697855E+02 0.  0.
         11    1    3    3    0    0  0.85253645084E+00  0.34487268230E+01  0.34203011037E+02  0.34387010619E+02  0.51100000000E-03 0. -1.
         22    1    1    0    0    0 -0.34816406088E+01  0.16232197909E+02  0.23962694297E+02  0.29151617250E+02  0.00000000000E+00 0.  1.
</event>
<event>
 5    1  0.1626333E-003  0.9118800E+02  0.7818608E-02  0.1130116E+00
         25   -1    0    0    0    0  0.00000000000E+00  0.00000000000E+00  0.99999998245E-14  0.12500000000E+03  0.12500000000E+03 0.  0.
        -11    1    3    3    0    0 -0.39563152048E+02 -0.24154420945E+02  0.24637731311E+02  0.52494731694E+02  0.51100000000E-03 0.  1.
         23    2    1    0    0    0 -0.26623056645E+02 -0.65125523557E+01 -0.11930177503E+02  0.95108034213E+02  0.90288474089E+02 0.  0.
         11    1    3    3    0    0  0.12940095403E+02  0.17641868590E+02 -0.36567908814E+02  0.42613302520E+02  0.51100000000E-03 0. -1.
         22    1    1    0    0    0  0.26623056645E+02  0.65125523557E+01  0.11930177503E+02  0.29891965787E+02  0.00000000000E+00 0.  1.
</event>
<event>
 5    1  0.1626333E-003  0.9118800E+02  0.7818608E-02  0.1130116E+00
         25   -1    0    0    0    0  0.00000000000E+00  0.00000000000E+00  0.99999998245E-14  0.12500000000E+03  0.12500000000E+03 0.  0.
        -11    1    3    3    0    0  0.14633753572E+02 -0.32328913478E+02  0.11957575075E+02  0.37447149320E+02  0.51100000000E-03 0.  1.
         23    2    1    0    0    0 -0.24436591675E+02 -0.59681779885E+01 -0.18685588028E+02  0.93664439352E+02  0.88267263682E+02 0.  0.
         11    1    3    3    0    0 -0.39070345247E+02  0.26360735489E+02 -0.30643163103E+02  0.56217290032E+02  0.51100000000E-03 0. -1.
         22    1    1    0    0    0  0.24436591675E+02  0.59681779885E+01  0.18685588028E+02  0.31335560648E+02  0.00000000000E+00 0. -1.
</event>
<event>
 5    1  0.1626333E-003  0.9118800E+02  0.7818608E-02  0.1130116E+00
         25   -1    0    0    0    0  0.00000000000E+00  0.00000000000E+00  0.99999998245E-14  0.12500000000E+03  0.12500000000E+03 0.  0.
        -11    1    3    3    0    0 -0.15897178670E+02  0.37217080175E+02  0.16593630108E+02  0.43739912058E+02  0.51100000000E-03 0. -1.
         23    2    1    0    0    0  0.16609403127E+02  0.18429374871E+02 -0.17647330323E+02  0.94554271270E+02  0.89518533374E+02 0.  0.
         11    1    3    3    0    0  0.32506581797E+02 -0.18787705304E+02 -0.34240960431E+02  0.50814359212E+02  0.51100000000E-03 0.  1.
         22    1    1    0    0    0 -0.16609403127E+02 -0.18429374871E+02  0.17647330323E+02  0.30445728730E+02  0.00000000000E+00 0.  1.
</event>
<event>
 5    1  0.1626333E-003  0.9118800E+02  0.7818608E-02  0.1130116E+00
         25   -1    0    0    0    0  0.00000000000E+00  0.00000000000E+00  0.99999998245E-14  0.12500000000E+03  0.12500000000E+03 0.  0.
        -11    1    3    3    0    0 -0.21250797228E+02 -0.26741152145E+02  0.67406366887E+01  0.34815539405E+02  0.51100000000E-03 0. -1.
         23    2    1    0    0    0  0.21070697447E+02  0.74464764812E+01  0.24302050539E+02  0.91984640494E+02  0.85855460651E+02 0.  0.
         11    1    3    3    0    0  0.42321494675E+02  0.34187628626E+02  0.17561413850E+02  0.57169101089E+02  0.51100000000E-03 0.  1.
         22    1    1    0    0    0 -0.21070697447E+02 -0.74464764812E+01 -0.24302050539E+02  0.33015359506E+02  0.00000000000E+00 0.  1.
</event>
<event>
 5    1  0.1626333E-003  0.9118800E+02  0.7818608E-02  0.1130116E+00
         25   -1    0    0    0    0  0.00000000000E+00  0.00000000000E+00  0.99999998245E-14  0.12500000000E+03  0.12500000000E+03 0.  0.
        -11    1    3    3    0    0  0.57859601461E+01  0.54943331223E+02 -0.20106873907E+01  0.55283721336E+02  0.51100000000E-03 0. -1.
         23    2    1    0    0    0  0.84526526735E+01  0.29226312426E+02  0.19454412219E+02  0.88887691434E+02  0.81221443341E+02 0.  0.
         11    1    3    3    0    0  0.26666925274E+01 -0.25717018797E+02  0.21465099610E+02  0.33603970098E+02  0.51100000000E-03 0.  1.
         22    1    1    0    0    0 -0.84526526735E+01 -0.29226312426E+02 -0.19454412219E+02  0.36112308566E+02  0.00000000000E+00 0. -1.
</event>
<event>
 5    1  0.1626333E-003  0.9118800E+02  0.7818608E-02  0.1130116E+00
         25   -1    0    0    0    0  0.00000000000E+00  0.00000000000E+00  0.99999998245E-14  0.12500000000E+03  0.12500000000E+03 0.  0.
        -11    1    3    3    0    0 -0.14868006698E+02  0.22991274070E+02  0.34885068974E+02  0.44346638476E+02  0.51100000000E-03 0.  1.
         23    2    1    0    0    0  0.26911775861E+02  0.10883460569E+02  0.11121487325E+02  0.93913332853E+02  0.88619034148E+02 0.  0.
         11    1    3    3    0    0  0.41779782559E+02 -0.12107813501E+02 -0.23763581649E+02  0.49566694377E+02  0.51100000000E-03 0. -1.
         22    1    1    0    0    0 -0.26911775861E+02 -0.10883460569E+02 -0.11121487325E+02  0.31086667147E+02  0.00000000000E+00 0. -1.
</event>
<event>
 5    1  0.1626333E-003  0.9118800E+02  0.7818608E-02  0.1130116E+00
         25   -1    0    0    0    0  0.00000000000E+00  0.00000000000E+00  0.99999998245E-14  0.12500000000E+03  0.12500000000E+03 0.  0.
        -11    1    3    3    0    0 -0.53465232868E+01  0.45255677496E+02  0.19678465597E+02  0.49637724217E+02  0.51100000000E-03 0. -1.
         23    2    1    0    0    0 -0.66995040353E+01 -0.17680945306E+01  0.26891024847E+02  0.97230651252E+02  0.93180807106E+02 0.  0.
         11    1    3    3    0    0 -0.13529807485E+01 -0.47023772027E+02  0.72125592495E+01  0.47592927035E+02  0.51100000000E-03 0.  1.
         22    1    1    0    0    0  0.66995040353E+01  0.17680945306E+01 -0.26891024847E+02  0.27769348748E+02  0.00000000000E+00 0. -1.
</event>
<event>
 5    1  0.1626333E-003  0.9118800E+02  0.7818608E-02  0.1130116E+00
         25   -1    0    0    0    0  0.00000000000E+00  0.00000000000E+00  0.99999998245E-14  0.12500000000E+03  0.12500000000E+03 0.  0.
        -11    1    3    3    0    0 -0.20954681450E+02  0.35686472974E+02 -0.12285085139E+02  0.43168812181E+02  0.51100000000E-03 0.  1.
         23    2    1    0    0    0 -0.22864310734E+02 -0.90893501596E-01  0.22368194449E+02  0.93013735919E+02  0.87340906680E+02 0.  0.
         11    1    3    3    0    0 -0.19096292839E+01 -0.35777366476E+02  0.34653279588E+02  0.49844923738E+02  0.51100000000E-03 0. -1.
         22    1    1    0    0    0  0.22864310734E+02  0.90893501596E-01 -0.22368194449E+02  0.31986264081E+02  0.00000000000E+00 0. -1.
</event>
<event>
 5    1  0.1626333E-003  0.9118800E+02  0.7818608E-02  0.1130116E+00
         25   -1    0    0    0    0  0.00000000000E+00  0.00000000000E+00  0.99999998245E-14  0.12500000000E+03  0.12500000000E+03 0.  0.
        -11    1    3    3    0    0  0.21774299173E+02  0.28348077957E+02 -0.50426247871E+02  0.61810517737E+02  0.51100000000E-03 0.  1.
         23    2    1    0    0    0  0.42036872945E+01  0.11935553221E+02 -0.25995344414E+02  0.96088300833E+02  0.91635556462E+02 0.  0.
         11    1    3    3    0    0 -0.17570611878E+02 -0.16412524736E+02  0.24430903457E+02  0.34277783096E+02  0.51100000000E-03 0. -1.
         22    1    1    0    0    0 -0.42036872945E+01 -0.11935553221E+02  0.25995344414E+02  0.28911699167E+02  0.00000000000E+00 0.  1.
</event>
<event>
 5    1  0.1626333E-003  0.9118800E+02  0.7818608E-02  0.1130116E+00
         25   -1    0    0    0    0  0.00000000000E+00  0.00000000000E+00  0.99999998245E-14  0.12500000000E+03  0.12500000000E+03 0.  0.
        -11    1    3    3    0    0 -0.59777092961E+01 -0.17984303330E+02  0.32254505824E+02  0.37410176703E+02  0.51100000000E-03 0. -1.
         23    2    1    0    0    0  0.81445475062E+01 -0.15288913016E+02 -0.23959783437E+02  0.95433875168E+02  0.90738463685E+02 0.  0.
         11    1    3    3    0    0  0.14122256802E+02  0.26953903146E+01 -0.56214289261E+02  0.58023698465E+02  0.51100000000E-03 0.  1.
         22    1    1    0    0    0 -0.81445475062E+01  0.15288913016E+02  0.23959783437E+02  0.29566124832E+02  0.00000000000E+00 0. -1.
</event>
<event>
 5    1  0.1626333E-003  0.9118800E+02  0.7818608E-02  0.1130116E+00
         25   -1    0    0    0    0  0.00000000000E+00  0.00000000000E+00  0.99999998245E-14  0.12500000000E+03  0.12500000000E+03 0.  0.
        -11    1    3    3    0    0 -0.77861753798E+01 -0.88769252719E+01  0.33415800289E+02  0.35440655166E+02  0.51100000000E-03 0. -1.
         23    2    1    0    0    0 -0.10558020097E+02  0.35112811845E+01 -0.26274902225E+02  0.96466311650E+02  0.92149758070E+02 0.  0.
         11    1    3    3    0    0 -0.27718447173E+01  0.12388206456E+02 -0.59690702515E+02  0.61025656484E+02  0.51100000000E-03 0.  1.
         22    1    1    0    0    0  0.10558020097E+02 -0.35112811845E+01  0.26274902225E+02  0.28533688350E+02  0.00000000000E+00 0.  1.
</event>
<event>
 5    1  0.1626333E-003  0.9118800E+02  0.7818608E-02  0.1130116E+00
         25   -1    0    0    0    0  0.00000000000E+00  0.00000000000E+00  0.99999998245E-14  0.12500000000E+03  0.12500000000E+03 0.  0.
        -11    1    3    3    0    0 -0.28165541744E+02 -0.83722493598E+01 -0.51793157028E+02  0.59547656681E+02  0.51100000000E-03 0. -1.
         23    2    1    0    0    0 -0.47613053138E+00 -0.57440546732E+01 -0.28782267886E+02  0.95646298206E+02  0.91030624251E+02 0.  0.
         11    1    3    3    0    0  0.27689411212E+02  0.26281946866E+01  0.23010889142E+02  0.36098641525E+02  0.51100000000E-03 0.  1.
         22    1    1    0    0    0  0.47613053138E+00  0.57440546732E+01  0.28782267886E+02  0.29353701794E+02  0.00000000000E+00 0. -1.
</event>
<event>
 5    1  0.1626333E-003  0.9118800E+02  0.7818608E-02  0.1130116E+00
         25   -1    0    0    0    0  0.00000000000E+00  0.00000000000E+00  0.99999998245E-14  0.12500000000E+03  0.12500000000E+03 0.  0.
        -11    1    3    3    0    0 -0.24647187693E+02 -0.19632074731E+02 -0.71231749690E+01  0.32305446001E+02  0.51100000000E-03 0.  1.
         23    2    1    0    0    0  0.28058521647E+02  0.12439701193E+02 -0.35022797668E+01  0.94108370610E+02  0.88893715484E+02 0.  0.
         11    1    3    3    0    0  0.52705709340E+02  0.32071775924E+02  0.36208952022E+01  0.61802924609E+02  0.51100000000E-03 0. -1.
         22    1    1    0    0    0 -0.28058521647E+02 -0.12439701193E+02  0.35022797668E+01  0.30891629390E+02  0.00000000000E+00 0. -1.
</event>
<event>
 5    1  0.1626333E-003  0.9118800E+02  0.7818608E-02  0.1130116E+00
         25   -1    0    0    0    0  0.00000000000E+00  0.00000000000E+00  0.99999998245E-14  0.12500000000E+03  0.12500000000E+03 0.  0.
        -11    1    3    3    0    0 -0.12902555848E+01  0.14992591531E+02 -0.47934613098E+02  0.50241115567E+02  0.51100000000E-03 0.  1.
         23    2    1    0    0    0 -0.11976815635E+02 -0.18566766068E+02 -0.20072450660E+02  0.95149167675E+02  0.90345403418E+02 0.  0.
         11    1    3    3    0    0 -0.10686560050E+02 -0.33559357599E+02  0.27862162438E+02  0.44908052108E+02  0.51100000000E-03 0. -1.
         22    1    1    0    0    0  0.11976815635E+02  0.18566766068E+02  0.20072450660E+02  0.29850832325E+02  0.00000000000E+00 0. -1.
</event>
<event>
 5    1  0.1626333E-003  0.9118800E+02  0.7818608E-02  0.1130116E+00
         25   -1    0    0    0    0  0.00000000000E+00  0.00000000000E+00  0.99999998245E-14  0.12500000000E+03  0.12500000000E+03 0.  0.
        -11    1    3    3    0    0  0.24525560165E+02 -0.49701053061E+02  0.27844581228E+02  0.62024337810E+02  0.51100000000E-03 0.  1.
         23    2    1    0    0    0  0.11098629412E+02 -0.25378292655E+02  0.79923552001E+01  0.96170933859E+02  0.91748206875E+02 0.  0.
         11    1    3    3    0    0 -0.13426930753E+02  0.24322760406E+02 -0.19852226028E+02  0.34146596049E+02  0.51100000000E-03 0. -1.
         22    1    1    0    0    0 -0.11098629412E+02  0.25378292655E+02 -0.79923552001E+01  0.28829066141E+02  0.00000000000E+00 0.  1.
</event>
<event>
 5    1  0.1626333E-003  0.9118800E+02  0.7818608E-02  0.1130116E+00
         25   -1    0    0    0    0  0.00000000000E+00  0.00000000000E+00  0.99999998245E-14  0.12500000000E+03  0.12500000000E+03 0.  0.
        -11    1    3    3    0    0 -0.25123085400E+02  0.19925785486E+02 -0.21071073080E+02  0.38369212505E+02  0.51100000000E-03 0.  1.
         23    2    1    0    0    0  0.24707874960E+02 -0.71686499730E+01 -0.14497645233E+02  0.95469501447E+02  0.90787528669E+02 0.  0.
         11    1    3    3    0    0  0.49830960361E+02 -0.27094435459E+02  0.65734278478E+01  0.57100288942E+02  0.51100000000E-03 0. -1.
         22    1    1    0    0    0 -0.24707874960E+02  0.71686499730E+01  0.14497645233E+02  0.29530498553E+02  0.00000000000E+00 0. -1.
</event>
<event>
 5    1  0.1626333E-003  0.9118800E+02  0.7818608E-02  0.1130116E+00
         25   -1    0    0    0    0  0.00000000000E+00  0.00000000000E+00  0.99999998245E-14  0.12500000000E+03  0.12500000000E+03 0.  0.
        -11    1    3    3    0    0 -0.33303658037E+02 -0.25035085643E+02  0.19227422588E+01  0.41708345566E+02  0.51100000000E-03 0. -1.
         23    2    1    0    0    0 -0.12360091971E+02  0.21692794846E+02  0.16649607002E+02  0.94990690860E+02  0.90125871507E+02 0.  0.
         11    1    3    3    0    0  0.20943566066E+02  0.46727880489E+02  0.14726864743E+02  0.53282345294E+02  0.51100000000E-03 0.  1.
         22    1    1    0    0    0  0.12360091971E+02 -0.21692794846E+02 -0.16649607002E+02  0.30009309140E+02  0.00000000000E+00 0.  1.
</event>
<event>
 5    1  0.1626333E-003  0.9118800E+02  0.7818608E-02  0.1130116E+00
         25   -1    0    0    0    0  0.00000000000E+00  0.00000000000E+00  0.99999998245E-14  0.12500000000E+03  0.12500000000E+03 0.  0.
        -11    1    3    3    0    0 -0.44788519449E+01 -0.17772649493E+02 -0.29425389224E+02  0.34666709045E+02  0.51100000000E-03 0. -1.
         23    2    1    0    0    0 -0.40051544644E+01  0.22966846899E+02  0.16784854917E+02  0.96272858246E+02  0.91886966222E+02 0.  0.
         11    1    3    3    0    0  0.47369748058E+00  0.40739496392E+02  0.46210244141E+02  0.61606149201E+02  0.51100000000E-03 0.  1.
         22    1    1    0    0    0  0.40051544644E+01 -0.22966846899E+02 -0.16784854917E+02  0.28727141754E+02  0.00000000000E+00 0.  1.
</event>
<event>
 5    1  0.1626333E-003  0.9118800E+02  0.7818608E-02  0.1130116E+00
         25   -1    0    0    0    0  0.00000000000E+00  0.00000000000E+00  0.99999998245E-14  0.12500000000E+03  0.12500000000E+03 0.  0.
        -11    1    3    3    0    0 -0.38811507249E+02  0.66870054400E+01 -0.13588076356E+02  0.41661552491E+02  0.51100000000E-03 0. -1.
         23    2    1    0    0    0  0.40606900563E+01  0.32112431434E+02 -0.46979339251E+01  0.92292691344E+02  0.86302797382E+02 0.  0.
         11    1    3    3    0    0  0.42872197305E+02  0.25425425994E+02  0.88901424306E+01  0.50631138852E+02  0.51100000000E-03 0.  1.
         22    1    1    0    0    0 -0.40606900563E+01 -0.32112431434E+02  0.46979339251E+01  0.32707308656E+02  0.00000000000E+00 0.  1.
</event>
<event>
 5    1  0.1626333E-003  0.9118800E+02  0.7818608E-02  0.1130116E+00
         25   -1    0    0    0    0  0.00000000000E+00  0.00000000000E+00  0.99999998245E-14  0.12500000000E+03  0.12500000000E+03 0.  0.
        -11    1    3    3    0    0  0.94941489403E+01 -0.26692762864E+02 -0.12839736073E+02  0.31104682542E+02  0.51100000000E-03 0. -1.
         23    2    1    0    0    0 -0.23966969122E+02  0.11611693968E+02  0.20041991022E+02  0.91669406699E+02  0.85395267285E+02 0.  0.
         11    1    3    3    0    0 -0.33461118063E+02  0.38304456831E+02  0.32881727094E+02  0.60564724156E+02  0.51100000000E-03 0.  1.
         22    1    1    0    0    0  0.23966969122E+02 -0.11611693968E+02 -0.20041991022E+02  0.33330593301E+02  0.00000000000E+00 0.  1.
</event>
<event>
 5    1  0.1626333E-003  0.9118800E+02  0.7818608E-02  0.1130116E+00
         25   -1    0    0    0    0  0.00000000000E+00  0.00000000000E+00  0.99999998245E-14  0.12500000000E+03  0.12500000000E+03 0.  0.
        -11    1    3    3    0    0 -0.33982457514E+02  0.11388409106E+02 -0.13155323591E+02  0.38178080356E+02  0.51100000000E-03 0. -1.
         23    2    1    0    0    0  0.23620238556E+01 -0.13459898529E+02  0.25046362114E+02  0.96468118179E+02  0.92152208572E+02 0.  0.
         11    1    3    3    0    0  0.36344481370E+02 -0.24848307635E+02  0.38201685705E+02  0.58290037822E+02  0.51100000000E-03 0.  1.
         22    1    1    0    0    0 -0.23620238556E+01  0.13459898529E+02 -0.25046362114E+02  0.28531881821E+02  0.00000000000E+00 0.  1.
</event>
<event>
 5    1  0.1626333E-003  0.9118800E+02  0.7818608E-02  0.1130116E+00
         25   -1    0    0    0    0  0.00000000000E+00  0.00000000000E+00  0.99999998245E-14  0.12500000000E+03  0.12500000000E+03 0.  0.
        -11    1    3    3    0    0  0.69269651665E+01 -0.17993462287E+02  0.29243442047E+02  0.35027509682E+02  0.51100000000E-03 0.  1.
         23    2    1    0    0    0 -0.27065659944E+02  0.42003591205E+01 -0.13914613504E+02  0.94278518364E+02  0.89132651654E+02 0.  0.
         11    1    3    3    0    0 -0.33992625111E+02  0.22193821408E+02 -0.43158055551E+02  0.59251008682E+02  0.51100000000E-03 0. -1.
         22    1    1    0    0    0  0.27065659944E+02 -0.42003591205E+01  0.13914613504E+02  0.30721481636E+02  0.00000000000E+00 0. -1.
</event>
<event>
 5    1  0.1626333E-003  0.9118800E+02  0.7818608E-02  0.1130116E+00
         25   -1    0    0    0    0  0.00000000000E+00  0.00000000000E+00  0.99999998245E-14  0.12500000000E+03  0.12500000000E+03 0.  0.
        -11    1    3    3    0    0 -0.11067858809E+02 -0.21285940663E+02 -0.30204711463E+02  0.38573480053E+02  0.51100000000E-03 0.  1.
         23    2    1    0    0    0 -0.95603004908E+01  0.24825942653E+02 -0.30258136036E+02  0.84710031392E+02  0.74515151801E+02 0.  0.
         11    1    3    3    0    0  0.15075583184E+01  0.46111883316E+02 -0.53424572425E-01  0.46136551339E+02  0.51100000000E-03 0. -1.
         22    1    1    0    0    0  0.95603004908E+01 -0.24825942653E+02  0.30258136036E+02  0.40289968608E+02  0.00000000000E+00 0.  1.
</event>
<event>
 5    1  0.1626333E-003  0.9118800E+02  0.7818608E-02  0.1130116E+00
         25   -1    0    0    0    0  0.00000000000E+00  0.00000000000E+00  0.99999998245E-14  0.12500000000E+03  0.12500000000E+03 0.  0.
        -11    1    3    3    0    0  0.13273565225E+02 -0.37572829793E+02  0.14682886143E+02  0.42467543114E+02  0.51100000000E-03 0.  1.
         23    2    1    0    0    0  0.11676973442E+01 -0.12895147645E+02 -0.28522943190E+02  0.93675781923E+02  0.88283325044E+02 0.  0.
         11    1    3    3    0    0 -0.12105867881E+02  0.24677682147E+02 -0.43205829333E+02  0.51208238809E+02  0.51100000000E-03 0. -1.
         22    1    1    0    0    0 -0.11676973442E+01  0.12895147645E+02  0.28522943190E+02  0.31324218077E+02  0.00000000000E+00 0. -1.
</event>
<event>
 5    1  0.1626333E-003  0.9118800E+02  0.7818608E-02  0.1130116E+00
         25   -1    0    0    0    0  0.00000000000E+00  0.00000000000E+00  0.99999998245E-14  0.12500000000E+03  0.12500000000E+03 0.  0.
        -11    1    3    3    0    0 -0.23704629146E+02 -0.14825457348E+02 -0.18314075252E+02  0.33423180296E+02  0.51100000000E-03 0.  1.
         23    2    1    0    0    0  0.20188109747E+02  0.20536214306E+02  0.72337771036E+01  0.95307856185E+02  0.90564695363E+02 0.  0.
         11    1    3    3    0    0  0.43892738892E+02  0.35361671654E+02  0.25547852355E+02  0.61884675889E+02  0.51100000000E-03 0. -1.
         22    1    1    0    0    0 -0.20188109747E+02 -0.20536214306E+02 -0.72337771036E+01  0.29692143815E+02  0.00000000000E+00 0. -1.
</event>
<event>
 5    1  0.1626333E-003  0.9118800E+02  0.7818608E-02  0.1130116E+00
         25   -1    0    0    0    0  0.00000000000E+00  0.00000000000E+00  0.99999998245E-14  0.12500000000E+03  0.12500000000E+03 0.  0.
        -11    1    3    3    0    0 -0.33549200687E+02  0.93214262876E+01 -0.13031835626E+02  0.37178846066E+02  0.51100000000E-03 0.  1.
         23    2    1    0    0    0  0.70734944718E+01  0.13320390411E+02  0.26822763349E+02  0.94227808683E+02  0.89061507796E+02 0.  0.
         11    1    3    3    0    0  0.40622695159E+02  0.39989641237E+01  0.39854598975E+02  0.57048962617E+02  0.51100000000E-03 0. -1.
         22    1    1    0    0    0 -0.70734944718E+01 -0.13320390411E+02 -0.26822763349E+02  0.30772191317E+02  0.00000000000E+00 0. -1.
</event>
<event>
 5    1  0.1626333E-003  0.9118800E+02  0.7818608E-02  0.1130116E+00
         25   -1    0    0    0    0  0.00000000000E+00  0.00000000000E+00  0.99999998245E-14  0.12500000000E+03  0.12500000000E+03 0.  0.
        -11    1    3    3    0    0  0.22750036381E+02 -0.20149527230E+02 -0.39813277612E+02  0.50086571827E+02  0.51100000000E-03 0. -1.
         23    2    1    0    0    0  0.31147607979E+02 -0.25388196913E+01 -0.76270634540E+00  0.93739788721E+02  0.88373905539E+02 0.  0.
         11    1    3    3    0    0  0.83975715976E+01  0.17610707538E+02  0.39050571266E+02  0.43653216894E+02  0.51100000000E-03 0.  1.
         22    1    1    0    0    0 -0.31147607979E+02  0.25388196913E+01  0.76270634540E+00  0.31260211279E+02  0.00000000000E+00 0. -1.
</event>
<event>
 5    1  0.1626333E-003  0.9118800E+02  0.7818608E-02  0.1130116E+00
         25   -1    0    0    0    0  0.00000000000E+00  0.00000000000E+00  0.99999998245E-14  0.12500000000E+03  0.12500000000E+03 0.  0.
        -11    1    3    3    0    0 -0.33171939031E+02 -0.23919231580E+02 -0.45653032419E+02  0.61291977842E+02  0.51100000000E-03 0. -1.
         23    2    1    0    0    0 -0.98088634535E+01 -0.17431112229E+02 -0.23559038345E+02  0.94095538130E+02  0.88875668956E+02 0.  0.
         11    1    3    3    0    0  0.23363075577E+02  0.64881193508E+01  0.22093994075E+02  0.32803560288E+02  0.51100000000E-03 0.  1.
         22    1    1    0    0    0  0.98088634535E+01  0.17431112229E+02  0.23559038345E+02  0.30904461870E+02  0.00000000000E+00 0. -1.
</event>
<event>
 5    1  0.1626333E-003  0.9118800E+02  0.7818608E-02  0.1130116E+00
         25   -1    0    0    0    0  0.00000000000E+00  0.00000000000E+00  0.99999998245E-14  0.12500000000E+03  0.12500000000E+03 0.  0.
        -11    1    3    3    0    0  0.38299945851E+02  0.36950084703E+01 -0.17525604104E+01  0.38517663585E+02  0.51100000000E-03 0.  1.
         23    2    1    0    0    0 -0.10256501778E+02 -0.41424340096E+01  0.27231724682E+02  0.95607442823E+02  0.90977253782E+02 0.  0.
         11    1    3    3    0    0 -0.48556447628E+02 -0.78374424798E+01  0.28984285092E+02  0.57089779238E+02  0.51100000000E-03 0. -1.
         22    1    1    0    0    0  0.10256501778E+02  0.41424340096E+01 -0.27231724682E+02  0.29392557177E+02  0.00000000000E+00 0. -1.
</event>
<event>
 5    1  0.1626333E-003  0.9118800E+02  0.7818608E-02  0.1130116E+00
         25   -1    0    0    0    0  0.00000000000E+00  0.00000000000E+00  0.99999998245E-14  0.12500000000E+03  0.12500000000E+03 0.  0.
        -11    1    3    3    0    0  0.21827344521E+02 -0.10087738511E+02 -0.31473088961E+02  0.39607458466E+02  0.51100000000E-03 0. -1.
         23    2    1    0    0    0 -0.53800243792E+01 -0.19487805965E+02  0.18705949402E+02  0.97456728832E+02  0.93483593255E+02 0.  0.
         11    1    3    3    0    0 -0.27207368900E+02 -0.94000674533E+01  0.50179038363E+02  0.57849270366E+02  0.51100000000E-03 0.  1.
         22    1    1    0    0    0  0.53800243792E+01  0.19487805965E+02 -0.18705949402E+02  0.27543271168E+02  0.00000000000E+00 0.  1.
</event>
<event>
 5    1  0.1626333E-003  0.9118800E+02  0.7818608E-02  0.1130116E+00
         25   -1    0    0    0    0  0.00000000000E+00  0.00000000000E+00  0.99999998245E-14  0.12500000000E+03  0.12500000000E+03 0.  0.
        -11    1    3    3    0    0 -0.33858365378E+02  0.17815226245E+02  0.21483397641E+02  0.43878326844E+02  0.51100000000E-03 0. -1.
         23    2    1    0    0    0 -0.22816009251E+02 -0.21127288180E+02 -0.66866045723E+01  0.93193659992E+02  0.87598030789E+02 0.  0.
         11    1    3    3    0    0  0.11042356126E+02 -0.38942514424E+02 -0.28170002214E+02  0.49315333148E+02  0.51100000000E-03 0.  1.
         22    1    1    0    0    0  0.22816009251E+02  0.21127288180E+02  0.66866045723E+01  0.31806340008E+02  0.00000000000E+00 0.  1.
</event>
<event>
 5    1  0.1626333E-003  0.9118800E+02  0.7818608E-02  0.1130116E+00
         25   -1    0    0    0    0  0.00000000000E+00  0.00000000000E+00  0.99999998245E-14  0.12500000000E+03  0.12500000000E+03 0.  0.
        -11    1    3    3    0    0  0.54547719962E+02 -0.34946719197E+00  0.68848946203E+01  0.54981611968E+02  0.51100000000E-03 0. -1.
         23    2    1    0    0    0  0.20769407970E+02  0.21125540283E+02  0.19664483465E+01  0.95309535558E+02  0.90567013253E+02 0.  0.
         11    1    3    3    0    0 -0.33778311992E+02  0.21475007475E+02 -0.49184462738E+01  0.40327923590E+02  0.51100000000E-03 0.  1.
         22    1    1    0    0    0 -0.20769407970E+02 -0.21125540283E+02 -0.19664483465E+01  0.29690464442E+02  0.00000000000E+00 0. -1.
</event>
<event>
 5    1  0.1626333E-003  0.9118800E+02  0.7818608E-02  0.1130116E+00
         25   -1    0    0    0    0  0.00000000000E+00  0.00000000000E+00  0.99999998245E-14  0.12500000000E+03  0.12500000000E+03 0.  0.
        -11    1    3    3    0    0 -0.12313590702E+02 -0.25184844352E+02 -0.46001813992E+02  0.53870843615E+02  0.51100000000E-03 0.  1.
         23    2    1    0    0    0 -0.18472681647E+02 -0.20109801233E+02 -0.30891019820E+01  0.97519340912E+02  0.93567276480E+02 0.  0.
         11    1    3    3    0    0 -0.61590909454E+01  0.50750431194E+01  0.42912712010E+02  0.43648497296E+02  0.51100000000E-03 0. -1.
         22    1    1    0    0    0  0.18472681647E+02  0.20109801233E+02  0.30891019820E+01  0.27480659088E+02  0.00000000000E+00 0.  1.
</event>
<event>
 5    1  0.1626333E-003  0.9118800E+02  0.7818608E-02  0.1130116E+00
         25   -1    0    0    0    0  0.00000000000E+00  0.00000000000E+00  0.99999998245E-14  0.12500000000E+03  0.12500000000E+03 0.  0.
        -11    1    3    3    0    0  0.20936370387E+02  0.58386477784E+02  0.46090542923E+01  0.62197715189E+02  0.51100000000E-03 0. -1.
         23    2    1    0    0    0  0.75088238012E+01  0.28185053908E+02 -0.14303870116E+01  0.95796820281E+02  0.91237081663E+02 0.  0.
         11    1    3    3    0    0 -0.13427546586E+02 -0.30201423876E+02 -0.60394413039E+01  0.33599105092E+02  0.51100000000E-03 0.  1.
         22    1    1    0    0    0 -0.75088238012E+01 -0.28185053908E+02  0.14303870116E+01  0.29203179719E+02  0.00000000000E+00 0. -1.
</event>
<event>
 5    1  0.1626333E-003  0.9118800E+02  0.7818608E-02  0.1130116E+00
         25   -1    0    0    0    0  0.00000000000E+00  0.00000000000E+00  0.99999998245E-14  0.12500000000E+03  0.12500000000E+03 0.  0.
        -11    1    3    3    0    0 -0.26580058572E+02 -0.25473906796E+02 -0.19594615666E+02  0.41705735871E+02  0.51100000000E-03 0. -1.
         23    2    1    0    0    0  0.18827919920E+02 -0.24146325802E+02  0.59285103972E+01  0.93812136114E+02  0.88476177745E+02 0.  0.
         11    1    3    3    0    0  0.45407978492E+02  0.13275809939E+01  0.25523126064E+02  0.52106400243E+02  0.51100000000E-03 0.  1.
         22    1    1    0    0    0 -0.18827919920E+02  0.24146325802E+02 -0.59285103972E+01  0.31187863886E+02  0.00000000000E+00 0.  1.
</event>
<event>
 5    1  0.1626333E-003  0.9118800E+02  0.7818608E-02  0.1130116E+00
         25   -1    0    0    0    0  0.00000000000E+00  0.00000000000E+00  0.99999998245E-14  0.12500000000E+03  0.12500000000E+03 0.  0.
        -11    1    3    3    0    0  0.35598596014E+02  0.26179436959E+02  0.32036623119E+02  0.54579924687E+02  0.51100000000E-03 0.  1.
         23    2    1    0    0    0  0.44783269013E+01 -0.26940237132E+01  0.27195622943E+02  0.97306768284E+02  0.93282860543E+02 0.  0.
         11    1    3    3    0    0 -0.31120269113E+02 -0.28873460672E+02 -0.48410001764E+01  0.42726843598E+02  0.51100000000E-03 0. -1.
         22    1    1    0    0    0 -0.44783269013E+01  0.26940237132E+01 -0.27195622943E+02  0.27693231716E+02  0.00000000000E+00 0.  1.
</event>
<event>
 5    1  0.1626333E-003  0.9118800E+02  0.7818608E-02  0.1130116E+00
         25   -1    0    0    0    0  0.00000000000E+00  0.00000000000E+00  0.99999998245E-14  0.12500000000E+03  0.12500000000E+03 0.  0.
        -11    1    3    3    0    0  0.14952831081E+02 -0.23560803347E+02 -0.54699786471E+02  0.61406557076E+02  0.51100000000E-03 0. -1.
         23    2    1    0    0    0  0.23729404126E+01 -0.17374164561E+02 -0.22916867002E+02  0.96143887414E+02  0.91711350734E+02 0.  0.
         11    1    3    3    0    0 -0.12579890669E+02  0.61866387859E+01  0.31782919470E+02  0.34737330338E+02  0.51100000000E-03 0.  1.
         22    1    1    0    0    0 -0.23729404126E+01  0.17374164561E+02  0.22916867002E+02  0.28856112586E+02  0.00000000000E+00 0. -1.
</event>
<event>
 5    1  0.1626333E-003  0.9118800E+02  0.7818608E-02  0.1130116E+00
         25   -1    0    0    0    0  0.00000000000E+00  0.00000000000E+00  0.99999998245E-14  0.12500000000E+03  0.12500000000E+03 0.  0.
        -11    1    3    3    0    0  0.48315008253E+02  0.29049337899E+02  0.98298464060E+00  0.56384131757E+02  0.51100000000E-03 0. -1.
         23    2    1    0    0    0  0.12675037704E+02  0.20883782178E+02  0.15876952946E+02  0.95864685110E+02  0.91330013016E+02 0.  0.
         11    1    3    3    0    0 -0.35639970549E+02 -0.81655557214E+01  0.14893968306E+02  0.39480553354E+02  0.51100000000E-03 0.  1.
         22    1    1    0    0    0 -0.12675037704E+02 -0.20883782178E+02 -0.15876952946E+02  0.29135314890E+02  0.00000000000E+00 0. -1.
</event>
<event>
 5    1  0.1626333E-003  0.9118800E+02  0.7818608E-02  0.1130116E+00
         25   -1    0    0    0    0  0.00000000000E+00  0.00000000000E+00  0.99999998245E-14  0.12500000000E+03  0.12500000000E+03 0.  0.
        -11    1    3    3    0    0  0.72540319027E+00  0.11012209246E+02  0.57705152719E+02  0.58750996697E+02  0.51100000000E-03 0.  1.
         23    2    1    0    0    0 -0.11052215447E+02 -0.49680571641E+01  0.28133244308E+02  0.94368113124E+02  0.89258211281E+02 0.  0.
         11    1    3    3    0    0 -0.11777618637E+02 -0.15980266410E+02 -0.29571908411E+02  0.35617116428E+02  0.51100000000E-03 0. -1.
         22    1    1    0    0    0  0.11052215447E+02  0.49680571641E+01 -0.28133244308E+02  0.30631886876E+02  0.00000000000E+00 0.  1.
</event>
<event>
 5    1  0.1626333E-003  0.9118800E+02  0.7818608E-02  0.1130116E+00
         25   -1    0    0    0    0  0.00000000000E+00  0.00000000000E+00  0.99999998245E-14  0.12500000000E+03  0.12500000000E+03 0.  0.
        -11    1    3    3    0    0 -0.17185180490E+02 -0.67723252693E+01 -0.56301126627E+02  0.59253790408E+02  0.51100000000E-03 0.  1.
         23    2    1    0    0    0 -0.18367140078E+01 -0.15917453423E+02 -0.24631962902E+02  0.95615098465E+02  0.90987771795E+02 0.  0.
         11    1    3    3    0    0  0.15348466483E+02 -0.91451281538E+01  0.31669163725E+02  0.36361308057E+02  0.51100000000E-03 0. -1.
         22    1    1    0    0    0  0.18367140078E+01  0.15917453423E+02  0.24631962902E+02  0.29384901535E+02  0.00000000000E+00 0.  1.
</event>
<event>
 5    1  0.1626333E-003  0.9118800E+02  0.7818608E-02  0.1130116E+00
         25   -1    0    0    0    0  0.00000000000E+00  0.00000000000E+00  0.99999998245E-14  0.12500000000E+03  0.12500000000E+03 0.  0.
        -11    1    3    3    0    0 -0.23745335648E+02  0.20519542390E+02  0.29927610941E+01  0.31525373973E+02  0.51100000000E-03 0. -1.
         23    2    1    0    0    0  0.17167938735E+02 -0.21575655419E+02 -0.15873818903E+02  0.93184513932E+02  0.87584978638E+02 0.  0.
         11    1    3    3    0    0  0.40913274383E+02 -0.42095197809E+02 -0.18866579997E+02  0.61659139958E+02  0.51100000000E-03 0.  1.
         22    1    1    0    0    0 -0.17167938735E+02  0.21575655419E+02  0.15873818903E+02  0.31815486068E+02  0.00000000000E+00 0.  1.
</event>
<event>
 5    1  0.1626333E-003  0.9118800E+02  0.7818608E-02  0.1130116E+00
         25   -1    0    0    0    0  0.00000000000E+00  0.00000000000E+00  0.99999998245E-14  0.12500000000E+03  0.12500000000E+03 0.  0.
        -11    1    3    3    0    0 -0.45213652527E+02  0.52774821785E+01  0.41647258129E+02  0.61697814410E+02  0.51100000000E-03 0.  1.
         23    2    1    0    0    0 -0.20381662103E+02  0.94185565596E+01  0.18263049950E+02  0.96057637428E+02  0.91593718983E+02 0.  0.
         11    1    3    3    0    0  0.24831990424E+02  0.41410743811E+01 -0.23384208179E+02  0.34359823019E+02  0.51100000000E-03 0. -1.
         22    1    1    0    0    0  0.20381662103E+02 -0.94185565596E+01 -0.18263049950E+02  0.28942362572E+02  0.00000000000E+00 0.  1.
</event>
<event>
 5    1  0.1626333E-003  0.9118800E+02  0.7818608E-02  0.1130116E+00
         25   -1    0    0    0    0  0.00000000000E+00  0.00000000000E+00  0.99999998245E-14  0.12500000000E+03  0.12500000000E+03 0.  0.
        -11    1    3    3    0    0  0.22504212690E+02  0.49934034135E+02 -0.21855384512E+02  0.58970375497E+02  0.51100000000E-03 0.  1.
         23    2    1    0    0    0 -0.19544115113E+01  0.22926171096E+02 -0.18338674657E+02  0.95576607374E+02  0.90934876936E+02 0.  0.
         11    1    3    3    0    0 -0.24458624201E+02 -0.27007863039E+02  0.35167098549E+01  0.36606231877E+02  0.51100000000E-03 0. -1.
         22    1    1    0    0    0  0.19544115113E+01 -0.22926171096E+02  0.18338674657E+02  0.29423392626E+02  0.00000000000E+00 0.  1.
</event>
<event>
 5    1  0.1626333E-003  0.9118800E+02  0.7818608E-02  0.1130116E+00
         25   -1    0    0    0    0  0.00000000000E+00  0.00000000000E+00  0.99999998245E-14  0.12500000000E+03  0.12500000000E+03 0.  0.
        -11    1    3    3    0    0 -0.11042807909E+02  0.34050325119E+02  0.12426307170E+02  0.37891705654E+02  0.51100000000E-03 0. -1.
         23    2    1    0    0    0 -0.13231721202E+02 -0.16782593869E+02 -0.17898893237E+02  0.97123409784E+02  0.93036833813E+02 0.  0.
         11    1    3    3    0    0 -0.21889132927E+01 -0.50832918988E+02 -0.30325200407E+02  0.59231704130E+02  0.51100000000E-03 0.  1.
         22    1    1    0    0    0  0.13231721202E+02  0.16782593869E+02  0.17898893237E+02  0.27876590216E+02  0.00000000000E+00 0.  1.
</event>
<event>
 5    1  0.1626333E-003  0.9118800E+02  0.7818608E-02  0.1130116E+00
         25   -1    0    0    0    0  0.00000000000E+00  0.00000000000E+00  0.99999998245E-14  0.12500000000E+03  0.12500000000E+03 0.  0.
        -11    1    3    3    0    0  0.27793441582E+02 -0.17252227575E+02  0.22869704620E+02  0.39914134601E+02  0.51100000000E-03 0. -1.
         23    2    1    0    0    0  0.71874073213E+01 -0.15411031677E+01 -0.27487209668E+02  0.96546871555E+02  0.92258971860E+02 0.  0.
         11    1    3    3    0    0 -0.20606034260E+02  0.15711124408E+02 -0.50356914288E+02  0.56632736954E+02  0.51100000000E-03 0.  1.
         22    1    1    0    0    0 -0.71874073213E+01  0.15411031677E+01  0.27487209668E+02  0.28453128445E+02  0.00000000000E+00 0.  1.
</event>
<event>
 5    1  0.1626333E-003  0.9118800E+02  0.7818608E-02  0.1130116E+00
         25   -1    0    0    0    0  0.00000000000E+00  0.00000000000E+00  0.99999998245E-14  0.12500000000E+03  0.12500000000E+03 0.  0.
        -11    1    3    3    0    0 -0.25989833381E+02  0.29687934673E+02 -0.40810370375E+02  0.56765581427E+02  0.51100000000E-03 0. -1.
         23    2    1    0    0    0 -0.17412174368E+02  0.25742886076E+02 -0.53463068773E+01  0.93464892628E+02  0.87984221068E+02 0.  0.
         11    1    3    3    0    0  0.85776590126E+01 -0.39450485963E+01  0.35464063498E+02  0.36699311201E+02  0.51100000000E-03 0.  1.
         22    1    1    0    0    0  0.17412174368E+02 -0.25742886076E+02  0.53463068773E+01  0.31535107372E+02  0.00000000000E+00 0. -1.
</event>
<event>
 5    1  0.1626333E-003  0.9118800E+02  0.7818608E-02  0.1130116E+00
         25   -1    0    0    0    0  0.00000000000E+00  0.00000000000E+00  0.99999998245E-14  0.12500000000E+03  0.12500000000E+03 0.  0.
        -11    1    3    3    0    0 -0.40365569997E+02 -0.63839947694E+01  0.18068404004E+02  0.44683350970E+02  0.51100000000E-03 0. -1.
         23    2    1    0    0    0 -0.70128741939E+01 -0.23541987259E+02 -0.16270657926E+02  0.95535786487E+02  0.90878746811E+02 0.  0.
         11    1    3    3    0    0  0.33352695803E+02 -0.17157992490E+02 -0.34339061929E+02  0.50852435518E+02  0.51100000000E-03 0.  1.
         22    1    1    0    0    0  0.70128741939E+01  0.23541987259E+02  0.16270657926E+02  0.29464213513E+02  0.00000000000E+00 0. -1.
</event>
<event>
 5    1  0.1626333E-003  0.9118800E+02  0.7818608E-02  0.1130116E+00
         25   -1    0    0    0    0  0.00000000000E+00  0.00000000000E+00  0.99999998245E-14  0.12500000000E+03  0.12500000000E+03 0.  0.
        -11    1    3    3    0    0 -0.63563500760E+01  0.28117356118E+02  0.16121737557E+02  0.33028765092E+02  0.51100000000E-03 0. -1.
         23    2    1    0    0    0  0.12276630732E+02 -0.20587329631E+02 -0.17717150017E+02  0.95193101332E+02  0.90406168667E+02 0.  0.
         11    1    3    3    0    0  0.18632980808E+02 -0.48704685749E+02 -0.33838887574E+02  0.62164336241E+02  0.51100000000E-03 0.  1.
         22    1    1    0    0    0 -0.12276630732E+02  0.20587329631E+02  0.17717150017E+02  0.29806898668E+02  0.00000000000E+00 0.  1.
</event>
<event>
 5    1  0.1626333E-003  0.9118800E+02  0.7818608E-02  0.1130116E+00
         25   -1    0    0    0    0  0.00000000000E+00  0.00000000000E+00  0.99999998245E-14  0.12500000000E+03  0.12500000000E+03 0.  0.
        -11    1    3    3    0    0 -0.40481064063E+02  0.19180698696E+02  0.75343587085E+01  0.45424468203E+02  0.51100000000E-03 0. -1.
         23    2    1    0    0    0 -0.16848986416E+02 -0.14525226757E+02 -0.20111182977E+02  0.95011164805E+02  0.90154263356E+02 0.  0.
         11    1    3    3    0    0  0.23632077646E+02 -0.33705925453E+02 -0.27645541686E+02  0.49586696602E+02  0.51100000000E-03 0.  1.
         22    1    1    0    0    0  0.16848986416E+02  0.14525226757E+02  0.20111182977E+02  0.29988835195E+02  0.00000000000E+00 0.  1.
</event>
<event>
 5    1  0.1626333E-003  0.9118800E+02  0.7818608E-02  0.1130116E+00
         25   -1    0    0    0    0  0.00000000000E+00  0.00000000000E+00  0.99999998245E-14  0.12500000000E+03  0.12500000000E+03 0.  0.
        -11    1    3    3    0    0  0.39130579708E+02  0.19159306903E+02 -0.29897529268E+02  0.52840737750E+02  0.51100000000E-03 0.  1.
         23    2    1    0    0    0  0.23151356075E+02  0.16033036695E+02  0.93465292872E+01  0.95328445213E+02  0.90593108475E+02 0.  0.
         11    1    3    3    0    0 -0.15979223633E+02 -0.31262702084E+01  0.39244058555E+02  0.42487707463E+02  0.51100000000E-03 0. -1.
         22    1    1    0    0    0 -0.23151356075E+02 -0.16033036695E+02 -0.93465292872E+01  0.29671554787E+02  0.00000000000E+00 0.  1.
</event>
<event>
 5    1  0.1626333E-003  0.9118800E+02  0.7818608E-02  0.1130116E+00
         25   -1    0    0    0    0  0.00000000000E+00  0.00000000000E+00  0.99999998245E-14  0.12500000000E+03  0.12500000000E+03 0.  0.
        -11    1    3    3    0    0  0.38686560879E+02 -0.22281837508E+02 -0.39451727761E+02  0.59578260288E+02  0.51100000000E-03 0. -1.
         23    2    1    0    0    0  0.22350828178E+02 -0.15575926964E+02 -0.64550758415E+01  0.97002910416E+02  0.92874795311E+02 0.  0.
         11    1    3    3    0    0 -0.16335732701E+02  0.67059105441E+01  0.32996651919E+02  0.37424650129E+02  0.51100000000E-03 0.  1.
         22    1    1    0    0    0 -0.22350828178E+02  0.15575926964E+02  0.64550758415E+01  0.27997089584E+02  0.00000000000E+00 0. -1.
</event>
<event>
 5    1  0.1626333E-003  0.9118800E+02  0.7818608E-02  0.1130116E+00
         25   -1    0    0    0    0  0.00000000000E+00  0.00000000000E+00  0.99999998245E-14  0.12500000000E+03  0.12500000000E+03 0.  0.
        -11    1    3    3    0    0 -0.49472981941E+02 -0.37551868888E+02 -0.61484852751E+01  0.62414122364E+02  0.51100000000E-03 0. -1.
         23    2    1    0    0    0 -0.24603487411E+02 -0.19025979290E+02 -0.53896954113E+01  0.93434697889E+02  0.87941312659E+02 0.  0.
         11    1    3    3    0    0  0.24869494530E+02  0.18525889598E+02  0.75878986373E+00  0.31020575524E+02  0.51100000000E-03 0.  1.
         22    1    1    0    0    0  0.24603487411E+02  0.19025979290E+02  0.53896954113E+01  0.31565302111E+02  0.00000000000E+00 0. -1.
</event>
<event>
 5    1  0.1626333E-003  0.9118800E+02  0.7818608E-02  0.1130116E+00
         25   -1    0    0    0    0  0.00000000000E+00  0.00000000000E+00  0.99999998245E-14  0.12500000000E+03  0.12500000000E+03 0.  0.
        -11    1    3    3    0    0  0.33254067941E+02  0.95960107420E+01  0.40086067314E+01  0.34842293050E+02  0.51100000000E-03 0.  1.
         23    2    1    0    0    0 -0.20043141439E+02 -0.12560320996E+02 -0.16569851302E+02  0.96120090817E+02  0.91678910902E+02 0.  0.
         11    1    3    3    0    0 -0.53297209381E+02 -0.22156331738E+02 -0.20578458033E+02  0.61277797767E+02  0.51100000000E-03 0. -1.
         22    1    1    0    0    0  0.20043141439E+02  0.12560320996E+02  0.16569851302E+02  0.28879909183E+02  0.00000000000E+00 0. -1.
</event>
<event>
 5    1  0.1626333E-003  0.9118800E+02  0.7818608E-02  0.1130116E+00
         25   -1    0    0    0    0  0.00000000000E+00  0.00000000000E+00  0.99999998245E-14  0.12500000000E+03  0.12500000000E+03 0.  0.
        -11    1    3    3    0    0  0.58637445035E+01 -0.56478316524E+02 -0.10064103182E+02  0.57666887467E+02  0.51100000000E-03 0.  1.
         23    2    1    0    0    0  0.18984203368E+02 -0.21853188568E+02  0.55179674585E-01  0.96052377077E+02  0.91586539781E+02 0.  0.
         11    1    3    3    0    0  0.13120458865E+02  0.34625127956E+02  0.10119282857E+02  0.38385489610E+02  0.51100000000E-03 0. -1.
         22    1    1    0    0    0 -0.18984203368E+02  0.21853188568E+02 -0.55179674585E-01  0.28947622923E+02  0.00000000000E+00 0.  1.
</event>
<event>
 5    1  0.1626333E-003  0.9118800E+02  0.7818608E-02  0.1130116E+00
         25   -1    0    0    0    0  0.00000000000E+00  0.00000000000E+00  0.99999998245E-14  0.12500000000E+03  0.12500000000E+03 0.  0.
        -11    1    3    3    0    0  0.94192790903E+01 -0.20265781628E+02  0.30393845442E+02  0.37725463079E+02  0.51100000000E-03 0. -1.
         23    2    1    0    0    0 -0.25004959240E+02  0.16565825844E+02  0.36786218501E+01  0.94780687777E+02  0.89834135741E+02 0.  0.
         11    1    3    3    0    0 -0.34424238330E+02  0.36831607471E+02 -0.26715223591E+02  0.57055224698E+02  0.51100000000E-03 0.  1.
         22    1    1    0    0    0  0.25004959240E+02 -0.16565825844E+02 -0.36786218501E+01  0.30219312223E+02  0.00000000000E+00 0.  1.
</event>
<event>
 5    1  0.1626333E-003  0.9118800E+02  0.7818608E-02  0.1130116E+00
         25   -1    0    0    0    0  0.00000000000E+00  0.00000000000E+00  0.99999998245E-14  0.12500000000E+03  0.12500000000E+03 0.  0.
        -11    1    3    3    0    0 -0.19910365901E+02 -0.27083960228E+01 -0.40271302372E+02  0.45005953765E+02  0.51100000000E-03 0. -1.
         23    2    1    0    0    0  0.12677236562E+02 -0.24500478276E+02 -0.67161432554E+01  0.96608234595E+02  0.92342074098E+02 0.  0.
         11    1    3    3    0    0  0.32587602463E+02 -0.21792082253E+02  0.33555159116E+02  0.51602280829E+02  0.51100000000E-03 0.  1.
         22    1    1    0    0    0 -0.12677236562E+02  0.24500478276E+02  0.67161432554E+01  0.28391765405E+02  0.00000000000E+00 0.  1.
</event>
<event>
 5    1  0.1626333E-003  0.9118800E+02  0.7818608E-02  0.1130116E+00
         25   -1    0    0    0    0  0.00000000000E+00  0.00000000000E+00  0.99999998245E-14  0.12500000000E+03  0.12500000000E+03 0.  0.
        -11    1    3    3    0    0  0.23199391516E+02 -0.35469026675E+02  0.35711271337E+01  0.42532535420E+02  0.51100000000E-03 0.  1.
         23    2    1    0    0    0  0.14841310241E+02  0.11049206041E+02 -0.21987087631E+02  0.96263586405E+02  0.91874352249E+02 0.  0.
         11    1    3    3    0    0 -0.83580812752E+01  0.46518232717E+02 -0.25558214765E+02  0.53731050985E+02  0.51100000000E-03 0. -1.
         22    1    1    0    0    0 -0.14841310241E+02 -0.11049206041E+02  0.21987087631E+02  0.28736413595E+02  0.00000000000E+00 0. -1.
</event>
<event>
 5    1  0.1626333E-003  0.9118800E+02  0.7818608E-02  0.1130116E+00
         25   -1    0    0    0    0  0.00000000000E+00  0.00000000000E+00  0.99999998245E-14  0.12500000000E+03  0.12500000000E+03 0.  0.
        -11    1    3    3    0    0 -0.25348570410E+02 -0.17503864902E+02 -0.14444686235E+02  0.34023290098E+02  0.51100000000E-03 0. -1.
         23    2    1    0    0    0  0.14727293977E+02  0.26489619074E+02 -0.44757494788E+01  0.94363005370E+02  0.89251057934E+02 0.  0.
         11    1    3    3    0    0  0.40075864387E+02  0.43993483976E+02  0.99689367567E+01  0.60339715272E+02  0.51100000000E-03 0.  1.
         22    1    1    0    0    0 -0.14727293977E+02 -0.26489619074E+02  0.44757494788E+01  0.30636994630E+02  0.00000000000E+00 0.  1.
</event>
<event>
 5    1  0.1626333E-003  0.9118800E+02  0.7818608E-02  0.1130116E+00
         25   -1    0    0    0    0  0.00000000000E+00  0.00000000000E+00  0.99999998245E-14  0.12500000000E+03  0.12500000000E+03 0.  0.
        -11    1    3    3    0    0 -0.22263413245E+02  0.42702141861E+02  0.32308183270E+02  0.57990957876E+02  0.51100000000E-03 0. -1.
         23    2    1    0    0    0 -0.69766064424E+01  0.61630483989E+01  0.25073467814E+02  0.98254252838E+02  0.94543975004E+02 0.  0.
         11    1    3    3    0    0  0.15286806802E+02 -0.36539093462E+02 -0.72347154563E+01  0.40263294963E+02  0.51100000000E-03 0.  1.
         22    1    1    0    0    0  0.69766064424E+01 -0.61630483989E+01 -0.25073467814E+02  0.26745747162E+02  0.00000000000E+00 0. -1.
</event>
<event>
 5    1  0.1626333E-003  0.9118800E+02  0.7818608E-02  0.1130116E+00
         25   -1    0    0    0    0  0.00000000000E+00  0.00000000000E+00  0.99999998245E-14  0.12500000000E+03  0.12500000000E+03 0.  0.
        -11    1    3    3    0    0  0.11667983414E+01  0.36622672382E+02  0.90614899175E+01  0.37745094391E+02  0.51100000000E-03 0.  1.
         23    2    1    0    0    0  0.10233726498E+02 -0.21937119061E+02  0.13702453529E+02  0.97184112751E+02  0.93118355805E+02 0.  0.
         11    1    3    3    0    0  0.90669281561E+01 -0.58559791444E+02  0.46409636112E+01  0.59439018360E+02  0.51100000000E-03 0. -1.
         22    1    1    0    0    0 -0.10233726498E+02  0.21937119061E+02 -0.13702453529E+02  0.27815887249E+02  0.00000000000E+00 0. -1.
</event>
<event>
 5    1  0.1626333E-003  0.9118800E+02  0.7818608E-02  0.1130116E+00
         25   -1    0    0    0    0  0.00000000000E+00  0.00000000000E+00  0.99999998245E-14  0.12500000000E+03  0.12500000000E+03 0.  0.
        -11    1    3    3    0    0  0.13178993498E+02 -0.52371493339E+01 -0.19794147490E+02  0.24349987225E+02  0.51100000000E-03 0.  1.
         23    2    1    0    0    0 -0.47724443855E+01 -0.20222082317E+02  0.35209007429E+02  0.84117448187E+02  0.73514366260E+02 0.  0.
         11    1    3    3    0    0 -0.17951437883E+02 -0.14984932983E+02  0.55003154918E+02  0.59767460962E+02  0.51100000000E-03 0. -1.
         22    1    1    0    0    0  0.47724443855E+01  0.20222082317E+02 -0.35209007429E+02  0.40882551813E+02  0.00000000000E+00 0.  1.
</event>
<event>
 5    1  0.1626333E-003  0.9118800E+02  0.7818608E-02  0.1130116E+00
         25   -1    0    0    0    0  0.00000000000E+00  0.00000000000E+00  0.99999998245E-14  0.12500000000E+03  0.12500000000E+03 0.  0.
        -11    1    3    3    0    0 -0.60631723879E+01  0.20324404806E+02  0.40770082060E+02  0.45956969891E+02  0.51100000000E-03 0.  1.
         23    2    1    0    0    0  0.11305738100E+02  0.26421075806E+02 -0.54873140644E+01  0.95742461205E+02  0.91162576210E+02 0.  0.
         11    1    3    3    0    0  0.17368910488E+02  0.60966709996E+01 -0.46257396125E+02  0.49785491313E+02  0.51100000000E-03 0. -1.
         22    1    1    0    0    0 -0.11305738100E+02 -0.26421075806E+02  0.54873140644E+01  0.29257538795E+02  0.00000000000E+00 0.  1.
</event>
<event>
 5    1  0.1626333E-003  0.9118800E+02  0.7818608E-02  0.1130116E+00
         25   -1    0    0    0    0  0.00000000000E+00  0.00000000000E+00  0.99999998245E-14  0.12500000000E+03  0.12500000000E+03 0.  0.
        -11    1    3    3    0    0  0.26891446193E+02  0.21829975874E+02  0.15828855891E+02  0.38082153355E+02  0.51100000000E-03 0. -1.
         23    2    1    0    0    0  0.59498450507E+01 -0.22240313720E+02 -0.16554678790E+02  0.96643526307E+02  0.92389834812E+02 0.  0.
         11    1    3    3    0    0 -0.20941601143E+02 -0.44070289594E+02 -0.32383534681E+02  0.58561372952E+02  0.51100000000E-03 0.  1.
         22    1    1    0    0    0 -0.59498450507E+01  0.22240313720E+02  0.16554678790E+02  0.28356473693E+02  0.00000000000E+00 0.  1.
</event>
<event>
 5    1  0.1626333E-003  0.9118800E+02  0.7818608E-02  0.1130116E+00
         25   -1    0    0    0    0  0.00000000000E+00  0.00000000000E+00  0.99999998245E-14  0.12500000000E+03  0.12500000000E+03 0.  0.
        -11    1    3    3    0    0  0.11408377946E+02  0.31514241305E+02 -0.21693619003E+02  0.39923822438E+02  0.51100000000E-03 0.  1.
         23    2    1    0    0    0  0.12714886043E+01 -0.23855888227E+02 -0.15427402079E+02  0.96561912489E+02  0.92279348298E+02 0.  0.
         11    1    3    3    0    0 -0.10136889341E+02 -0.55370129532E+02  0.62662169239E+01  0.56638090051E+02  0.51100000000E-03 0. -1.
         22    1    1    0    0    0 -0.12714886043E+01  0.23855888227E+02  0.15427402079E+02  0.28438087511E+02  0.00000000000E+00 0. -1.
</event>
<event>
 5    1  0.1626333E-003  0.9118800E+02  0.7818608E-02  0.1130116E+00
         25   -1    0    0    0    0  0.00000000000E+00  0.00000000000E+00  0.99999998245E-14  0.12500000000E+03  0.12500000000E+03 0.  0.
        -11    1    3    3    0    0  0.27140304457E+01  0.35033274258E+02  0.47886846363E+02  0.59395675948E+02  0.51100000000E-03 0.  1.
         23    2    1    0    0    0  0.13986352865E+02  0.10775984084E+02  0.23609532117E+02  0.95518651553E+02  0.90855175353E+02 0.  0.
         11    1    3    3    0    0  0.11272322420E+02 -0.24257290174E+02 -0.24277314246E+02  0.36122975605E+02  0.51100000000E-03 0. -1.
         22    1    1    0    0    0 -0.13986352865E+02 -0.10775984084E+02 -0.23609532117E+02  0.29481348447E+02  0.00000000000E+00 0.  1.
</event>
<event>
 5    1  0.1626333E-003  0.9118800E+02  0.7818608E-02  0.1130116E+00
         25   -1    0    0    0    0  0.00000000000E+00  0.00000000000E+00  0.99999998245E-14  0.12500000000E+03  0.12500000000E+03 0.  0.
        -11    1    3    3    0    0  0.15930568608E+02 -0.27463844285E+02  0.53743463854E+02  0.62421195650E+02  0.51100000000E-03 0. -1.
         23    2    1    0    0    0  0.58382103657E+01 -0.14434623845E+02  0.26768222613E+02  0.94032584743E+02  0.88787083440E+02 0.  0.
         11    1    3    3    0    0 -0.10092358242E+02  0.13029220440E+02 -0.26975241241E+02  0.31611389093E+02  0.51100000000E-03 0.  1.
         22    1    1    0    0    0 -0.58382103657E+01  0.14434623845E+02 -0.26768222613E+02  0.30967415257E+02  0.00000000000E+00 0. -1.
</event>
<event>
 5    1  0.1626333E-003  0.9118800E+02  0.7818608E-02  0.1130116E+00
         25   -1    0    0    0    0  0.00000000000E+00  0.00000000000E+00  0.99999998245E-14  0.12500000000E+03  0.12500000000E+03 0.  0.
        -11    1    3    3    0    0 -0.17118034574E+01  0.38323810230E+02  0.26026279392E+02  0.46357436522E+02  0.51100000000E-03 0.  1.
         23    2    1    0    0    0 -0.22958834249E+02 -0.24153337551E+01  0.23013580858E+02  0.92402963154E+02  0.86462366313E+02 0.  0.
         11    1    3    3    0    0 -0.21247030792E+02 -0.40739143985E+02 -0.30126985337E+01  0.46045526632E+02  0.51100000000E-03 0. -1.
         22    1    1    0    0    0  0.22958834249E+02  0.24153337551E+01 -0.23013580858E+02  0.32597036846E+02  0.00000000000E+00 0.  1.
</event>
<event>
 5    1  0.1626333E-003  0.9118800E+02  0.7818608E-02  0.1130116E+00
         25   -1    0    0    0    0  0.00000000000E+00  0.00000000000E+00  0.99999998245E-14  0.12500000000E+03  0.12500000000E+03 0.  0.
        -11    1    3    3    0    0  0.17739910985E+02  0.18131081291E+02  0.36808469764E+02  0.44702393641E+02  0.51100000000E-03 0.  1.
         23    2    1    0    0    0  0.31701850161E+02  0.35354716229E+01 -0.64608836981E+01  0.92453880701E+02  0.86535947301E+02 0.  0.
         11    1    3    3    0    0  0.13961939177E+02 -0.14595609668E+02 -0.43269353462E+02  0.47751487061E+02  0.51100000000E-03 0. -1.
         22    1    1    0    0    0 -0.31701850161E+02 -0.35354716229E+01  0.64608836981E+01  0.32546119299E+02  0.00000000000E+00 0. -1.
</event>
<event>
 5    1  0.1626333E-003  0.9118800E+02  0.7818608E-02  0.1130116E+00
         25   -1    0    0    0    0  0.00000000000E+00  0.00000000000E+00  0.99999998245E-14  0.12500000000E+03  0.12500000000E+03 0.  0.
        -11    1    3    3    0    0  0.27859274955E+02 -0.18891224414E+02  0.30401886713E+01  0.33797341734E+02  0.51100000000E-03 0. -1.
         23    2    1    0    0    0  0.16723722772E-01 -0.18627471232E+02  0.40470603802E+02  0.80448313879E+02  0.66985658686E+02 0.  0.
         11    1    3    3    0    0 -0.27842551232E+02  0.26375318242E+00  0.37430415131E+02  0.46650972144E+02  0.51100000000E-03 0.  1.
         22    1    1    0    0    0 -0.16723722772E-01  0.18627471232E+02 -0.40470603802E+02  0.44551686121E+02  0.00000000000E+00 0.  1.
</event>
<event>
 5    1  0.1626333E-003  0.9118800E+02  0.7818608E-02  0.1130116E+00
         25   -1    0    0    0    0  0.00000000000E+00  0.00000000000E+00  0.99999998245E-14  0.12500000000E+03  0.12500000000E+03 0.  0.
        -11    1    3    3    0    0  0.29773853791E+02 -0.11156418161E+02 -0.14669118542E+02  0.35016154483E+02  0.51100000000E-03 0. -1.
         23    2    1    0    0    0 -0.17229648020E+02  0.19523158949E+02  0.10995158133E+02  0.96735039207E+02  0.92513565502E+02 0.  0.
         11    1    3    3    0    0 -0.47003501811E+02  0.30679577110E+02  0.25664276675E+02  0.61718884724E+02  0.51100000000E-03 0.  1.
         22    1    1    0    0    0  0.17229648020E+02 -0.19523158949E+02 -0.10995158133E+02  0.28264960793E+02  0.00000000000E+00 0.  1.
</event>
<event>
 5    1  0.1626333E-003  0.9118800E+02  0.7818608E-02  0.1130116E+00
         25   -1    0    0    0    0  0.00000000000E+00  0.00000000000E+00  0.99999998245E-14  0.12500000000E+03  0.12500000000E+03 0.  0.
        -11    1    3    3    0    0  0.94585461013E+01  0.12074695997E+02  0.37746643488E+02  0.40743974679E+02  0.51100000000E-03 0.  1.
         23    2    1    0    0    0  0.24477595776E+02  0.19141558057E+02 -0.10841957771E+02  0.92089515529E+02  0.86008016383E+02 0.  0.
         11    1    3    3    0    0  0.15019049674E+02  0.70668620602E+01 -0.48588601260E+02  0.51345540850E+02  0.51100000000E-03 0. -1.
         22    1    1    0    0    0 -0.24477595776E+02 -0.19141558057E+02  0.10841957771E+02  0.32910484471E+02  0.00000000000E+00 0. -1.
</event>
<event>
 5    1  0.1626333E-003  0.9118800E+02  0.7818608E-02  0.1130116E+00
         25   -1    0    0    0    0  0.00000000000E+00  0.00000000000E+00  0.99999998245E-14  0.12500000000E+03  0.12500000000E+03 0.  0.
        -11    1    3    3    0    0  0.25295391308E+02  0.21811763948E+02 -0.48665882132E+02  0.59025231486E+02  0.51100000000E-03 0. -1.
         23    2    1    0    0    0  0.63074822952E+01  0.23061749779E+02 -0.18172723407E+02  0.94968741089E+02  0.90095423148E+02 0.  0.
         11    1    3    3    0    0 -0.18987909013E+02  0.12499858310E+01  0.30493158726E+02  0.35943509603E+02  0.51100000000E-03 0.  1.
         22    1    1    0    0    0 -0.63074822952E+01 -0.23061749779E+02  0.18172723407E+02  0.30031258911E+02  0.00000000000E+00 0. -1.
</event>
<event>
 5    1  0.1626333E-003  0.9118800E+02  0.7818608E-02  0.1130116E+00
         25   -1    0    0    0    0  0.00000000000E+00  0.00000000000E+00  0.99999998245E-14  0.12500000000E+03  0.12500000000E+03 0.  0.
        -11    1    3    3    0    0 -0.44665403060E+02 -0.33518304844E+02 -0.24471104067E+02  0.60969745979E+02  0.51100000000E-03 0. -1.
         23    2    1    0    0    0 -0.25440669169E+02 -0.15737440242E+02 -0.28115112671E+01  0.94953381742E+02  0.90074110795E+02 0.  0.
         11    1    3    3    0    0  0.19224733891E+02  0.17780864603E+02  0.21659592800E+02  0.33983635764E+02  0.51100000000E-03 0.  1.
         22    1    1    0    0    0  0.25440669169E+02  0.15737440242E+02  0.28115112671E+01  0.30046618258E+02  0.00000000000E+00 0. -1.
</event>
<event>
 5    1  0.1626333E-003  0.9118800E+02  0.7818608E-02  0.1130116E+00
         25   -1    0    0    0    0  0.00000000000E+00  0.00000000000E+00  0.99999998245E-14  0.12500000000E+03  0.12500000000E+03 0.  0.
        -11    1    3    3    0    0 -0.14955434169E+01 -0.26358681167E+01  0.59654065338E+02  0.59730996663E+02  0.51100000000E-03 0. -1.
         23    2    1    0    0    0  0.12428266133E+02 -0.13613374190E+01  0.28149408560E+02  0.94198957146E+02  0.89021004749E+02 0.  0.
         11    1    3    3    0    0  0.13923809550E+02  0.12745306977E+01 -0.31504656778E+02  0.34467960482E+02  0.51100000000E-03 0.  1.
         22    1    1    0    0    0 -0.12428266133E+02  0.13613374190E+01 -0.28149408560E+02  0.30801042854E+02  0.00000000000E+00 0. -1.
</event>
