<event>
 5    1  0.2370309E-009  0.9118800E+02  0.7561462E-02  0.1125453E+00
         25   -1    0    0    0    0  0.00000000000E+00  0.00000000000E+00  0.99999998245E-14  0.12509000000E+03  0.12509000000E+03 0.  0.
        -13    1    3    3    0    0 -0.53786021865E+02  0.11321105016E+02  0.29037655995E+02  0.62163495691E+02  0.10566000000E+00 0.  1.
         23    2    1    0    0    0 -0.24464562483E+02  0.99897670892E+00  0.15797203166E+02  0.95951290354E+02  0.91419832207E+02 0.  0.
         13    1    3    3    0    0  0.29321459382E+02 -0.10322128307E+02 -0.13240452829E+02  0.33787794663E+02  0.10566000000E+00 0. -1.
         22    1    1    0    0    0  0.24464562483E+02 -0.99897670892E+00 -0.15797203166E+02  0.29138709646E+02  0.00000000000E+00 0.  1.
</event>
<event>
 5    1  0.2370309E-009  0.9118800E+02  0.7561462E-02  0.1125453E+00
         25   -1    0    0    0    0  0.00000000000E+00  0.00000000000E+00  0.99999998245E-14  0.12509000000E+03  0.12509000000E+03 0.  0.
        -13    1    3    3    0    0 -0.39180576559E+01 -0.16370474709E+02  0.55199877475E+02  0.57709455511E+02  0.10566000000E+00 0.  1.
         23    2    1    0    0    0 -0.40169338077E+01 -0.23272516459E+02  0.18399035410E+02  0.95152226476E+02  0.90319853409E+02 0.  0.
         13    1    3    3    0    0 -0.98876151801E-01 -0.69020417497E+01 -0.36800842066E+02  0.37442770966E+02  0.10566000000E+00 0. -1.
         22    1    1    0    0    0  0.40169338077E+01  0.23272516459E+02 -0.18399035410E+02  0.29937773524E+02  0.00000000000E+00 0.  1.
</event>
<event>
 5    1  0.2370309E-009  0.9118800E+02  0.7561462E-02  0.1125453E+00
         25   -1    0    0    0    0  0.00000000000E+00  0.00000000000E+00  0.99999998245E-14  0.12509000000E+03  0.12509000000E+03 0.  0.
        -13    1    3    3    0    0 -0.30010894019E+02 -0.83453904327E+01  0.16093484166E+02  0.35061527319E+02  0.10566000000E+00 0.  1.
         23    2    1    0    0    0  0.34177719931E+01  0.30586248237E+02 -0.10131238913E+02  0.92688738474E+02  0.86841006969E+02 0.  0.
         13    1    3    3    0    0  0.33428666013E+02  0.38931638669E+02 -0.26224723078E+02  0.57627211154E+02  0.10566000000E+00 0. -1.
         22    1    1    0    0    0 -0.34177719931E+01 -0.30586248237E+02  0.10131238913E+02  0.32401261526E+02  0.00000000000E+00 0. -1.
</event>
<event>
 5    1  0.2370309E-009  0.9118800E+02  0.7561462E-02  0.1125453E+00
         25   -1    0    0    0    0  0.00000000000E+00  0.00000000000E+00  0.99999998245E-14  0.12509000000E+03  0.12509000000E+03 0.  0.
        -13    1    3    3    0    0  0.45204220157E+02 -0.33135757386E+01 -0.30832375190E+02  0.54818316538E+02  0.10566000000E+00 0.  1.
         23    2    1    0    0    0  0.11080919260E+02 -0.21541412011E+02 -0.14848699817E+02  0.96676920453E+02  0.92407379895E+02 0.  0.
         13    1    3    3    0    0 -0.34123300897E+02 -0.18227836273E+02  0.15983675373E+02  0.41858603915E+02  0.10566000000E+00 0. -1.
         22    1    1    0    0    0 -0.11080919260E+02  0.21541412011E+02  0.14848699817E+02  0.28413079547E+02  0.00000000000E+00 0.  1.
</event>
<event>
 5    1  0.2370309E-009  0.9118800E+02  0.7561462E-02  0.1125453E+00
         25   -1    0    0    0    0  0.00000000000E+00  0.00000000000E+00  0.99999998245E-14  0.12509000000E+03  0.12509000000E+03 0.  0.
        -13    1    3    3    0    0  0.47645958958E+02 -0.12239077237E+02  0.11021973047E+02  0.50412572544E+02  0.10566000000E+00 0. -1.
         23    2    1    0    0    0  0.32420661049E+01 -0.86417621985E+01  0.26069538949E+02  0.97434767086E+02  0.93427629370E+02 0.  0.
         13    1    3    3    0    0 -0.44403892853E+02  0.35973150388E+01  0.15047565901E+02  0.47022194542E+02  0.10566000000E+00 0.  1.
         22    1    1    0    0    0 -0.32420661049E+01  0.86417621985E+01 -0.26069538949E+02  0.27655232914E+02  0.00000000000E+00 0.  1.
</event>
<event>
 5    1  0.2370309E-009  0.9118800E+02  0.7561462E-02  0.1125453E+00
         25   -1    0    0    0    0  0.00000000000E+00  0.00000000000E+00  0.99999998245E-14  0.12509000000E+03  0.12509000000E+03 0.  0.
        -13    1    3    3    0    0  0.10518819020E+02 -0.36934512607E+02 -0.12578778262E+02  0.40410897066E+02  0.10566000000E+00 0.  1.
         23    2    1    0    0    0  0.23727167243E+02  0.44714658921E+01  0.19191933419E+02  0.94246803328E+02  0.89057044396E+02 0.  0.
         13    1    3    3    0    0  0.13208348224E+02  0.41405978499E+02  0.31770711680E+02  0.53835906262E+02  0.10566000000E+00 0. -1.
         22    1    1    0    0    0 -0.23727167243E+02 -0.44714658921E+01 -0.19191933419E+02  0.30843196672E+02  0.00000000000E+00 0. -1.
</event>
<event>
 5    1  0.2370309E-009  0.9118800E+02  0.7561462E-02  0.1125453E+00
         25   -1    0    0    0    0  0.00000000000E+00  0.00000000000E+00  0.99999998245E-14  0.12509000000E+03  0.12509000000E+03 0.  0.
        -13    1    3    3    0    0  0.10010048097E+00 -0.31212479789E+02  0.22729893802E+02  0.38612020810E+02  0.10566000000E+00 0. -1.
         23    2    1    0    0    0 -0.18781026358E+02  0.58787788453E+01 -0.19132037212E+02  0.97643290914E+02  0.93706405442E+02 0.  0.
         13    1    3    3    0    0 -0.18881126839E+02  0.37091258635E+02 -0.41861931014E+02  0.59031270104E+02  0.10566000000E+00 0.  1.
         22    1    1    0    0    0  0.18781026358E+02 -0.58787788453E+01  0.19132037212E+02  0.27446709086E+02  0.00000000000E+00 0.  1.
</event>
<event>
 5    1  0.2370309E-009  0.9118800E+02  0.7561462E-02  0.1125453E+00
         25   -1    0    0    0    0  0.00000000000E+00  0.00000000000E+00  0.99999998245E-14  0.12509000000E+03  0.12509000000E+03 0.  0.
        -13    1    3    3    0    0  0.26862705153E+02 -0.19465975147E+02  0.40252604839E+02  0.52161407927E+02  0.10566000000E+00 0.  1.
         23    2    1    0    0    0  0.10275187991E+02  0.16550860484E+02  0.21663515318E+02  0.95955512414E+02  0.91425609080E+02 0.  0.
         13    1    3    3    0    0 -0.16587517162E+02  0.36016835631E+02 -0.18589089522E+02  0.43794104486E+02  0.10566000000E+00 0. -1.
         22    1    1    0    0    0 -0.10275187991E+02 -0.16550860484E+02 -0.21663515318E+02  0.29134487586E+02  0.00000000000E+00 0.  1.
</event>
<event>
 5    1  0.2370309E-009  0.9118800E+02  0.7561462E-02  0.1125453E+00
         25   -1    0    0    0    0  0.00000000000E+00  0.00000000000E+00  0.99999998245E-14  0.12509000000E+03  0.12509000000E+03 0.  0.
        -13    1    3    3    0    0  0.21723324548E+02 -0.83772136333E+01  0.14208557720E+02  0.27275901712E+02  0.10566000000E+00 0. -1.
         23    2    1    0    0    0 -0.15136912389E+02  0.17105015423E+01 -0.33432487261E+02  0.88350605113E+02  0.80349525743E+02 0.  0.
         13    1    3    3    0    0 -0.36860236938E+02  0.10087715176E+02 -0.47641044981E+02  0.61074703401E+02  0.10566000000E+00 0.  1.
         22    1    1    0    0    0  0.15136912389E+02 -0.17105015423E+01  0.33432487261E+02  0.36739394887E+02  0.00000000000E+00 0.  1.
</event>
<event>
 5    1  0.2370309E-009  0.9118800E+02  0.7561462E-02  0.1125453E+00
         25   -1    0    0    0    0  0.00000000000E+00  0.00000000000E+00  0.99999998245E-14  0.12509000000E+03  0.12509000000E+03 0.  0.
        -13    1    3    3    0    0 -0.22655804367E+02 -0.28037037841E+02  0.14692072837E+02  0.38925944185E+02  0.10566000000E+00 0. -1.
         23    2    1    0    0    0 -0.20132702181E+02 -0.20777199991E+02 -0.29493757850E+02  0.83775359875E+02  0.72879430799E+02 0.  0.
         13    1    3    3    0    0  0.25231021865E+01  0.72598378500E+01 -0.44185830686E+02  0.44849415690E+02  0.10566000000E+00 0.  1.
         22    1    1    0    0    0  0.20132702181E+02  0.20777199991E+02  0.29493757850E+02  0.41314640125E+02  0.00000000000E+00 0.  1.
</event>
<event>
 5    1  0.2370309E-009  0.9118800E+02  0.7561462E-02  0.1125453E+00
         25   -1    0    0    0    0  0.00000000000E+00  0.00000000000E+00  0.99999998245E-14  0.12509000000E+03  0.12509000000E+03 0.  0.
        -13    1    3    3    0    0 -0.24851606896E+02  0.47229570265E+02  0.31929312583E+02  0.62191051115E+02  0.10566000000E+00 0.  1.
         23    2    1    0    0    0 -0.81682995945E+01  0.24367649580E+02  0.17827744935E+02  0.93811701553E+02  0.88443786636E+02 0.  0.
         13    1    3    3    0    0  0.16683307302E+02 -0.22861920685E+02 -0.14101567648E+02  0.31620650438E+02  0.10566000000E+00 0. -1.
         22    1    1    0    0    0  0.81682995945E+01 -0.24367649580E+02 -0.17827744935E+02  0.31278298447E+02  0.00000000000E+00 0.  1.
</event>
<event>
 5    1  0.2370309E-009  0.9118800E+02  0.7561462E-02  0.1125453E+00
         25   -1    0    0    0    0  0.00000000000E+00  0.00000000000E+00  0.99999998245E-14  0.12509000000E+03  0.12509000000E+03 0.  0.
        -13    1    3    3    0    0 -0.48775944615E+01  0.11948096028E+02 -0.31123494930E+02  0.33693189625E+02  0.10566000000E+00 0. -1.
         23    2    1    0    0    0  0.86768081353E+01 -0.11861436999E+02  0.24967834715E+02  0.96118057410E+02  0.91647735940E+02 0.  0.
         13    1    3    3    0    0  0.13554402597E+02 -0.23809533026E+02  0.56091329644E+02  0.62424867785E+02  0.10566000000E+00 0.  1.
         22    1    1    0    0    0 -0.86768081353E+01  0.11861436999E+02 -0.24967834715E+02  0.28971942590E+02  0.00000000000E+00 0.  1.
</event>
<event>
 5    1  0.2370309E-009  0.9118800E+02  0.7561462E-02  0.1125453E+00
         25   -1    0    0    0    0  0.00000000000E+00  0.00000000000E+00  0.99999998245E-14  0.12509000000E+03  0.12509000000E+03 0.  0.
        -13    1    3    3    0    0  0.83568584738E+01 -0.34467508497E+02  0.14802559888E+02  0.38431408624E+02  0.10566000000E+00 0. -1.
         23    2    1    0    0    0 -0.26648331919E+02  0.10190153757E+02  0.70580564425E+01  0.95699712686E+02  0.91074947268E+02 0.  0.
         13    1    3    3    0    0 -0.35005190392E+02  0.44657662255E+02 -0.77445034457E+01  0.57268304062E+02  0.10566000000E+00 0.  1.
         22    1    1    0    0    0  0.26648331919E+02 -0.10190153757E+02 -0.70580564425E+01  0.29390287314E+02  0.00000000000E+00 0.  1.
</event>
<event>
 5    1  0.2370309E-009  0.9118800E+02  0.7561462E-02  0.1125453E+00
         25   -1    0    0    0    0  0.00000000000E+00  0.00000000000E+00  0.99999998245E-14  0.12509000000E+03  0.12509000000E+03 0.  0.
        -13    1    3    3    0    0 -0.15493675823E+02 -0.39772711965E+02 -0.18836692964E+02  0.46655704618E+02  0.10566000000E+00 0.  1.
         23    2    1    0    0    0  0.24016956143E+02 -0.14583884643E+02 -0.45796924120E+00  0.96988156476E+02  0.92827737703E+02 0.  0.
         13    1    3    3    0    0  0.39510631966E+02  0.25188827323E+02  0.18378723723E+02  0.50332451857E+02  0.10566000000E+00 0. -1.
         22    1    1    0    0    0 -0.24016956143E+02  0.14583884643E+02  0.45796924120E+00  0.28101843524E+02  0.00000000000E+00 0. -1.
</event>
<event>
 5    1  0.2370309E-009  0.9118800E+02  0.7561462E-02  0.1125453E+00
         25   -1    0    0    0    0  0.00000000000E+00  0.00000000000E+00  0.99999998245E-14  0.12509000000E+03  0.12509000000E+03 0.  0.
        -13    1    3    3    0    0  0.50505195273E+02 -0.10387465145E+01 -0.23121173466E+02  0.55555859910E+02  0.10566000000E+00 0.  1.
         23    2    1    0    0    0  0.25273716610E+02  0.14637324496E+02  0.37907631396E+01  0.95638651901E+02  0.90991042595E+02 0.  0.
         13    1    3    3    0    0 -0.25231478663E+02  0.15676071011E+02  0.26911936606E+02  0.40082791990E+02  0.10566000000E+00 0. -1.
         22    1    1    0    0    0 -0.25273716610E+02 -0.14637324496E+02 -0.37907631396E+01  0.29451348099E+02  0.00000000000E+00 0.  1.
</event>
<event>
 5    1  0.2370309E-009  0.9118800E+02  0.7561462E-02  0.1125453E+00
         25   -1    0    0    0    0  0.00000000000E+00  0.00000000000E+00  0.99999998245E-14  0.12509000000E+03  0.12509000000E+03 0.  0.
        -13    1    3    3    0    0 -0.58178883323E+02  0.14290419829E+02  0.14389563509E+02  0.61612249315E+02  0.10566000000E+00 0. -1.
         23    2    1    0    0    0 -0.30134800392E+02  0.11271487811E+01  0.11826505230E+02  0.92697981153E+02  0.86854319553E+02 0.  0.
         13    1    3    3    0    0  0.28044082932E+02 -0.13163271047E+02 -0.25630582787E+01  0.31085731838E+02  0.10566000000E+00 0.  1.
         22    1    1    0    0    0  0.30134800392E+02 -0.11271487811E+01 -0.11826505230E+02  0.32392018847E+02  0.00000000000E+00 0. -1.
</event>
<event>
 5    1  0.2370309E-009  0.9118800E+02  0.7561462E-02  0.1125453E+00
         25   -1    0    0    0    0  0.00000000000E+00  0.00000000000E+00  0.99999998245E-14  0.12509000000E+03  0.12509000000E+03 0.  0.
        -13    1    3    3    0    0  0.39686867185E+02 -0.36858713098E+02 -0.18761334972E+02  0.57320249582E+02  0.10566000000E+00 0.  1.
         23    2    1    0    0    0  0.75146005360E+01 -0.28001569200E+02  0.96018528135E+00  0.96081741613E+02  0.91598155095E+02 0.  0.
         13    1    3    3    0    0 -0.32172266649E+02  0.88571438982E+01  0.19721520253E+02  0.38761492031E+02  0.10566000000E+00 0. -1.
         22    1    1    0    0    0 -0.75146005360E+01  0.28001569200E+02 -0.96018528135E+00  0.29008258387E+02  0.00000000000E+00 0.  1.
</event>
<event>
 5    1  0.2370309E-009  0.9118800E+02  0.7561462E-02  0.1125453E+00
         25   -1    0    0    0    0  0.00000000000E+00  0.00000000000E+00  0.99999998245E-14  0.12509000000E+03  0.12509000000E+03 0.  0.
        -13    1    3    3    0    0 -0.35418989399E+02  0.22949109063E+02 -0.33911419457E+02  0.54140206414E+02  0.10566000000E+00 0.  1.
         23    2    1    0    0    0 -0.93804310005E+01 -0.81167454020E+01 -0.27156644990E+02  0.95234390665E+02  0.90433576488E+02 0.  0.
         13    1    3    3    0    0  0.26038558399E+02 -0.31065854465E+02  0.67547744673E+01  0.41094184251E+02  0.10566000000E+00 0. -1.
         22    1    1    0    0    0  0.93804310005E+01  0.81167454020E+01  0.27156644990E+02  0.29855609335E+02  0.00000000000E+00 0.  1.
</event>
<event>
 5    1  0.2370309E-009  0.9118800E+02  0.7561462E-02  0.1125453E+00
         25   -1    0    0    0    0  0.00000000000E+00  0.00000000000E+00  0.99999998245E-14  0.12509000000E+03  0.12509000000E+03 0.  0.
        -13    1    3    3    0    0 -0.24371725336E+02 -0.39110776409E+02  0.38755015088E+02  0.60212923743E+02  0.10566000000E+00 0.  1.
         23    2    1    0    0    0 -0.20782249450E+02 -0.11523796072E+02  0.13652034029E+02  0.97684201321E+02  0.93761001415E+02 0.  0.
         13    1    3    3    0    0  0.35894758856E+01  0.27586980337E+02 -0.25102981059E+02  0.37471277578E+02  0.10566000000E+00 0. -1.
         22    1    1    0    0    0  0.20782249450E+02  0.11523796072E+02 -0.13652034029E+02  0.27405798679E+02  0.00000000000E+00 0.  1.
</event>
<event>
 5    1  0.2370309E-009  0.9118800E+02  0.7561462E-02  0.1125453E+00
         25   -1    0    0    0    0  0.00000000000E+00  0.00000000000E+00  0.99999998245E-14  0.12509000000E+03  0.12509000000E+03 0.  0.
        -13    1    3    3    0    0 -0.30760772263E+02  0.26351529600E+02  0.46782811953E+02  0.61881102776E+02  0.10566000000E+00 0.  1.
         23    2    1    0    0    0 -0.16112420488E+02  0.63832704586E+01  0.23649373857E+02  0.95770226475E+02  0.91171745402E+02 0.  0.
         13    1    3    3    0    0  0.14648351775E+02 -0.19968259142E+02 -0.23133438097E+02  0.33889123699E+02  0.10566000000E+00 0. -1.
         22    1    1    0    0    0  0.16112420488E+02 -0.63832704586E+01 -0.23649373857E+02  0.29319773525E+02  0.00000000000E+00 0.  1.
</event>
<event>
 5    1  0.2370309E-009  0.9118800E+02  0.7561462E-02  0.1125453E+00
         25   -1    0    0    0    0  0.00000000000E+00  0.00000000000E+00  0.99999998245E-14  0.12509000000E+03  0.12509000000E+03 0.  0.
        -13    1    3    3    0    0  0.54337383478E+01 -0.10589175722E+01  0.36062260785E+02  0.36484854883E+02  0.10566000000E+00 0.  1.
         23    2    1    0    0    0  0.80435750621E+01  0.29254999596E+02 -0.11245531519E+02  0.92732372147E+02  0.86903836301E+02 0.  0.
         13    1    3    3    0    0  0.26098367142E+01  0.30313917168E+02 -0.47307792304E+02  0.56247517264E+02  0.10566000000E+00 0. -1.
         22    1    1    0    0    0 -0.80435750621E+01 -0.29254999596E+02  0.11245531519E+02  0.32357627853E+02  0.00000000000E+00 0. -1.
</event>
<event>
 5    1  0.2370309E-009  0.9118800E+02  0.7561462E-02  0.1125453E+00
         25   -1    0    0    0    0  0.00000000000E+00  0.00000000000E+00  0.99999998245E-14  0.12509000000E+03  0.12509000000E+03 0.  0.
        -13    1    3    3    0    0  0.30806490766E+02 -0.88318221454E+01  0.13643243707E+02  0.34830880244E+02  0.10566000000E+00 0.  1.
         23    2    1    0    0    0 -0.25310727241E+02  0.10886198800E+02  0.13717362831E+02  0.94311626410E+02  0.89148048747E+02 0.  0.
         13    1    3    3    0    0 -0.56117218007E+02  0.19718020945E+02  0.74119123806E-01  0.59480746166E+02  0.10566000000E+00 0. -1.
         22    1    1    0    0    0  0.25310727241E+02 -0.10886198800E+02 -0.13717362831E+02  0.30778373590E+02  0.00000000000E+00 0. -1.
</event>
<event>
 5    1  0.2370309E-009  0.9118800E+02  0.7561462E-02  0.1125453E+00
         25   -1    0    0    0    0  0.00000000000E+00  0.00000000000E+00  0.99999998245E-14  0.12509000000E+03  0.12509000000E+03 0.  0.
        -13    1    3    3    0    0 -0.29715434382E+02  0.39686105549E+02 -0.54406530370E+01  0.49875904841E+02  0.10566000000E+00 0.  1.
         23    2    1    0    0    0 -0.23342928930E+02 -0.30724900175E+01 -0.18621694576E+02  0.95071671685E+02  0.90208218706E+02 0.  0.
         13    1    3    3    0    0  0.63725054517E+01 -0.42758595567E+02 -0.13181041539E+02  0.45195766844E+02  0.10566000000E+00 0. -1.
         22    1    1    0    0    0  0.23342928930E+02  0.30724900175E+01  0.18621694576E+02  0.30018328315E+02  0.00000000000E+00 0.  1.
</event>
<event>
 5    1  0.2370309E-009  0.9118800E+02  0.7561462E-02  0.1125453E+00
         25   -1    0    0    0    0  0.00000000000E+00  0.00000000000E+00  0.99999998245E-14  0.12509000000E+03  0.12509000000E+03 0.  0.
        -13    1    3    3    0    0 -0.10054096230E+02 -0.46342262457E+01 -0.51937752896E+02  0.53104634862E+02  0.10566000000E+00 0.  1.
         23    2    1    0    0    0 -0.25870638796E+02  0.36185153749E+01 -0.13050489124E+02  0.95888991942E+02  0.91334549345E+02 0.  0.
         13    1    3    3    0    0 -0.15816542566E+02  0.82527416206E+01  0.38887263772E+02  0.42784357080E+02  0.10566000000E+00 0. -1.
         22    1    1    0    0    0  0.25870638796E+02 -0.36185153749E+01  0.13050489124E+02  0.29201008058E+02  0.00000000000E+00 0. -1.
</event>
<event>
 5    1  0.2370309E-009  0.9118800E+02  0.7561462E-02  0.1125453E+00
         25   -1    0    0    0    0  0.00000000000E+00  0.00000000000E+00  0.99999998245E-14  0.12509000000E+03  0.12509000000E+03 0.  0.
        -13    1    3    3    0    0  0.25341344081E+02  0.81785127953E+00  0.35031989489E+02  0.43244699700E+02  0.10566000000E+00 0.  1.
         23    2    1    0    0    0 -0.14131840159E+02 -0.17268477047E+02 -0.49109106193E+01  0.10224210625E+03  0.99656520314E+02 0.  0.
         13    1    3    3    0    0 -0.39473184240E+02 -0.18086328327E+02 -0.39942900108E+02  0.58997406548E+02  0.10566000000E+00 0. -1.
         22    1    1    0    0    0  0.14131840159E+02  0.17268477047E+02  0.49109106193E+01  0.22847893752E+02  0.00000000000E+00 0. -1.
</event>
<event>
 5    1  0.2370309E-009  0.9118800E+02  0.7561462E-02  0.1125453E+00
         25   -1    0    0    0    0  0.00000000000E+00  0.00000000000E+00  0.99999998245E-14  0.12509000000E+03  0.12509000000E+03 0.  0.
        -13    1    3    3    0    0  0.32948392573E+02 -0.46282586681E+02 -0.22457667302E+00  0.56813167503E+02  0.10566000000E+00 0. -1.
         23    2    1    0    0    0  0.23666844707E+02 -0.15074491845E+02  0.15568440044E+02  0.93000497540E+02  0.87288924695E+02 0.  0.
         13    1    3    3    0    0 -0.92815478660E+01  0.31208094837E+02  0.15793016717E+02  0.36187330036E+02  0.10566000000E+00 0.  1.
         22    1    1    0    0    0 -0.23666844707E+02  0.15074491845E+02 -0.15568440044E+02  0.32089502460E+02  0.00000000000E+00 0. -1.
</event>
<event>
 5    1  0.2370309E-009  0.9118800E+02  0.7561462E-02  0.1125453E+00
         25   -1    0    0    0    0  0.00000000000E+00  0.00000000000E+00  0.99999998245E-14  0.12509000000E+03  0.12509000000E+03 0.  0.
        -13    1    3    3    0    0 -0.42698022781E+01  0.16533180468E+02 -0.33095888580E+02  0.37241459058E+02  0.10566000000E+00 0.  1.
         23    2    1    0    0    0 -0.12103959312E+02  0.57219170041E+01  0.24934745826E+02  0.96788273646E+02  0.92557993716E+02 0.  0.
         13    1    3    3    0    0 -0.78341570337E+01 -0.10811263463E+02  0.58030634405E+02  0.59546814588E+02  0.10566000000E+00 0. -1.
         22    1    1    0    0    0  0.12103959312E+02 -0.57219170041E+01 -0.24934745826E+02  0.28301726354E+02  0.00000000000E+00 0. -1.
</event>
<event>
 5    1  0.2370309E-009  0.9118800E+02  0.7561462E-02  0.1125453E+00
         25   -1    0    0    0    0  0.00000000000E+00  0.00000000000E+00  0.99999998245E-14  0.12509000000E+03  0.12509000000E+03 0.  0.
        -13    1    3    3    0    0  0.87304496114E+01 -0.36344672095E+01  0.32968931140E+02  0.34298566834E+02  0.10566000000E+00 0.  1.
         23    2    1    0    0    0 -0.27704817692E+01 -0.10777189642E+02 -0.27057918350E+02  0.95833302797E+02  0.91258246716E+02 0.  0.
         13    1    3    3    0    0 -0.11500931381E+02 -0.71427224320E+01 -0.60026849490E+02  0.61534735963E+02  0.10566000000E+00 0. -1.
         22    1    1    0    0    0  0.27704817692E+01  0.10777189642E+02  0.27057918350E+02  0.29256697203E+02  0.00000000000E+00 0. -1.
</event>
<event>
 5    1  0.2370309E-009  0.9118800E+02  0.7561462E-02  0.1125453E+00
         25   -1    0    0    0    0  0.00000000000E+00  0.00000000000E+00  0.99999998245E-14  0.12509000000E+03  0.12509000000E+03 0.  0.
        -13    1    3    3    0    0  0.45662114124E+02 -0.18547324040E+02  0.14895224029E+02  0.51486996011E+02  0.10566000000E+00 0. -1.
         23    2    1    0    0    0  0.30291240552E+01 -0.28196771731E+02  0.52762648419E+01  0.96244333094E+02  0.91819927867E+02 0.  0.
         13    1    3    3    0    0 -0.42632990068E+02 -0.96494476904E+01 -0.96189591875E+01  0.44757337083E+02  0.10566000000E+00 0.  1.
         22    1    1    0    0    0 -0.30291240552E+01  0.28196771731E+02 -0.52762648419E+01  0.28845666906E+02  0.00000000000E+00 0. -1.
</event>
<event>
 5    1  0.2370309E-009  0.9118800E+02  0.7561462E-02  0.1125453E+00
         25   -1    0    0    0    0  0.00000000000E+00  0.00000000000E+00  0.99999998245E-14  0.12509000000E+03  0.12509000000E+03 0.  0.
        -13    1    3    3    0    0  0.33318074971E+02 -0.10963945441E+02 -0.10303893621E+02  0.36557948618E+02  0.10566000000E+00 0.  1.
         23    2    1    0    0    0 -0.94250948021E+01  0.40021321984E+01  0.27623583201E+02  0.95629656773E+02  0.90978675696E+02 0.  0.
         13    1    3    3    0    0 -0.42743169773E+02  0.14966077639E+02  0.37927476822E+02  0.59071708155E+02  0.10566000000E+00 0. -1.
         22    1    1    0    0    0  0.94250948021E+01 -0.40021321984E+01 -0.27623583201E+02  0.29460343227E+02  0.00000000000E+00 0. -1.
</event>
<event>
 5    1  0.2370309E-009  0.9118800E+02  0.7561462E-02  0.1125453E+00
         25   -1    0    0    0    0  0.00000000000E+00  0.00000000000E+00  0.99999998245E-14  0.12509000000E+03  0.12509000000E+03 0.  0.
        -13    1    3    3    0    0 -0.39069881460E+02 -0.20929940385E+02 -0.16368882851E+02  0.47249016198E+02  0.10566000000E+00 0.  1.
         23    2    1    0    0    0  0.46662005085E+01 -0.30191621311E+01 -0.28508555925E+02  0.96044750336E+02  0.91547624431E+02 0.  0.
         13    1    3    3    0    0  0.43736081969E+02  0.17910778254E+02 -0.12139673074E+02  0.48795734138E+02  0.10566000000E+00 0. -1.
         22    1    1    0    0    0 -0.46662005085E+01  0.30191621311E+01  0.28508555925E+02  0.29045249664E+02  0.00000000000E+00 0.  1.
</event>
<event>
 5    1  0.2370309E-009  0.9118800E+02  0.7561462E-02  0.1125453E+00
         25   -1    0    0    0    0  0.00000000000E+00  0.00000000000E+00  0.99999998245E-14  0.12509000000E+03  0.12509000000E+03 0.  0.
        -13    1    3    3    0    0 -0.14327771925E+02  0.51021297888E+02  0.13535961244E+01  0.53012274739E+02  0.10566000000E+00 0.  1.
         23    2    1    0    0    0  0.18087523792E+02  0.20154277502E+02  0.32616052756E+01  0.97813792648E+02  0.93933734859E+02 0.  0.
         13    1    3    3    0    0  0.32415295717E+02 -0.30867020387E+02  0.19080091513E+01  0.44801517909E+02  0.10566000000E+00 0. -1.
         22    1    1    0    0    0 -0.18087523792E+02 -0.20154277502E+02 -0.32616052756E+01  0.27276207352E+02  0.00000000000E+00 0.  1.
</event>
<event>
 5    1  0.2370309E-009  0.9118800E+02  0.7561462E-02  0.1125453E+00
         25   -1    0    0    0    0  0.00000000000E+00  0.00000000000E+00  0.99999998245E-14  0.12509000000E+03  0.12509000000E+03 0.  0.
        -13    1    3    3    0    0  0.19778919628E+02  0.28656512976E+02  0.62246989221E+01  0.35371732193E+02  0.10566000000E+00 0. -1.
         23    2    1    0    0    0 -0.27281649760E+02 -0.42298417869E+01 -0.11089506610E+02  0.95338409589E+02  0.90577343806E+02 0.  0.
         13    1    3    3    0    0 -0.47060569388E+02 -0.32886354763E+02 -0.17314205532E+02  0.59966677396E+02  0.10566000000E+00 0.  1.
         22    1    1    0    0    0  0.27281649760E+02  0.42298417869E+01  0.11089506610E+02  0.29751590411E+02  0.00000000000E+00 0.  1.
</event>
<event>
 5    1  0.2370309E-009  0.9118800E+02  0.7561462E-02  0.1125453E+00
         25   -1    0    0    0    0  0.00000000000E+00  0.00000000000E+00  0.99999998245E-14  0.12509000000E+03  0.12509000000E+03 0.  0.
        -13    1    3    3    0    0  0.34754573748E+02 -0.14845100575E+02 -0.47445404466E+02  0.60657522011E+02  0.10566000000E+00 0.  1.
         23    2    1    0    0    0  0.81930556981E+01 -0.14037539367E+02 -0.24050651877E+02  0.96062211092E+02  0.91571479572E+02 0.  0.
         13    1    3    3    0    0 -0.26561518050E+02  0.80756120795E+00  0.23394752589E+02  0.35404689082E+02  0.10566000000E+00 0. -1.
         22    1    1    0    0    0 -0.81930556981E+01  0.14037539367E+02  0.24050651877E+02  0.29027788908E+02  0.00000000000E+00 0.  1.
</event>
<event>
 5    1  0.2370309E-009  0.9118800E+02  0.7561462E-02  0.1125453E+00
         25   -1    0    0    0    0  0.00000000000E+00  0.00000000000E+00  0.99999998245E-14  0.12509000000E+03  0.12509000000E+03 0.  0.
        -13    1    3    3    0    0 -0.19081278052E+02  0.39377343344E+02  0.64438143859E+01  0.44228997828E+02  0.10566000000E+00 0.  1.
         23    2    1    0    0    0 -0.11842074882E+02  0.15041328171E+02 -0.30514014587E+02  0.89068043128E+02  0.81458792833E+02 0.  0.
         13    1    3    3    0    0  0.72392031703E+01 -0.24336015173E+02 -0.36957828973E+02  0.44839045301E+02  0.10566000000E+00 0. -1.
         22    1    1    0    0    0  0.11842074882E+02 -0.15041328171E+02  0.30514014587E+02  0.36021956872E+02  0.00000000000E+00 0. -1.
</event>
<event>
 5    1  0.2370309E-009  0.9118800E+02  0.7561462E-02  0.1125453E+00
         25   -1    0    0    0    0  0.00000000000E+00  0.00000000000E+00  0.99999998245E-14  0.12509000000E+03  0.12509000000E+03 0.  0.
        -13    1    3    3    0    0  0.47727040124E+02  0.29058897838E+02  0.25934032846E+02  0.61602557790E+02  0.10566000000E+00 0.  1.
         23    2    1    0    0    0  0.21444928844E+02  0.16457632934E+02  0.47284265221E+01  0.97647393121E+02  0.93711881376E+02 0.  0.
         13    1    3    3    0    0 -0.26282111280E+02 -0.12601264904E+02 -0.21205606324E+02  0.36044835332E+02  0.10566000000E+00 0. -1.
         22    1    1    0    0    0 -0.21444928844E+02 -0.16457632934E+02 -0.47284265221E+01  0.27442606879E+02  0.00000000000E+00 0.  1.
</event>
<event>
 5    1  0.2370309E-009  0.9118800E+02  0.7561462E-02  0.1125453E+00
         25   -1    0    0    0    0  0.00000000000E+00  0.00000000000E+00  0.99999998245E-14  0.12509000000E+03  0.12509000000E+03 0.  0.
        -13    1    3    3    0    0 -0.28304934586E+02  0.21647691662E+02  0.43546518329E+02  0.56268128624E+02  0.10566000000E+00 0.  1.
         23    2    1    0    0    0 -0.28379581057E+02 -0.20311700887E+01  0.16563896085E+02  0.92167531587E+02  0.86086961570E+02 0.  0.
         13    1    3    3    0    0 -0.74646471014E-01 -0.23678861750E+02 -0.26982622244E+02  0.35899402963E+02  0.10566000000E+00 0. -1.
         22    1    1    0    0    0  0.28379581057E+02  0.20311700887E+01 -0.16563896085E+02  0.32922468413E+02  0.00000000000E+00 0.  1.
</event>
<event>
 5    1  0.2370309E-009  0.9118800E+02  0.7561462E-02  0.1125453E+00
         25   -1    0    0    0    0  0.00000000000E+00  0.00000000000E+00  0.99999998245E-14  0.12509000000E+03  0.12509000000E+03 0.  0.
        -13    1    3    3    0    0  0.15040420586E+02 -0.47996045856E+02 -0.21098303059E+02  0.54543415966E+02  0.10566000000E+00 0.  1.
         23    2    1    0    0    0  0.24596954283E+02 -0.15530457683E+02  0.26385966701E+01  0.95880969407E+02  0.91323561177E+02 0.  0.
         13    1    3    3    0    0  0.95565336961E+01  0.32465588173E+02  0.23736899729E+02  0.41337553441E+02  0.10566000000E+00 0. -1.
         22    1    1    0    0    0 -0.24596954283E+02  0.15530457683E+02 -0.26385966701E+01  0.29209030593E+02  0.00000000000E+00 0. -1.
</event>
<event>
 5    1  0.2370309E-009  0.9118800E+02  0.7561462E-02  0.1125453E+00
         25   -1    0    0    0    0  0.00000000000E+00  0.00000000000E+00  0.99999998245E-14  0.12509000000E+03  0.12509000000E+03 0.  0.
        -13    1    3    3    0    0 -0.35520840020E+02  0.79433334372E+01  0.40680814206E+02  0.54587236881E+02  0.10566000000E+00 0.  1.
         23    2    1    0    0    0  0.32739472985E+01 -0.49137975491E+00  0.28902055973E+02  0.95998952847E+02  0.91485025678E+02 0.  0.
         13    1    3    3    0    0  0.38794787319E+02 -0.84347131921E+01 -0.11778758233E+02  0.41411715966E+02  0.10566000000E+00 0. -1.
         22    1    1    0    0    0 -0.32739472985E+01  0.49137975491E+00 -0.28902055973E+02  0.29091047153E+02  0.00000000000E+00 0.  1.
</event>
<event>
 5    1  0.2370309E-009  0.9118800E+02  0.7561462E-02  0.1125453E+00
         25   -1    0    0    0    0  0.00000000000E+00  0.00000000000E+00  0.99999998245E-14  0.12509000000E+03  0.12509000000E+03 0.  0.
        -13    1    3    3    0    0  0.23726815116E+02 -0.42054790090E+02 -0.34010600320E+01  0.48406048160E+02  0.10566000000E+00 0. -1.
         23    2    1    0    0    0 -0.18901490079E+02 -0.21932692518E+02  0.30159038736E+01  0.95979778351E+02  0.91458804102E+02 0.  0.
         13    1    3    3    0    0 -0.42628305195E+02  0.20122097572E+02  0.64169639055E+01  0.47573730191E+02  0.10566000000E+00 0.  1.
         22    1    1    0    0    0  0.18901490079E+02  0.21932692518E+02 -0.30159038736E+01  0.29110221649E+02  0.00000000000E+00 0. -1.
</event>
<event>
 5    1  0.2370309E-009  0.9118800E+02  0.7561462E-02  0.1125453E+00
         25   -1    0    0    0    0  0.00000000000E+00  0.00000000000E+00  0.99999998245E-14  0.12509000000E+03  0.12509000000E+03 0.  0.
        -13    1    3    3    0    0  0.19340773057E+02 -0.13788739319E+02  0.24243521974E+02  0.33940453093E+02  0.10566000000E+00 0. -1.
         23    2    1    0    0    0 -0.14541191060E+02  0.26716973068E+02 -0.49362308939E+01  0.94274269232E+02  0.89095614799E+02 0.  0.
         13    1    3    3    0    0 -0.33881964117E+02  0.40505712387E+02 -0.29179752867E+02  0.60333816138E+02  0.10566000000E+00 0.  1.
         22    1    1    0    0    0  0.14541191060E+02 -0.26716973068E+02  0.49362308939E+01  0.30815730768E+02  0.00000000000E+00 0.  1.
</event>
<event>
 5    1  0.2370309E-009  0.9118800E+02  0.7561462E-02  0.1125453E+00
         25   -1    0    0    0    0  0.00000000000E+00  0.00000000000E+00  0.99999998245E-14  0.12509000000E+03  0.12509000000E+03 0.  0.
        -13    1    3    3    0    0 -0.12214412403E+02 -0.25146103887E+02 -0.21080302539E+02  0.35012979454E+02  0.10566000000E+00 0.  1.
         23    2    1    0    0    0 -0.75040898770E+01  0.25997467381E+02  0.11341532650E+02  0.95750435620E+02  0.91144587790E+02 0.  0.
         13    1    3    3    0    0  0.47103225261E+01  0.51143571269E+02  0.32421835190E+02  0.60737456166E+02  0.10566000000E+00 0. -1.
         22    1    1    0    0    0  0.75040898770E+01 -0.25997467381E+02 -0.11341532650E+02  0.29339564380E+02  0.00000000000E+00 0. -1.
</event>
<event>
 5    1  0.2370309E-009  0.9118800E+02  0.7561462E-02  0.1125453E+00
         25   -1    0    0    0    0  0.00000000000E+00  0.00000000000E+00  0.99999998245E-14  0.12509000000E+03  0.12509000000E+03 0.  0.
        -13    1    3    3    0    0 -0.10412883914E+02  0.47898154938E+01  0.37673306001E+02  0.39378415826E+02  0.10566000000E+00 0.  1.
         23    2    1    0    0    0  0.28033478472E+02 -0.95798765095E+01 -0.54326878986E+00  0.95459861793E+02  0.90744917892E+02 0.  0.
         13    1    3    3    0    0  0.38446362386E+02 -0.14369692003E+02 -0.38216574791E+02  0.56081445967E+02  0.10566000000E+00 0. -1.
         22    1    1    0    0    0 -0.28033478472E+02  0.95798765095E+01  0.54326878986E+00  0.29630138207E+02  0.00000000000E+00 0. -1.
</event>
<event>
 5    1  0.2370309E-009  0.9118800E+02  0.7561462E-02  0.1125453E+00
         25   -1    0    0    0    0  0.00000000000E+00  0.00000000000E+00  0.99999998245E-14  0.12509000000E+03  0.12509000000E+03 0.  0.
        -13    1    3    3    0    0  0.43684341872E+02 -0.14123986358E+01  0.23864461146E+02  0.49797994583E+02  0.10566000000E+00 0.  1.
         23    2    1    0    0    0  0.53746903184E+01 -0.25212487930E+02  0.13135231649E+02  0.96157472386E+02  0.91701517662E+02 0.  0.
         13    1    3    3    0    0 -0.38309651553E+02 -0.23800089295E+02 -0.10729229497E+02  0.46359477803E+02  0.10566000000E+00 0. -1.
         22    1    1    0    0    0 -0.53746903184E+01  0.25212487930E+02 -0.13135231649E+02  0.28932527614E+02  0.00000000000E+00 0. -1.
</event>
<event>
 5    1  0.2370309E-009  0.9118800E+02  0.7561462E-02  0.1125453E+00
         25   -1    0    0    0    0  0.00000000000E+00  0.00000000000E+00  0.99999998245E-14  0.12509000000E+03  0.12509000000E+03 0.  0.
        -13    1    3    3    0    0  0.27571367530E+02 -0.14855361029E+02  0.14333886343E+02  0.34443192659E+02  0.10566000000E+00 0.  1.
         23    2    1    0    0    0 -0.27648402280E+02  0.51341648268E-01 -0.87021898695E+01  0.96104401971E+02  0.91629095734E+02 0.  0.
         13    1    3    3    0    0 -0.55219769809E+02  0.14906702678E+02 -0.23036076213E+02  0.61661209312E+02  0.10566000000E+00 0. -1.
         22    1    1    0    0    0  0.27648402280E+02 -0.51341648268E-01  0.87021898695E+01  0.28985598029E+02  0.00000000000E+00 0. -1.
</event>
<event>
 5    1  0.2370309E-009  0.9118800E+02  0.7561462E-02  0.1125453E+00
         25   -1    0    0    0    0  0.00000000000E+00  0.00000000000E+00  0.99999998245E-14  0.12509000000E+03  0.12509000000E+03 0.  0.
        -13    1    3    3    0    0  0.49889285358E+02  0.17441741387E+02  0.22668236697E+02  0.57506654007E+02  0.10566000000E+00 0. -1.
         23    2    1    0    0    0  0.24705363113E+02  0.12492725858E+02 -0.67978166942E+01  0.96583273115E+02  0.92280524315E+02 0.  0.
         13    1    3    3    0    0 -0.25183922245E+02 -0.49490155286E+01 -0.29466053392E+02  0.39076619108E+02  0.10566000000E+00 0.  1.
         22    1    1    0    0    0 -0.24705363113E+02 -0.12492725858E+02  0.67978166942E+01  0.28506726885E+02  0.00000000000E+00 0. -1.
</event>
<event>
 5    1  0.2370309E-009  0.9118800E+02  0.7561462E-02  0.1125453E+00
         25   -1    0    0    0    0  0.00000000000E+00  0.00000000000E+00  0.99999998245E-14  0.12509000000E+03  0.12509000000E+03 0.  0.
        -13    1    3    3    0    0 -0.83804325579E+01  0.35381877516E+02 -0.26291127673E+02  0.44870296018E+02  0.10566000000E+00 0.  1.
         23    2    1    0    0    0  0.26762006628E+02  0.37148869543E+01 -0.17256776883E+02  0.93030652966E+02  0.87332128447E+02 0.  0.
         13    1    3    3    0    0  0.35142439186E+02 -0.31666990561E+02  0.90343507907E+01  0.48160356948E+02  0.10566000000E+00 0. -1.
         22    1    1    0    0    0 -0.26762006628E+02 -0.37148869543E+01  0.17256776883E+02  0.32059347034E+02  0.00000000000E+00 0. -1.
</event>
<event>
 5    1  0.2370309E-009  0.9118800E+02  0.7561462E-02  0.1125453E+00
         25   -1    0    0    0    0  0.00000000000E+00  0.00000000000E+00  0.99999998245E-14  0.12509000000E+03  0.12509000000E+03 0.  0.
        -13    1    3    3    0    0 -0.18276095470E+02  0.51313173734E+02 -0.15048407669E+02  0.56511266148E+02  0.10566000000E+00 0.  1.
         23    2    1    0    0    0  0.45709769636E+01  0.37166341279E+02  0.65923291144E+00  0.87637825931E+02  0.79232084357E+02 0.  0.
         13    1    3    3    0    0  0.22847072434E+02 -0.14146832455E+02  0.15707640580E+02  0.31126559783E+02  0.10566000000E+00 0. -1.
         22    1    1    0    0    0 -0.45709769636E+01 -0.37166341279E+02 -0.65923291144E+00  0.37452174069E+02  0.00000000000E+00 0.  1.
</event>
<event>
 5    1  0.2370309E-009  0.9118800E+02  0.7561462E-02  0.1125453E+00
         25   -1    0    0    0    0  0.00000000000E+00  0.00000000000E+00  0.99999998245E-14  0.12509000000E+03  0.12509000000E+03 0.  0.
        -13    1    3    3    0    0  0.52496981137E+02  0.24200163070E+02  0.22509137084E+02  0.62034291625E+02  0.10566000000E+00 0. -1.
         23    2    1    0    0    0  0.20700782216E+02  0.15615582979E+02  0.88172591430E+01  0.97701811397E+02  0.93784492723E+02 0.  0.
         13    1    3    3    0    0 -0.31796198920E+02 -0.85845800909E+01 -0.13691877941E+02  0.35667519772E+02  0.10566000000E+00 0.  1.
         22    1    1    0    0    0 -0.20700782216E+02 -0.15615582979E+02 -0.88172591430E+01  0.27388188603E+02  0.00000000000E+00 0. -1.
</event>
<event>
 5    1  0.2370309E-009  0.9118800E+02  0.7561462E-02  0.1125453E+00
         25   -1    0    0    0    0  0.00000000000E+00  0.00000000000E+00  0.99999998245E-14  0.12509000000E+03  0.12509000000E+03 0.  0.
        -13    1    3    3    0    0  0.39285912073E+02 -0.14385981162E+02  0.38298221762E+02  0.56719523055E+02  0.10566000000E+00 0.  1.
         23    2    1    0    0    0  0.56577488583E+01 -0.20599495867E+02  0.21355189277E+02  0.94884148561E+02  0.89947808127E+02 0.  0.
         13    1    3    3    0    0 -0.33628163215E+02 -0.62135147054E+01 -0.16943032485E+02  0.38164625506E+02  0.10566000000E+00 0. -1.
         22    1    1    0    0    0 -0.56577488583E+01  0.20599495867E+02 -0.21355189277E+02  0.30205851439E+02  0.00000000000E+00 0.  1.
</event>
<event>
 5    1  0.2370309E-009  0.9118800E+02  0.7561462E-02  0.1125453E+00
         25   -1    0    0    0    0  0.00000000000E+00  0.00000000000E+00  0.99999998245E-14  0.12509000000E+03  0.12509000000E+03 0.  0.
        -13    1    3    3    0    0 -0.45805310212E+02  0.35004752915E+02  0.44422932351E+01  0.57820448835E+02  0.10566000000E+00 0. -1.
         23    2    1    0    0    0 -0.17911010439E+02  0.17234602156E+02  0.18848271318E+02  0.93895559180E+02  0.88562310808E+02 0.  0.
         13    1    3    3    0    0  0.27894299773E+02 -0.17770150759E+02  0.14405978083E+02  0.36075110345E+02  0.10566000000E+00 0.  1.
         22    1    1    0    0    0  0.17911010439E+02 -0.17234602156E+02 -0.18848271318E+02  0.31194440820E+02  0.00000000000E+00 0. -1.
</event>
<event>
 5    1  0.2370309E-009  0.9118800E+02  0.7561462E-02  0.1125453E+00
         25   -1    0    0    0    0  0.00000000000E+00  0.00000000000E+00  0.99999998245E-14  0.12509000000E+03  0.12509000000E+03 0.  0.
        -13    1    3    3    0    0  0.21125270607E+02  0.27353689803E+02  0.47208453659E+02  0.58507697485E+02  0.10566000000E+00 0. -1.
         23    2    1    0    0    0 -0.22567646518E+01  0.11928054647E+02  0.33021908555E+02  0.89907363388E+02  0.82737633955E+02 0.  0.
         13    1    3    3    0    0 -0.23382035259E+02 -0.15425635156E+02 -0.14186545104E+02  0.31399665903E+02  0.10566000000E+00 0.  1.
         22    1    1    0    0    0  0.22567646518E+01 -0.11928054647E+02 -0.33021908555E+02  0.35182636612E+02  0.00000000000E+00 0. -1.
</event>
<event>
 5    1  0.2370309E-009  0.9118800E+02  0.7561462E-02  0.1125453E+00
         25   -1    0    0    0    0  0.00000000000E+00  0.00000000000E+00  0.99999998245E-14  0.12509000000E+03  0.12509000000E+03 0.  0.
        -13    1    3    3    0    0 -0.39202614823E+02 -0.20300778799E+02  0.19071688373E+02  0.48090613328E+02  0.10566000000E+00 0. -1.
         23    2    1    0    0    0  0.65448177849E+01 -0.21225849164E+02  0.21850846838E+02  0.93931841836E+02  0.88613543494E+02 0.  0.
         13    1    3    3    0    0  0.45747432608E+02 -0.92507036576E+00  0.27791584655E+01  0.45841228509E+02  0.10566000000E+00 0.  1.
         22    1    1    0    0    0 -0.65448177849E+01  0.21225849164E+02 -0.21850846838E+02  0.31158158164E+02  0.00000000000E+00 0. -1.
</event>
<event>
 5    1  0.2370309E-009  0.9118800E+02  0.7561462E-02  0.1125453E+00
         25   -1    0    0    0    0  0.00000000000E+00  0.00000000000E+00  0.99999998245E-14  0.12509000000E+03  0.12509000000E+03 0.  0.
        -13    1    3    3    0    0 -0.32391218213E+01 -0.31002093202E+02 -0.34334119567E+02  0.46373102371E+02  0.10566000000E+00 0.  1.
         23    2    1    0    0    0  0.28353418896E+02 -0.12971098151E+02 -0.41618544503E+01  0.93633891169E+02  0.88191942901E+02 0.  0.
         13    1    3    3    0    0  0.31592540717E+02  0.18030995051E+02  0.30172265116E+02  0.47260788798E+02  0.10566000000E+00 0. -1.
         22    1    1    0    0    0 -0.28353418896E+02  0.12971098151E+02  0.41618544503E+01  0.31456108831E+02  0.00000000000E+00 0. -1.
</event>
<event>
 5    1  0.2370309E-009  0.9118800E+02  0.7561462E-02  0.1125453E+00
         25   -1    0    0    0    0  0.00000000000E+00  0.00000000000E+00  0.99999998245E-14  0.12509000000E+03  0.12509000000E+03 0.  0.
        -13    1    3    3    0    0  0.29094141084E+02 -0.17535625361E+02 -0.13177635902E+02  0.36436636154E+02  0.10566000000E+00 0.  1.
         23    2    1    0    0    0 -0.48138135113E+01  0.14678608079E+02  0.24248793617E+02  0.96338681290E+02  0.91948372390E+02 0.  0.
         13    1    3    3    0    0 -0.33907954595E+02  0.32214233440E+02  0.37426429519E+02  0.59902045136E+02  0.10566000000E+00 0. -1.
         22    1    1    0    0    0  0.48138135113E+01 -0.14678608079E+02 -0.24248793617E+02  0.28751318710E+02  0.00000000000E+00 0. -1.
</event>
<event>
 5    1  0.2370309E-009  0.9118800E+02  0.7561462E-02  0.1125453E+00
         25   -1    0    0    0    0  0.00000000000E+00  0.00000000000E+00  0.99999998245E-14  0.12509000000E+03  0.12509000000E+03 0.  0.
        -13    1    3    3    0    0  0.39763070706E+02  0.26044936135E+02 -0.12695170117E+02  0.49199786571E+02  0.10566000000E+00 0.  1.
         23    2    1    0    0    0 -0.51409265829E+01  0.28348905876E+02 -0.11171158403E+02  0.94188796616E+02  0.88975530554E+02 0.  0.
         13    1    3    3    0    0 -0.44903997289E+02  0.23039697415E+01  0.15240117145E+01  0.44989010045E+02  0.10566000000E+00 0. -1.
         22    1    1    0    0    0  0.51409265829E+01 -0.28348905876E+02  0.11171158403E+02  0.30901203384E+02  0.00000000000E+00 0. -1.
</event>
<event>
 5    1  0.2370309E-009  0.9118800E+02  0.7561462E-02  0.1125453E+00
         25   -1    0    0    0    0  0.00000000000E+00  0.00000000000E+00  0.99999998245E-14  0.12509000000E+03  0.12509000000E+03 0.  0.
        -13    1    3    3    0    0 -0.43464398741E+02  0.77270368462E+01 -0.57148461149E+00  0.44149731766E+02  0.10566000000E+00 0.  1.
         23    2    1    0    0    0 -0.67675890104E+01 -0.24579699298E+02  0.15060451916E+02  0.95479544237E+02  0.90772045682E+02 0.  0.
         13    1    3    3    0    0  0.36696809730E+02 -0.32306736144E+02  0.15631936528E+02  0.51329812471E+02  0.10566000000E+00 0. -1.
         22    1    1    0    0    0  0.67675890104E+01  0.24579699298E+02 -0.15060451916E+02  0.29610455763E+02  0.00000000000E+00 0.  1.
</event>
<event>
 5    1  0.2370309E-009  0.9118800E+02  0.7561462E-02  0.1125453E+00
         25   -1    0    0    0    0  0.00000000000E+00  0.00000000000E+00  0.99999998245E-14  0.12509000000E+03  0.12509000000E+03 0.  0.
        -13    1    3    3    0    0  0.39916405116E+01  0.28682022827E+02  0.30304232092E+02  0.41915978744E+02  0.10566000000E+00 0.  1.
         23    2    1    0    0    0  0.48587836403E+01 -0.23776959260E+02  0.14964877377E+02  0.96578614116E+02  0.92274208637E+02 0.  0.
         13    1    3    3    0    0  0.86714312878E+00 -0.52458982086E+02 -0.15339354714E+02  0.54662635372E+02  0.10566000000E+00 0. -1.
         22    1    1    0    0    0 -0.48587836403E+01  0.23776959260E+02 -0.14964877377E+02  0.28511385884E+02  0.00000000000E+00 0. -1.
</event>
<event>
 5    1  0.2370309E-009  0.9118800E+02  0.7561462E-02  0.1125453E+00
         25   -1    0    0    0    0  0.00000000000E+00  0.00000000000E+00  0.99999998245E-14  0.12509000000E+03  0.12509000000E+03 0.  0.
        -13    1    3    3    0    0 -0.46871047656E+02 -0.14883991394E+02 -0.14663255467E+02  0.51317156324E+02  0.10566000000E+00 0.  1.
         23    2    1    0    0    0 -0.90482838448E+01 -0.29510106565E+02 -0.66788234865E+00  0.94216647464E+02  0.89014677231E+02 0.  0.
         13    1    3    3    0    0  0.37822763811E+02 -0.14626115171E+02  0.13995373119E+02  0.42899491140E+02  0.10566000000E+00 0. -1.
         22    1    1    0    0    0  0.90482838448E+01  0.29510106565E+02  0.66788234865E+00  0.30873352536E+02  0.00000000000E+00 0. -1.
</event>
<event>
 5    1  0.2370309E-009  0.9118800E+02  0.7561462E-02  0.1125453E+00
         25   -1    0    0    0    0  0.00000000000E+00  0.00000000000E+00  0.99999998245E-14  0.12509000000E+03  0.12509000000E+03 0.  0.
        -13    1    3    3    0    0  0.43188582025E+02 -0.37532156601E+01  0.11764724831E+02  0.44919485299E+02  0.10566000000E+00 0. -1.
         23    2    1    0    0    0  0.83211910580E+01  0.25781637688E+02 -0.10852761269E+02  0.95905800685E+02  0.91357567368E+02 0.  0.
         13    1    3    3    0    0 -0.34867390967E+02  0.29534853348E+02 -0.22617486101E+02  0.50986315386E+02  0.10566000000E+00 0.  1.
         22    1    1    0    0    0 -0.83211910580E+01 -0.25781637688E+02  0.10852761269E+02  0.29184199315E+02  0.00000000000E+00 0.  1.
</event>
<event>
 5    1  0.2370309E-009  0.9118800E+02  0.7561462E-02  0.1125453E+00
         25   -1    0    0    0    0  0.00000000000E+00  0.00000000000E+00  0.99999998245E-14  0.12509000000E+03  0.12509000000E+03 0.  0.
        -13    1    3    3    0    0 -0.38064371587E+02 -0.95456472859E+01  0.27294490005E+01  0.39337981930E+02  0.10566000000E+00 0. -1.
         23    2    1    0    0    0  0.21292282686E+02 -0.14467395570E+02 -0.30004407232E+01  0.99173413013E+02  0.95727197637E+02 0.  0.
         13    1    3    3    0    0  0.59356654272E+02 -0.49217482842E+01 -0.57298897237E+01  0.59835431083E+02  0.10566000000E+00 0.  1.
         22    1    1    0    0    0 -0.21292282686E+02  0.14467395570E+02  0.30004407232E+01  0.25916586987E+02  0.00000000000E+00 0.  1.
</event>
<event>
 5    1  0.2370309E-009  0.9118800E+02  0.7561462E-02  0.1125453E+00
         25   -1    0    0    0    0  0.00000000000E+00  0.00000000000E+00  0.99999998245E-14  0.12509000000E+03  0.12509000000E+03 0.  0.
        -13    1    3    3    0    0 -0.25520376788E+02 -0.11769534064E+02  0.35309198406E+02  0.45128286248E+02  0.10566000000E+00 0. -1.
         23    2    1    0    0    0  0.21860995669E+02 -0.82084799532E+01  0.17649665079E+02  0.95818974187E+02  0.91238604012E+02 0.  0.
         13    1    3    3    0    0  0.47381372458E+02  0.35610541110E+01 -0.17659533328E+02  0.50690687939E+02  0.10566000000E+00 0.  1.
         22    1    1    0    0    0 -0.21860995669E+02  0.82084799532E+01 -0.17649665079E+02  0.29271025813E+02  0.00000000000E+00 0.  1.
</event>
<event>
 5    1  0.2370309E-009  0.9118800E+02  0.7561462E-02  0.1125453E+00
         25   -1    0    0    0    0  0.00000000000E+00  0.00000000000E+00  0.99999998245E-14  0.12509000000E+03  0.12509000000E+03 0.  0.
        -13    1    3    3    0    0  0.20188253864E+02 -0.74718921727E+00  0.40950720643E+02  0.45662857675E+02  0.10566000000E+00 0. -1.
         23    2    1    0    0    0 -0.20037614307E+02 -0.15363932410E+02  0.14627364738E+02  0.95909249404E+02  0.91362289353E+02 0.  0.
         13    1    3    3    0    0 -0.40225868171E+02 -0.14616743192E+02 -0.26323355905E+02  0.50246391729E+02  0.10566000000E+00 0.  1.
         22    1    1    0    0    0  0.20037614307E+02  0.15363932410E+02 -0.14627364738E+02  0.29180750596E+02  0.00000000000E+00 0.  1.
</event>
<event>
 5    1  0.2370309E-009  0.9118800E+02  0.7561462E-02  0.1125453E+00
         25   -1    0    0    0    0  0.00000000000E+00  0.00000000000E+00  0.99999998245E-14  0.12509000000E+03  0.12509000000E+03 0.  0.
        -13    1    3    3    0    0  0.78002815469E+01 -0.20085465237E+02 -0.45779208802E+02  0.50596614793E+02  0.10566000000E+00 0.  1.
         23    2    1    0    0    0 -0.11421643072E+02  0.13913373680E+02 -0.23252588004E+02  0.95683899502E+02  0.91053225519E+02 0.  0.
         13    1    3    3    0    0 -0.19221924619E+02  0.33998838917E+02  0.22526620798E+02  0.45087284708E+02  0.10566000000E+00 0. -1.
         22    1    1    0    0    0  0.11421643072E+02 -0.13913373680E+02  0.23252588004E+02  0.29406100498E+02  0.00000000000E+00 0.  1.
</event>
<event>
 4    1  0.2370309E-009  0.9118800E+02  0.7561462E-02  0.1125453E+00
         25   -1    0    0    0    0  0.00000000000E+00  0.00000000000E+00  0.99999998245E-14  0.12509000000E+03  0.12509000000E+03 0.  0.
        -13    1    1    0    0    0  0.89729924657E+01 -0.48742146261E+01  0.35947959376E+02  0.37370302505E+02  0.10566000000E+00 0.  1.
         13    1    1    0    0    0 -0.20278294915E+02  0.28986259043E+02  0.80593726139E+01  0.36281911595E+02  0.10566000000E+00 0. -1.
         22    1    1    0    0    0  0.11305302450E+02 -0.24112044417E+02 -0.44007331990E+02  0.51437785900E+02  0.00000000000E+00 0.  1.
</event>
<event>
 5    1  0.2370309E-009  0.9118800E+02  0.7561462E-02  0.1125453E+00
         25   -1    0    0    0    0  0.00000000000E+00  0.00000000000E+00  0.99999998245E-14  0.12509000000E+03  0.12509000000E+03 0.  0.
        -13    1    3    3    0    0 -0.42646204327E+02  0.14325914102E+02 -0.25674926517E+02  0.51799069240E+02  0.10566000000E+00 0. -1.
         23    2    1    0    0    0 -0.93815319964E+01 -0.18841252710E+02 -0.34671233949E+01  0.10375864067E+03  0.10154225043E+03 0.  0.
         13    1    3    3    0    0  0.33264672331E+02 -0.33167166811E+02  0.22207803122E+02  0.51959571429E+02  0.10566000000E+00 0.  1.
         22    1    1    0    0    0  0.93815319964E+01  0.18841252710E+02  0.34671233949E+01  0.21331359331E+02  0.00000000000E+00 0.  1.
</event>
<event>
 5    1  0.2370309E-009  0.9118800E+02  0.7561462E-02  0.1125453E+00
         25   -1    0    0    0    0  0.00000000000E+00  0.00000000000E+00  0.99999998245E-14  0.12509000000E+03  0.12509000000E+03 0.  0.
        -13    1    3    3    0    0  0.35140804309E+02 -0.52884493615E+01 -0.46975849229E+02  0.58903186662E+02  0.10566000000E+00 0. -1.
         23    2    1    0    0    0  0.37713077326E+01  0.34673291665E+01 -0.28059200849E+02  0.96566958685E+02  0.92258406793E+02 0.  0.
         13    1    3    3    0    0 -0.31369496576E+02  0.87557785280E+01  0.18916648380E+02  0.37663772024E+02  0.10566000000E+00 0.  1.
         22    1    1    0    0    0 -0.37713077326E+01 -0.34673291665E+01  0.28059200849E+02  0.28523041315E+02  0.00000000000E+00 0. -1.
</event>
<event>
 5    1  0.2370309E-009  0.9118800E+02  0.7561462E-02  0.1125453E+00
         25   -1    0    0    0    0  0.00000000000E+00  0.00000000000E+00  0.99999998245E-14  0.12509000000E+03  0.12509000000E+03 0.  0.
        -13    1    3    3    0    0 -0.38907790961E+02 -0.25035254454E+02 -0.40705569486E+02  0.61624140678E+02  0.10566000000E+00 0. -1.
         23    2    1    0    0    0 -0.11831836237E+02 -0.95217094965E+01 -0.23074194991E+02  0.97466209982E+02  0.93469718697E+02 0.  0.
         13    1    3    3    0    0  0.27075954724E+02  0.15513544958E+02  0.17631374494E+02  0.35842069304E+02  0.10566000000E+00 0.  1.
         22    1    1    0    0    0  0.11831836237E+02  0.95217094965E+01  0.23074194991E+02  0.27623790018E+02  0.00000000000E+00 0. -1.
</event>
<event>
 5    1  0.2370309E-009  0.9118800E+02  0.7561462E-02  0.1125453E+00
         25   -1    0    0    0    0  0.00000000000E+00  0.00000000000E+00  0.99999998245E-14  0.12509000000E+03  0.12509000000E+03 0.  0.
        -13    1    3    3    0    0  0.27277456184E+02 -0.31795830585E+02  0.31462247142E+02  0.52391970928E+02  0.10566000000E+00 0. -1.
         23    2    1    0    0    0 -0.11567600888E+02 -0.20950018982E+02  0.18779135042E+02  0.94670128229E+02  0.89649676967E+02 0.  0.
         13    1    3    3    0    0 -0.38845057072E+02  0.10845811603E+02 -0.12683112100E+02  0.42278157301E+02  0.10566000000E+00 0.  1.
         22    1    1    0    0    0  0.11567600888E+02  0.20950018982E+02 -0.18779135042E+02  0.30419871771E+02  0.00000000000E+00 0. -1.
</event>
<event>
 5    1  0.2370309E-009  0.9118800E+02  0.7561462E-02  0.1125453E+00
         25   -1    0    0    0    0  0.00000000000E+00  0.00000000000E+00  0.99999998245E-14  0.12509000000E+03  0.12509000000E+03 0.  0.
        -13    1    3    3    0    0  0.81914569033E+01  0.16985110076E+02 -0.31314562597E+02  0.36554164266E+02  0.10566000000E+00 0.  1.
         23    2    1    0    0    0 -0.15927431485E+02  0.14978400900E+02  0.21360667288E+02  0.94523454984E+02  0.89444786700E+02 0.  0.
         13    1    3    3    0    0 -0.24118888388E+02 -0.20067091761E+01  0.52675229885E+02  0.57969290718E+02  0.10566000000E+00 0. -1.
         22    1    1    0    0    0  0.15927431485E+02 -0.14978400900E+02 -0.21360667288E+02  0.30566545016E+02  0.00000000000E+00 0. -1.
</event>
<event>
 5    1  0.2370309E-009  0.9118800E+02  0.7561462E-02  0.1125453E+00
         25   -1    0    0    0    0  0.00000000000E+00  0.00000000000E+00  0.99999998245E-14  0.12509000000E+03  0.12509000000E+03 0.  0.
        -13    1    3    3    0    0  0.86488675466E+01  0.36134816099E+02  0.42457985096E+02  0.56420027532E+02  0.10566000000E+00 0. -1.
         23    2    1    0    0    0 -0.22797496119E+01  0.86053235164E+00  0.29399834560E+02  0.95589355153E+02  0.90923246600E+02 0.  0.
         13    1    3    3    0    0 -0.10928617158E+02 -0.35274283747E+02 -0.13058150536E+02  0.39169327621E+02  0.10566000000E+00 0.  1.
         22    1    1    0    0    0  0.22797496119E+01 -0.86053235164E+00 -0.29399834560E+02  0.29500644847E+02  0.00000000000E+00 0. -1.
</event>
<event>
 5    1  0.2370309E-009  0.9118800E+02  0.7561462E-02  0.1125453E+00
         25   -1    0    0    0    0  0.00000000000E+00  0.00000000000E+00  0.99999998245E-14  0.12509000000E+03  0.12509000000E+03 0.  0.
        -13    1    3    3    0    0 -0.27924987047E+02  0.21906455017E+02  0.45088690547E+02  0.57382042943E+02  0.10566000000E+00 0.  1.
         23    2    1    0    0    0  0.30581698029E+01  0.17619281503E+02  0.24221178976E+02  0.94982575763E+02  0.90084586386E+02 0.  0.
         13    1    3    3    0    0  0.30983156850E+02 -0.42871735139E+01 -0.20867511571E+02  0.37600532820E+02  0.10566000000E+00 0. -1.
         22    1    1    0    0    0 -0.30581698029E+01 -0.17619281503E+02 -0.24221178976E+02  0.30107424237E+02  0.00000000000E+00 0.  1.
</event>
<event>
 5    1  0.2370309E-009  0.9118800E+02  0.7561462E-02  0.1125453E+00
         25   -1    0    0    0    0  0.00000000000E+00  0.00000000000E+00  0.99999998245E-14  0.12509000000E+03  0.12509000000E+03 0.  0.
        -13    1    3    3    0    0 -0.23324616530E+02 -0.19196859529E+02  0.33630876942E+02  0.45206240719E+02  0.10566000000E+00 0. -1.
         23    2    1    0    0    0  0.63467312298E+01 -0.26633146892E+02 -0.77217827331E+01  0.96643006499E+02  0.92361459851E+02 0.  0.
         13    1    3    3    0    0  0.29671347760E+02 -0.74362873634E+01 -0.41352659675E+02  0.51436765780E+02  0.10566000000E+00 0.  1.
         22    1    1    0    0    0 -0.63467312298E+01  0.26633146892E+02  0.77217827331E+01  0.28446993501E+02  0.00000000000E+00 0.  1.
</event>
<event>
 5    1  0.2370309E-009  0.9118800E+02  0.7561462E-02  0.1125453E+00
         25   -1    0    0    0    0  0.00000000000E+00  0.00000000000E+00  0.99999998245E-14  0.12509000000E+03  0.12509000000E+03 0.  0.
        -13    1    3    3    0    0  0.45326927474E+02  0.59781387663E+01 -0.85107162283E+01  0.46504966961E+02  0.10566000000E+00 0.  1.
         23    2    1    0    0    0  0.52244351365E+01 -0.10792724766E+02 -0.28366428873E+02  0.94293378150E+02  0.89122439630E+02 0.  0.
         13    1    3    3    0    0 -0.40102492337E+02 -0.16770863533E+02 -0.19855712644E+02  0.47788411189E+02  0.10566000000E+00 0. -1.
         22    1    1    0    0    0 -0.52244351365E+01  0.10792724766E+02  0.28366428873E+02  0.30796621850E+02  0.00000000000E+00 0. -1.
</event>
<event>
 5    1  0.2370309E-009  0.9118800E+02  0.7561462E-02  0.1125453E+00
         25   -1    0    0    0    0  0.00000000000E+00  0.00000000000E+00  0.99999998245E-14  0.12509000000E+03  0.12509000000E+03 0.  0.
        -13    1    3    3    0    0  0.78042014773E+01  0.30554950244E+02  0.12254008905E+02  0.33833155977E+02  0.10566000000E+00 0. -1.
         23    2    1    0    0    0 -0.15807373488E+02 -0.13764210016E+02 -0.22064958681E+02  0.94656647645E+02  0.89630865263E+02 0.  0.
         13    1    3    3    0    0 -0.23611574965E+02 -0.44319160260E+02 -0.34318967586E+02  0.60823491668E+02  0.10566000000E+00 0.  1.
         22    1    1    0    0    0  0.15807373488E+02  0.13764210016E+02  0.22064958681E+02  0.30433352355E+02  0.00000000000E+00 0.  1.
</event>
<event>
 5    1  0.2370309E-009  0.9118800E+02  0.7561462E-02  0.1125453E+00
         25   -1    0    0    0    0  0.00000000000E+00  0.00000000000E+00  0.99999998245E-14  0.12509000000E+03  0.12509000000E+03 0.  0.
        -13    1    3    3    0    0 -0.37419613065E+02 -0.18971355190E+02 -0.33010137430E+02  0.53383706286E+02  0.10566000000E+00 0. -1.
         23    2    1    0    0    0 -0.16479438731E+02  0.14758117607E+02 -0.20288819035E+02  0.95073169487E+02  0.90210295656E+02 0.  0.
         13    1    3    3    0    0  0.20940174334E+02  0.33729472797E+02  0.12721318395E+02  0.41689463201E+02  0.10566000000E+00 0.  1.
         22    1    1    0    0    0  0.16479438731E+02 -0.14758117607E+02  0.20288819035E+02  0.30016830513E+02  0.00000000000E+00 0.  1.
</event>
<event>
 5    1  0.2370309E-009  0.9118800E+02  0.7561462E-02  0.1125453E+00
         25   -1    0    0    0    0  0.00000000000E+00  0.00000000000E+00  0.99999998245E-14  0.12509000000E+03  0.12509000000E+03 0.  0.
        -13    1    3    3    0    0  0.61841428705E+02  0.67577558529E+00  0.11329149457E+01  0.61855586953E+02  0.10566000000E+00 0. -1.
         23    2    1    0    0    0  0.28826262210E+02 -0.29858209108E-01  0.70735084758E+01  0.95408544397E+02  0.90674150326E+02 0.  0.
         13    1    3    3    0    0 -0.33015166495E+02 -0.70563379440E+00  0.59405935300E+01  0.33552957444E+02  0.10566000000E+00 0.  1.
         22    1    1    0    0    0 -0.28826262210E+02  0.29858209108E-01 -0.70735084758E+01  0.29681455603E+02  0.00000000000E+00 0. -1.
</event>
<event>
 5    1  0.2370309E-009  0.9118800E+02  0.7561462E-02  0.1125453E+00
         25   -1    0    0    0    0  0.00000000000E+00  0.00000000000E+00  0.99999998245E-14  0.12509000000E+03  0.12509000000E+03 0.  0.
        -13    1    3    3    0    0  0.21518449863E+02  0.21750282952E+02 -0.71796198725E+01  0.31427322485E+02  0.10566000000E+00 0.  1.
         23    2    1    0    0    0 -0.27120910169E+02 -0.93636354641E+01  0.14298931126E+02  0.93032538016E+02  0.87334828453E+02 0.  0.
         13    1    3    3    0    0 -0.48639360032E+02 -0.31113918417E+02  0.21478550999E+02  0.61605215531E+02  0.10566000000E+00 0. -1.
         22    1    1    0    0    0  0.27120910169E+02  0.93636354641E+01 -0.14298931126E+02  0.32057461984E+02  0.00000000000E+00 0. -1.
</event>
<event>
 5    1  0.2370309E-009  0.9118800E+02  0.7561462E-02  0.1125453E+00
         25   -1    0    0    0    0  0.00000000000E+00  0.00000000000E+00  0.99999998245E-14  0.12509000000E+03  0.12509000000E+03 0.  0.
        -13    1    3    3    0    0 -0.24103145038E+02 -0.21285715526E+02 -0.24767247993E+02  0.40589050536E+02  0.10566000000E+00 0.  1.
         23    2    1    0    0    0 -0.15476799133E+02  0.23207944980E+02  0.74759784270E+01  0.96210417679E+02  0.91773711895E+02 0.  0.
         13    1    3    3    0    0  0.86263459058E+01  0.44493660506E+02  0.32243226420E+02  0.55621367144E+02  0.10566000000E+00 0. -1.
         22    1    1    0    0    0  0.15476799133E+02 -0.23207944980E+02 -0.74759784270E+01  0.28879582321E+02  0.00000000000E+00 0. -1.
</event>
<event>
 5    1  0.2370309E-009  0.9118800E+02  0.7561462E-02  0.1125453E+00
         25   -1    0    0    0    0  0.00000000000E+00  0.00000000000E+00  0.99999998245E-14  0.12509000000E+03  0.12509000000E+03 0.  0.
        -13    1    3    3    0    0  0.41005038874E+01  0.34245039522E+02  0.22834220407E+00  0.34490580862E+02  0.10566000000E+00 0.  1.
         23    2    1    0    0    0  0.84894173843E+01 -0.27457485100E+02 -0.92031613774E-01  0.96349920575E+02  0.91963661462E+02 0.  0.
         13    1    3    3    0    0  0.43889134968E+01 -0.61702524622E+02 -0.32037381785E+00  0.61859339713E+02  0.10566000000E+00 0. -1.
         22    1    1    0    0    0 -0.84894173843E+01  0.27457485100E+02  0.92031613774E-01  0.28740079425E+02  0.00000000000E+00 0. -1.
</event>
<event>
 5    1  0.2370309E-009  0.9118800E+02  0.7561462E-02  0.1125453E+00
         25   -1    0    0    0    0  0.00000000000E+00  0.00000000000E+00  0.99999998245E-14  0.12509000000E+03  0.12509000000E+03 0.  0.
        -13    1    3    3    0    0 -0.16587757020E+02  0.48731210281E+02 -0.46836917988E+01  0.51689773372E+02  0.10566000000E+00 0.  1.
         23    2    1    0    0    0 -0.23416248871E+02  0.13197655009E+02  0.16433611460E+02  0.93585041747E+02  0.88122628446E+02 0.  0.
         13    1    3    3    0    0 -0.68284918504E+01 -0.35533555272E+02  0.21117303259E+02  0.41895268374E+02  0.10566000000E+00 0. -1.
         22    1    1    0    0    0  0.23416248871E+02 -0.13197655009E+02 -0.16433611460E+02  0.31504958253E+02  0.00000000000E+00 0.  1.
</event>
<event>
 5    1  0.2370309E-009  0.9118800E+02  0.7561462E-02  0.1125453E+00
         25   -1    0    0    0    0  0.00000000000E+00  0.00000000000E+00  0.99999998245E-14  0.12509000000E+03  0.12509000000E+03 0.  0.
        -13    1    3    3    0    0  0.34563845542E+02 -0.31317185654E+00  0.12765563813E+02  0.36847364611E+02  0.10566000000E+00 0.  1.
         23    2    1    0    0    0 -0.78434639428E+01  0.27914480329E+01 -0.28076076441E+02  0.95805564253E+02  0.91220216864E+02 0.  0.
         13    1    3    3    0    0 -0.42407309485E+02  0.31046198895E+01 -0.40841640253E+02  0.58958199642E+02  0.10566000000E+00 0. -1.
         22    1    1    0    0    0  0.78434639428E+01 -0.27914480329E+01  0.28076076441E+02  0.29284435747E+02  0.00000000000E+00 0. -1.
</event>
<event>
 5    1  0.2370309E-009  0.9118800E+02  0.7561462E-02  0.1125453E+00
         25   -1    0    0    0    0  0.00000000000E+00  0.00000000000E+00  0.99999998245E-14  0.12509000000E+03  0.12509000000E+03 0.  0.
        -13    1    3    3    0    0 -0.16399762722E+02  0.41755587990E+02 -0.11436586714E+01  0.44875388187E+02  0.10566000000E+00 0. -1.
         23    2    1    0    0    0 -0.12177771377E+02  0.69108837146E+00 -0.28290089184E+02  0.94282454416E+02  0.89107106035E+02 0.  0.
         13    1    3    3    0    0  0.42219913441E+01 -0.41064499619E+02 -0.27146430512E+02  0.49407066230E+02  0.10566000000E+00 0.  1.
         22    1    1    0    0    0  0.12177771377E+02 -0.69108837146E+00  0.28290089184E+02  0.30807545584E+02  0.00000000000E+00 0.  1.
</event>
<event>
 5    1  0.2370309E-009  0.9118800E+02  0.7561462E-02  0.1125453E+00
         25   -1    0    0    0    0  0.00000000000E+00  0.00000000000E+00  0.99999998245E-14  0.12509000000E+03  0.12509000000E+03 0.  0.
        -13    1    3    3    0    0 -0.13377423826E+02 -0.25189802642E+02 -0.50082197852E+02  0.57634358946E+02  0.10566000000E+00 0. -1.
         23    2    1    0    0    0  0.87923736890E+01 -0.20479571312E+02 -0.21384511091E+02  0.94202850718E+02  0.88995286912E+02 0.  0.
         13    1    3    3    0    0  0.22169797515E+02  0.47102313307E+01  0.28697686761E+02  0.36568491772E+02  0.10566000000E+00 0.  1.
         22    1    1    0    0    0 -0.87923736890E+01  0.20479571312E+02  0.21384511091E+02  0.30887149282E+02  0.00000000000E+00 0. -1.
</event>
<event>
 5    1  0.2370309E-009  0.9118800E+02  0.7561462E-02  0.1125453E+00
         25   -1    0    0    0    0  0.00000000000E+00  0.00000000000E+00  0.99999998245E-14  0.12509000000E+03  0.12509000000E+03 0.  0.
        -13    1    3    3    0    0  0.28806551040E+01  0.66352828734E+01  0.39160211176E+02  0.39822838372E+02  0.10566000000E+00 0. -1.
         23    2    1    0    0    0 -0.75089260133E+01 -0.28184084463E+02 -0.33322466737E+01  0.95733050996E+02  0.91120725405E+02 0.  0.
         13    1    3    3    0    0 -0.10389581117E+02 -0.34819367337E+02 -0.42492457850E+02  0.55910212624E+02  0.10566000000E+00 0.  1.
         22    1    1    0    0    0  0.75089260133E+01  0.28184084463E+02  0.33322466737E+01  0.29356949004E+02  0.00000000000E+00 0.  1.
</event>
<event>
 5    1  0.2370309E-009  0.9118800E+02  0.7561462E-02  0.1125453E+00
         25   -1    0    0    0    0  0.00000000000E+00  0.00000000000E+00  0.99999998245E-14  0.12509000000E+03  0.12509000000E+03 0.  0.
        -13    1    3    3    0    0 -0.19711783150E+02 -0.32145248523E+02  0.11317590688E+02  0.39369663709E+02  0.10566000000E+00 0. -1.
         23    2    1    0    0    0 -0.57441807517E+01  0.21445402433E+02  0.19733160865E+02  0.95386489504E+02  0.90643719276E+02 0.  0.
         13    1    3    3    0    0  0.13967602398E+02  0.53590650956E+02  0.84155701776E+01  0.56016825795E+02  0.10566000000E+00 0.  1.
         22    1    1    0    0    0  0.57441807517E+01 -0.21445402433E+02 -0.19733160865E+02  0.29703510496E+02  0.00000000000E+00 0.  1.
</event>
<event>
 5    1  0.2370309E-009  0.9118800E+02  0.7561462E-02  0.1125453E+00
         25   -1    0    0    0    0  0.00000000000E+00  0.00000000000E+00  0.99999998245E-14  0.12509000000E+03  0.12509000000E+03 0.  0.
        -13    1    3    3    0    0  0.13865864934E+02 -0.53742790927E+01 -0.15227349468E+02  0.21284464334E+02  0.10566000000E+00 0. -1.
         23    2    1    0    0    0  0.31288755746E+02  0.36881839026E+02  0.13002774798E+02  0.75006784862E+02  0.55836272590E+02 0.  0.
         13    1    3    3    0    0  0.17422890812E+02  0.42256118119E+02  0.28230124267E+02  0.53722320528E+02  0.10566000000E+00 0.  1.
         22    1    1    0    0    0 -0.31288755746E+02 -0.36881839026E+02 -0.13002774798E+02  0.50083215138E+02  0.00000000000E+00 0.  1.
</event>
<event>
 5    1  0.2370309E-009  0.9118800E+02  0.7561462E-02  0.1125453E+00
         25   -1    0    0    0    0  0.00000000000E+00  0.00000000000E+00  0.99999998245E-14  0.12509000000E+03  0.12509000000E+03 0.  0.
        -13    1    3    3    0    0  0.74545435943E+01 -0.72887043348E+00  0.33862165437E+02  0.34680814357E+02  0.10566000000E+00 0.  1.
         23    2    1    0    0    0  0.99179668631E+01 -0.19709827365E+02 -0.22121298929E+02  0.93845876908E+02  0.88492109168E+02 0.  0.
         13    1    3    3    0    0  0.24634232688E+01 -0.18980956931E+02 -0.55983464367E+02  0.59165062552E+02  0.10566000000E+00 0. -1.
         22    1    1    0    0    0 -0.99179668631E+01  0.19709827365E+02  0.22121298929E+02  0.31244123092E+02  0.00000000000E+00 0. -1.
</event>
<event>
 5    1  0.2370309E-009  0.9118800E+02  0.7561462E-02  0.1125453E+00
         25   -1    0    0    0    0  0.00000000000E+00  0.00000000000E+00  0.99999998245E-14  0.12509000000E+03  0.12509000000E+03 0.  0.
        -13    1    3    3    0    0 -0.53816522536E+02  0.11231886867E+01  0.31564351554E+02  0.62400313330E+02  0.10566000000E+00 0.  1.
         23    2    1    0    0    0 -0.24049254729E+02  0.11967414080E+01  0.17501761903E+02  0.95322391552E+02  0.90555219719E+02 0.  0.
         13    1    3    3    0    0  0.29767267806E+02  0.73552721251E-01 -0.14062589652E+02  0.32922078221E+02  0.10566000000E+00 0. -1.
         22    1    1    0    0    0  0.24049254729E+02 -0.11967414080E+01 -0.17501761903E+02  0.29767608448E+02  0.00000000000E+00 0.  1.
</event>
<event>
 5    1  0.2370309E-009  0.9118800E+02  0.7561462E-02  0.1125453E+00
         25   -1    0    0    0    0  0.00000000000E+00  0.00000000000E+00  0.99999998245E-14  0.12509000000E+03  0.12509000000E+03 0.  0.
        -13    1    3    3    0    0 -0.30555072751E+02 -0.21808097377E+02  0.10933405267E+02  0.39099310695E+02  0.10566000000E+00 0.  1.
         23    2    1    0    0    0  0.86031761822E+01  0.16594433374E+02  0.23196106440E+02  0.95299914176E+02  0.90524164888E+02 0.  0.
         13    1    3    3    0    0  0.39158248933E+02  0.38402530751E+02  0.12262701173E+02  0.56200603481E+02  0.10566000000E+00 0. -1.
         22    1    1    0    0    0 -0.86031761822E+01 -0.16594433374E+02 -0.23196106440E+02  0.29790085824E+02  0.00000000000E+00 0. -1.
</event>
<event>
 5    1  0.2370309E-009  0.9118800E+02  0.7561462E-02  0.1125453E+00
         25   -1    0    0    0    0  0.00000000000E+00  0.00000000000E+00  0.99999998245E-14  0.12509000000E+03  0.12509000000E+03 0.  0.
        -13    1    3    3    0    0  0.38472580760E+02  0.12656566321E+02 -0.42602306462E+02  0.58781764361E+02  0.10566000000E+00 0. -1.
         23    2    1    0    0    0  0.24292530767E+02  0.14231540733E+02 -0.86073870865E+01  0.95649366257E+02  0.91005770972E+02 0.  0.
         13    1    3    3    0    0 -0.14180049993E+02  0.15749744122E+01  0.33994919376E+02  0.36867601897E+02  0.10566000000E+00 0.  1.
         22    1    1    0    0    0 -0.24292530767E+02 -0.14231540733E+02  0.86073870865E+01  0.29440633743E+02  0.00000000000E+00 0. -1.
</event>
<event>
 5    1  0.2370309E-009  0.9118800E+02  0.7561462E-02  0.1125453E+00
         25   -1    0    0    0    0  0.00000000000E+00  0.00000000000E+00  0.99999998245E-14  0.12509000000E+03  0.12509000000E+03 0.  0.
        -13    1    3    3    0    0  0.18371862878E+01 -0.75541101862E+01 -0.42244420688E+02  0.42953952990E+02  0.10566000000E+00 0.  1.
         23    2    1    0    0    0 -0.22289734008E+02 -0.19246865346E+02  0.29399458972E+01  0.95494099107E+02  0.90792101058E+02 0.  0.
         13    1    3    3    0    0 -0.24126920296E+02 -0.11692755160E+02  0.45184366585E+02  0.52540146117E+02  0.10566000000E+00 0. -1.
         22    1    1    0    0    0  0.22289734008E+02  0.19246865346E+02 -0.29399458972E+01  0.29595900893E+02  0.00000000000E+00 0. -1.
</event>
<event>
 5    1  0.2370309E-009  0.9118800E+02  0.7561462E-02  0.1125453E+00
         25   -1    0    0    0    0  0.00000000000E+00  0.00000000000E+00  0.99999998245E-14  0.12509000000E+03  0.12509000000E+03 0.  0.
        -13    1    3    3    0    0  0.33078512150E+02 -0.15831171997E+02  0.46454680000E+02  0.59184984843E+02  0.10566000000E+00 0.  1.
         23    2    1    0    0    0  0.39245734525E+01 -0.14676742740E+02  0.26536047125E+02  0.94512706934E+02  0.89429754113E+02 0.  0.
         13    1    3    3    0    0 -0.29153938698E+02  0.11544292572E+01 -0.19918632875E+02  0.35327722091E+02  0.10566000000E+00 0. -1.
         22    1    1    0    0    0 -0.39245734525E+01  0.14676742740E+02 -0.26536047125E+02  0.30577293066E+02  0.00000000000E+00 0.  1.
</event>
<event>
 5    1  0.2370309E-009  0.9118800E+02  0.7561462E-02  0.1125453E+00
         25   -1    0    0    0    0  0.00000000000E+00  0.00000000000E+00  0.99999998245E-14  0.12509000000E+03  0.12509000000E+03 0.  0.
        -13    1    3    3    0    0 -0.34673103591E+01  0.43642307336E+02 -0.59111480101E+01  0.44177212062E+02  0.10566000000E+00 0.  1.
         23    2    1    0    0    0  0.12927728545E+02 -0.99726956610E+00 -0.26182553685E+02  0.95872764857E+02  0.91312322345E+02 0.  0.
         13    1    3    3    0    0  0.16395038904E+02 -0.44639576902E+02 -0.20271405675E+02  0.51695552795E+02  0.10566000000E+00 0. -1.
         22    1    1    0    0    0 -0.12927728545E+02  0.99726956610E+00  0.26182553685E+02  0.29217235143E+02  0.00000000000E+00 0. -1.
</event>
<event>
 5    1  0.2370309E-009  0.9118800E+02  0.7561462E-02  0.1125453E+00
         25   -1    0    0    0    0  0.00000000000E+00  0.00000000000E+00  0.99999998245E-14  0.12509000000E+03  0.12509000000E+03 0.  0.
        -13    1    3    3    0    0 -0.10980417868E+02 -0.21780844663E+02  0.44765013854E+02  0.50979333069E+02  0.10566000000E+00 0.  1.
         23    2    1    0    0    0 -0.26746269746E+02  0.34029944039E+01  0.10960357987E+02  0.95985485514E+02  0.91466609569E+02 0.  0.
         13    1    3    3    0    0 -0.15765851878E+02  0.25183839067E+02 -0.33804655867E+02  0.45006152445E+02  0.10566000000E+00 0. -1.
         22    1    1    0    0    0  0.26746269746E+02 -0.34029944039E+01 -0.10960357987E+02  0.29104514486E+02  0.00000000000E+00 0.  1.
</event>
<event>
 5    1  0.2370309E-009  0.9118800E+02  0.7561462E-02  0.1125453E+00
         25   -1    0    0    0    0  0.00000000000E+00  0.00000000000E+00  0.99999998245E-14  0.12509000000E+03  0.12509000000E+03 0.  0.
        -13    1    3    3    0    0  0.12304109557E+02 -0.93302864116E+01  0.30992271915E+02  0.34626253609E+02  0.10566000000E+00 0.  1.
         23    2    1    0    0    0 -0.35157388407E+01 -0.19232206374E+02 -0.24830500133E+02  0.93486330617E+02  0.87982396499E+02 0.  0.
         13    1    3    3    0    0 -0.15819848398E+02 -0.99019199620E+01 -0.55822772048E+02  0.58860077008E+02  0.10566000000E+00 0. -1.
         22    1    1    0    0    0  0.35157388407E+01  0.19232206374E+02  0.24830500133E+02  0.31603669383E+02  0.00000000000E+00 0. -1.
</event>
<event>
 5    1  0.2370309E-009  0.9118800E+02  0.7561462E-02  0.1125453E+00
         25   -1    0    0    0    0  0.00000000000E+00  0.00000000000E+00  0.99999998245E-14  0.12509000000E+03  0.12509000000E+03 0.  0.
        -13    1    3    3    0    0 -0.37156636509E+02  0.17214386888E+02  0.31633852827E+02  0.51746135713E+02  0.10566000000E+00 0.  1.
         23    2    1    0    0    0 -0.13468490034E+02  0.26062418572E+02 -0.40433138271E+01  0.95475843380E+02  0.90766945508E+02 0.  0.
         13    1    3    3    0    0  0.23688146475E+02  0.88480316841E+01 -0.35677166654E+02  0.43729707666E+02  0.10566000000E+00 0. -1.
         22    1    1    0    0    0  0.13468490034E+02 -0.26062418572E+02  0.40433138271E+01  0.29614156620E+02  0.00000000000E+00 0. -1.
</event>
<event>
 5    1  0.2370309E-009  0.9118800E+02  0.7561462E-02  0.1125453E+00
         25   -1    0    0    0    0  0.00000000000E+00  0.00000000000E+00  0.99999998245E-14  0.12509000000E+03  0.12509000000E+03 0.  0.
        -13    1    3    3    0    0 -0.18664142126E+02  0.89875802477E+01 -0.32781955820E+02  0.38778790485E+02  0.10566000000E+00 0.  1.
         23    2    1    0    0    0 -0.27294205175E+01  0.23950978270E+02  0.18616385357E+02  0.94632342502E+02  0.89596938269E+02 0.  0.
         13    1    3    3    0    0  0.15934721609E+02  0.14963398023E+02  0.51398341178E+02  0.55853552018E+02  0.10566000000E+00 0. -1.
         22    1    1    0    0    0  0.27294205175E+01 -0.23950978270E+02 -0.18616385357E+02  0.30457657498E+02  0.00000000000E+00 0. -1.
</event>
<event>
 5    1  0.2370309E-009  0.9118800E+02  0.7561462E-02  0.1125453E+00
         25   -1    0    0    0    0  0.00000000000E+00  0.00000000000E+00  0.99999998245E-14  0.12509000000E+03  0.12509000000E+03 0.  0.
        -13    1    3    3    0    0  0.17553665262E+02 -0.32998787503E+02  0.18862690963E+02  0.41867211696E+02  0.10566000000E+00 0. -1.
         23    2    1    0    0    0 -0.82322490780E+01 -0.17450892043E+02 -0.24028956699E+02  0.94272889201E+02  0.89093677218E+02 0.  0.
         13    1    3    3    0    0 -0.25785914340E+02  0.15547895460E+02 -0.42891647662E+02  0.52405677505E+02  0.10566000000E+00 0.  1.
         22    1    1    0    0    0  0.82322490780E+01  0.17450892043E+02  0.24028956699E+02  0.30817110799E+02  0.00000000000E+00 0.  1.
</event>
<event>
 5    1  0.2370309E-009  0.9118800E+02  0.7561462E-02  0.1125453E+00
         25   -1    0    0    0    0  0.00000000000E+00  0.00000000000E+00  0.99999998245E-14  0.12509000000E+03  0.12509000000E+03 0.  0.
        -13    1    3    3    0    0 -0.36616021564E+02  0.34431532709E+02 -0.35995928084E+01  0.50390789954E+02  0.10566000000E+00 0. -1.
         23    2    1    0    0    0 -0.44088266631E+01  0.16441317721E+02  0.23433545405E+02  0.96126475850E+02  0.91659225549E+02 0.  0.
         13    1    3    3    0    0  0.32207194901E+02 -0.17990214988E+02  0.27033138213E+02  0.45735685896E+02  0.10566000000E+00 0.  1.
         22    1    1    0    0    0  0.44088266631E+01 -0.16441317721E+02 -0.23433545405E+02  0.28963524150E+02  0.00000000000E+00 0.  1.
</event>
<event>
 5    1  0.2370309E-009  0.9118800E+02  0.7561462E-02  0.1125453E+00
         25   -1    0    0    0    0  0.00000000000E+00  0.00000000000E+00  0.99999998245E-14  0.12509000000E+03  0.12509000000E+03 0.  0.
        -13    1    3    3    0    0 -0.10518441969E+02  0.55315583100E+02  0.28641182603E+01  0.56379656726E+02  0.10566000000E+00 0.  1.
         23    2    1    0    0    0 -0.22748642602E+02  0.18423622862E+02 -0.29083857576E+01  0.95672499642E+02  0.91037562910E+02 0.  0.
         13    1    3    3    0    0 -0.12230200633E+02 -0.36891960238E+02 -0.57725040179E+01  0.39292842916E+02  0.10566000000E+00 0. -1.
         22    1    1    0    0    0  0.22748642602E+02 -0.18423622862E+02  0.29083857576E+01  0.29417500358E+02  0.00000000000E+00 0.  1.
</event>
<event>
 5    1  0.2370309E-009  0.9118800E+02  0.7561462E-02  0.1125453E+00
         25   -1    0    0    0    0  0.00000000000E+00  0.00000000000E+00  0.99999998245E-14  0.12509000000E+03  0.12509000000E+03 0.  0.
        -13    1    3    3    0    0 -0.25183878852E+02  0.21972291751E+02 -0.47052204704E+02  0.57714213937E+02  0.10566000000E+00 0.  1.
         23    2    1    0    0    0 -0.14871846811E+02 -0.66117229706E+01 -0.24995669612E+02  0.95262660066E+02  0.90472670985E+02 0.  0.
         13    1    3    3    0    0  0.10312032041E+02 -0.28584014721E+02  0.22056535092E+02  0.37548446129E+02  0.10566000000E+00 0. -1.
         22    1    1    0    0    0  0.14871846811E+02  0.66117229706E+01  0.24995669612E+02  0.29827339934E+02  0.00000000000E+00 0.  1.
</event>
<event>
 5    1  0.2370309E-009  0.9118800E+02  0.7561462E-02  0.1125453E+00
         25   -1    0    0    0    0  0.00000000000E+00  0.00000000000E+00  0.99999998245E-14  0.12509000000E+03  0.12509000000E+03 0.  0.
        -13    1    3    3    0    0  0.60841404697E+02 -0.77905083060E+00 -0.82870394923E+00  0.60852126996E+02  0.10566000000E+00 0. -1.
         23    2    1    0    0    0  0.30824129009E+02 -0.72630610625E+01  0.72409800931E+01  0.92604452785E+02  0.86719512785E+02 0.  0.
         13    1    3    3    0    0 -0.30017275688E+02 -0.64840102319E+01  0.80696840423E+01  0.31752325789E+02  0.10566000000E+00 0.  1.
         22    1    1    0    0    0 -0.30824129009E+02  0.72630610625E+01 -0.72409800931E+01  0.32485547215E+02  0.00000000000E+00 0. -1.
</event>
<event>
 5    1  0.2370309E-009  0.9118800E+02  0.7561462E-02  0.1125453E+00
         25   -1    0    0    0    0  0.00000000000E+00  0.00000000000E+00  0.99999998245E-14  0.12509000000E+03  0.12509000000E+03 0.  0.
        -13    1    3    3    0    0  0.10370680860E+02 -0.45174916753E+02 -0.20170816175E+02  0.50548957599E+02  0.10566000000E+00 0. -1.
         23    2    1    0    0    0 -0.83299445511E+01 -0.25998016741E+02  0.14354303271E+02  0.94246347929E+02  0.89056404738E+02 0.  0.
         13    1    3    3    0    0 -0.18700625411E+02  0.19176900011E+02  0.34525119446E+02  0.43697390330E+02  0.10566000000E+00 0.  1.
         22    1    1    0    0    0  0.83299445511E+01  0.25998016741E+02 -0.14354303271E+02  0.30843652071E+02  0.00000000000E+00 0.  1.
</event>
<event>
 5    1  0.2370309E-009  0.9118800E+02  0.7561462E-02  0.1125453E+00
         25   -1    0    0    0    0  0.00000000000E+00  0.00000000000E+00  0.99999998245E-14  0.12509000000E+03  0.12509000000E+03 0.  0.
        -13    1    3    3    0    0  0.26275695597E+02 -0.89721724818E+01 -0.45193714804E+02  0.53041446812E+02  0.10566000000E+00 0.  1.
         23    2    1    0    0    0 -0.78378825542E+01 -0.16994718790E+02 -0.26170924545E+02  0.92915939622E+02  0.87167664157E+02 0.  0.
         13    1    3    3    0    0 -0.34113578151E+02 -0.80225463087E+01  0.19022790259E+02  0.39874492809E+02  0.10566000000E+00 0. -1.
         22    1    1    0    0    0  0.78378825542E+01  0.16994718790E+02  0.26170924545E+02  0.32174060378E+02  0.00000000000E+00 0.  1.
</event>
<event>
 5    1  0.2370309E-009  0.9118800E+02  0.7561462E-02  0.1125453E+00
         25   -1    0    0    0    0  0.00000000000E+00  0.00000000000E+00  0.99999998245E-14  0.12509000000E+03  0.12509000000E+03 0.  0.
        -13    1    3    3    0    0 -0.40058702190E+02 -0.75326049001E+01 -0.15228341342E+02  0.43512679781E+02  0.10566000000E+00 0.  1.
         23    2    1    0    0    0  0.50958705116E+01 -0.27025662658E+02  0.57683842983E+01  0.96989669116E+02  0.92829776039E+02 0.  0.
         13    1    3    3    0    0  0.45154572701E+02 -0.19493057758E+02  0.20996725641E+02  0.53476989334E+02  0.10566000000E+00 0. -1.
         22    1    1    0    0    0 -0.50958705116E+01  0.27025662658E+02 -0.57683842983E+01  0.28100330884E+02  0.00000000000E+00 0.  1.
</event>
<event>
 5    1  0.2370309E-009  0.9118800E+02  0.7561462E-02  0.1125453E+00
         25   -1    0    0    0    0  0.00000000000E+00  0.00000000000E+00  0.99999998245E-14  0.12509000000E+03  0.12509000000E+03 0.  0.
        -13    1    3    3    0    0 -0.45767748896E+02 -0.29194970280E+02  0.18770696188E+02  0.57440258775E+02  0.10566000000E+00 0. -1.
         23    2    1    0    0    0 -0.29322366175E+02  0.16138784645E+01  0.36473382807E+01  0.95497621955E+02  0.90796954578E+02 0.  0.
         13    1    3    3    0    0  0.16445382720E+02  0.30808848745E+02 -0.15123357908E+02  0.38057363180E+02  0.10566000000E+00 0.  1.
         22    1    1    0    0    0  0.29322366175E+02 -0.16138784645E+01 -0.36473382807E+01  0.29592378045E+02  0.00000000000E+00 0. -1.
</event>
<event>
 5    1  0.2370309E-009  0.9118800E+02  0.7561462E-02  0.1125453E+00
         25   -1    0    0    0    0  0.00000000000E+00  0.00000000000E+00  0.99999998245E-14  0.12509000000E+03  0.12509000000E+03 0.  0.
        -13    1    3    3    0    0 -0.13334832814E+02 -0.26359510308E+02 -0.20890757655E+02  0.36181161802E+02  0.10566000000E+00 0. -1.
         23    2    1    0    0    0  0.18810727610E+01  0.24958014995E+02  0.10178428973E+02  0.98070722371E+02  0.94275263048E+02 0.  0.
         13    1    3    3    0    0  0.15215905575E+02  0.51317525303E+02  0.31069186628E+02  0.61889560570E+02  0.10566000000E+00 0.  1.
         22    1    1    0    0    0 -0.18810727610E+01 -0.24958014995E+02 -0.10178428973E+02  0.27019277629E+02  0.00000000000E+00 0.  1.
</event>
<event>
 5    1  0.2370309E-009  0.9118800E+02  0.7561462E-02  0.1125453E+00
         25   -1    0    0    0    0  0.00000000000E+00  0.00000000000E+00  0.99999998245E-14  0.12509000000E+03  0.12509000000E+03 0.  0.
        -13    1    3    3    0    0 -0.18253588559E+02 -0.77400204985E+01  0.53493210685E+02  0.57049418630E+02  0.10566000000E+00 0. -1.
         23    2    1    0    0    0 -0.26492149256E+02  0.46037149913E+01  0.38350296153E+02  0.78252265437E+02  0.62686869973E+02 0.  0.
         13    1    3    3    0    0 -0.82385606976E+01  0.12343735490E+02 -0.15142914531E+02  0.21202846808E+02  0.10566000000E+00 0.  1.
         22    1    1    0    0    0  0.26492149256E+02 -0.46037149913E+01 -0.38350296153E+02  0.46837734563E+02  0.00000000000E+00 0. -1.
</event>
<event>
 5    1  0.2370309E-009  0.9118800E+02  0.7561462E-02  0.1125453E+00
         25   -1    0    0    0    0  0.00000000000E+00  0.00000000000E+00  0.99999998245E-14  0.12509000000E+03  0.12509000000E+03 0.  0.
        -13    1    3    3    0    0  0.54707924239E+01  0.36970425567E+02  0.25967153737E+02  0.45508748319E+02  0.10566000000E+00 0.  1.
         23    2    1    0    0    0 -0.20538301053E+02 -0.20397334223E+01  0.25352473724E+02  0.92398560042E+02  0.86422009068E+02 0.  0.
         13    1    3    3    0    0 -0.26009093477E+02 -0.39010158989E+02 -0.61468001316E+00  0.46889811723E+02  0.10566000000E+00 0. -1.
         22    1    1    0    0    0  0.20538301053E+02  0.20397334223E+01 -0.25352473724E+02  0.32691439958E+02  0.00000000000E+00 0. -1.
</event>
<event>
 5    1  0.2370309E-009  0.9118800E+02  0.7561462E-02  0.1125453E+00
         25   -1    0    0    0    0  0.00000000000E+00  0.00000000000E+00  0.99999998245E-14  0.12509000000E+03  0.12509000000E+03 0.  0.
        -13    1    3    3    0    0 -0.46267932303E+01 -0.37986725017E+02  0.16278876820E+02  0.41586193474E+02  0.10566000000E+00 0. -1.
         23    2    1    0    0    0 -0.22269587876E+02 -0.24366763514E+01 -0.19777454277E+02  0.95206565902E+02  0.90395080382E+02 0.  0.
         13    1    3    3    0    0 -0.17642794646E+02  0.35550048666E+02 -0.36056331098E+02  0.53620372428E+02  0.10566000000E+00 0.  1.
         22    1    1    0    0    0  0.22269587876E+02  0.24366763514E+01  0.19777454277E+02  0.29883434098E+02  0.00000000000E+00 0.  1.
</event>
<event>
 5    1  0.2370309E-009  0.9118800E+02  0.7561462E-02  0.1125453E+00
         25   -1    0    0    0    0  0.00000000000E+00  0.00000000000E+00  0.99999998245E-14  0.12509000000E+03  0.12509000000E+03 0.  0.
        -13    1    3    3    0    0  0.15243328847E+02 -0.30022158081E+02 -0.13113333176E+02  0.36133913727E+02  0.10566000000E+00 0.  1.
         23    2    1    0    0    0 -0.17098431799E+02 -0.36323065038E+01  0.26278678400E+02  0.93528647701E+02  0.88042540750E+02 0.  0.
         13    1    3    3    0    0 -0.32341760646E+02  0.26389851577E+02  0.39392011575E+02  0.57394733974E+02  0.10566000000E+00 0. -1.
         22    1    1    0    0    0  0.17098431799E+02  0.36323065038E+01 -0.26278678400E+02  0.31561352299E+02  0.00000000000E+00 0. -1.
</event>
<event>
 5    1  0.2370309E-009  0.9118800E+02  0.7561462E-02  0.1125453E+00
         25   -1    0    0    0    0  0.00000000000E+00  0.00000000000E+00  0.99999998245E-14  0.12509000000E+03  0.12509000000E+03 0.  0.
        -13    1    3    3    0    0  0.40992760045E+02 -0.25492203080E+02  0.35101936156E+02  0.59685977247E+02  0.10566000000E+00 0.  1.
         23    2    1    0    0    0  0.23603657724E+02 -0.16888983574E+02  0.47920368041E+01  0.95673439344E+02  0.91038854095E+02 0.  0.
         13    1    3    3    0    0 -0.17389102321E+02  0.86032195059E+01 -0.30309899352E+02  0.35987462097E+02  0.10566000000E+00 0. -1.
         22    1    1    0    0    0 -0.23603657724E+02  0.16888983574E+02 -0.47920368041E+01  0.29416560656E+02  0.00000000000E+00 0. -1.
</event>
<event>
 5    1  0.2370309E-009  0.9118800E+02  0.7561462E-02  0.1125453E+00
         25   -1    0    0    0    0  0.00000000000E+00  0.00000000000E+00  0.99999998245E-14  0.12509000000E+03  0.12509000000E+03 0.  0.
        -13    1    3    3    0    0 -0.40527299852E+02  0.57088198130E+01 -0.41994335240E+02  0.58639474872E+02  0.10566000000E+00 0. -1.
         23    2    1    0    0    0 -0.73838152327E+01  0.10696712865E+02 -0.26520054185E+02  0.95556059059E+02  0.90877427095E+02 0.  0.
         13    1    3    3    0    0  0.33143484620E+02  0.49878930521E+01  0.15474281055E+02  0.36916584187E+02  0.10566000000E+00 0.  1.
         22    1    1    0    0    0  0.73838152327E+01 -0.10696712865E+02  0.26520054185E+02  0.29533940941E+02  0.00000000000E+00 0. -1.
</event>
<event>
 5    1  0.2370309E-009  0.9118800E+02  0.7561462E-02  0.1125453E+00
         25   -1    0    0    0    0  0.00000000000E+00  0.00000000000E+00  0.99999998245E-14  0.12509000000E+03  0.12509000000E+03 0.  0.
        -13    1    3    3    0    0  0.26082094412E+02  0.42148567635E+02 -0.37868873535E+02  0.62376599373E+02  0.10566000000E+00 0. -1.
         23    2    1    0    0    0  0.13931801282E+02  0.16464388155E+02 -0.16898437369E+02  0.97690577564E+02  0.93769507811E+02 0.  0.
         13    1    3    3    0    0 -0.12150293130E+02 -0.25684179479E+02  0.20970436166E+02  0.35313978191E+02  0.10566000000E+00 0.  1.
         22    1    1    0    0    0 -0.13931801282E+02 -0.16464388155E+02  0.16898437369E+02  0.27399422436E+02  0.00000000000E+00 0. -1.
</event>
<event>
 5    1  0.2370309E-009  0.9118800E+02  0.7561462E-02  0.1125453E+00
         25   -1    0    0    0    0  0.00000000000E+00  0.00000000000E+00  0.99999998245E-14  0.12509000000E+03  0.12509000000E+03 0.  0.
        -13    1    3    3    0    0 -0.43944675235E+02  0.35767649502E+02  0.20776377605E+02  0.60350047745E+02  0.10566000000E+00 0.  1.
         23    2    1    0    0    0 -0.27107283476E+02  0.93035714833E+01  0.33413818402E+01  0.96236471751E+02  0.91809217417E+02 0.  0.
         13    1    3    3    0    0  0.16837391758E+02 -0.26464078018E+02 -0.17434995765E+02  0.35886424006E+02  0.10566000000E+00 0. -1.
         22    1    1    0    0    0  0.27107283476E+02 -0.93035714833E+01 -0.33413818402E+01  0.28853528249E+02  0.00000000000E+00 0.  1.
</event>
<event>
 5    1  0.2370309E-009  0.9118800E+02  0.7561462E-02  0.1125453E+00
         25   -1    0    0    0    0  0.00000000000E+00  0.00000000000E+00  0.99999998245E-14  0.12509000000E+03  0.12509000000E+03 0.  0.
        -13    1    3    3    0    0  0.58284527943E+01  0.10537233647E+02 -0.49960459108E+02  0.51391271567E+02  0.10566000000E+00 0.  1.
         23    2    1    0    0    0  0.28483886664E+02  0.41016276413E+01 -0.17804314614E+02  0.91249953196E+02  0.84743171941E+02 0.  0.
         13    1    3    3    0    0  0.22655433870E+02 -0.64356060053E+01  0.32156144494E+02  0.39858681629E+02  0.10566000000E+00 0. -1.
         22    1    1    0    0    0 -0.28483886664E+02 -0.41016276413E+01  0.17804314614E+02  0.33840046804E+02  0.00000000000E+00 0.  1.
</event>
<event>
 5    1  0.2370309E-009  0.9118800E+02  0.7561462E-02  0.1125453E+00
         25   -1    0    0    0    0  0.00000000000E+00  0.00000000000E+00  0.99999998245E-14  0.12509000000E+03  0.12509000000E+03 0.  0.
        -13    1    3    3    0    0  0.32910172002E+02 -0.62484542401E+01  0.21472815037E+02  0.39789641255E+02  0.10566000000E+00 0. -1.
         23    2    1    0    0    0  0.49353862061E+01  0.21739682545E+02 -0.18561998106E+02  0.96081042627E+02  0.91597200528E+02 0.  0.
         13    1    3    3    0    0 -0.27974785796E+02  0.27988136785E+02 -0.40034813143E+02  0.56291401372E+02  0.10566000000E+00 0.  1.
         22    1    1    0    0    0 -0.49353862061E+01 -0.21739682545E+02  0.18561998106E+02  0.29008957373E+02  0.00000000000E+00 0.  1.
</event>
<event>
 5    1  0.2370309E-009  0.9118800E+02  0.7561462E-02  0.1125453E+00
         25   -1    0    0    0    0  0.00000000000E+00  0.00000000000E+00  0.99999998245E-14  0.12509000000E+03  0.12509000000E+03 0.  0.
        -13    1    3    3    0    0 -0.42568737120E+02  0.13041655641E+02  0.46862582921E+01  0.44767782419E+02  0.10566000000E+00 0.  1.
         23    2    1    0    0    0 -0.92338200262E+01 -0.12659539502E+02 -0.24513247462E+02  0.95996587106E+02  0.91481790878E+02 0.  0.
         13    1    3    3    0    0  0.33334917094E+02 -0.25701195142E+02 -0.29199505754E+02  0.51228804688E+02  0.10566000000E+00 0. -1.
         22    1    1    0    0    0  0.92338200262E+01  0.12659539502E+02  0.24513247462E+02  0.29093412894E+02  0.00000000000E+00 0. -1.
</event>
<event>
 5    1  0.2370309E-009  0.9118800E+02  0.7561462E-02  0.1125453E+00
         25   -1    0    0    0    0  0.00000000000E+00  0.00000000000E+00  0.99999998245E-14  0.12509000000E+03  0.12509000000E+03 0.  0.
        -13    1    3    3    0    0  0.10917382417E+02  0.14478481926E+01  0.40490284780E+02  0.41961408804E+02  0.10566000000E+00 0.  1.
         23    2    1    0    0    0  0.23883510660E+02 -0.15394172898E+02 -0.85556832438E+01  0.95415055073E+02  0.90683131718E+02 0.  0.
         13    1    3    3    0    0  0.12966128244E+02 -0.16842021091E+02 -0.49045968024E+02  0.53453646269E+02  0.10566000000E+00 0. -1.
         22    1    1    0    0    0 -0.23883510660E+02  0.15394172898E+02  0.85556832438E+01  0.29674944927E+02  0.00000000000E+00 0. -1.
</event>
<event>
 5    1  0.2370309E-009  0.9118800E+02  0.7561462E-02  0.1125453E+00
         25   -1    0    0    0    0  0.00000000000E+00  0.00000000000E+00  0.99999998245E-14  0.12509000000E+03  0.12509000000E+03 0.  0.
        -13    1    3    3    0    0 -0.95699585269E+01 -0.42642505972E+01  0.31831344253E+02  0.33511394783E+02  0.10566000000E+00 0.  1.
         23    2    1    0    0    0  0.13725453748E+02 -0.79532322735E+00 -0.25847417843E+02  0.95813565300E+02  0.91231188015E+02 0.  0.
         13    1    3    3    0    0  0.23295412275E+02  0.34689273699E+01 -0.57678762095E+02  0.62302170516E+02  0.10566000000E+00 0. -1.
         22    1    1    0    0    0 -0.13725453748E+02  0.79532322735E+00  0.25847417843E+02  0.29276434700E+02  0.00000000000E+00 0. -1.
</event>
<event>
 5    1  0.2370309E-009  0.9118800E+02  0.7561462E-02  0.1125453E+00
         25   -1    0    0    0    0  0.00000000000E+00  0.00000000000E+00  0.99999998245E-14  0.12509000000E+03  0.12509000000E+03 0.  0.
        -13    1    3    3    0    0  0.35887949407E+02 -0.14764031107E+01  0.18633578183E+02  0.40464133238E+02  0.10566000000E+00 0. -1.
         23    2    1    0    0    0 -0.17245323033E+02 -0.16797101458E+02  0.16690527355E+02  0.95796357562E+02  0.91207590884E+02 0.  0.
         13    1    3    3    0    0 -0.53133272440E+02 -0.15320698348E+02 -0.19430508279E+01  0.55332224324E+02  0.10566000000E+00 0.  1.
         22    1    1    0    0    0  0.17245323033E+02  0.16797101458E+02 -0.16690527355E+02  0.29293642438E+02  0.00000000000E+00 0.  1.
</event>
<event>
 5    1  0.2370309E-009  0.9118800E+02  0.7561462E-02  0.1125453E+00
         25   -1    0    0    0    0  0.00000000000E+00  0.00000000000E+00  0.99999998245E-14  0.12509000000E+03  0.12509000000E+03 0.  0.
        -13    1    3    3    0    0 -0.10262010421E+02 -0.40188016856E+01  0.35173324048E+02  0.36859646139E+02  0.10566000000E+00 0.  1.
         23    2    1    0    0    0  0.23853051467E+02 -0.81168085928E+01 -0.13550952103E+02  0.96480928905E+02  0.92141688141E+02 0.  0.
         13    1    3    3    0    0  0.34115061888E+02 -0.40980069072E+01 -0.48724276151E+02  0.59621282766E+02  0.10566000000E+00 0. -1.
         22    1    1    0    0    0 -0.23853051467E+02  0.81168085928E+01  0.13550952103E+02  0.28609071095E+02  0.00000000000E+00 0. -1.
</event>
<event>
 5    1  0.2370309E-009  0.9118800E+02  0.7561462E-02  0.1125453E+00
         25   -1    0    0    0    0  0.00000000000E+00  0.00000000000E+00  0.99999998245E-14  0.12509000000E+03  0.12509000000E+03 0.  0.
        -13    1    3    3    0    0 -0.40144234841E+02 -0.36469357566E+02 -0.10320503237E+02  0.55209578728E+02  0.10566000000E+00 0. -1.
         23    2    1    0    0    0 -0.66088886441E+01 -0.17632349761E+02 -0.22681442103E+02  0.95610770310E+02  0.90952704282E+02 0.  0.
         13    1    3    3    0    0  0.33535346197E+02  0.18837007805E+02 -0.12360938866E+02  0.40401191582E+02  0.10566000000E+00 0.  1.
         22    1    1    0    0    0  0.66088886441E+01  0.17632349761E+02  0.22681442103E+02  0.29479229690E+02  0.00000000000E+00 0. -1.
</event>
<event>
 5    1  0.2370309E-009  0.9118800E+02  0.7561462E-02  0.1125453E+00
         25   -1    0    0    0    0  0.00000000000E+00  0.00000000000E+00  0.99999998245E-14  0.12509000000E+03  0.12509000000E+03 0.  0.
        -13    1    3    3    0    0 -0.20396610537E+02  0.12739666432E+02  0.29486914789E+02  0.38050100262E+02  0.10566000000E+00 0.  1.
         23    2    1    0    0    0  0.11660703835E+02 -0.26523800147E+02  0.12129482250E+01  0.96090771880E+02  0.91610486348E+02 0.  0.
         13    1    3    3    0    0  0.32057314371E+02 -0.39263466579E+02 -0.28273966564E+02  0.58040671618E+02  0.10566000000E+00 0. -1.
         22    1    1    0    0    0 -0.11660703835E+02  0.26523800147E+02 -0.12129482250E+01  0.28999228120E+02  0.00000000000E+00 0. -1.
</event>
<event>
 5    1  0.2370309E-009  0.9118800E+02  0.7561462E-02  0.1125453E+00
         25   -1    0    0    0    0  0.00000000000E+00  0.00000000000E+00  0.99999998245E-14  0.12509000000E+03  0.12509000000E+03 0.  0.
        -13    1    3    3    0    0  0.52470007796E+02 -0.35817451136E+01 -0.17785544342E+01  0.52622286496E+02  0.10566000000E+00 0.  1.
         23    2    1    0    0    0  0.17275093094E+02 -0.25552940173E+02  0.12274124858E+01  0.94221113815E+02  0.89020953456E+02 0.  0.
         13    1    3    3    0    0 -0.35194914702E+02 -0.21971195059E+02  0.30059669200E+01  0.41598827319E+02  0.10566000000E+00 0. -1.
         22    1    1    0    0    0 -0.17275093094E+02  0.25552940173E+02 -0.12274124858E+01  0.30868886185E+02  0.00000000000E+00 0.  1.
</event>
<event>
 5    1  0.2370309E-009  0.9118800E+02  0.7561462E-02  0.1125453E+00
         25   -1    0    0    0    0  0.00000000000E+00  0.00000000000E+00  0.99999998245E-14  0.12509000000E+03  0.12509000000E+03 0.  0.
        -13    1    3    3    0    0  0.38895005062E+02  0.62799382881E+01 -0.33712433237E+02  0.51853624391E+02  0.10566000000E+00 0.  1.
         23    2    1    0    0    0  0.15272618132E+02  0.23265832754E+02  0.11169490061E+01  0.97236823998E+02  0.93162226936E+02 0.  0.
         13    1    3    3    0    0 -0.23622386930E+02  0.16985894466E+02  0.34829382243E+02  0.45383199607E+02  0.10566000000E+00 0. -1.
         22    1    1    0    0    0 -0.15272618132E+02 -0.23265832754E+02 -0.11169490061E+01  0.27853176002E+02  0.00000000000E+00 0.  1.
</event>
<event>
 5    1  0.2370309E-009  0.9118800E+02  0.7561462E-02  0.1125453E+00
         25   -1    0    0    0    0  0.00000000000E+00  0.00000000000E+00  0.99999998245E-14  0.12509000000E+03  0.12509000000E+03 0.  0.
        -13    1    3    3    0    0  0.22410200675E+02  0.25063036414E+02  0.37070539814E+02  0.50046068524E+02  0.10566000000E+00 0.  1.
         23    2    1    0    0    0  0.10501596219E+02  0.25978233288E+02 -0.74131493950E+01  0.96105402161E+02  0.91630461162E+02 0.  0.
         13    1    3    3    0    0 -0.11908604456E+02  0.91519687434E+00 -0.44483689209E+02  0.46059333637E+02  0.10566000000E+00 0. -1.
         22    1    1    0    0    0 -0.10501596219E+02 -0.25978233288E+02  0.74131493950E+01  0.28984597839E+02  0.00000000000E+00 0. -1.
</event>
<event>
 5    1  0.2370309E-009  0.9118800E+02  0.7561462E-02  0.1125453E+00
         25   -1    0    0    0    0  0.00000000000E+00  0.00000000000E+00  0.99999998245E-14  0.12509000000E+03  0.12509000000E+03 0.  0.
        -13    1    3    3    0    0  0.53633393460E+02  0.13456083032E+02 -0.25920964862E+02  0.61069752316E+02  0.10566000000E+00 0.  1.
         23    2    1    0    0    0  0.29970499146E+02  0.11422721182E+01 -0.56573104639E+01  0.94568847231E+02  0.89508245991E+02 0.  0.
         13    1    3    3    0    0 -0.23662894314E+02 -0.12313810914E+02  0.20263654398E+02  0.33499094915E+02  0.10566000000E+00 0. -1.
         22    1    1    0    0    0 -0.29970499146E+02 -0.11422721182E+01  0.56573104639E+01  0.30521152769E+02  0.00000000000E+00 0.  1.
</event>
<event>
 5    1  0.2370309E-009  0.9118800E+02  0.7561462E-02  0.1125453E+00
         25   -1    0    0    0    0  0.00000000000E+00  0.00000000000E+00  0.99999998245E-14  0.12509000000E+03  0.12509000000E+03 0.  0.
        -13    1    3    3    0    0 -0.53208547128E+02 -0.20288507881E+02  0.87984738353E+01  0.57621153628E+02  0.10566000000E+00 0. -1.
         23    2    1    0    0    0 -0.15566330647E+02 -0.23623894074E+02  0.89678062931E+01  0.95411378558E+02  0.90678060122E+02 0.  0.
         13    1    3    3    0    0  0.37642216482E+02 -0.33353861922E+01  0.16933245774E+00  0.37790224929E+02  0.10566000000E+00 0.  1.
         22    1    1    0    0    0  0.15566330647E+02  0.23623894074E+02 -0.89678062931E+01  0.29678621442E+02  0.00000000000E+00 0. -1.
</event>
<event>
 5    1  0.2370309E-009  0.9118800E+02  0.7561462E-02  0.1125453E+00
         25   -1    0    0    0    0  0.00000000000E+00  0.00000000000E+00  0.99999998245E-14  0.12509000000E+03  0.12509000000E+03 0.  0.
        -13    1    3    3    0    0  0.49176710726E+01 -0.23951979470E+02  0.48656082103E+02  0.54454626056E+02  0.10566000000E+00 0. -1.
         23    2    1    0    0    0 -0.11833610893E+02  0.66388636464E+01  0.25149059996E+02  0.96514064740E+02  0.92186661816E+02 0.  0.
         13    1    3    3    0    0 -0.16751281966E+02  0.30590843116E+02 -0.23507022107E+02  0.42059438684E+02  0.10566000000E+00 0.  1.
         22    1    1    0    0    0  0.11833610893E+02 -0.66388636464E+01 -0.25149059996E+02  0.28575935260E+02  0.00000000000E+00 0. -1.
</event>
<event>
 5    1  0.2370309E-009  0.9118800E+02  0.7561462E-02  0.1125453E+00
         25   -1    0    0    0    0  0.00000000000E+00  0.00000000000E+00  0.99999998245E-14  0.12509000000E+03  0.12509000000E+03 0.  0.
        -13    1    3    3    0    0 -0.43151878879E+01 -0.40476524105E+02  0.16285438181E+02  0.43842861573E+02  0.10566000000E+00 0.  1.
         23    2    1    0    0    0 -0.41975045518E+01 -0.11041904209E+02 -0.26672976225E+02  0.95918261044E+02  0.91374626938E+02 0.  0.
         13    1    3    3    0    0  0.11768333608E+00  0.29434619896E+02 -0.42958414406E+02  0.52075399471E+02  0.10566000000E+00 0. -1.
         22    1    1    0    0    0  0.41975045518E+01  0.11041904209E+02  0.26672976225E+02  0.29171738956E+02  0.00000000000E+00 0.  1.
</event>
<event>
 5    1  0.2370309E-009  0.9118800E+02  0.7561462E-02  0.1125453E+00
         25   -1    0    0    0    0  0.00000000000E+00  0.00000000000E+00  0.99999998245E-14  0.12509000000E+03  0.12509000000E+03 0.  0.
        -13    1    3    3    0    0  0.38380085455E+02 -0.22523903606E+02  0.10217580032E+01  0.44513058158E+02  0.10566000000E+00 0.  1.
         23    2    1    0    0    0  0.96184879335E+01  0.10787852639E+02 -0.25414652691E+02  0.95853077349E+02  0.91285348174E+02 0.  0.
         13    1    3    3    0    0 -0.28761597521E+02  0.33311756244E+02 -0.26436410694E+02  0.51340019191E+02  0.10566000000E+00 0. -1.
         22    1    1    0    0    0 -0.96184879335E+01 -0.10787852639E+02  0.25414652691E+02  0.29236922651E+02  0.00000000000E+00 0. -1.
</event>
<event>
 5    1  0.2370309E-009  0.9118800E+02  0.7561462E-02  0.1125453E+00
         25   -1    0    0    0    0  0.00000000000E+00  0.00000000000E+00  0.99999998245E-14  0.12509000000E+03  0.12509000000E+03 0.  0.
        -13    1    3    3    0    0 -0.47636691642E+02  0.21784272679E+02  0.22017591275E+02  0.56820721716E+02  0.10566000000E+00 0. -1.
         23    2    1    0    0    0 -0.26014010520E+02 -0.85377277985E+01  0.93585363467E+01  0.96155526757E+02  0.91698863592E+02 0.  0.
         13    1    3    3    0    0  0.21622681123E+02 -0.30322000478E+02 -0.12659054928E+02  0.39334805041E+02  0.10566000000E+00 0.  1.
         22    1    1    0    0    0  0.26014010520E+02  0.85377277985E+01 -0.93585363467E+01  0.28934473243E+02  0.00000000000E+00 0. -1.
</event>
<event>
 5    1  0.2370309E-009  0.9118800E+02  0.7561462E-02  0.1125453E+00
         25   -1    0    0    0    0  0.00000000000E+00  0.00000000000E+00  0.99999998245E-14  0.12509000000E+03  0.12509000000E+03 0.  0.
        -13    1    3    3    0    0 -0.11414451153E+02  0.37701989763E+02  0.26391732226E+02  0.47415866766E+02  0.10566000000E+00 0.  1.
         23    2    1    0    0    0 -0.13951802904E+02 -0.12049619638E+02  0.20405054606E+02  0.97590683805E+02  0.93636153137E+02 0.  0.
         13    1    3    3    0    0 -0.25373517508E+01 -0.49751609402E+02 -0.59866776196E+01  0.50174817039E+02  0.10566000000E+00 0. -1.
         22    1    1    0    0    0  0.13951802904E+02  0.12049619638E+02 -0.20405054606E+02  0.27499316195E+02  0.00000000000E+00 0. -1.
</event>
<event>
 5    1  0.2370309E-009  0.9118800E+02  0.7561462E-02  0.1125453E+00
         25   -1    0    0    0    0  0.00000000000E+00  0.00000000000E+00  0.99999998245E-14  0.12509000000E+03  0.12509000000E+03 0.  0.
        -13    1    3    3    0    0 -0.50594401851E+02  0.21471518259E+01 -0.27041117490E+02  0.57407638505E+02  0.10566000000E+00 0.  1.
         23    2    1    0    0    0 -0.21145464493E+02 -0.16561487805E+02 -0.15060297177E+02  0.94296719922E+02  0.89127129933E+02 0.  0.
         13    1    3    3    0    0  0.29448937358E+02 -0.18708639630E+02  0.11980820313E+02  0.36889081417E+02  0.10566000000E+00 0. -1.
         22    1    1    0    0    0  0.21145464493E+02  0.16561487805E+02  0.15060297177E+02  0.30793280078E+02  0.00000000000E+00 0.  1.
</event>
<event>
 5    1  0.2370309E-009  0.9118800E+02  0.7561462E-02  0.1125453E+00
         25   -1    0    0    0    0  0.00000000000E+00  0.00000000000E+00  0.99999998245E-14  0.12509000000E+03  0.12509000000E+03 0.  0.
        -13    1    3    3    0    0 -0.35707930369E+01  0.33667697163E+02 -0.12917578494E+02  0.36237265258E+02  0.10566000000E+00 0. -1.
         23    2    1    0    0    0 -0.10726180229E+02 -0.10258545847E+02  0.25864677019E+02  0.95269365827E+02  0.90481942080E+02 0.  0.
         13    1    3    3    0    0 -0.71553871921E+01 -0.43926243010E+02  0.38782255513E+02  0.59032100569E+02  0.10566000000E+00 0.  1.
         22    1    1    0    0    0  0.10726180229E+02  0.10258545847E+02 -0.25864677019E+02  0.29820634173E+02  0.00000000000E+00 0.  1.
</event>
<event>
 5    1  0.2370309E-009  0.9118800E+02  0.7561462E-02  0.1125453E+00
         25   -1    0    0    0    0  0.00000000000E+00  0.00000000000E+00  0.99999998245E-14  0.12509000000E+03  0.12509000000E+03 0.  0.
        -13    1    3    3    0    0 -0.58568219349E+02 -0.94864377940E+01 -0.19722679408E+01  0.59364381784E+02  0.10566000000E+00 0.  1.
         23    2    1    0    0    0 -0.26117932924E+02  0.97339780968E+01 -0.26982173697E+01  0.97086837201E+02  0.92960619785E+02 0.  0.
         13    1    3    3    0    0  0.32450286425E+02  0.19220415891E+02 -0.72594942888E+00  0.37722455417E+02  0.10566000000E+00 0. -1.
         22    1    1    0    0    0  0.26117932924E+02 -0.97339780968E+01  0.26982173697E+01  0.28003162799E+02  0.00000000000E+00 0.  1.
</event>
<event>
 5    1  0.2370309E-009  0.9118800E+02  0.7561462E-02  0.1125453E+00
         25   -1    0    0    0    0  0.00000000000E+00  0.00000000000E+00  0.99999998245E-14  0.12509000000E+03  0.12509000000E+03 0.  0.
        -13    1    3    3    0    0  0.16243172354E+02 -0.43254214351E+02 -0.31874449457E+02  0.56131625662E+02  0.10566000000E+00 0. -1.
         23    2    1    0    0    0  0.17964918397E+02 -0.21846675465E+02  0.25334499918E+01  0.96692220321E+02  0.92428088695E+02 0.  0.
         13    1    3    3    0    0  0.17217460424E+01  0.21407538886E+02  0.34407899448E+02  0.40560594659E+02  0.10566000000E+00 0.  1.
         22    1    1    0    0    0 -0.17964918397E+02  0.21846675465E+02 -0.25334499918E+01  0.28397779679E+02  0.00000000000E+00 0. -1.
</event>
<event>
 5    1  0.2370309E-009  0.9118800E+02  0.7561462E-02  0.1125453E+00
         25   -1    0    0    0    0  0.00000000000E+00  0.00000000000E+00  0.99999998245E-14  0.12509000000E+03  0.12509000000E+03 0.  0.
        -13    1    3    3    0    0  0.15927487763E+02  0.10832810620E+02  0.54604939471E+02  0.57902894842E+02  0.10566000000E+00 0.  1.
         23    2    1    0    0    0  0.22277871401E+02 -0.22575169603E+01  0.21575665399E+02  0.93994835193E+02  0.88702422563E+02 0.  0.
         13    1    3    3    0    0  0.63503836378E+01 -0.13090327580E+02 -0.33029274073E+02  0.36091940351E+02  0.10566000000E+00 0. -1.
         22    1    1    0    0    0 -0.22277871401E+02  0.22575169603E+01 -0.21575665399E+02  0.31095164807E+02  0.00000000000E+00 0.  1.
</event>
<event>
 5    1  0.2370309E-009  0.9118800E+02  0.7561462E-02  0.1125453E+00
         25   -1    0    0    0    0  0.00000000000E+00  0.00000000000E+00  0.99999998245E-14  0.12509000000E+03  0.12509000000E+03 0.  0.
        -13    1    3    3    0    0  0.11366461818E+02  0.38352923916E+02  0.37459439304E+02  0.54802955981E+02  0.10566000000E+00 0.  1.
         23    2    1    0    0    0  0.16841924648E+02  0.22709292170E+02 -0.11228460616E+01  0.96794714881E+02  0.92566698487E+02 0.  0.
         13    1    3    3    0    0  0.54754628305E+01 -0.15643631746E+02 -0.38582285366E+02  0.41991758900E+02  0.10566000000E+00 0. -1.
         22    1    1    0    0    0 -0.16841924648E+02 -0.22709292170E+02  0.11228460616E+01  0.28295285119E+02  0.00000000000E+00 0.  1.
</event>
<event>
 5    1  0.2370309E-009  0.9118800E+02  0.7561462E-02  0.1125453E+00
         25   -1    0    0    0    0  0.00000000000E+00  0.00000000000E+00  0.99999998245E-14  0.12509000000E+03  0.12509000000E+03 0.  0.
        -13    1    3    3    0    0 -0.16204524734E+02  0.54545553096E+02 -0.89620762383E+01  0.57603246080E+02  0.10566000000E+00 0. -1.
         23    2    1    0    0    0  0.13816830321E+01  0.30949624725E+02  0.99097533459E+01  0.92563218266E+02  0.86660012957E+02 0.  0.
         13    1    3    3    0    0  0.17586207766E+02 -0.23595928371E+02  0.18871829584E+02  0.34959972185E+02  0.10566000000E+00 0.  1.
         22    1    1    0    0    0 -0.13816830321E+01 -0.30949624725E+02 -0.99097533459E+01  0.32526781734E+02  0.00000000000E+00 0. -1.
</event>
<event>
 5    1  0.2370309E-009  0.9118800E+02  0.7561462E-02  0.1125453E+00
         25   -1    0    0    0    0  0.00000000000E+00  0.00000000000E+00  0.99999998245E-14  0.12509000000E+03  0.12509000000E+03 0.  0.
        -13    1    3    3    0    0 -0.19082224852E+02  0.58011223400E+02 -0.59473895977E+00  0.61072074012E+02  0.10566000000E+00 0.  1.
         23    2    1    0    0    0 -0.65410437766E+01  0.28433673725E+02  0.89242728170E+01  0.94579318256E+02  0.89522878312E+02 0.  0.
         13    1    3    3    0    0  0.12541181076E+02 -0.29577549675E+02  0.95190117768E+01  0.33507244243E+02  0.10566000000E+00 0. -1.
         22    1    1    0    0    0  0.65410437766E+01 -0.28433673725E+02 -0.89242728170E+01  0.30510681744E+02  0.00000000000E+00 0.  1.
</event>
<event>
 5    1  0.2370309E-009  0.9118800E+02  0.7561462E-02  0.1125453E+00
         25   -1    0    0    0    0  0.00000000000E+00  0.00000000000E+00  0.99999998245E-14  0.12509000000E+03  0.12509000000E+03 0.  0.
        -13    1    3    3    0    0 -0.11362832027E+02 -0.13012094637E+02 -0.27347646938E+02  0.32347078935E+02  0.10566000000E+00 0.  1.
         23    2    1    0    0    0  0.19064489635E+02  0.23038628102E+02  0.11087166034E+02  0.93197079147E+02  0.87570184201E+02 0.  0.
         13    1    3    3    0    0  0.30427321662E+02  0.36050722740E+02  0.38434812972E+02  0.60850000212E+02  0.10566000000E+00 0. -1.
         22    1    1    0    0    0 -0.19064489635E+02 -0.23038628102E+02 -0.11087166034E+02  0.31892920853E+02  0.00000000000E+00 0. -1.
</event>
<event>
 5    1  0.2370309E-009  0.9118800E+02  0.7561462E-02  0.1125453E+00
         25   -1    0    0    0    0  0.00000000000E+00  0.00000000000E+00  0.99999998245E-14  0.12509000000E+03  0.12509000000E+03 0.  0.
        -13    1    3    3    0    0 -0.40320140093E+02  0.19711156533E+02 -0.41838568297E+02  0.61357317006E+02  0.10566000000E+00 0.  1.
         23    2    1    0    0    0 -0.16556584633E+02  0.17267070946E+02 -0.17588935986E+02  0.95397527842E+02  0.90658951105E+02 0.  0.
         13    1    3    3    0    0  0.23763555460E+02 -0.24440855871E+01  0.24249632312E+02  0.34040210836E+02  0.10566000000E+00 0. -1.
         22    1    1    0    0    0  0.16556584633E+02 -0.17267070946E+02  0.17588935986E+02  0.29692472158E+02  0.00000000000E+00 0.  1.
</event>
<event>
 5    1  0.2370309E-009  0.9118800E+02  0.7561462E-02  0.1125453E+00
         25   -1    0    0    0    0  0.00000000000E+00  0.00000000000E+00  0.99999998245E-14  0.12509000000E+03  0.12509000000E+03 0.  0.
        -13    1    3    3    0    0  0.16168243913E+02  0.12626412503E+02  0.56078372955E+02  0.59712925579E+02  0.10566000000E+00 0.  1.
         23    2    1    0    0    0 -0.30411776192E+01  0.13808989854E+02  0.27499616463E+02  0.94168068176E+02  0.88946383829E+02 0.  0.
         13    1    3    3    0    0 -0.19209421532E+02  0.11825773516E+01 -0.28578756492E+02  0.34455142598E+02  0.10566000000E+00 0. -1.
         22    1    1    0    0    0  0.30411776192E+01 -0.13808989854E+02 -0.27499616463E+02  0.30921931824E+02  0.00000000000E+00 0.  1.
</event>
<event>
 5    1  0.2370309E-009  0.9118800E+02  0.7561462E-02  0.1125453E+00
         25   -1    0    0    0    0  0.00000000000E+00  0.00000000000E+00  0.99999998245E-14  0.12509000000E+03  0.12509000000E+03 0.  0.
        -13    1    3    3    0    0 -0.30824886229E+02 -0.43844902502E+01 -0.93520895646E+01  0.32509538740E+02  0.10566000000E+00 0.  1.
         23    2    1    0    0    0  0.26501167646E+02 -0.10853924204E+02 -0.18608499124E+02  0.90937462805E+02  0.84280640390E+02 0.  0.
         13    1    3    3    0    0  0.57326053875E+02 -0.64694339538E+01 -0.92564095598E+01  0.58427924065E+02  0.10566000000E+00 0. -1.
         22    1    1    0    0    0 -0.26501167646E+02  0.10853924204E+02  0.18608499124E+02  0.34152537195E+02  0.00000000000E+00 0. -1.
</event>
<event>
 5    1  0.2370309E-009  0.9118800E+02  0.7561462E-02  0.1125453E+00
         25   -1    0    0    0    0  0.00000000000E+00  0.00000000000E+00  0.99999998245E-14  0.12509000000E+03  0.12509000000E+03 0.  0.
        -13    1    3    3    0    0 -0.11717117682E+02  0.26459926113E+02 -0.65064009082E+01  0.29660798261E+02  0.10566000000E+00 0. -1.
         23    2    1    0    0    0  0.15910786831E+02 -0.21775398487E+02  0.20261988102E+02  0.91357681985E+02  0.84902042254E+02 0.  0.
         13    1    3    3    0    0  0.27627904512E+02 -0.48235324600E+02  0.26768389010E+02  0.61696883724E+02  0.10566000000E+00 0.  1.
         22    1    1    0    0    0 -0.15910786831E+02  0.21775398487E+02 -0.20261988102E+02  0.33732318015E+02  0.00000000000E+00 0.  1.
</event>
<event>
 5    1  0.2370309E-009  0.9118800E+02  0.7561462E-02  0.1125453E+00
         25   -1    0    0    0    0  0.00000000000E+00  0.00000000000E+00  0.99999998245E-14  0.12509000000E+03  0.12509000000E+03 0.  0.
        -13    1    3    3    0    0 -0.10593057788E+02 -0.31950417680E+02  0.42535843308E+01  0.33928545606E+02  0.10566000000E+00 0.  1.
         23    2    1    0    0    0  0.16420660074E+02  0.19526378866E+02 -0.15392938293E+02  0.95293018640E+02  0.90514635851E+02 0.  0.
         13    1    3    3    0    0  0.27013717862E+02  0.51476796547E+02 -0.19646522624E+02  0.61364473034E+02  0.10566000000E+00 0. -1.
         22    1    1    0    0    0 -0.16420660074E+02 -0.19526378866E+02  0.15392938293E+02  0.29796981360E+02  0.00000000000E+00 0. -1.
</event>
<event>
 5    1  0.2370309E-009  0.9118800E+02  0.7561462E-02  0.1125453E+00
         25   -1    0    0    0    0  0.00000000000E+00  0.00000000000E+00  0.99999998245E-14  0.12509000000E+03  0.12509000000E+03 0.  0.
        -13    1    3    3    0    0 -0.12290568507E+02  0.30146174081E+02 -0.10126440866E+02  0.34094073599E+02  0.10566000000E+00 0. -1.
         23    2    1    0    0    0 -0.37607613761E+01 -0.29210261961E+02  0.30190721377E+01  0.95484299087E+02  0.90778597949E+02 0.  0.
         13    1    3    3    0    0  0.85298071311E+01 -0.59356436042E+02  0.13145513004E+02  0.61390225488E+02  0.10566000000E+00 0.  1.
         22    1    1    0    0    0  0.37607613761E+01  0.29210261961E+02 -0.30190721377E+01  0.29605700913E+02  0.00000000000E+00 0.  1.
</event>
<event>
 5    1  0.2370309E-009  0.9118800E+02  0.7561462E-02  0.1125453E+00
         25   -1    0    0    0    0  0.00000000000E+00  0.00000000000E+00  0.99999998245E-14  0.12509000000E+03  0.12509000000E+03 0.  0.
        -13    1    3    3    0    0  0.52654244852E+00 -0.75649681898E+01  0.46277770879E+02  0.46895087507E+02  0.10566000000E+00 0.  1.
         23    2    1    0    0    0 -0.13519275015E+01 -0.29894984859E+02  0.37964118524E+01  0.94924613036E+02  0.90004064294E+02 0.  0.
         13    1    3    3    0    0 -0.18784699501E+01 -0.22330016670E+02 -0.42481359027E+02  0.48029525530E+02  0.10566000000E+00 0. -1.
         22    1    1    0    0    0  0.13519275015E+01  0.29894984859E+02 -0.37964118524E+01  0.30165386964E+02  0.00000000000E+00 0.  1.
</event>
<event>
 5    1  0.2370309E-009  0.9118800E+02  0.7561462E-02  0.1125453E+00
         25   -1    0    0    0    0  0.00000000000E+00  0.00000000000E+00  0.99999998245E-14  0.12509000000E+03  0.12509000000E+03 0.  0.
        -13    1    3    3    0    0  0.36077522678E+02 -0.38418531788E+02  0.96789813703E+01  0.53584186769E+02  0.10566000000E+00 0.  1.
         23    2    1    0    0    0  0.11292111665E+01 -0.30905532109E+02  0.16593075045E+02  0.89993601720E+02  0.82867914046E+02 0.  0.
         13    1    3    3    0    0 -0.34948311511E+02  0.75129996797E+01  0.69140936745E+01  0.36409414951E+02  0.10566000000E+00 0. -1.
         22    1    1    0    0    0 -0.11292111665E+01  0.30905532109E+02 -0.16593075045E+02  0.35096398280E+02  0.00000000000E+00 0. -1.
</event>
<event>
 5    1  0.2370309E-009  0.9118800E+02  0.7561462E-02  0.1125453E+00
         25   -1    0    0    0    0  0.00000000000E+00  0.00000000000E+00  0.99999998245E-14  0.12509000000E+03  0.12509000000E+03 0.  0.
        -13    1    3    3    0    0 -0.70916193790E+01 -0.68080906274E+01  0.61237616701E+02  0.62021754463E+02  0.10566000000E+00 0. -1.
         23    2    1    0    0    0 -0.88641261557E+01 -0.38449645273E+01  0.27379248039E+02  0.96055887168E+02  0.91562840453E+02 0.  0.
         13    1    3    3    0    0 -0.17725067767E+01  0.29631261001E+01 -0.33858368662E+02  0.34034132705E+02  0.10566000000E+00 0.  1.
         22    1    1    0    0    0  0.88641261557E+01  0.38449645273E+01 -0.27379248039E+02  0.29034112832E+02  0.00000000000E+00 0. -1.
</event>
<event>
 5    1  0.2370309E-009  0.9118800E+02  0.7561462E-02  0.1125453E+00
         25   -1    0    0    0    0  0.00000000000E+00  0.00000000000E+00  0.99999998245E-14  0.12509000000E+03  0.12509000000E+03 0.  0.
        -13    1    3    3    0    0  0.21395511568E+02 -0.10448100027E+02 -0.37549153887E+02  0.44462128054E+02  0.10566000000E+00 0. -1.
         23    2    1    0    0    0  0.82577981387E+01  0.27326468650E+02 -0.48246759923E+01  0.96138236368E+02  0.91675274063E+02 0.  0.
         13    1    3    3    0    0 -0.13137713430E+02  0.37774568677E+02  0.32724477894E+02  0.51676108314E+02  0.10566000000E+00 0.  1.
         22    1    1    0    0    0 -0.82577981387E+01 -0.27326468650E+02  0.48246759923E+01  0.28951763632E+02  0.00000000000E+00 0. -1.
</event>
<event>
 5    1  0.2370309E-009  0.9118800E+02  0.7561462E-02  0.1125453E+00
         25   -1    0    0    0    0  0.00000000000E+00  0.00000000000E+00  0.99999998245E-14  0.12509000000E+03  0.12509000000E+03 0.  0.
        -13    1    3    3    0    0  0.60472746459E+01 -0.27217636437E+02 -0.27885828846E+02  0.39433486763E+02  0.10566000000E+00 0.  1.
         23    2    1    0    0    0  0.29103013629E+01 -0.12530020368E+02  0.26380740272E+02  0.95740132509E+02  0.91130446345E+02 0.  0.
         13    1    3    3    0    0 -0.31369732829E+01  0.14687616069E+02  0.54266569119E+02  0.56306645745E+02  0.10566000000E+00 0. -1.
         22    1    1    0    0    0 -0.29103013629E+01  0.12530020368E+02 -0.26380740272E+02  0.29349867491E+02  0.00000000000E+00 0. -1.
</event>
<event>
 5    1  0.2370309E-009  0.9118800E+02  0.7561462E-02  0.1125453E+00
         25   -1    0    0    0    0  0.00000000000E+00  0.00000000000E+00  0.99999998245E-14  0.12509000000E+03  0.12509000000E+03 0.  0.
        -13    1    3    3    0    0  0.20661633682E+02 -0.99099469991E+01  0.30788659874E+02  0.38380501518E+02  0.10566000000E+00 0.  1.
         23    2    1    0    0    0 -0.27090791756E+02 -0.12920680613E+02  0.37962189402E+00  0.95073352981E+02  0.90210550097E+02 0.  0.
         13    1    3    3    0    0 -0.47752425438E+02 -0.30107336136E+01 -0.30409037980E+02  0.56692851463E+02  0.10566000000E+00 0. -1.
         22    1    1    0    0    0  0.27090791756E+02  0.12920680613E+02 -0.37962189402E+00  0.30016647019E+02  0.00000000000E+00 0. -1.
</event>
<event>
 5    1  0.2370309E-009  0.9118800E+02  0.7561462E-02  0.1125453E+00
         25   -1    0    0    0    0  0.00000000000E+00  0.00000000000E+00  0.99999998245E-14  0.12509000000E+03  0.12509000000E+03 0.  0.
        -13    1    3    3    0    0  0.57635646384E+02 -0.22233537885E+02 -0.66452387074E+01  0.62131862216E+02  0.10566000000E+00 0. -1.
         23    2    1    0    0    0  0.26230486022E+02 -0.15175609053E+02 -0.13272294764E+01  0.94756865556E+02  0.89770621725E+02 0.  0.
         13    1    3    3    0    0 -0.31405160361E+02  0.70579288319E+01  0.53180092310E+01  0.32625003340E+02  0.10566000000E+00 0.  1.
         22    1    1    0    0    0 -0.26230486022E+02  0.15175609053E+02  0.13272294764E+01  0.30333134444E+02  0.00000000000E+00 0. -1.
</event>
<event>
 5    1  0.2370309E-009  0.9118800E+02  0.7561462E-02  0.1125453E+00
         25   -1    0    0    0    0  0.00000000000E+00  0.00000000000E+00  0.99999998245E-14  0.12509000000E+03  0.12509000000E+03 0.  0.
        -13    1    3    3    0    0 -0.30626389590E+02  0.48801860199E+02  0.11159431191E+02  0.58686807434E+02  0.10566000000E+00 0.  1.
         23    2    1    0    0    0 -0.76785590722E+01  0.19327132494E+02  0.19074197344E+02  0.96870798661E+02  0.92669457261E+02 0.  0.
         13    1    3    3    0    0  0.22947830518E+02 -0.29474727705E+02  0.79147661536E+01  0.38183991228E+02  0.10566000000E+00 0. -1.
         22    1    1    0    0    0  0.76785590722E+01 -0.19327132494E+02 -0.19074197344E+02  0.28219201339E+02  0.00000000000E+00 0.  1.
</event>
<event>
 5    1  0.2370309E-009  0.9118800E+02  0.7561462E-02  0.1125453E+00
         25   -1    0    0    0    0  0.00000000000E+00  0.00000000000E+00  0.99999998245E-14  0.12509000000E+03  0.12509000000E+03 0.  0.
        -13    1    3    3    0    0 -0.22907605938E+02 -0.27741441223E+02  0.37243353088E+02  0.51782472751E+02  0.10566000000E+00 0.  1.
         23    2    1    0    0    0 -0.36350885597E+01 -0.28095426177E+02 -0.31956899434E+01  0.96580715984E+02  0.92277057956E+02 0.  0.
         13    1    3    3    0    0  0.19272517379E+02 -0.35398495364E+00 -0.40439043031E+02  0.44798243233E+02  0.10566000000E+00 0. -1.
         22    1    1    0    0    0  0.36350885597E+01  0.28095426177E+02  0.31956899434E+01  0.28509284016E+02  0.00000000000E+00 0.  1.
</event>
<event>
 5    1  0.2370309E-009  0.9118800E+02  0.7561462E-02  0.1125453E+00
         25   -1    0    0    0    0  0.00000000000E+00  0.00000000000E+00  0.99999998245E-14  0.12509000000E+03  0.12509000000E+03 0.  0.
        -13    1    3    3    0    0  0.15096395181E+02 -0.28999381106E+02  0.15642590021E+02  0.36243165406E+02  0.10566000000E+00 0.  1.
         23    2    1    0    0    0 -0.21448127593E+02  0.22230012739E+01 -0.19683127527E+02  0.95894291049E+02  0.91341806610E+02 0.  0.
         13    1    3    3    0    0 -0.36544522773E+02  0.31222382380E+02 -0.35325717548E+02  0.59651125644E+02  0.10566000000E+00 0. -1.
         22    1    1    0    0    0  0.21448127593E+02 -0.22230012739E+01  0.19683127527E+02  0.29195708951E+02  0.00000000000E+00 0. -1.
</event>
<event>
 5    1  0.2370309E-009  0.9118800E+02  0.7561462E-02  0.1125453E+00
         25   -1    0    0    0    0  0.00000000000E+00  0.00000000000E+00  0.99999998245E-14  0.12509000000E+03  0.12509000000E+03 0.  0.
        -13    1    3    3    0    0 -0.31980678624E+02  0.16754827440E+02  0.22377372544E+02  0.42476417149E+02  0.10566000000E+00 0.  1.
         23    2    1    0    0    0 -0.29671831043E+02 -0.11869121779E+02 -0.15143723654E+02  0.89725809420E+02  0.82462687931E+02 0.  0.
         13    1    3    3    0    0  0.23088475807E+01 -0.28623949219E+02 -0.37521096199E+02  0.47249392272E+02  0.10566000000E+00 0. -1.
         22    1    1    0    0    0  0.29671831043E+02  0.11869121779E+02  0.15143723654E+02  0.35364190580E+02  0.00000000000E+00 0.  1.
</event>
<event>
 5    1  0.2370309E-009  0.9118800E+02  0.7561462E-02  0.1125453E+00
         25   -1    0    0    0    0  0.00000000000E+00  0.00000000000E+00  0.99999998245E-14  0.12509000000E+03  0.12509000000E+03 0.  0.
        -13    1    3    3    0    0  0.55459644893E+02  0.24788113853E+02 -0.11482436303E+02  0.61822975563E+02  0.10566000000E+00 0.  1.
         23    2    1    0    0    0  0.22665493688E+02  0.15882306151E+02 -0.93701299918E+01  0.95870629903E+02  0.91309397595E+02 0.  0.
         13    1    3    3    0    0 -0.32794151204E+02 -0.89058077017E+01  0.21123063110E+01  0.34047654340E+02  0.10566000000E+00 0. -1.
         22    1    1    0    0    0 -0.22665493688E+02 -0.15882306151E+02  0.93701299918E+01  0.29219370097E+02  0.00000000000E+00 0.  1.
</event>
<event>
 5    1  0.2370309E-009  0.9118800E+02  0.7561462E-02  0.1125453E+00
         25   -1    0    0    0    0  0.00000000000E+00  0.00000000000E+00  0.99999998245E-14  0.12509000000E+03  0.12509000000E+03 0.  0.
        -13    1    3    3    0    0  0.82553096623E+01  0.37651918232E+02  0.14856873498E+01  0.38575063385E+02  0.10566000000E+00 0.  1.
         23    2    1    0    0    0  0.20120362939E+02 -0.17095604567E+02  0.12837140284E+02  0.95732192334E+02  0.91119546630E+02 0.  0.
         13    1    3    3    0    0  0.11865053276E+02 -0.54747522800E+02  0.11351452934E+02  0.57157128949E+02  0.10566000000E+00 0. -1.
         22    1    1    0    0    0 -0.20120362939E+02  0.17095604567E+02 -0.12837140284E+02  0.29357807666E+02  0.00000000000E+00 0. -1.
</event>
<event>
 5    1  0.2370309E-009  0.9118800E+02  0.7561462E-02  0.1125453E+00
         25   -1    0    0    0    0  0.00000000000E+00  0.00000000000E+00  0.99999998245E-14  0.12509000000E+03  0.12509000000E+03 0.  0.
        -13    1    3    3    0    0 -0.31890855744E+02  0.26336979593E+01  0.27849469407E+02  0.42421305441E+02  0.10566000000E+00 0. -1.
         23    2    1    0    0    0  0.73974989115E+01 -0.27290996722E+02  0.74999208420E+01  0.95836447996E+02  0.91262557818E+02 0.  0.
         13    1    3    3    0    0  0.39288354655E+02 -0.29924694681E+02 -0.20349548565E+02  0.53415142555E+02  0.10566000000E+00 0.  1.
         22    1    1    0    0    0 -0.73974989115E+01  0.27290996722E+02 -0.74999208420E+01  0.29253552004E+02  0.00000000000E+00 0.  1.
</event>
<event>
 5    1  0.2370309E-009  0.9118800E+02  0.7561462E-02  0.1125453E+00
         25   -1    0    0    0    0  0.00000000000E+00  0.00000000000E+00  0.99999998245E-14  0.12509000000E+03  0.12509000000E+03 0.  0.
        -13    1    3    3    0    0 -0.57622856544E+02  0.13272196489E+02  0.11368311165E+02  0.60214570153E+02  0.10566000000E+00 0.  1.
         23    2    1    0    0    0 -0.21216269679E+02  0.16593088697E+02  0.13430292937E+01  0.98122159537E+02  0.94343488238E+02 0.  0.
         13    1    3    3    0    0  0.36406586865E+02  0.33208922079E+01 -0.10025281871E+02  0.37907589384E+02  0.10566000000E+00 0. -1.
         22    1    1    0    0    0  0.21216269679E+02 -0.16593088697E+02 -0.13430292937E+01  0.26967840463E+02  0.00000000000E+00 0.  1.
</event>
<event>
 5    1  0.2370309E-009  0.9118800E+02  0.7561462E-02  0.1125453E+00
         25   -1    0    0    0    0  0.00000000000E+00  0.00000000000E+00  0.99999998245E-14  0.12509000000E+03  0.12509000000E+03 0.  0.
        -13    1    3    3    0    0 -0.78088166242E+01  0.34272254193E+02 -0.28606181754E+01  0.35266972154E+02  0.10566000000E+00 0.  1.
         23    2    1    0    0    0 -0.27131205901E+01 -0.22821176351E+02 -0.19496041759E+02  0.94952602009E+02  0.90042955697E+02 0.  0.
         13    1    3    3    0    0  0.50956960341E+01 -0.57093430544E+02 -0.16635423584E+02  0.59685629855E+02  0.10566000000E+00 0. -1.
         22    1    1    0    0    0  0.27131205901E+01  0.22821176351E+02  0.19496041759E+02  0.30137397991E+02  0.00000000000E+00 0. -1.
</event>
<event>
 5    1  0.2370309E-009  0.9118800E+02  0.7561462E-02  0.1125453E+00
         25   -1    0    0    0    0  0.00000000000E+00  0.00000000000E+00  0.99999998245E-14  0.12509000000E+03  0.12509000000E+03 0.  0.
        -13    1    3    3    0    0  0.30240298081E+02 -0.10769571478E+02  0.57895863200E+01  0.32618856075E+02  0.10566000000E+00 0. -1.
         23    2    1    0    0    0 -0.21602952594E+02  0.22099617352E+02  0.20592205493E+01  0.94117091885E+02  0.88874664262E+02 0.  0.
         13    1    3    3    0    0 -0.51843250675E+02  0.32869188830E+02 -0.37303657707E+01  0.61498235809E+02  0.10566000000E+00 0.  1.
         22    1    1    0    0    0  0.21602952594E+02 -0.22099617352E+02 -0.20592205493E+01  0.30972908115E+02  0.00000000000E+00 0.  1.
</event>
<event>
 5    1  0.2370309E-009  0.9118800E+02  0.7561462E-02  0.1125453E+00
         25   -1    0    0    0    0  0.00000000000E+00  0.00000000000E+00  0.99999998245E-14  0.12509000000E+03  0.12509000000E+03 0.  0.
        -13    1    3    3    0    0  0.71956920831E+01 -0.26787179618E+02  0.22075047814E+02  0.35449257770E+02  0.10566000000E+00 0. -1.
         23    2    1    0    0    0 -0.21762817130E+02  0.18129853446E+02 -0.64665325953E+01  0.96036121787E+02  0.91535833686E+02 0.  0.
         13    1    3    3    0    0 -0.28958509213E+02  0.44917033064E+02 -0.28541580409E+02  0.60586864017E+02  0.10566000000E+00 0.  1.
         22    1    1    0    0    0  0.21762817130E+02 -0.18129853446E+02  0.64665325953E+01  0.29053878213E+02  0.00000000000E+00 0.  1.
</event>
<event>
 5    1  0.2370309E-009  0.9118800E+02  0.7561462E-02  0.1125453E+00
         25   -1    0    0    0    0  0.00000000000E+00  0.00000000000E+00  0.99999998245E-14  0.12509000000E+03  0.12509000000E+03 0.  0.
        -13    1    3    3    0    0 -0.47273156926E+02  0.23663613794E+02 -0.31502930875E+02  0.61539936637E+02  0.10566000000E+00 0. -1.
         23    2    1    0    0    0 -0.23981692539E+02  0.36915953011E+01 -0.16904496564E+02  0.95517860122E+02  0.90824832206E+02 0.  0.
         13    1    3    3    0    0  0.23291464386E+02 -0.19972018493E+02  0.14598434312E+02  0.33977923485E+02  0.10566000000E+00 0.  1.
         22    1    1    0    0    0  0.23981692539E+02 -0.36915953011E+01  0.16904496564E+02  0.29572139878E+02  0.00000000000E+00 0. -1.
</event>
<event>
 5    1  0.2370309E-009  0.9118800E+02  0.7561462E-02  0.1125453E+00
         25   -1    0    0    0    0  0.00000000000E+00  0.00000000000E+00  0.99999998245E-14  0.12509000000E+03  0.12509000000E+03 0.  0.
        -13    1    3    3    0    0 -0.29062354402E+02  0.83182559895E+01 -0.22616662743E+02  0.37753654442E+02  0.10566000000E+00 0.  1.
         23    2    1    0    0    0 -0.58697763968E+01 -0.45846377318E+01  0.28652607494E+02  0.95485184610E+02  0.90779818163E+02 0.  0.
         13    1    3    3    0    0  0.23192578005E+02 -0.12902893721E+02  0.51269270236E+02  0.57731530168E+02  0.10566000000E+00 0. -1.
         22    1    1    0    0    0  0.58697763968E+01  0.45846377318E+01 -0.28652607494E+02  0.29604815390E+02  0.00000000000E+00 0. -1.
</event>
<event>
 5    1  0.2370309E-009  0.9118800E+02  0.7561462E-02  0.1125453E+00
         25   -1    0    0    0    0  0.00000000000E+00  0.00000000000E+00  0.99999998245E-14  0.12509000000E+03  0.12509000000E+03 0.  0.
        -13    1    3    3    0    0 -0.47826532246E+02 -0.11987493498E+02  0.14402069463E+02  0.51366408828E+02  0.10566000000E+00 0.  1.
         23    2    1    0    0    0 -0.19794230525E+02  0.20052440791E+02 -0.16526837739E+01  0.96865129630E+02  0.92661804595E+02 0.  0.
         13    1    3    3    0    0  0.28032301722E+02  0.32039934289E+02 -0.16054753237E+02  0.45498720802E+02  0.10566000000E+00 0. -1.
         22    1    1    0    0    0  0.19794230525E+02 -0.20052440791E+02  0.16526837739E+01  0.28224870370E+02  0.00000000000E+00 0.  1.
</event>
<event>
 5    1  0.2370309E-009  0.9118800E+02  0.7561462E-02  0.1125453E+00
         25   -1    0    0    0    0  0.00000000000E+00  0.00000000000E+00  0.99999998245E-14  0.12509000000E+03  0.12509000000E+03 0.  0.
        -13    1    3    3    0    0 -0.39854506981E+02 -0.58011094949E+01 -0.30500631053E+02  0.50520631990E+02  0.10566000000E+00 0.  1.
         23    2    1    0    0    0  0.21361444108E+01 -0.18810005463E+02 -0.23304334788E+02  0.95065486043E+02  0.90199640788E+02 0.  0.
         13    1    3    3    0    0  0.41990651391E+02 -0.13008895968E+02  0.71962962652E+01  0.44544854053E+02  0.10566000000E+00 0. -1.
         22    1    1    0    0    0 -0.21361444108E+01  0.18810005463E+02  0.23304334788E+02  0.30024513957E+02  0.00000000000E+00 0.  1.
</event>
<event>
 5    1  0.2370309E-009  0.9118800E+02  0.7561462E-02  0.1125453E+00
         25   -1    0    0    0    0  0.00000000000E+00  0.00000000000E+00  0.99999998245E-14  0.12509000000E+03  0.12509000000E+03 0.  0.
        -13    1    3    3    0    0  0.19884416937E+02 -0.10197480083E+02 -0.57979582289E+02  0.62137120656E+02  0.10566000000E+00 0. -1.
         23    2    1    0    0    0  0.79008039307E+01 -0.22061265021E-01 -0.28102247173E+02  0.95898229145E+02  0.91347199560E+02 0.  0.
         13    1    3    3    0    0 -0.11983613006E+02  0.10175418818E+02  0.29877335115E+02  0.33761108489E+02  0.10566000000E+00 0.  1.
         22    1    1    0    0    0 -0.79008039307E+01  0.22061265021E-01  0.28102247173E+02  0.29191770855E+02  0.00000000000E+00 0. -1.
</event>
<event>
 5    1  0.2370309E-009  0.9118800E+02  0.7561462E-02  0.1125453E+00
         25   -1    0    0    0    0  0.00000000000E+00  0.00000000000E+00  0.99999998245E-14  0.12509000000E+03  0.12509000000E+03 0.  0.
        -13    1    3    3    0    0 -0.15318691923E+02 -0.43687511696E+02  0.14981066478E+02  0.48659064082E+02  0.10566000000E+00 0. -1.
         23    2    1    0    0    0 -0.21372311057E+02  0.38853267838E+01  0.18238363932E+02  0.96726125740E+02  0.92473964106E+02 0.  0.
         13    1    3    3    0    0 -0.60536191345E+01  0.47572838480E+02  0.32572974540E+01  0.48067061658E+02  0.10566000000E+00 0.  1.
         22    1    1    0    0    0  0.21372311057E+02 -0.38853267838E+01 -0.18238363932E+02  0.28363874260E+02  0.00000000000E+00 0.  1.
</event>
<event>
 5    1  0.2370309E-009  0.9118800E+02  0.7561462E-02  0.1125453E+00
         25   -1    0    0    0    0  0.00000000000E+00  0.00000000000E+00  0.99999998245E-14  0.12509000000E+03  0.12509000000E+03 0.  0.
        -13    1    3    3    0    0 -0.14891253271E+02 -0.30830950479E+02  0.92329228387E+01  0.35462021369E+02  0.10566000000E+00 0.  1.
         23    2    1    0    0    0 -0.29109528380E+01  0.16731601234E+02 -0.24707706030E+02  0.95108491306E+02  0.90259261326E+02 0.  0.
         13    1    3    3    0    0  0.11980300433E+02  0.47562551713E+02 -0.33940628869E+02  0.59646469937E+02  0.10566000000E+00 0. -1.
         22    1    1    0    0    0  0.29109528380E+01 -0.16731601234E+02  0.24707706030E+02  0.29981508694E+02  0.00000000000E+00 0. -1.
</event>
<event>
 5    1  0.2370309E-009  0.9118800E+02  0.7561462E-02  0.1125453E+00
         25   -1    0    0    0    0  0.00000000000E+00  0.00000000000E+00  0.99999998245E-14  0.12509000000E+03  0.12509000000E+03 0.  0.
        -13    1    3    3    0    0 -0.33650966638E+02 -0.46797695226E+02 -0.16584663732E+02  0.59978946884E+02  0.10566000000E+00 0. -1.
         23    2    1    0    0    0 -0.25723953242E+02 -0.27846128286E+02  0.12157601871E+01  0.87161030811E+02  0.78475719737E+02 0.  0.
         13    1    3    3    0    0  0.79270133959E+01  0.18951566940E+02  0.17800423919E+02  0.27182083927E+02  0.10566000000E+00 0.  1.
         22    1    1    0    0    0  0.25723953242E+02  0.27846128286E+02 -0.12157601871E+01  0.37928969189E+02  0.00000000000E+00 0. -1.
</event>
<event>
 5    1  0.2370309E-009  0.9118800E+02  0.7561462E-02  0.1125453E+00
         25   -1    0    0    0    0  0.00000000000E+00  0.00000000000E+00  0.99999998245E-14  0.12509000000E+03  0.12509000000E+03 0.  0.
        -13    1    3    3    0    0 -0.22626598398E+01  0.55029257440E+02 -0.14080227142E+02  0.56847187832E+02  0.10566000000E+00 0.  1.
         23    2    1    0    0    0  0.15400414503E+02  0.25264344467E+02  0.28265767637E+01  0.95367123214E+02  0.90616989498E+02 0.  0.
         13    1    3    3    0    0  0.17663074343E+02 -0.29764912973E+02  0.16906803906E+02  0.38519935382E+02  0.10566000000E+00 0. -1.
         22    1    1    0    0    0 -0.15400414503E+02 -0.25264344467E+02 -0.28265767637E+01  0.29722876786E+02  0.00000000000E+00 0.  1.
</event>
<event>
 5    1  0.2370309E-009  0.9118800E+02  0.7561462E-02  0.1125453E+00
         25   -1    0    0    0    0  0.00000000000E+00  0.00000000000E+00  0.99999998245E-14  0.12509000000E+03  0.12509000000E+03 0.  0.
        -13    1    3    3    0    0 -0.41436804435E+02 -0.19254105124E+02 -0.29112929788E+02  0.54178438246E+02  0.10566000000E+00 0. -1.
         23    2    1    0    0    0 -0.22866855075E+01  0.11416140052E+01 -0.26571423545E+02  0.98395941441E+02  0.94705799873E+02 0.  0.
         13    1    3    3    0    0  0.39150118927E+02  0.20395719129E+02  0.25415062427E+01  0.44217503195E+02  0.10566000000E+00 0.  1.
         22    1    1    0    0    0  0.22866855075E+01 -0.11416140052E+01  0.26571423545E+02  0.26694058559E+02  0.00000000000E+00 0.  1.
</event>
<event>
 5    1  0.2370309E-009  0.9118800E+02  0.7561462E-02  0.1125453E+00
         25   -1    0    0    0    0  0.00000000000E+00  0.00000000000E+00  0.99999998245E-14  0.12509000000E+03  0.12509000000E+03 0.  0.
        -13    1    3    3    0    0  0.37419116003E+02  0.41935032656E+02 -0.19736749980E+02  0.59567505152E+02  0.10566000000E+00 0. -1.
         23    2    1    0    0    0  0.34489712431E+02  0.21456922903E+02 -0.69693888570E+01  0.83876990099E+02  0.73053660299E+02 0.  0.
         13    1    3    3    0    0 -0.29294035716E+01 -0.20478109752E+02  0.12767361123E+02  0.24309484947E+02  0.10566000000E+00 0.  1.
         22    1    1    0    0    0 -0.34489712431E+02 -0.21456922903E+02  0.69693888570E+01  0.41213009901E+02  0.00000000000E+00 0. -1.
</event>
<event>
 5    1  0.2370309E-009  0.9118800E+02  0.7561462E-02  0.1125453E+00
         25   -1    0    0    0    0  0.00000000000E+00  0.00000000000E+00  0.99999998245E-14  0.12509000000E+03  0.12509000000E+03 0.  0.
        -13    1    3    3    0    0  0.14380766028E+02  0.41778182505E+02 -0.13521066948E+02  0.46206637839E+02  0.10566000000E+00 0.  1.
         23    2    1    0    0    0  0.26760878489E+02 -0.64025241222E+01 -0.89166156764E+01  0.96165218795E+02  0.91712083927E+02 0.  0.
         13    1    3    3    0    0  0.12380112461E+02 -0.48180706627E+02  0.46044512717E+01  0.49958580956E+02  0.10566000000E+00 0. -1.
         22    1    1    0    0    0 -0.26760878489E+02  0.64025241222E+01  0.89166156764E+01  0.28924781205E+02  0.00000000000E+00 0. -1.
</event>
<event>
 5    1  0.2370309E-009  0.9118800E+02  0.7561462E-02  0.1125453E+00
         25   -1    0    0    0    0  0.00000000000E+00  0.00000000000E+00  0.99999998245E-14  0.12509000000E+03  0.12509000000E+03 0.  0.
        -13    1    3    3    0    0 -0.96433025598E+01 -0.32546918547E+02 -0.48090990672E+02  0.58864673099E+02  0.10566000000E+00 0.  1.
         23    2    1    0    0    0 -0.29880530402E+01 -0.25790458184E+02 -0.11448104782E+02  0.96715093879E+02  0.92459040048E+02 0.  0.
         13    1    3    3    0    0  0.66552495196E+01  0.67564603631E+01  0.36642885890E+02  0.37850420780E+02  0.10566000000E+00 0. -1.
         22    1    1    0    0    0  0.29880530402E+01  0.25790458184E+02  0.11448104782E+02  0.28374906121E+02  0.00000000000E+00 0.  1.
</event>
<event>
 5    1  0.2370309E-009  0.9118800E+02  0.7561462E-02  0.1125453E+00
         25   -1    0    0    0    0  0.00000000000E+00  0.00000000000E+00  0.99999998245E-14  0.12509000000E+03  0.12509000000E+03 0.  0.
        -13    1    3    3    0    0  0.43398563227E+02  0.18432475569E+02  0.36420651970E+01  0.47291302041E+02  0.10566000000E+00 0. -1.
         23    2    1    0    0    0  0.95138471728E+01 -0.32275137876E+01 -0.25977275375E+02  0.97237729551E+02  0.93163442825E+02 0.  0.
         13    1    3    3    0    0 -0.33884716055E+02 -0.21659989357E+02 -0.29619340572E+02  0.49946427510E+02  0.10566000000E+00 0.  1.
         22    1    1    0    0    0 -0.95138471728E+01  0.32275137876E+01  0.25977275375E+02  0.27852270449E+02  0.00000000000E+00 0. -1.
</event>
<event>
 5    1  0.2370309E-009  0.9118800E+02  0.7561462E-02  0.1125453E+00
         25   -1    0    0    0    0  0.00000000000E+00  0.00000000000E+00  0.99999998245E-14  0.12509000000E+03  0.12509000000E+03 0.  0.
        -13    1    3    3    0    0 -0.13187374849E+02 -0.36451119244E+02 -0.20848334726E+02  0.44014261034E+02  0.10566000000E+00 0.  1.
         23    2    1    0    0    0  0.22333275713E+02  0.35436478931E+01  0.24221191010E+01  0.10234798370E+03  0.99789330402E+02 0.  0.
         13    1    3    3    0    0  0.35520650562E+02  0.39994767137E+02  0.23270453827E+02  0.58333722665E+02  0.10566000000E+00 0. -1.
         22    1    1    0    0    0 -0.22333275713E+02 -0.35436478931E+01 -0.24221191010E+01  0.22742016300E+02  0.00000000000E+00 0. -1.
</event>
<event>
 5    1  0.2370309E-009  0.9118800E+02  0.7561462E-02  0.1125453E+00
         25   -1    0    0    0    0  0.00000000000E+00  0.00000000000E+00  0.99999998245E-14  0.12509000000E+03  0.12509000000E+03 0.  0.
        -13    1    3    3    0    0  0.20263416828E+02 -0.21618848053E+02  0.31620806071E+02  0.43334365039E+02  0.10566000000E+00 0.  1.
         23    2    1    0    0    0  0.20900866896E+02  0.21155149802E+02  0.21667625478E+01  0.95272530957E+02  0.90486317722E+02 0.  0.
         13    1    3    3    0    0  0.63745006791E+00  0.42773997855E+02 -0.29454043523E+02  0.51938165919E+02  0.10566000000E+00 0. -1.
         22    1    1    0    0    0 -0.20900866896E+02 -0.21155149802E+02 -0.21667625478E+01  0.29817469043E+02  0.00000000000E+00 0. -1.
</event>
<event>
 5    1  0.2370309E-009  0.9118800E+02  0.7561462E-02  0.1125453E+00
         25   -1    0    0    0    0  0.00000000000E+00  0.00000000000E+00  0.99999998245E-14  0.12509000000E+03  0.12509000000E+03 0.  0.
        -13    1    3    3    0    0  0.24656847332E+02 -0.21450065913E+02  0.17928261540E+02  0.37275986558E+02  0.10566000000E+00 0.  1.
         23    2    1    0    0    0 -0.25729006332E+02 -0.67699924953E+01 -0.99298592756E+01  0.96692523519E+02  0.92428499036E+02 0.  0.
         13    1    3    3    0    0 -0.50385853664E+02  0.14680073418E+02 -0.27858120815E+02  0.59416536961E+02  0.10566000000E+00 0. -1.
         22    1    1    0    0    0  0.25729006332E+02  0.67699924953E+01  0.99298592756E+01  0.28397476481E+02  0.00000000000E+00 0. -1.
</event>
<event>
 5    1  0.2370309E-009  0.9118800E+02  0.7561462E-02  0.1125453E+00
         25   -1    0    0    0    0  0.00000000000E+00  0.00000000000E+00  0.99999998245E-14  0.12509000000E+03  0.12509000000E+03 0.  0.
        -13    1    3    3    0    0 -0.15002794790E+02 -0.18744659175E+02  0.45972348858E+02  0.51864382024E+02  0.10566000000E+00 0.  1.
         23    2    1    0    0    0  0.80754534227E+01 -0.28204358335E+02  0.13539720473E+02  0.92778658221E+02  0.86970435286E+02 0.  0.
         13    1    3    3    0    0  0.23078248213E+02 -0.94596991598E+01 -0.32432628385E+02  0.40914276198E+02  0.10566000000E+00 0. -1.
         22    1    1    0    0    0 -0.80754534227E+01  0.28204358335E+02 -0.13539720473E+02  0.32311341779E+02  0.00000000000E+00 0.  1.
</event>
<event>
 5    1  0.2370309E-009  0.9118800E+02  0.7561462E-02  0.1125453E+00
         25   -1    0    0    0    0  0.00000000000E+00  0.00000000000E+00  0.99999998245E-14  0.12509000000E+03  0.12509000000E+03 0.  0.
        -13    1    3    3    0    0  0.62048594539E+02 -0.39890596909E+01 -0.39414935571E+01  0.62301582781E+02  0.10566000000E+00 0.  1.
         23    2    1    0    0    0  0.29095814227E+02  0.56530908449E+00  0.12062566690E+01  0.95963705436E+02  0.91436818218E+02 0.  0.
         13    1    3    3    0    0 -0.32952780312E+02  0.45543687754E+01  0.51477502260E+01  0.33662122655E+02  0.10566000000E+00 0. -1.
         22    1    1    0    0    0 -0.29095814227E+02 -0.56530908449E+00 -0.12062566690E+01  0.29126294564E+02  0.00000000000E+00 0.  1.
</event>
<event>
 5    1  0.2370309E-009  0.9118800E+02  0.7561462E-02  0.1125453E+00
         25   -1    0    0    0    0  0.00000000000E+00  0.00000000000E+00  0.99999998245E-14  0.12509000000E+03  0.12509000000E+03 0.  0.
        -13    1    3    3    0    0 -0.19386843989E+02  0.29270599955E+02 -0.17230702217E+02  0.39109154996E+02  0.10566000000E+00 0. -1.
         23    2    1    0    0    0  0.28335028210E+02  0.10795069678E+02  0.39874662678E+01  0.94507206795E+02  0.89422060454E+02 0.  0.
         13    1    3    3    0    0  0.47721872199E+02 -0.18475530277E+02  0.21218168485E+02  0.55398051799E+02  0.10566000000E+00 0.  1.
         22    1    1    0    0    0 -0.28335028210E+02 -0.10795069678E+02 -0.39874662678E+01  0.30582793205E+02  0.00000000000E+00 0.  1.
</event>
<event>
 5    1  0.2370309E-009  0.9118800E+02  0.7561462E-02  0.1125453E+00
         25   -1    0    0    0    0  0.00000000000E+00  0.00000000000E+00  0.99999998245E-14  0.12509000000E+03  0.12509000000E+03 0.  0.
        -13    1    3    3    0    0  0.28602253751E+02  0.17898772142E+02  0.48836618933E+02  0.59358920784E+02  0.10566000000E+00 0. -1.
         23    2    1    0    0    0  0.36593711168E+01  0.18684445970E+02  0.21202756493E+02  0.96593396675E+02  0.92294246192E+02 0.  0.
         13    1    3    3    0    0 -0.24942882634E+02  0.78567382722E+00 -0.27633862440E+02  0.37234475890E+02  0.10566000000E+00 0.  1.
         22    1    1    0    0    0 -0.36593711168E+01 -0.18684445970E+02 -0.21202756493E+02  0.28496603325E+02  0.00000000000E+00 0. -1.
</event>
<event>
 5    1  0.2370309E-009  0.9118800E+02  0.7561462E-02  0.1125453E+00
         25   -1    0    0    0    0  0.00000000000E+00  0.00000000000E+00  0.99999998245E-14  0.12509000000E+03  0.12509000000E+03 0.  0.
        -13    1    3    3    0    0  0.27710641393E+02 -0.12843192909E+02 -0.50699991295E+02  0.59188913927E+02  0.10566000000E+00 0.  1.
         23    2    1    0    0    0  0.90462313060E+00  0.25245730956E+00 -0.28987103914E+02  0.96087685075E+02  0.91606271357E+02 0.  0.
         13    1    3    3    0    0 -0.26806018263E+02  0.13095650218E+02  0.21712887381E+02  0.36898771147E+02  0.10566000000E+00 0. -1.
         22    1    1    0    0    0 -0.90462313060E+00 -0.25245730956E+00  0.28987103914E+02  0.29002314925E+02  0.00000000000E+00 0.  1.
</event>
<event>
 5    1  0.2370309E-009  0.9118800E+02  0.7561462E-02  0.1125453E+00
         25   -1    0    0    0    0  0.00000000000E+00  0.00000000000E+00  0.99999998245E-14  0.12509000000E+03  0.12509000000E+03 0.  0.
        -13    1    3    3    0    0  0.38307082109E+02 -0.43656322332E+02 -0.94117001910E+01  0.58837898363E+02  0.10566000000E+00 0.  1.
         23    2    1    0    0    0  0.26677994399E+02 -0.96233145313E+01  0.22340430234E+01  0.96641546335E+02  0.92359482253E+02 0.  0.
         13    1    3    3    0    0 -0.11629087710E+02  0.34033007801E+02  0.11645743214E+02  0.37803647972E+02  0.10566000000E+00 0. -1.
         22    1    1    0    0    0 -0.26677994399E+02  0.96233145313E+01 -0.22340430234E+01  0.28448453665E+02  0.00000000000E+00 0.  1.
</event>
<event>
 5    1  0.2370309E-009  0.9118800E+02  0.7561462E-02  0.1125453E+00
         25   -1    0    0    0    0  0.00000000000E+00  0.00000000000E+00  0.99999998245E-14  0.12509000000E+03  0.12509000000E+03 0.  0.
        -13    1    3    3    0    0  0.33840300637E+02  0.74622692318E+01  0.28352705739E+02  0.44774306204E+02  0.10566000000E+00 0. -1.
         23    2    1    0    0    0 -0.13497364705E+01  0.30195492048E+02  0.92176870841E+00  0.94850304464E+02  0.89900728978E+02 0.  0.
         13    1    3    3    0    0 -0.35190037108E+02  0.22733222816E+02 -0.27430937031E+02  0.50075998259E+02  0.10566000000E+00 0.  1.
         22    1    1    0    0    0  0.13497364705E+01 -0.30195492048E+02 -0.92176870841E+00  0.30239695536E+02  0.00000000000E+00 0. -1.
</event>
<event>
 5    1  0.2370309E-009  0.9118800E+02  0.7561462E-02  0.1125453E+00
         25   -1    0    0    0    0  0.00000000000E+00  0.00000000000E+00  0.99999998245E-14  0.12509000000E+03  0.12509000000E+03 0.  0.
        -13    1    3    3    0    0  0.27213997338E+02  0.18603064579E+02  0.37916303165E+02  0.50242739502E+02  0.10566000000E+00 0.  1.
         23    2    1    0    0    0  0.19485895243E+02  0.19971171799E+02 -0.73912773804E+01  0.96225163299E+02  0.91793808365E+02 0.  0.
         13    1    3    3    0    0 -0.77281020948E+01  0.13681072198E+01 -0.45307580546E+02  0.45982423798E+02  0.10566000000E+00 0. -1.
         22    1    1    0    0    0 -0.19485895243E+02 -0.19971171799E+02  0.73912773804E+01  0.28864836701E+02  0.00000000000E+00 0.  1.
</event>
<event>
 5    1  0.2370309E-009  0.9118800E+02  0.7561462E-02  0.1125453E+00
         25   -1    0    0    0    0  0.00000000000E+00  0.00000000000E+00  0.99999998245E-14  0.12509000000E+03  0.12509000000E+03 0.  0.
        -13    1    3    3    0    0  0.33573739226E+01 -0.28482431753E+02  0.48849573188E+02  0.56646384200E+02  0.10566000000E+00 0.  1.
         23    2    1    0    0    0  0.18441168017E+02 -0.35332920566E+01  0.18497273945E+02  0.98732648578E+02  0.95149492491E+02 0.  0.
         13    1    3    3    0    0  0.15083794095E+02  0.24949139697E+02 -0.30352299243E+02  0.42086264378E+02  0.10566000000E+00 0. -1.
         22    1    1    0    0    0 -0.18441168017E+02  0.35332920566E+01 -0.18497273945E+02  0.26357351422E+02  0.00000000000E+00 0.  1.
</event>
<event>
 5    1  0.2370309E-009  0.9118800E+02  0.7561462E-02  0.1125453E+00
         25   -1    0    0    0    0  0.00000000000E+00  0.00000000000E+00  0.99999998245E-14  0.12509000000E+03  0.12509000000E+03 0.  0.
        -13    1    3    3    0    0 -0.33262559781E+02  0.30153577845E+02  0.17205412134E+02  0.48079865961E+02  0.10566000000E+00 0.  1.
         23    2    1    0    0    0 -0.25040751748E+02 -0.75193232632E+01 -0.11873155443E+02  0.96374998858E+02  0.91997766898E+02 0.  0.
         13    1    3    3    0    0  0.82218080339E+01 -0.37672901108E+02 -0.29078567576E+02  0.48295132897E+02  0.10566000000E+00 0. -1.
         22    1    1    0    0    0  0.25040751748E+02  0.75193232632E+01  0.11873155443E+02  0.28715001142E+02  0.00000000000E+00 0. -1.
</event>
<event>
 5    1  0.2370309E-009  0.9118800E+02  0.7561462E-02  0.1125453E+00
         25   -1    0    0    0    0  0.00000000000E+00  0.00000000000E+00  0.99999998245E-14  0.12509000000E+03  0.12509000000E+03 0.  0.
        -13    1    3    3    0    0 -0.33733353089E+02  0.27020279256E+02 -0.39857788385E+02  0.58793614115E+02  0.10566000000E+00 0. -1.
         23    2    1    0    0    0 -0.17430801517E+02 -0.13694654634E+01 -0.24592534936E+02  0.94915490033E+02  0.89991384013E+02 0.  0.
         13    1    3    3    0    0  0.16302551572E+02 -0.28389744719E+02  0.15265253450E+02  0.36121875919E+02  0.10566000000E+00 0.  1.
         22    1    1    0    0    0  0.17430801517E+02  0.13694654634E+01  0.24592534936E+02  0.30174509967E+02  0.00000000000E+00 0. -1.
</event>
<event>
 5    1  0.2370309E-009  0.9118800E+02  0.7561462E-02  0.1125453E+00
         25   -1    0    0    0    0  0.00000000000E+00  0.00000000000E+00  0.99999998245E-14  0.12509000000E+03  0.12509000000E+03 0.  0.
        -13    1    3    3    0    0 -0.46060488798E+02 -0.37703010679E+01 -0.21184930251E+02  0.50838924381E+02  0.10566000000E+00 0.  1.
         23    2    1    0    0    0 -0.22376850923E+02  0.98590240699E+01  0.15166898591E+02  0.96315729797E+02  0.91917143018E+02 0.  0.
         13    1    3    3    0    0  0.23683637875E+02  0.13629325138E+02  0.36351828842E+02  0.45476805416E+02  0.10566000000E+00 0. -1.
         22    1    1    0    0    0  0.22376850923E+02 -0.98590240699E+01 -0.15166898591E+02  0.28774270203E+02  0.00000000000E+00 0.  1.
</event>
<event>
 5    1  0.2370309E-009  0.9118800E+02  0.7561462E-02  0.1125453E+00
         25   -1    0    0    0    0  0.00000000000E+00  0.00000000000E+00  0.99999998245E-14  0.12509000000E+03  0.12509000000E+03 0.  0.
        -13    1    3    3    0    0  0.45164866584E+02  0.22310768843E+02 -0.96630810783E+00  0.50384327874E+02  0.10566000000E+00 0.  1.
         23    2    1    0    0    0  0.11111336172E+02  0.82680999539E+01 -0.26489526091E+02  0.95198224193E+02  0.90383536269E+02 0.  0.
         13    1    3    3    0    0 -0.34053530412E+02 -0.14042668889E+02 -0.25523217984E+02  0.44813896319E+02  0.10566000000E+00 0. -1.
         22    1    1    0    0    0 -0.11111336172E+02 -0.82680999539E+01  0.26489526091E+02  0.29891775807E+02  0.00000000000E+00 0.  1.
</event>
<event>
 5    1  0.2370309E-009  0.9118800E+02  0.7561462E-02  0.1125453E+00
         25   -1    0    0    0    0  0.00000000000E+00  0.00000000000E+00  0.99999998245E-14  0.12509000000E+03  0.12509000000E+03 0.  0.
        -13    1    3    3    0    0 -0.13707660321E+02  0.36180323640E+02 -0.98991401172E+01  0.39936448380E+02  0.10566000000E+00 0.  1.
         23    2    1    0    0    0  0.17825401412E+02 -0.80901710921E+01 -0.22022657368E+02  0.95624880937E+02  0.90972108984E+02 0.  0.
         13    1    3    3    0    0  0.31533061734E+02 -0.44270494732E+02 -0.12123517251E+02  0.55688432557E+02  0.10566000000E+00 0. -1.
         22    1    1    0    0    0 -0.17825401412E+02  0.80901710921E+01  0.22022657368E+02  0.29465119063E+02  0.00000000000E+00 0. -1.
</event>
<event>
 5    1  0.2370309E-009  0.9118800E+02  0.7561462E-02  0.1125453E+00
         25   -1    0    0    0    0  0.00000000000E+00  0.00000000000E+00  0.99999998245E-14  0.12509000000E+03  0.12509000000E+03 0.  0.
        -13    1    3    3    0    0  0.23386476962E+02 -0.51321071204E+01  0.25643074552E+02  0.35083390154E+02  0.10566000000E+00 0. -1.
         23    2    1    0    0    0 -0.12657226278E+02  0.21956869429E+02 -0.14875652887E+02  0.95703020894E+02  0.91079490926E+02 0.  0.
         13    1    3    3    0    0 -0.36043703240E+02  0.27088976549E+02 -0.40518727439E+02  0.60619630740E+02  0.10566000000E+00 0.  1.
         22    1    1    0    0    0  0.12657226278E+02 -0.21956869429E+02  0.14875652887E+02  0.29386979106E+02  0.00000000000E+00 0.  1.
</event>
<event>
 5    1  0.2370309E-009  0.9118800E+02  0.7561462E-02  0.1125453E+00
         25   -1    0    0    0    0  0.00000000000E+00  0.00000000000E+00  0.99999998245E-14  0.12509000000E+03  0.12509000000E+03 0.  0.
        -13    1    3    3    0    0  0.83517113824E+01 -0.14037013481E+02 -0.30326163620E+02  0.34445263744E+02  0.10566000000E+00 0.  1.
         23    2    1    0    0    0 -0.16531917170E+02  0.26359234917E+01  0.23613974124E+02  0.96143978651E+02  0.91683109017E+02 0.  0.
         13    1    3    3    0    0 -0.24883628553E+02  0.16672936973E+02  0.53940137744E+02  0.61698714907E+02  0.10566000000E+00 0. -1.
         22    1    1    0    0    0  0.16531917170E+02 -0.26359234917E+01 -0.23613974124E+02  0.28946021349E+02  0.00000000000E+00 0. -1.
</event>
<event>
 5    1  0.2370309E-009  0.9118800E+02  0.7561462E-02  0.1125453E+00
         25   -1    0    0    0    0  0.00000000000E+00  0.00000000000E+00  0.99999998245E-14  0.12509000000E+03  0.12509000000E+03 0.  0.
        -13    1    3    3    0    0  0.44955829838E+02  0.38820884452E+02  0.13955578132E+02  0.61015219668E+02  0.10566000000E+00 0.  1.
         23    2    1    0    0    0  0.22432213341E+02  0.19899008968E+02 -0.29751713746E+01  0.94956523632E+02  0.90048403552E+02 0.  0.
         13    1    3    3    0    0 -0.22523616497E+02 -0.18921875484E+02 -0.16930749506E+02  0.33941303964E+02  0.10566000000E+00 0. -1.
         22    1    1    0    0    0 -0.22432213341E+02 -0.19899008968E+02  0.29751713746E+01  0.30133476368E+02  0.00000000000E+00 0.  1.
</event>
<event>
 5    1  0.2370309E-009  0.9118800E+02  0.7561462E-02  0.1125453E+00
         25   -1    0    0    0    0  0.00000000000E+00  0.00000000000E+00  0.99999998245E-14  0.12509000000E+03  0.12509000000E+03 0.  0.
        -13    1    3    3    0    0 -0.25292262391E+02  0.25494664933E+02 -0.44522998937E+01  0.36187160918E+02  0.10566000000E+00 0.  1.
         23    2    1    0    0    0  0.98676941227E+01 -0.14195177304E+02  0.23333375448E+02  0.96050012814E+02  0.91554814760E+02 0.  0.
         13    1    3    3    0    0  0.35159956514E+02 -0.39689842237E+02  0.27785675341E+02  0.59862851896E+02  0.10566000000E+00 0. -1.
         22    1    1    0    0    0 -0.98676941227E+01  0.14195177304E+02 -0.23333375448E+02  0.29039987186E+02  0.00000000000E+00 0. -1.
</event>
<event>
 5    1  0.2370309E-009  0.9118800E+02  0.7561462E-02  0.1125453E+00
         25   -1    0    0    0    0  0.00000000000E+00  0.00000000000E+00  0.99999998245E-14  0.12509000000E+03  0.12509000000E+03 0.  0.
        -13    1    3    3    0    0 -0.38934193266E+02 -0.12487196895E+02  0.11440696105E+01  0.40903808513E+02  0.10566000000E+00 0.  1.
         23    2    1    0    0    0  0.14401793321E+02 -0.25270489117E+02  0.34562043586E+01  0.95799137608E+02  0.91211403601E+02 0.  0.
         13    1    3    3    0    0  0.53335986587E+02 -0.12783292223E+02  0.23121347482E+01  0.54895329095E+02  0.10566000000E+00 0. -1.
         22    1    1    0    0    0 -0.14401793321E+02  0.25270489117E+02 -0.34562043586E+01  0.29290862392E+02  0.00000000000E+00 0. -1.
</event>
<event>
 5    1  0.2370309E-009  0.9118800E+02  0.7561462E-02  0.1125453E+00
         25   -1    0    0    0    0  0.00000000000E+00  0.00000000000E+00  0.99999998245E-14  0.12509000000E+03  0.12509000000E+03 0.  0.
        -13    1    3    3    0    0  0.52008224412E+02  0.33136009168E+02  0.63222275783E+01  0.61990581831E+02  0.10566000000E+00 0. -1.
         23    2    1    0    0    0  0.19570676064E+02  0.19315855721E+02  0.36591394160E+01  0.97350083902E+02  0.93314178401E+02 0.  0.
         13    1    3    3    0    0 -0.32437548348E+02 -0.13820153447E+02 -0.26630881623E+01  0.35359502071E+02  0.10566000000E+00 0.  1.
         22    1    1    0    0    0 -0.19570676064E+02 -0.19315855721E+02 -0.36591394160E+01  0.27739916098E+02  0.00000000000E+00 0. -1.
</event>
<event>
 5    1  0.2370309E-009  0.9118800E+02  0.7561462E-02  0.1125453E+00
         25   -1    0    0    0    0  0.00000000000E+00  0.00000000000E+00  0.99999998245E-14  0.12509000000E+03  0.12509000000E+03 0.  0.
        -13    1    3    3    0    0  0.34497365243E+02 -0.12782309689E+02 -0.27449213920E+02  0.45901265327E+02  0.10566000000E+00 0. -1.
         23    2    1    0    0    0  0.22882412679E+02  0.20694068390E+02  0.48641385998E+01  0.93856858614E+02  0.88507631241E+02 0.  0.
         13    1    3    3    0    0 -0.11614952565E+02  0.33476378080E+02  0.32313352519E+02  0.47955593287E+02  0.10566000000E+00 0.  1.
         22    1    1    0    0    0 -0.22882412679E+02 -0.20694068390E+02 -0.48641385998E+01  0.31233141386E+02  0.00000000000E+00 0. -1.
</event>
<event>
 5    1  0.2370309E-009  0.9118800E+02  0.7561462E-02  0.1125453E+00
         25   -1    0    0    0    0  0.00000000000E+00  0.00000000000E+00  0.99999998245E-14  0.12509000000E+03  0.12509000000E+03 0.  0.
        -13    1    3    3    0    0  0.18585049367E+02  0.81184926368E+01  0.49460388500E+02  0.53457040483E+02  0.10566000000E+00 0.  1.
         23    2    1    0    0    0  0.31273513866E+02  0.72110867534E+01  0.16052044317E+02  0.89205455019E+02  0.81669533099E+02 0.  0.
         13    1    3    3    0    0  0.12688464499E+02 -0.90740588339E+00 -0.33408344182E+02  0.35748414536E+02  0.10566000000E+00 0. -1.
         22    1    1    0    0    0 -0.31273513866E+02 -0.72110867534E+01 -0.16052044317E+02  0.35884544981E+02  0.00000000000E+00 0. -1.
</event>
<event>
 5    1  0.2370309E-009  0.9118800E+02  0.7561462E-02  0.1125453E+00
         25   -1    0    0    0    0  0.00000000000E+00  0.00000000000E+00  0.99999998245E-14  0.12509000000E+03  0.12509000000E+03 0.  0.
        -13    1    3    3    0    0  0.50764682571E+02 -0.37555513188E+01  0.73792694565E+01  0.51435609688E+02  0.10566000000E+00 0. -1.
         23    2    1    0    0    0  0.86324205808E+01 -0.21693322112E+02  0.14245455043E+02  0.97739462552E+02  0.93834698492E+02 0.  0.
         13    1    3    3    0    0 -0.42132261990E+02 -0.17937770793E+02  0.68661855869E+01  0.46303852863E+02  0.10566000000E+00 0.  1.
         22    1    1    0    0    0 -0.86324205808E+01  0.21693322112E+02 -0.14245455043E+02  0.27350537448E+02  0.00000000000E+00 0.  1.
</event>
<event>
 5    1  0.2370309E-009  0.9118800E+02  0.7561462E-02  0.1125453E+00
         25   -1    0    0    0    0  0.00000000000E+00  0.00000000000E+00  0.99999998245E-14  0.12509000000E+03  0.12509000000E+03 0.  0.
        -13    1    3    3    0    0 -0.39554171993E+02  0.23468231552E+01 -0.12167532628E+02  0.41449971234E+02  0.10566000000E+00 0. -1.
         23    2    1    0    0    0 -0.37962865128E+01 -0.68803309652E+01  0.27996722544E+02  0.96011361472E+02  0.91501990760E+02 0.  0.
         13    1    3    3    0    0  0.35757885480E+02 -0.92271541204E+01  0.40164255172E+02  0.54561390238E+02  0.10566000000E+00 0.  1.
         22    1    1    0    0    0  0.37962865128E+01  0.68803309652E+01 -0.27996722544E+02  0.29078638528E+02  0.00000000000E+00 0.  1.
</event>
<event>
 5    1  0.2370309E-009  0.9118800E+02  0.7561462E-02  0.1125453E+00
         25   -1    0    0    0    0  0.00000000000E+00  0.00000000000E+00  0.99999998245E-14  0.12509000000E+03  0.12509000000E+03 0.  0.
        -13    1    3    3    0    0  0.32974795567E+02 -0.38415472791E+02  0.13725340538E+02  0.52454569194E+02  0.10566000000E+00 0. -1.
         23    2    1    0    0    0  0.29125127713E+02  0.25288475614E+01 -0.14275368480E+00  0.95854943768E+02  0.91287905726E+02 0.  0.
         13    1    3    3    0    0 -0.38496678542E+01  0.40944320353E+02 -0.13868094223E+02  0.43400374574E+02  0.10566000000E+00 0.  1.
         22    1    1    0    0    0 -0.29125127713E+02 -0.25288475614E+01  0.14275368480E+00  0.29235056232E+02  0.00000000000E+00 0. -1.
</event>
<event>
 5    1  0.2370309E-009  0.9118800E+02  0.7561462E-02  0.1125453E+00
         25   -1    0    0    0    0  0.00000000000E+00  0.00000000000E+00  0.99999998245E-14  0.12509000000E+03  0.12509000000E+03 0.  0.
        -13    1    3    3    0    0  0.19116074607E+02 -0.23277815950E+02  0.39214913432E+02  0.49447968849E+02  0.10566000000E+00 0.  1.
         23    2    1    0    0    0 -0.19668363534E+02 -0.69607230998E+01  0.21586725736E+02  0.95068625645E+02  0.90203994723E+02 0.  0.
         13    1    3    3    0    0 -0.38784438141E+02  0.16317092850E+02 -0.17628187696E+02  0.45620656796E+02  0.10566000000E+00 0. -1.
         22    1    1    0    0    0  0.19668363534E+02  0.69607230998E+01 -0.21586725736E+02  0.30021374355E+02  0.00000000000E+00 0.  1.
</event>
<event>
 5    1  0.2370309E-009  0.9118800E+02  0.7561462E-02  0.1125453E+00
         25   -1    0    0    0    0  0.00000000000E+00  0.00000000000E+00  0.99999998245E-14  0.12509000000E+03  0.12509000000E+03 0.  0.
        -13    1    3    3    0    0  0.20430998629E+02 -0.48127751115E+02 -0.32015170487E+02  0.61308143323E+02  0.10566000000E+00 0.  1.
         23    2    1    0    0    0  0.18060786372E+02 -0.20348070402E+02 -0.14131426373E+02  0.94431670222E+02  0.89316331967E+02 0.  0.
         13    1    3    3    0    0 -0.23702122576E+01  0.27779680712E+02  0.17883744115E+02  0.33123526899E+02  0.10566000000E+00 0. -1.
         22    1    1    0    0    0 -0.18060786372E+02  0.20348070402E+02  0.14131426373E+02  0.30658329778E+02  0.00000000000E+00 0.  1.
</event>
<event>
 5    1  0.2370309E-009  0.9118800E+02  0.7561462E-02  0.1125453E+00
         25   -1    0    0    0    0  0.00000000000E+00  0.00000000000E+00  0.99999998245E-14  0.12509000000E+03  0.12509000000E+03 0.  0.
        -13    1    3    3    0    0 -0.28261872263E+02 -0.26666834136E+02  0.36417196735E+02  0.53254829347E+02  0.10566000000E+00 0.  1.
         23    2    1    0    0    0  0.88824227355E+01 -0.90836323639E+01  0.26755576382E+02  0.95471244488E+02  0.90760607347E+02 0.  0.
         13    1    3    3    0    0  0.37144294998E+02  0.17583201772E+02 -0.96616203538E+01  0.42216415141E+02  0.10566000000E+00 0. -1.
         22    1    1    0    0    0 -0.88824227355E+01  0.90836323639E+01 -0.26755576382E+02  0.29618755512E+02  0.00000000000E+00 0.  1.
</event>
<event>
 5    1  0.2370309E-009  0.9118800E+02  0.7561462E-02  0.1125453E+00
         25   -1    0    0    0    0  0.00000000000E+00  0.00000000000E+00  0.99999998245E-14  0.12509000000E+03  0.12509000000E+03 0.  0.
        -13    1    3    3    0    0  0.62692607468E+00  0.20491338853E+02 -0.37979417320E+02  0.43159417377E+02  0.10566000000E+00 0.  1.
         23    2    1    0    0    0 -0.12688682876E+02 -0.23376058890E+02 -0.11391910269E+02  0.96155273080E+02  0.91698517541E+02 0.  0.
         13    1    3    3    0    0 -0.13315608951E+02 -0.43867397743E+02  0.26587507051E+02  0.52995855703E+02  0.10566000000E+00 0. -1.
         22    1    1    0    0    0  0.12688682876E+02  0.23376058890E+02  0.11391910269E+02  0.28934726920E+02  0.00000000000E+00 0. -1.
</event>
<event>
 5    1  0.2370309E-009  0.9118800E+02  0.7561462E-02  0.1125453E+00
         25   -1    0    0    0    0  0.00000000000E+00  0.00000000000E+00  0.99999998245E-14  0.12509000000E+03  0.12509000000E+03 0.  0.
        -13    1    3    3    0    0  0.19964414845E+02  0.36730062528E+02  0.43472584286E+02  0.60312122347E+02  0.10566000000E+00 0.  1.
         23    2    1    0    0    0  0.14921809766E+02  0.21398576012E+02  0.10603807802E+02  0.96929740734E+02  0.92748986176E+02 0.  0.
         13    1    3    3    0    0 -0.50426050787E+01 -0.15331486516E+02 -0.32868776484E+02  0.36617618387E+02  0.10566000000E+00 0. -1.
         22    1    1    0    0    0 -0.14921809766E+02 -0.21398576012E+02 -0.10603807802E+02  0.28160259266E+02  0.00000000000E+00 0.  1.
</event>
<event>
 5    1  0.2370309E-009  0.9118800E+02  0.7561462E-02  0.1125453E+00
         25   -1    0    0    0    0  0.00000000000E+00  0.00000000000E+00  0.99999998245E-14  0.12509000000E+03  0.12509000000E+03 0.  0.
        -13    1    3    3    0    0  0.29886231935E+02 -0.20627829530E+02  0.24218279432E+01  0.36394651049E+02  0.10566000000E+00 0.  1.
         23    2    1    0    0    0 -0.18713031481E+02  0.13236331634E+02 -0.14461752901E+02  0.97987964665E+02  0.94165391200E+02 0.  0.
         13    1    3    3    0    0 -0.48599263416E+02  0.33864161164E+02 -0.16883580845E+02  0.61593313615E+02  0.10566000000E+00 0. -1.
         22    1    1    0    0    0  0.18713031481E+02 -0.13236331634E+02  0.14461752901E+02  0.27102035335E+02  0.00000000000E+00 0. -1.
</event>
<event>
 5    1  0.2370309E-009  0.9118800E+02  0.7561462E-02  0.1125453E+00
         25   -1    0    0    0    0  0.00000000000E+00  0.00000000000E+00  0.99999998245E-14  0.12509000000E+03  0.12509000000E+03 0.  0.
        -13    1    3    3    0    0  0.13973587273E+02  0.11390460043E+02 -0.34404220990E+02  0.38841541000E+02  0.10566000000E+00 0.  1.
         23    2    1    0    0    0  0.13030423741E+02 -0.24082068864E+02  0.10227630224E+02  0.95860863789E+02  0.91296017453E+02 0.  0.
         13    1    3    3    0    0 -0.94316353215E+00 -0.35472528907E+02  0.44631851214E+02  0.57019322789E+02  0.10566000000E+00 0. -1.
         22    1    1    0    0    0 -0.13030423741E+02  0.24082068864E+02 -0.10227630224E+02  0.29229136211E+02  0.00000000000E+00 0. -1.
</event>
<event>
 5    1  0.2370309E-009  0.9118800E+02  0.7561462E-02  0.1125453E+00
         25   -1    0    0    0    0  0.00000000000E+00  0.00000000000E+00  0.99999998245E-14  0.12509000000E+03  0.12509000000E+03 0.  0.
        -13    1    3    3    0    0  0.38517816089E+02 -0.18041621521E+02  0.28160942885E+02  0.51011490191E+02  0.10566000000E+00 0.  1.
         23    2    1    0    0    0  0.15530715218E+02 -0.22465341914E+02 -0.10187928972E+02  0.95940581494E+02  0.91405178071E+02 0.  0.
         13    1    3    3    0    0 -0.22987100871E+02 -0.44237203934E+01 -0.38348871857E+02  0.44929091303E+02  0.10566000000E+00 0. -1.
         22    1    1    0    0    0 -0.15530715218E+02  0.22465341914E+02  0.10187928972E+02  0.29149418506E+02  0.00000000000E+00 0. -1.
</event>
<event>
 5    1  0.2370309E-009  0.9118800E+02  0.7561462E-02  0.1125453E+00
         25   -1    0    0    0    0  0.00000000000E+00  0.00000000000E+00  0.99999998245E-14  0.12509000000E+03  0.12509000000E+03 0.  0.
        -13    1    3    3    0    0  0.54093873493E+02 -0.12710340350E+02 -0.13999877298E+02  0.57303644122E+02  0.10566000000E+00 0.  1.
         23    2    1    0    0    0  0.28003294966E+02 -0.11883767068E+02  0.10305732832E+02  0.92971211450E+02  0.87246945968E+02 0.  0.
         13    1    3    3    0    0 -0.26090578527E+02  0.82657328154E+00  0.24305610130E+02  0.35667567328E+02  0.10566000000E+00 0. -1.
         22    1    1    0    0    0 -0.28003294966E+02  0.11883767068E+02 -0.10305732832E+02  0.32118788550E+02  0.00000000000E+00 0.  1.
</event>
<event>
 5    1  0.2370309E-009  0.9118800E+02  0.7561462E-02  0.1125453E+00
         25   -1    0    0    0    0  0.00000000000E+00  0.00000000000E+00  0.99999998245E-14  0.12509000000E+03  0.12509000000E+03 0.  0.
        -13    1    3    3    0    0 -0.79375283126E+01  0.38155562215E+02  0.33292318934E+02  0.51256618574E+02  0.10566000000E+00 0.  1.
         23    2    1    0    0    0 -0.30747766297E+02  0.23919828740E+02  0.21201084457E+02  0.80738344773E+02  0.67465628252E+02 0.  0.
         13    1    3    3    0    0 -0.22810237984E+02 -0.14235733475E+02 -0.12091234477E+02  0.29481726199E+02  0.10566000000E+00 0. -1.
         22    1    1    0    0    0  0.30747766297E+02 -0.23919828740E+02 -0.21201084457E+02  0.44351655227E+02  0.00000000000E+00 0.  1.
</event>
<event>
 5    1  0.2370309E-009  0.9118800E+02  0.7561462E-02  0.1125453E+00
         25   -1    0    0    0    0  0.00000000000E+00  0.00000000000E+00  0.99999998245E-14  0.12509000000E+03  0.12509000000E+03 0.  0.
        -13    1    3    3    0    0  0.42471833767E+02 -0.31884249063E+02  0.25351230775E+01  0.53168599896E+02  0.10566000000E+00 0.  1.
         23    2    1    0    0    0  0.76303862156E+01 -0.21710926413E+02 -0.18890363662E+02  0.95316975989E+02  0.90547738530E+02 0.  0.
         13    1    3    3    0    0 -0.34841447551E+02  0.10173322650E+02 -0.21425486739E+02  0.42148376093E+02  0.10566000000E+00 0. -1.
         22    1    1    0    0    0 -0.76303862156E+01  0.21710926413E+02  0.18890363662E+02  0.29773024011E+02  0.00000000000E+00 0.  1.
</event>
<event>
 5    1  0.2370309E-009  0.9118800E+02  0.7561462E-02  0.1125453E+00
         25   -1    0    0    0    0  0.00000000000E+00  0.00000000000E+00  0.99999998245E-14  0.12509000000E+03  0.12509000000E+03 0.  0.
        -13    1    3    3    0    0  0.23199863872E+02 -0.69148478102E+01 -0.28999521546E+02  0.37776079969E+02  0.10566000000E+00 0.  1.
         23    2    1    0    0    0 -0.27136351038E+02  0.10372438708E+02 -0.83623420856E+01  0.94859257410E+02  0.89913185456E+02 0.  0.
         13    1    3    3    0    0 -0.50336214910E+02  0.17287286518E+02  0.20637179461E+02  0.57083177441E+02  0.10566000000E+00 0. -1.
         22    1    1    0    0    0  0.27136351038E+02 -0.10372438708E+02  0.83623420856E+01  0.30230742590E+02  0.00000000000E+00 0. -1.
</event>
<event>
 5    1  0.2370309E-009  0.9118800E+02  0.7561462E-02  0.1125453E+00
         25   -1    0    0    0    0  0.00000000000E+00  0.00000000000E+00  0.99999998245E-14  0.12509000000E+03  0.12509000000E+03 0.  0.
        -13    1    3    3    0    0 -0.32739408940E+02  0.17811086587E+02 -0.43999342862E+01  0.37529645467E+02  0.10566000000E+00 0.  1.
         23    2    1    0    0    0  0.17998738015E+02  0.72304000072E+01  0.22053677951E+02  0.95719981859E+02  0.91102782403E+02 0.  0.
         13    1    3    3    0    0  0.50738146956E+02 -0.10580686580E+02  0.26453612237E+02  0.58190336392E+02  0.10566000000E+00 0. -1.
         22    1    1    0    0    0 -0.17998738015E+02 -0.72304000072E+01 -0.22053677951E+02  0.29370018141E+02  0.00000000000E+00 0. -1.
</event>
<event>
 5    1  0.2370309E-009  0.9118800E+02  0.7561462E-02  0.1125453E+00
         25   -1    0    0    0    0  0.00000000000E+00  0.00000000000E+00  0.99999998245E-14  0.12509000000E+03  0.12509000000E+03 0.  0.
        -13    1    3    3    0    0  0.15826428660E+02 -0.89132909589E+01  0.26188331287E+02  0.31871028529E+02  0.10566000000E+00 0. -1.
         23    2    1    0    0    0 -0.29918530962E+00 -0.91808388546E+00 -0.32151331989E+02  0.92924171260E+02  0.87179476173E+02 0.  0.
         13    1    3    3    0    0 -0.16125613970E+02  0.79952070734E+01 -0.58339663276E+02  0.61053142731E+02  0.10566000000E+00 0.  1.
         22    1    1    0    0    0  0.29918530962E+00  0.91808388546E+00  0.32151331989E+02  0.32165828740E+02  0.00000000000E+00 0.  1.
</event>
<event>
 5    1  0.2370309E-009  0.9118800E+02  0.7561462E-02  0.1125453E+00
         25   -1    0    0    0    0  0.00000000000E+00  0.00000000000E+00  0.99999998245E-14  0.12509000000E+03  0.12509000000E+03 0.  0.
        -13    1    3    3    0    0 -0.41025418121E+02 -0.22473590753E+02 -0.37171662263E+02  0.59748563604E+02  0.10566000000E+00 0. -1.
         23    2    1    0    0    0 -0.84993858059E+01 -0.60018766099E+01 -0.24710141820E+02  0.98278562316E+02  0.94550635219E+02 0.  0.
         13    1    3    3    0    0  0.32526032315E+02  0.16471714144E+02  0.12461520443E+02  0.38529998712E+02  0.10566000000E+00 0.  1.
         22    1    1    0    0    0  0.84993858059E+01  0.60018766099E+01  0.24710141820E+02  0.26811437684E+02  0.00000000000E+00 0. -1.
</event>
<event>
 5    1  0.2370309E-009  0.9118800E+02  0.7561462E-02  0.1125453E+00
         25   -1    0    0    0    0  0.00000000000E+00  0.00000000000E+00  0.99999998245E-14  0.12509000000E+03  0.12509000000E+03 0.  0.
        -13    1    3    3    0    0  0.37178181028E+02 -0.21048413485E+02  0.30462662168E+01  0.42831574296E+02  0.10566000000E+00 0.  1.
         23    2    1    0    0    0 -0.17805867042E+02 -0.20512090328E+02 -0.37976185474E+00  0.97924967885E+02  0.94081668594E+02 0.  0.
         13    1    3    3    0    0 -0.54984048070E+02  0.53632315643E+00 -0.34260280716E+01  0.55093393589E+02  0.10566000000E+00 0. -1.
         22    1    1    0    0    0  0.17805867042E+02  0.20512090328E+02  0.37976185474E+00  0.27165032115E+02  0.00000000000E+00 0. -1.
</event>
<event>
 5    1  0.2370309E-009  0.9118800E+02  0.7561462E-02  0.1125453E+00
         25   -1    0    0    0    0  0.00000000000E+00  0.00000000000E+00  0.99999998245E-14  0.12509000000E+03  0.12509000000E+03 0.  0.
        -13    1    3    3    0    0 -0.13137831309E+02  0.34134531572E+02 -0.21343161226E+02  0.42347497592E+02  0.10566000000E+00 0.  1.
         23    2    1    0    0    0  0.77071964694E+01 -0.19609928129E+02 -0.12284327945E+02  0.10070035319E+03  0.97702130274E+02 0.  0.
         13    1    3    3    0    0  0.20845027778E+02 -0.53744459701E+02  0.90588332812E+01  0.58352855594E+02  0.10566000000E+00 0. -1.
         22    1    1    0    0    0 -0.77071964694E+01  0.19609928129E+02  0.12284327945E+02  0.24389646814E+02  0.00000000000E+00 0. -1.
</event>
<event>
 5    1  0.2370309E-009  0.9118800E+02  0.7561462E-02  0.1125453E+00
         25   -1    0    0    0    0  0.00000000000E+00  0.00000000000E+00  0.99999998245E-14  0.12509000000E+03  0.12509000000E+03 0.  0.
        -13    1    3    3    0    0  0.39865568164E+02 -0.14579664671E+02 -0.31847947838E+02  0.53067250659E+02  0.10566000000E+00 0.  1.
         23    2    1    0    0    0  0.26328101388E+01 -0.21364623969E+02 -0.25955971998E+02  0.91369215179E+02  0.84919032929E+02 0.  0.
         13    1    3    3    0    0 -0.37232758025E+02 -0.67849592975E+01  0.58919758395E+01  0.38301964521E+02  0.10566000000E+00 0. -1.
         22    1    1    0    0    0 -0.26328101388E+01  0.21364623969E+02  0.25955971998E+02  0.33720784821E+02  0.00000000000E+00 0.  1.
</event>
<event>
 5    1  0.2370309E-009  0.9118800E+02  0.7561462E-02  0.1125453E+00
         25   -1    0    0    0    0  0.00000000000E+00  0.00000000000E+00  0.99999998245E-14  0.12509000000E+03  0.12509000000E+03 0.  0.
        -13    1    3    3    0    0  0.14670467883E+02 -0.41572689040E+02 -0.14977807031E+02  0.46560250960E+02  0.10566000000E+00 0.  1.
         23    2    1    0    0    0  0.17982526057E+02 -0.10730881806E+02  0.21926964459E+02  0.94769794887E+02  0.89788636167E+02 0.  0.
         13    1    3    3    0    0  0.33120581740E+01  0.30841807235E+02  0.36904771491E+02  0.48209543927E+02  0.10566000000E+00 0. -1.
         22    1    1    0    0    0 -0.17982526057E+02  0.10730881806E+02 -0.21926964459E+02  0.30320205113E+02  0.00000000000E+00 0. -1.
</event>
<event>
 5    1  0.2370309E-009  0.9118800E+02  0.7561462E-02  0.1125453E+00
         25   -1    0    0    0    0  0.00000000000E+00  0.00000000000E+00  0.99999998245E-14  0.12509000000E+03  0.12509000000E+03 0.  0.
        -13    1    3    3    0    0  0.30158839387E+02  0.34148716735E+02 -0.16016235800E+02  0.48293078397E+02  0.10566000000E+00 0.  1.
         23    2    1    0    0    0 -0.23783186177E+01  0.23770658413E+02  0.16979698457E+02  0.95781114649E+02  0.91186683034E+02 0.  0.
         13    1    3    3    0    0 -0.32537158005E+02 -0.10378058322E+02  0.32995934257E+02  0.47488036252E+02  0.10566000000E+00 0. -1.
         22    1    1    0    0    0  0.23783186177E+01 -0.23770658413E+02 -0.16979698457E+02  0.29308885351E+02  0.00000000000E+00 0. -1.
</event>
<event>
 5    1  0.2370309E-009  0.9118800E+02  0.7561462E-02  0.1125453E+00
         25   -1    0    0    0    0  0.00000000000E+00  0.00000000000E+00  0.99999998245E-14  0.12509000000E+03  0.12509000000E+03 0.  0.
        -13    1    3    3    0    0 -0.47290625108E+02  0.10796828066E+02  0.23775350488E+01  0.48565816747E+02  0.10566000000E+00 0.  1.
         23    2    1    0    0    0  0.33608650362E+01  0.23149006576E+02  0.63464289599E+01  0.10085265114E+03  0.97896926213E+02 0.  0.
         13    1    3    3    0    0  0.50651490144E+02  0.12352178510E+02  0.39688939112E+01  0.52286834392E+02  0.10566000000E+00 0. -1.
         22    1    1    0    0    0 -0.33608650362E+01 -0.23149006576E+02 -0.63464289599E+01  0.24237348861E+02  0.00000000000E+00 0.  1.
</event>
<event>
 5    1  0.2370309E-009  0.9118800E+02  0.7561462E-02  0.1125453E+00
         25   -1    0    0    0    0  0.00000000000E+00  0.00000000000E+00  0.99999998245E-14  0.12509000000E+03  0.12509000000E+03 0.  0.
        -13    1    3    3    0    0 -0.15027054153E+02  0.43804142741E+02  0.14364450199E+02  0.48486739129E+02  0.10566000000E+00 0.  1.
         23    2    1    0    0    0 -0.27151216877E+02  0.51513612253E+00  0.16181519661E+02  0.93478364141E+02  0.87971069339E+02 0.  0.
         13    1    3    3    0    0 -0.12124162724E+02 -0.43289006618E+02  0.18170694621E+01  0.44991625012E+02  0.10566000000E+00 0. -1.
         22    1    1    0    0    0  0.27151216877E+02 -0.51513612253E+00 -0.16181519661E+02  0.31611635859E+02  0.00000000000E+00 0.  1.
</event>
<event>
 5    1  0.2370309E-009  0.9118800E+02  0.7561462E-02  0.1125453E+00
         25   -1    0    0    0    0  0.00000000000E+00  0.00000000000E+00  0.99999998245E-14  0.12509000000E+03  0.12509000000E+03 0.  0.
        -13    1    3    3    0    0  0.41551874336E+02  0.26787516160E+02  0.10658306816E+02  0.50574103562E+02  0.10566000000E+00 0.  1.
         23    2    1    0    0    0  0.62805625854E+01  0.19088974974E+02 -0.19104352435E+02  0.97362563877E+02  0.93330906622E+02 0.  0.
         13    1    3    3    0    0 -0.35271311751E+02 -0.76985411853E+01 -0.29762659251E+02  0.46788460316E+02  0.10566000000E+00 0. -1.
         22    1    1    0    0    0 -0.62805625854E+01 -0.19088974974E+02  0.19104352435E+02  0.27727436123E+02  0.00000000000E+00 0.  1.
</event>
<event>
 5    1  0.2370309E-009  0.9118800E+02  0.7561462E-02  0.1125453E+00
         25   -1    0    0    0    0  0.00000000000E+00  0.00000000000E+00  0.99999998245E-14  0.12509000000E+03  0.12509000000E+03 0.  0.
        -13    1    3    3    0    0  0.23264387994E+02 -0.34874141349E+02  0.28632722793E+02  0.50766932763E+02  0.10566000000E+00 0.  1.
         23    2    1    0    0    0  0.12216211957E+02 -0.23460427869E+02 -0.13210491209E+02  0.95524063716E+02  0.90833375807E+02 0.  0.
         13    1    3    3    0    0 -0.11048176037E+02  0.11413713480E+02 -0.41843214002E+02  0.44757130953E+02  0.10566000000E+00 0. -1.
         22    1    1    0    0    0 -0.12216211957E+02  0.23460427869E+02  0.13210491209E+02  0.29565936284E+02  0.00000000000E+00 0.  1.
</event>
<event>
 5    1  0.2370309E-009  0.9118800E+02  0.7561462E-02  0.1125453E+00
         25   -1    0    0    0    0  0.00000000000E+00  0.00000000000E+00  0.99999998245E-14  0.12509000000E+03  0.12509000000E+03 0.  0.
        -13    1    3    3    0    0  0.22912634833E+02 -0.42625992426E+02  0.24379515312E+02  0.54187969109E+02  0.10566000000E+00 0. -1.
         23    2    1    0    0    0  0.21137695608E+02 -0.10128198597E+01  0.19833779844E+02  0.96086434657E+02  0.91604563874E+02 0.  0.
         13    1    3    3    0    0 -0.17749392245E+01  0.41613172566E+02 -0.45457354681E+01  0.41898465548E+02  0.10566000000E+00 0.  1.
         22    1    1    0    0    0 -0.21137695608E+02  0.10128198597E+01 -0.19833779844E+02  0.29003565343E+02  0.00000000000E+00 0. -1.
</event>
<event>
 5    1  0.2370309E-009  0.9118800E+02  0.7561462E-02  0.1125453E+00
         25   -1    0    0    0    0  0.00000000000E+00  0.00000000000E+00  0.99999998245E-14  0.12509000000E+03  0.12509000000E+03 0.  0.
        -13    1    3    3    0    0  0.26788687516E+02  0.35507329670E+02 -0.14206658462E+02  0.46693088865E+02  0.10566000000E+00 0.  1.
         23    2    1    0    0    0  0.25291950625E+02 -0.12969828763E+02 -0.78062814176E+01  0.95613954571E+02  0.90957083586E+02 0.  0.
         13    1    3    3    0    0 -0.14967368909E+01 -0.48477158433E+02  0.64003770440E+01  0.48920865705E+02  0.10566000000E+00 0. -1.
         22    1    1    0    0    0 -0.25291950625E+02  0.12969828763E+02  0.78062814176E+01  0.29476045429E+02  0.00000000000E+00 0.  1.
</event>
<event>
 5    1  0.2370309E-009  0.9118800E+02  0.7561462E-02  0.1125453E+00
         25   -1    0    0    0    0  0.00000000000E+00  0.00000000000E+00  0.99999998245E-14  0.12509000000E+03  0.12509000000E+03 0.  0.
        -13    1    3    3    0    0  0.24360889254E+01  0.65927817271E+01 -0.38920888127E+02  0.39550549892E+02  0.10566000000E+00 0.  1.
         23    2    1    0    0    0 -0.28989820373E+02  0.21709556633E+02 -0.44237946731E+01  0.88603228510E+02  0.80741857848E+02 0.  0.
         13    1    3    3    0    0 -0.31425909298E+02  0.15116774906E+02  0.34497093454E+02  0.49052678618E+02  0.10566000000E+00 0. -1.
         22    1    1    0    0    0  0.28989820373E+02 -0.21709556633E+02  0.44237946731E+01  0.36486771490E+02  0.00000000000E+00 0. -1.
</event>
<event>
 5    1  0.2370309E-009  0.9118800E+02  0.7561462E-02  0.1125453E+00
         25   -1    0    0    0    0  0.00000000000E+00  0.00000000000E+00  0.99999998245E-14  0.12509000000E+03  0.12509000000E+03 0.  0.
        -13    1    3    3    0    0  0.52513870578E+02 -0.91026170767E+01  0.27610066426E+02  0.60024088272E+02  0.10566000000E+00 0.  1.
         23    2    1    0    0    0  0.26749071332E+02  0.78590867258E+01  0.10499923424E+02  0.95298617803E+02  0.90522373488E+02 0.  0.
         13    1    3    3    0    0 -0.25764799246E+02  0.16961703802E+02 -0.17110143002E+02  0.35274529531E+02  0.10566000000E+00 0. -1.
         22    1    1    0    0    0 -0.26749071332E+02 -0.78590867258E+01 -0.10499923424E+02  0.29791382197E+02  0.00000000000E+00 0.  1.
</event>
<event>
 5    1  0.2370309E-009  0.9118800E+02  0.7561462E-02  0.1125453E+00
         25   -1    0    0    0    0  0.00000000000E+00  0.00000000000E+00  0.99999998245E-14  0.12509000000E+03  0.12509000000E+03 0.  0.
        -13    1    3    3    0    0 -0.63215281444E+01  0.15798075141E+02  0.31130945036E+02  0.35477990347E+02  0.10566000000E+00 0.  1.
         23    2    1    0    0    0 -0.15701208462E+02 -0.28483809807E+02 -0.33690341092E+01  0.92391288112E+02  0.86411482801E+02 0.  0.
         13    1    3    3    0    0 -0.93796803172E+01 -0.44281884949E+02 -0.34499979145E+02  0.56913297765E+02  0.10566000000E+00 0. -1.
         22    1    1    0    0    0  0.15701208462E+02  0.28483809807E+02  0.33690341092E+01  0.32698711888E+02  0.00000000000E+00 0. -1.
</event>
<event>
 5    1  0.2370309E-009  0.9118800E+02  0.7561462E-02  0.1125453E+00
         25   -1    0    0    0    0  0.00000000000E+00  0.00000000000E+00  0.99999998245E-14  0.12509000000E+03  0.12509000000E+03 0.  0.
        -13    1    3    3    0    0  0.11544355824E+02  0.20815794267E+02  0.50550333129E+02  0.55874115527E+02  0.10566000000E+00 0. -1.
         23    2    1    0    0    0 -0.14379226322E+02  0.51450104635E+01  0.26300175205E+02  0.94677297093E+02  0.89659679270E+02 0.  0.
         13    1    3    3    0    0 -0.25923582146E+02 -0.15670783803E+02 -0.24250157924E+02  0.38803181566E+02  0.10566000000E+00 0.  1.
         22    1    1    0    0    0  0.14379226322E+02 -0.51450104635E+01 -0.26300175205E+02  0.30412702907E+02  0.00000000000E+00 0. -1.
</event>
<event>
 5    1  0.2370309E-009  0.9118800E+02  0.7561462E-02  0.1125453E+00
         25   -1    0    0    0    0  0.00000000000E+00  0.00000000000E+00  0.99999998245E-14  0.12509000000E+03  0.12509000000E+03 0.  0.
        -13    1    3    3    0    0 -0.25856184699E+02  0.37281522439E+01 -0.37553109375E+02  0.45745913414E+02  0.10566000000E+00 0. -1.
         23    2    1    0    0    0 -0.32346398061E+01 -0.28013292964E+02 -0.51702159260E+01  0.96420528256E+02  0.92059652721E+02 0.  0.
         13    1    3    3    0    0  0.22621544893E+02 -0.31741445208E+02  0.32382893449E+02  0.50674614842E+02  0.10566000000E+00 0.  1.
         22    1    1    0    0    0  0.32346398061E+01  0.28013292964E+02  0.51702159260E+01  0.28669471744E+02  0.00000000000E+00 0.  1.
</event>
<event>
 5    1  0.2370309E-009  0.9118800E+02  0.7561462E-02  0.1125453E+00
         25   -1    0    0    0    0  0.00000000000E+00  0.00000000000E+00  0.99999998245E-14  0.12509000000E+03  0.12509000000E+03 0.  0.
        -13    1    3    3    0    0 -0.39083453957E+02  0.26748770471E+01  0.37987229632E+02  0.54568416869E+02  0.10566000000E+00 0.  1.
         23    2    1    0    0    0  0.12764267913E+01  0.35310194462E+01  0.28899301050E+02  0.95947814686E+02  0.91415076318E+02 0.  0.
         13    1    3    3    0    0  0.40359880748E+02  0.85614239915E+00 -0.90879285817E+01  0.41379397818E+02  0.10566000000E+00 0. -1.
         22    1    1    0    0    0 -0.12764267913E+01 -0.35310194462E+01 -0.28899301050E+02  0.29142185314E+02  0.00000000000E+00 0.  1.
</event>
<event>
 5    1  0.2370309E-009  0.9118800E+02  0.7561462E-02  0.1125453E+00
         25   -1    0    0    0    0  0.00000000000E+00  0.00000000000E+00  0.99999998245E-14  0.12509000000E+03  0.12509000000E+03 0.  0.
        -13    1    3    3    0    0  0.16049907463E+02  0.27204782943E+02  0.19302650680E+02  0.37017607052E+02  0.10566000000E+00 0.  1.
         23    2    1    0    0    0 -0.22148568292E+02 -0.13551951302E+02 -0.61556642088E+01  0.98404673258E+02  0.94717332393E+02 0.  0.
         13    1    3    3    0    0 -0.38198475755E+02 -0.40756734245E+02 -0.25458314889E+02  0.61387066206E+02  0.10566000000E+00 0. -1.
         22    1    1    0    0    0  0.22148568292E+02  0.13551951302E+02  0.61556642088E+01  0.26685326742E+02  0.00000000000E+00 0. -1.
</event>
<event>
 5    1  0.2370309E-009  0.9118800E+02  0.7561462E-02  0.1125453E+00
         25   -1    0    0    0    0  0.00000000000E+00  0.00000000000E+00  0.99999998245E-14  0.12509000000E+03  0.12509000000E+03 0.  0.
        -13    1    3    3    0    0  0.12970071533E+02  0.29413088610E+02  0.46460690141E+02  0.56497428521E+02  0.10566000000E+00 0. -1.
         23    2    1    0    0    0 -0.89956197342E+01  0.32129143713E+01  0.28321111257E+02  0.95201384509E+02  0.90387910013E+02 0.  0.
         13    1    3    3    0    0 -0.21965691267E+02 -0.26200174238E+02 -0.18139578884E+02  0.38703955988E+02  0.10566000000E+00 0.  1.
         22    1    1    0    0    0  0.89956197342E+01 -0.32129143713E+01 -0.28321111257E+02  0.29888615491E+02  0.00000000000E+00 0. -1.
</event>
<event>
 5    1  0.2370309E-009  0.9118800E+02  0.7561462E-02  0.1125453E+00
         25   -1    0    0    0    0  0.00000000000E+00  0.00000000000E+00  0.99999998245E-14  0.12509000000E+03  0.12509000000E+03 0.  0.
        -13    1    3    3    0    0  0.31835174242E+01 -0.54717175735E+02 -0.27697374165E+02  0.61410583805E+02  0.10566000000E+00 0. -1.
         23    2    1    0    0    0  0.55103345018E+01 -0.27900410589E+02 -0.59047610534E+01  0.96044124209E+02  0.91546768892E+02 0.  0.
         13    1    3    3    0    0  0.23268170776E+01  0.26816765146E+02  0.21792613112E+02  0.34633540404E+02  0.10566000000E+00 0.  1.
         22    1    1    0    0    0 -0.55103345018E+01  0.27900410589E+02  0.59047610534E+01  0.29045875791E+02  0.00000000000E+00 0. -1.
</event>
<event>
 5    1  0.2370309E-009  0.9118800E+02  0.7561462E-02  0.1125453E+00
         25   -1    0    0    0    0  0.00000000000E+00  0.00000000000E+00  0.99999998245E-14  0.12509000000E+03  0.12509000000E+03 0.  0.
        -13    1    3    3    0    0  0.11182074586E+02  0.34686828258E+02  0.31940420147E+02  0.48460462750E+02  0.10566000000E+00 0.  1.
         23    2    1    0    0    0 -0.24098282122E+02  0.14409266788E+02  0.71263623362E+01  0.96122100339E+02  0.91653253968E+02 0.  0.
         13    1    3    3    0    0 -0.35280356708E+02 -0.20277561470E+02 -0.24814057811E+02  0.47661637590E+02  0.10566000000E+00 0. -1.
         22    1    1    0    0    0  0.24098282122E+02 -0.14409266788E+02 -0.71263623362E+01  0.28967899661E+02  0.00000000000E+00 0.  1.
</event>
<event>
 5    1  0.2370309E-009  0.9118800E+02  0.7561462E-02  0.1125453E+00
         25   -1    0    0    0    0  0.00000000000E+00  0.00000000000E+00  0.99999998245E-14  0.12509000000E+03  0.12509000000E+03 0.  0.
        -13    1    3    3    0    0  0.32822526066E+02 -0.65690150161E+01  0.68747561790E+01  0.34172263785E+02  0.10566000000E+00 0.  1.
         23    2    1    0    0    0 -0.28513751636E+02 -0.65933244015E+01  0.74195044045E+00  0.95814473541E+02  0.91232433325E+02 0.  0.
         13    1    3    3    0    0 -0.61336277702E+02 -0.24309385432E-01 -0.61328057385E+01  0.61642209756E+02  0.10566000000E+00 0. -1.
         22    1    1    0    0    0  0.28513751636E+02  0.65933244015E+01 -0.74195044045E+00  0.29275526459E+02  0.00000000000E+00 0. -1.
</event>
<event>
 5    1  0.2370309E-009  0.9118800E+02  0.7561462E-02  0.1125453E+00
         25   -1    0    0    0    0  0.00000000000E+00  0.00000000000E+00  0.99999998245E-14  0.12509000000E+03  0.12509000000E+03 0.  0.
        -13    1    3    3    0    0 -0.18666066661E+02 -0.19087164889E+02 -0.22487322340E+02  0.34906055895E+02  0.10566000000E+00 0. -1.
         23    2    1    0    0    0  0.30651354882E+02  0.63080564481E+01 -0.32102515758E+01  0.93632046357E+02  0.88189326211E+02 0.  0.
         13    1    3    3    0    0  0.49317421543E+02  0.25395221337E+02  0.19277070765E+02  0.58725990461E+02  0.10566000000E+00 0.  1.
         22    1    1    0    0    0 -0.30651354882E+02 -0.63080564481E+01  0.32102515758E+01  0.31457953643E+02  0.00000000000E+00 0.  1.
</event>
<event>
 5    1  0.2370309E-009  0.9118800E+02  0.7561462E-02  0.1125453E+00
         25   -1    0    0    0    0  0.00000000000E+00  0.00000000000E+00  0.99999998245E-14  0.12509000000E+03  0.12509000000E+03 0.  0.
        -13    1    3    3    0    0 -0.53657662231E+01  0.24227548599E+02  0.30279387255E+02  0.39148665556E+02  0.10566000000E+00 0. -1.
         23    2    1    0    0    0  0.24396393070E+02  0.43431101311E+01 -0.14425129749E+02  0.96417173688E+02  0.92055094445E+02 0.  0.
         13    1    3    3    0    0  0.29762159294E+02 -0.19884438468E+02 -0.44704517004E+02  0.57268508131E+02  0.10566000000E+00 0.  1.
         22    1    1    0    0    0 -0.24396393070E+02 -0.43431101311E+01  0.14425129749E+02  0.28672826312E+02  0.00000000000E+00 0.  1.
</event>
<event>
 5    1  0.2370309E-009  0.9118800E+02  0.7561462E-02  0.1125453E+00
         25   -1    0    0    0    0  0.00000000000E+00  0.00000000000E+00  0.99999998245E-14  0.12509000000E+03  0.12509000000E+03 0.  0.
        -13    1    3    3    0    0  0.78605222388E+01  0.92636714591E+01  0.39718880633E+02  0.41535575855E+02  0.10566000000E+00 0.  1.
         23    2    1    0    0    0  0.10418325001E+02  0.24038143177E+02 -0.12641585776E+02  0.96000766354E+02  0.91487505302E+02 0.  0.
         13    1    3    3    0    0  0.25578027621E+01  0.14774471718E+02 -0.52360466409E+02  0.54465190499E+02  0.10566000000E+00 0. -1.
         22    1    1    0    0    0 -0.10418325001E+02 -0.24038143177E+02  0.12641585776E+02  0.29089233646E+02  0.00000000000E+00 0.  1.
</event>
<event>
 5    1  0.2370309E-009  0.9118800E+02  0.7561462E-02  0.1125453E+00
         25   -1    0    0    0    0  0.00000000000E+00  0.00000000000E+00  0.99999998245E-14  0.12509000000E+03  0.12509000000E+03 0.  0.
        -13    1    3    3    0    0  0.35138105401E+02  0.40592508816E+02  0.89145263466E+01  0.54423507487E+02  0.10566000000E+00 0.  1.
         23    2    1    0    0    0 -0.29474369638E+01  0.28378301511E+02 -0.36019864962E+01  0.96332571603E+02  0.91940060168E+02 0.  0.
         13    1    3    3    0    0 -0.38085542365E+02 -0.12214207305E+02 -0.12516512843E+02  0.41909064116E+02  0.10566000000E+00 0. -1.
         22    1    1    0    0    0  0.29474369638E+01 -0.28378301511E+02  0.36019864962E+01  0.28757428397E+02  0.00000000000E+00 0. -1.
</event>
<event>
 5    1  0.2370309E-009  0.9118800E+02  0.7561462E-02  0.1125453E+00
         25   -1    0    0    0    0  0.00000000000E+00  0.00000000000E+00  0.99999998245E-14  0.12509000000E+03  0.12509000000E+03 0.  0.
        -13    1    3    3    0    0 -0.53572774359E+02  0.11012871920E+02  0.11730324197E+01  0.54705691381E+02  0.10566000000E+00 0. -1.
         23    2    1    0    0    0 -0.21883883942E+02 -0.14939616592E+02 -0.93426147599E+01  0.96994075548E+02  0.92835713605E+02 0.  0.
         13    1    3    3    0    0  0.31688890417E+02 -0.25952488511E+02 -0.10515647180E+02  0.42288384166E+02  0.10566000000E+00 0.  1.
         22    1    1    0    0    0  0.21883883942E+02  0.14939616592E+02  0.93426147599E+01  0.28095924452E+02  0.00000000000E+00 0. -1.
</event>
<event>
 5    1  0.2370309E-009  0.9118800E+02  0.7561462E-02  0.1125453E+00
         25   -1    0    0    0    0  0.00000000000E+00  0.00000000000E+00  0.99999998245E-14  0.12509000000E+03  0.12509000000E+03 0.  0.
        -13    1    3    3    0    0  0.26063601474E+01 -0.50680498062E+01 -0.34868527451E+02  0.35331340375E+02  0.10566000000E+00 0.  1.
         23    2    1    0    0    0  0.90000515187E+00 -0.25842959024E+02  0.18940401937E+02  0.93036804123E+02  0.87340938599E+02 0.  0.
         13    1    3    3    0    0 -0.17063549955E+01 -0.20774909218E+02  0.53808929388E+02  0.57705463748E+02  0.10566000000E+00 0. -1.
         22    1    1    0    0    0 -0.90000515187E+00  0.25842959024E+02 -0.18940401937E+02  0.32053195877E+02  0.00000000000E+00 0. -1.
</event>
<event>
 5    1  0.2370309E-009  0.9118800E+02  0.7561462E-02  0.1125453E+00
         25   -1    0    0    0    0  0.00000000000E+00  0.00000000000E+00  0.99999998245E-14  0.12509000000E+03  0.12509000000E+03 0.  0.
        -13    1    3    3    0    0 -0.17996600876E+02 -0.14357799751E+02 -0.40101145285E+02  0.46239994313E+02  0.10566000000E+00 0.  1.
         23    2    1    0    0    0 -0.28356241599E+02  0.44064925083E+01  0.47999134905E+01  0.95994763563E+02  0.91479297374E+02 0.  0.
         13    1    3    3    0    0 -0.10359640723E+02  0.18764292259E+02  0.44901058776E+02  0.49754769250E+02  0.10566000000E+00 0. -1.
         22    1    1    0    0    0  0.28356241599E+02 -0.44064925083E+01 -0.47999134905E+01  0.29095236437E+02  0.00000000000E+00 0.  1.
</event>
<event>
 5    1  0.2370309E-009  0.9118800E+02  0.7561462E-02  0.1125453E+00
         25   -1    0    0    0    0  0.00000000000E+00  0.00000000000E+00  0.99999998245E-14  0.12509000000E+03  0.12509000000E+03 0.  0.
        -13    1    3    3    0    0 -0.70928782442E+01  0.11030508090E+02 -0.51502015979E+02  0.53145553383E+02  0.10566000000E+00 0. -1.
         23    2    1    0    0    0 -0.34905887425E+01  0.24363851820E+02 -0.73561872789E+01  0.99401578940E+02  0.96024886978E+02 0.  0.
         13    1    3    3    0    0  0.36022895016E+01  0.13333343730E+02  0.44145828700E+02  0.46256025557E+02  0.10566000000E+00 0.  1.
         22    1    1    0    0    0  0.34905887425E+01 -0.24363851820E+02  0.73561872789E+01  0.25688421060E+02  0.00000000000E+00 0.  1.
</event>
<event>
 5    1  0.2370309E-009  0.9118800E+02  0.7561462E-02  0.1125453E+00
         25   -1    0    0    0    0  0.00000000000E+00  0.00000000000E+00  0.99999998245E-14  0.12509000000E+03  0.12509000000E+03 0.  0.
        -13    1    3    3    0    0  0.80482072486E+01  0.21051318641E+02 -0.49342727907E+02  0.54246176066E+02  0.10566000000E+00 0.  1.
         23    2    1    0    0    0  0.27553415701E+01 -0.12573379509E+02 -0.27598368137E+02  0.94637550127E+02  0.89604208556E+02 0.  0.
         13    1    3    3    0    0 -0.52928656785E+01 -0.33624698149E+02  0.21744359770E+02  0.40391374062E+02  0.10566000000E+00 0. -1.
         22    1    1    0    0    0 -0.27553415701E+01  0.12573379509E+02  0.27598368137E+02  0.30452449873E+02  0.00000000000E+00 0.  1.
</event>
<event>
 5    1  0.2370309E-009  0.9118800E+02  0.7561462E-02  0.1125453E+00
         25   -1    0    0    0    0  0.00000000000E+00  0.00000000000E+00  0.99999998245E-14  0.12509000000E+03  0.12509000000E+03 0.  0.
        -13    1    3    3    0    0 -0.11746931186E+01  0.14629347391E+02 -0.43518603378E+02  0.45926873539E+02  0.10566000000E+00 0. -1.
         23    2    1    0    0    0 -0.28424610531E+02  0.25139388751E+01 -0.27729847030E+01  0.96420018893E+02  0.92058960599E+02 0.  0.
         13    1    3    3    0    0 -0.27249917413E+02 -0.12115408516E+02  0.40745618675E+02  0.50493145354E+02  0.10566000000E+00 0.  1.
         22    1    1    0    0    0  0.28424610531E+02 -0.25139388751E+01  0.27729847030E+01  0.28669981107E+02  0.00000000000E+00 0.  1.
</event>
<event>
 5    1  0.2370309E-009  0.9118800E+02  0.7561462E-02  0.1125453E+00
         25   -1    0    0    0    0  0.00000000000E+00  0.00000000000E+00  0.99999998245E-14  0.12509000000E+03  0.12509000000E+03 0.  0.
        -13    1    3    3    0    0 -0.32340914217E+02  0.14117497610E+02 -0.57742097652E+01  0.35757392713E+02  0.10566000000E+00 0.  1.
         23    2    1    0    0    0  0.91133082672E+01 -0.22299342576E+02  0.17161263658E+02  0.95512609357E+02  0.90817600215E+02 0.  0.
         13    1    3    3    0    0  0.41454222484E+02 -0.36416840187E+02  0.22935473423E+02  0.59755216644E+02  0.10566000000E+00 0. -1.
         22    1    1    0    0    0 -0.91133082672E+01  0.22299342576E+02 -0.17161263658E+02  0.29577390643E+02  0.00000000000E+00 0. -1.
</event>
<event>
 5    1  0.2370309E-009  0.9118800E+02  0.7561462E-02  0.1125453E+00
         25   -1    0    0    0    0  0.00000000000E+00  0.00000000000E+00  0.99999998245E-14  0.12509000000E+03  0.12509000000E+03 0.  0.
        -13    1    3    3    0    0 -0.52253551559E+02  0.39122060282E+01  0.76996464409E+01  0.52962578543E+02  0.10566000000E+00 0.  1.
         23    2    1    0    0    0 -0.22440816901E+02 -0.18921819602E+02  0.16338029366E+02  0.91496001669E+02  0.85105590872E+02 0.  0.
         13    1    3    3    0    0  0.29812734658E+02 -0.22834025631E+02  0.86383829254E+01  0.38533423127E+02  0.10566000000E+00 0. -1.
         22    1    1    0    0    0  0.22440816901E+02  0.18921819602E+02 -0.16338029366E+02  0.33593998331E+02  0.00000000000E+00 0.  1.
</event>
<event>
 5    1  0.2370309E-009  0.9118800E+02  0.7561462E-02  0.1125453E+00
         25   -1    0    0    0    0  0.00000000000E+00  0.00000000000E+00  0.99999998245E-14  0.12509000000E+03  0.12509000000E+03 0.  0.
        -13    1    3    3    0    0 -0.52384981492E+02  0.26317211346E+02  0.65613196093E+01  0.58990202389E+02  0.10566000000E+00 0. -1.
         23    2    1    0    0    0 -0.26421923757E+02  0.29356647357E+01  0.14482442713E+02  0.94816623423E+02  0.89853852159E+02 0.  0.
         13    1    3    3    0    0  0.25963057734E+02 -0.23381546610E+02  0.79211231032E+01  0.35826421033E+02  0.10566000000E+00 0.  1.
         22    1    1    0    0    0  0.26421923757E+02 -0.29356647357E+01 -0.14482442713E+02  0.30273376577E+02  0.00000000000E+00 0. -1.
</event>
<event>
 5    1  0.2370309E-009  0.9118800E+02  0.7561462E-02  0.1125453E+00
         25   -1    0    0    0    0  0.00000000000E+00  0.00000000000E+00  0.99999998245E-14  0.12509000000E+03  0.12509000000E+03 0.  0.
        -13    1    3    3    0    0 -0.25168663729E+02  0.24095289547E+02 -0.28997054055E+02  0.45330838512E+02  0.10566000000E+00 0. -1.
         23    2    1    0    0    0 -0.14233116526E+02  0.59840976116E+01  0.20654725617E+02  0.99302236999E+02  0.95895388588E+02 0.  0.
         13    1    3    3    0    0  0.10935547203E+02 -0.18111191935E+02  0.49651779673E+02  0.53971398487E+02  0.10566000000E+00 0.  1.
         22    1    1    0    0    0  0.14233116526E+02 -0.59840976116E+01 -0.20654725617E+02  0.25787763001E+02  0.00000000000E+00 0.  1.
</event>
<event>
 5    1  0.2370309E-009  0.9118800E+02  0.7561462E-02  0.1125453E+00
         25   -1    0    0    0    0  0.00000000000E+00  0.00000000000E+00  0.99999998245E-14  0.12509000000E+03  0.12509000000E+03 0.  0.
        -13    1    3    3    0    0 -0.81493742601E+01 -0.39559130382E+02 -0.30357546453E+02  0.50526516683E+02  0.10566000000E+00 0. -1.
         23    2    1    0    0    0  0.15106788082E+02 -0.14192493375E+02 -0.34142565442E+02  0.85148083555E+02  0.75198666503E+02 0.  0.
         13    1    3    3    0    0  0.23256162342E+02  0.25366637007E+02 -0.37850189888E+01  0.34621566872E+02  0.10566000000E+00 0.  1.
         22    1    1    0    0    0 -0.15106788082E+02  0.14192493375E+02  0.34142565442E+02  0.39941916445E+02  0.00000000000E+00 0. -1.
</event>
<event>
 5    1  0.2370309E-009  0.9118800E+02  0.7561462E-02  0.1125453E+00
         25   -1    0    0    0    0  0.00000000000E+00  0.00000000000E+00  0.99999998245E-14  0.12509000000E+03  0.12509000000E+03 0.  0.
        -13    1    3    3    0    0  0.18624553340E+02 -0.29505329890E+02 -0.16435807919E+02  0.38569228992E+02  0.10566000000E+00 0.  1.
         23    2    1    0    0    0  0.10105648198E+02  0.69048065782E+01  0.26737065959E+02  0.95684708376E+02  0.91054336753E+02 0.  0.
         13    1    3    3    0    0 -0.85189051417E+01  0.36410136468E+02  0.43172873878E+02  0.57115479385E+02  0.10566000000E+00 0. -1.
         22    1    1    0    0    0 -0.10105648198E+02 -0.69048065782E+01 -0.26737065959E+02  0.29405291624E+02  0.00000000000E+00 0. -1.
</event>
<event>
 5    1  0.2370309E-009  0.9118800E+02  0.7561462E-02  0.1125453E+00
         25   -1    0    0    0    0  0.00000000000E+00  0.00000000000E+00  0.99999998245E-14  0.12509000000E+03  0.12509000000E+03 0.  0.
        -13    1    3    3    0    0 -0.15803520664E-01  0.29377301352E+02 -0.66905837329E+01  0.30129738785E+02  0.10566000000E+00 0.  1.
         23    2    1    0    0    0 -0.63064236744E+01 -0.29981111055E+02 -0.15974423373E+02  0.90538296688E+02  0.83686097802E+02 0.  0.
         13    1    3    3    0    0 -0.62906201537E+01 -0.59358412408E+02 -0.92838396399E+01  0.60408557903E+02  0.10566000000E+00 0. -1.
         22    1    1    0    0    0  0.63064236744E+01  0.29981111055E+02  0.15974423373E+02  0.34551703312E+02  0.00000000000E+00 0. -1.
</event>
<event>
 4    1  0.2370309E-009  0.9118800E+02  0.7561462E-02  0.1125453E+00
         25   -1    0    0    0    0  0.00000000000E+00  0.00000000000E+00  0.99999998245E-14  0.12509000000E+03  0.12509000000E+03 0.  0.
        -13    1    1    0    0    0  0.18221861402E+02 -0.28650402141E+02 -0.12338499044E+02  0.36126603750E+02  0.10566000000E+00 0. -1.
         13    1    1    0    0    0  0.27303792544E+02 -0.63898718441E+01 -0.59645551560E+01  0.28669053554E+02  0.10566000000E+00 0.  1.
         22    1    1    0    0    0 -0.45525653945E+02  0.35040273985E+02  0.18303054200E+02  0.60294342696E+02  0.00000000000E+00 0. -1.
</event>
<event>
 5    1  0.2370309E-009  0.9118800E+02  0.7561462E-02  0.1125453E+00
         25   -1    0    0    0    0  0.00000000000E+00  0.00000000000E+00  0.99999998245E-14  0.12509000000E+03  0.12509000000E+03 0.  0.
        -13    1    3    3    0    0 -0.32829404138E+01  0.21157541102E+02 -0.38334371938E+02  0.43908478443E+02  0.10566000000E+00 0. -1.
         23    2    1    0    0    0 -0.79578724019E+01  0.24554204230E+02  0.13429368564E+02  0.95993872791E+02  0.91478079313E+02 0.  0.
         13    1    3    3    0    0 -0.46749319881E+01  0.33966631276E+01  0.51763740503E+02  0.52085394348E+02  0.10566000000E+00 0.  1.
         22    1    1    0    0    0  0.79578724019E+01 -0.24554204230E+02 -0.13429368564E+02  0.29096127209E+02  0.00000000000E+00 0.  1.
</event>
<event>
 5    1  0.2370309E-009  0.9118800E+02  0.7561462E-02  0.1125453E+00
         25   -1    0    0    0    0  0.00000000000E+00  0.00000000000E+00  0.99999998245E-14  0.12509000000E+03  0.12509000000E+03 0.  0.
        -13    1    3    3    0    0  0.17057060258E+02  0.31433370927E+02 -0.36034382883E+02  0.50768967158E+02  0.10566000000E+00 0.  1.
         23    2    1    0    0    0 -0.11339566167E+02  0.15543323718E+02  0.69076798530E+01  0.10464747780E+03  0.10263136896E+03 0.  0.
         13    1    3    3    0    0 -0.28396626425E+02 -0.15890047209E+02  0.42942062736E+02  0.53878510639E+02  0.10566000000E+00 0. -1.
         22    1    1    0    0    0  0.11339566167E+02 -0.15543323718E+02 -0.69076798530E+01  0.20442522203E+02  0.00000000000E+00 0. -1.
</event>
<event>
 5    1  0.2370309E-009  0.9118800E+02  0.7561462E-02  0.1125453E+00
         25   -1    0    0    0    0  0.00000000000E+00  0.00000000000E+00  0.99999998245E-14  0.12509000000E+03  0.12509000000E+03 0.  0.
        -13    1    3    3    0    0  0.13747027028E+02  0.30895766830E+02  0.74416451456E+01  0.34625401176E+02  0.10566000000E+00 0.  1.
         23    2    1    0    0    0 -0.10830725134E+02 -0.22913340655E+02 -0.12206440968E+02  0.96959536300E+02  0.92789162575E+02 0.  0.
         13    1    3    3    0    0 -0.24577752162E+02 -0.53809107484E+02 -0.19648086114E+02  0.62334135123E+02  0.10566000000E+00 0. -1.
         22    1    1    0    0    0  0.10830725134E+02  0.22913340655E+02  0.12206440968E+02  0.28130463700E+02  0.00000000000E+00 0. -1.
</event>
<event>
 5    1  0.2370309E-009  0.9118800E+02  0.7561462E-02  0.1125453E+00
         25   -1    0    0    0    0  0.00000000000E+00  0.00000000000E+00  0.99999998245E-14  0.12509000000E+03  0.12509000000E+03 0.  0.
        -13    1    3    3    0    0 -0.25994104544E+02 -0.25252154158E+02 -0.46737672606E+02  0.59142082863E+02  0.10566000000E+00 0.  1.
         23    2    1    0    0    0 -0.17869064003E+02 -0.20142806182E+02 -0.11245005698E+02  0.95909762812E+02  0.91362992290E+02 0.  0.
         13    1    3    3    0    0  0.81250405408E+01  0.51093479766E+01  0.35492666908E+02  0.36767679949E+02  0.10566000000E+00 0. -1.
         22    1    1    0    0    0  0.17869064003E+02  0.20142806182E+02  0.11245005698E+02  0.29180237188E+02  0.00000000000E+00 0.  1.
</event>
<event>
 5    1  0.2370309E-009  0.9118800E+02  0.7561462E-02  0.1125453E+00
         25   -1    0    0    0    0  0.00000000000E+00  0.00000000000E+00  0.99999998245E-14  0.12509000000E+03  0.12509000000E+03 0.  0.
        -13    1    3    3    0    0 -0.34520135671E+02  0.18558712769E+02 -0.15244772752E+02  0.42053297691E+02  0.10566000000E+00 0.  1.
         23    2    1    0    0    0 -0.12829496898E+02 -0.27479338315E+02 -0.97167549297E+01  0.93244665157E+02  0.87638132277E+02 0.  0.
         13    1    3    3    0    0  0.21690638773E+02 -0.46038051084E+02  0.55280178220E+01  0.51191367466E+02  0.10566000000E+00 0. -1.
         22    1    1    0    0    0  0.12829496898E+02  0.27479338315E+02  0.97167549297E+01  0.31845334843E+02  0.00000000000E+00 0. -1.
</event>
<event>
 5    1  0.2370309E-009  0.9118800E+02  0.7561462E-02  0.1125453E+00
         25   -1    0    0    0    0  0.00000000000E+00  0.00000000000E+00  0.99999998245E-14  0.12509000000E+03  0.12509000000E+03 0.  0.
        -13    1    3    3    0    0 -0.38087622347E+02 -0.73568050726E+01  0.38402084676E+01  0.38981379171E+02  0.10566000000E+00 0. -1.
         23    2    1    0    0    0  0.15266357037E+02 -0.19423396735E+02  0.16821306910E+02  0.95202103385E+02  0.90388904878E+02 0.  0.
         13    1    3    3    0    0  0.53353979384E+02 -0.12066591662E+02  0.12981098442E+02  0.56220724215E+02  0.10566000000E+00 0.  1.
         22    1    1    0    0    0 -0.15266357037E+02  0.19423396735E+02 -0.16821306910E+02  0.29887896615E+02  0.00000000000E+00 0.  1.
</event>
<event>
 5    1  0.2370309E-009  0.9118800E+02  0.7561462E-02  0.1125453E+00
         25   -1    0    0    0    0  0.00000000000E+00  0.00000000000E+00  0.99999998245E-14  0.12509000000E+03  0.12509000000E+03 0.  0.
        -13    1    3    3    0    0 -0.91038821621E+01  0.14292599939E+02 -0.41297030370E+02  0.44638715986E+02  0.10566000000E+00 0.  1.
         23    2    1    0    0    0  0.48919637437E+01 -0.25915160317E+02 -0.13746468317E+02  0.95349585835E+02  0.90592777219E+02 0.  0.
         13    1    3    3    0    0  0.13995845906E+02 -0.40207760255E+02  0.27550562054E+02  0.50710869849E+02  0.10566000000E+00 0. -1.
         22    1    1    0    0    0 -0.48919637437E+01  0.25915160317E+02  0.13746468317E+02  0.29740414165E+02  0.00000000000E+00 0. -1.
</event>
<event>
 5    1  0.2370309E-009  0.9118800E+02  0.7561462E-02  0.1125453E+00
         25   -1    0    0    0    0  0.00000000000E+00  0.00000000000E+00  0.99999998245E-14  0.12509000000E+03  0.12509000000E+03 0.  0.
        -13    1    3    3    0    0  0.47965589736E+02  0.30115411249E+02  0.19389725992E+02  0.59863247753E+02  0.10566000000E+00 0.  1.
         23    2    1    0    0    0  0.13544889637E+02  0.21587794545E+02  0.14796100714E+02  0.95621007738E+02  0.90966783036E+02 0.  0.
         13    1    3    3    0    0 -0.34420700099E+02 -0.85276167039E+01 -0.45936252774E+01  0.35757759986E+02  0.10566000000E+00 0. -1.
         22    1    1    0    0    0 -0.13544889637E+02 -0.21587794545E+02 -0.14796100714E+02  0.29468992262E+02  0.00000000000E+00 0.  1.
</event>
<event>
 5    1  0.2370309E-009  0.9118800E+02  0.7561462E-02  0.1125453E+00
         25   -1    0    0    0    0  0.00000000000E+00  0.00000000000E+00  0.99999998245E-14  0.12509000000E+03  0.12509000000E+03 0.  0.
        -13    1    3    3    0    0 -0.27426011901E+02 -0.15939227009E+02 -0.16770454566E+02  0.35881811505E+02  0.10566000000E+00 0. -1.
         23    2    1    0    0    0  0.25374428269E+02  0.10754376789E+02  0.53535653092E+00  0.97525442382E+02  0.93548955499E+02 0.  0.
         13    1    3    3    0    0  0.52800440170E+02  0.26693603798E+02  0.17305811097E+02  0.61643630877E+02  0.10566000000E+00 0.  1.
         22    1    1    0    0    0 -0.25374428269E+02 -0.10754376789E+02 -0.53535653092E+00  0.27564557618E+02  0.00000000000E+00 0.  1.
</event>
<event>
 5    1  0.2370309E-009  0.9118800E+02  0.7561462E-02  0.1125453E+00
         25   -1    0    0    0    0  0.00000000000E+00  0.00000000000E+00  0.99999998245E-14  0.12509000000E+03  0.12509000000E+03 0.  0.
        -13    1    3    3    0    0  0.38182496837E+02  0.40166820611E+00  0.26952886325E+02  0.46738994933E+02  0.10566000000E+00 0.  1.
         23    2    1    0    0    0  0.18569616597E+02 -0.19112058144E+02 -0.13082480480E+02  0.95404098926E+02  0.90668017345E+02 0.  0.
         13    1    3    3    0    0 -0.19612880239E+02 -0.19513726350E+02 -0.40035366806E+02  0.48665103993E+02  0.10566000000E+00 0. -1.
         22    1    1    0    0    0 -0.18569616597E+02  0.19112058144E+02  0.13082480480E+02  0.29685901074E+02  0.00000000000E+00 0. -1.
</event>
<event>
 5    1  0.2370309E-009  0.9118800E+02  0.7561462E-02  0.1125453E+00
         25   -1    0    0    0    0  0.00000000000E+00  0.00000000000E+00  0.99999998245E-14  0.12509000000E+03  0.12509000000E+03 0.  0.
        -13    1    3    3    0    0  0.41510978471E+02 -0.44035230269E+02  0.73812572735E+00  0.60521226294E+02  0.10566000000E+00 0. -1.
         23    2    1    0    0    0  0.25395347157E+02 -0.11440343703E+02  0.36478616724E+01  0.96998862322E+02  0.92842163243E+02 0.  0.
         13    1    3    3    0    0 -0.16115631314E+02  0.32594886566E+02  0.29097359450E+01  0.36477636028E+02  0.10566000000E+00 0.  1.
         22    1    1    0    0    0 -0.25395347157E+02  0.11440343703E+02 -0.36478616724E+01  0.28091137678E+02  0.00000000000E+00 0. -1.
</event>
<event>
 5    1  0.2370309E-009  0.9118800E+02  0.7561462E-02  0.1125453E+00
         25   -1    0    0    0    0  0.00000000000E+00  0.00000000000E+00  0.99999998245E-14  0.12509000000E+03  0.12509000000E+03 0.  0.
        -13    1    3    3    0    0  0.27900249345E+02  0.30375190678E+02  0.14006593191E+01  0.41268015857E+02  0.10566000000E+00 0.  1.
         23    2    1    0    0    0 -0.21977927005E+02  0.21923317451E+02  0.97722028115E+01  0.92545306557E+02  0.86634154318E+02 0.  0.
         13    1    3    3    0    0 -0.49878176350E+02 -0.84518732266E+01  0.83715434924E+01  0.51277290700E+02  0.10566000000E+00 0. -1.
         22    1    1    0    0    0  0.21977927005E+02 -0.21923317451E+02 -0.97722028115E+01  0.32544693443E+02  0.00000000000E+00 0. -1.
</event>
<event>
 5    1  0.2370309E-009  0.9118800E+02  0.7561462E-02  0.1125453E+00
         25   -1    0    0    0    0  0.00000000000E+00  0.00000000000E+00  0.99999998245E-14  0.12509000000E+03  0.12509000000E+03 0.  0.
        -13    1    3    3    0    0  0.13549071166E+02 -0.46189630385E+02  0.37949698992E+02  0.61296411821E+02  0.10566000000E+00 0.  1.
         23    2    1    0    0    0  0.11277421727E+02 -0.17243084720E+02  0.23845011948E+02  0.93576688427E+02  0.88110770118E+02 0.  0.
         13    1    3    3    0    0 -0.22716494388E+01  0.28946545665E+02 -0.14104687044E+02  0.32280276606E+02  0.10566000000E+00 0. -1.
         22    1    1    0    0    0 -0.11277421727E+02  0.17243084720E+02 -0.23845011948E+02  0.31513311573E+02  0.00000000000E+00 0.  1.
</event>
<event>
 5    1  0.2370309E-009  0.9118800E+02  0.7561462E-02  0.1125453E+00
         25   -1    0    0    0    0  0.00000000000E+00  0.00000000000E+00  0.99999998245E-14  0.12509000000E+03  0.12509000000E+03 0.  0.
        -13    1    3    3    0    0 -0.99674839007E+00 -0.24349212201E+02  0.36825434723E+02  0.44158820735E+02  0.10566000000E+00 0. -1.
         23    2    1    0    0    0 -0.21284944969E+01  0.23531296613E+02  0.16942259711E+02  0.96016084316E+02  0.91508447010E+02 0.  0.
         13    1    3    3    0    0 -0.11317461069E+01  0.47880508813E+02 -0.19883175012E+02  0.51857263581E+02  0.10566000000E+00 0.  1.
         22    1    1    0    0    0  0.21284944969E+01 -0.23531296613E+02 -0.16942259711E+02  0.29073915684E+02  0.00000000000E+00 0.  1.
</event>
<event>
 5    1  0.2370309E-009  0.9118800E+02  0.7561462E-02  0.1125453E+00
         25   -1    0    0    0    0  0.00000000000E+00  0.00000000000E+00  0.99999998245E-14  0.12509000000E+03  0.12509000000E+03 0.  0.
        -13    1    3    3    0    0  0.85427975168E+01 -0.28425074135E+02  0.53249469372E+02  0.60962950892E+02  0.10566000000E+00 0. -1.
         23    2    1    0    0    0 -0.10255254811E+00 -0.21683983368E+02  0.21492284300E+02  0.94559295190E+02  0.89494895780E+02 0.  0.
         13    1    3    3    0    0 -0.86453500649E+01  0.67410907664E+01 -0.31757185072E+02  0.33596344298E+02  0.10566000000E+00 0.  1.
         22    1    1    0    0    0  0.10255254811E+00  0.21683983368E+02 -0.21492284300E+02  0.30530704810E+02  0.00000000000E+00 0. -1.
</event>
<event>
 5    1  0.2370309E-009  0.9118800E+02  0.7561462E-02  0.1125453E+00
         25   -1    0    0    0    0  0.00000000000E+00  0.00000000000E+00  0.99999998245E-14  0.12509000000E+03  0.12509000000E+03 0.  0.
        -13    1    3    3    0    0  0.50151702700E+02  0.14528016477E+01 -0.25561114737E+02  0.56308841819E+02  0.10566000000E+00 0.  1.
         23    2    1    0    0    0  0.26866628072E+02  0.13560072329E+02  0.26971826674E+01  0.94874671773E+02  0.89934627838E+02 0.  0.
         13    1    3    3    0    0 -0.23285074629E+02  0.12107270681E+02  0.28258297405E+02  0.38565829954E+02  0.10566000000E+00 0. -1.
         22    1    1    0    0    0 -0.26866628072E+02 -0.13560072329E+02 -0.26971826674E+01  0.30215328227E+02  0.00000000000E+00 0.  1.
</event>
<event>
 5    1  0.2370309E-009  0.9118800E+02  0.7561462E-02  0.1125453E+00
         25   -1    0    0    0    0  0.00000000000E+00  0.00000000000E+00  0.99999998245E-14  0.12509000000E+03  0.12509000000E+03 0.  0.
        -13    1    3    3    0    0 -0.15905202868E+02  0.11544922882E+01  0.83255627527E+01  0.17989844076E+02  0.10566000000E+00 0. -1.
         23    2    1    0    0    0 -0.11911404183E+02 -0.22301618166E+02 -0.43364366719E+02  0.74893266806E+02  0.55581376283E+02 0.  0.
         13    1    3    3    0    0  0.39937986840E+01 -0.23456110454E+02 -0.51689929471E+02  0.56903422730E+02  0.10566000000E+00 0.  1.
         22    1    1    0    0    0  0.11911404183E+02  0.22301618166E+02  0.43364366719E+02  0.50196733194E+02  0.00000000000E+00 0.  1.
</event>
<event>
 5    1  0.2370309E-009  0.9118800E+02  0.7561462E-02  0.1125453E+00
         25   -1    0    0    0    0  0.00000000000E+00  0.00000000000E+00  0.99999998245E-14  0.12509000000E+03  0.12509000000E+03 0.  0.
        -13    1    3    3    0    0  0.19605256538E+02  0.27899977138E+02  0.17638528007E+02  0.38391452728E+02  0.10566000000E+00 0.  1.
         23    2    1    0    0    0 -0.27441267021E+01 -0.25781590763E+02  0.11030316892E+02  0.96913972168E+02  0.92727716768E+02 0.  0.
         13    1    3    3    0    0 -0.22349383240E+02 -0.53681567901E+02 -0.66082111149E+01  0.58522519441E+02  0.10566000000E+00 0. -1.
         22    1    1    0    0    0  0.27441267021E+01  0.25781590763E+02 -0.11030316892E+02  0.28176027832E+02  0.00000000000E+00 0. -1.
</event>
<event>
 5    1  0.2370309E-009  0.9118800E+02  0.7561462E-02  0.1125453E+00
         25   -1    0    0    0    0  0.00000000000E+00  0.00000000000E+00  0.99999998245E-14  0.12509000000E+03  0.12509000000E+03 0.  0.
        -13    1    3    3    0    0 -0.15568800891E+02  0.18452691424E+02  0.52039473954E+02  0.57367302494E+02  0.10566000000E+00 0.  1.
         23    2    1    0    0    0  0.71959481297E+01 -0.17753346456E+01  0.27884322184E+02  0.96237462742E+02  0.91810567631E+02 0.  0.
         13    1    3    3    0    0  0.22764749021E+02 -0.20228026070E+02 -0.24155151770E+02  0.38870160248E+02  0.10566000000E+00 0. -1.
         22    1    1    0    0    0 -0.71959481297E+01  0.17753346456E+01 -0.27884322184E+02  0.28852537258E+02  0.00000000000E+00 0.  1.
</event>
<event>
 5    1  0.2370309E-009  0.9118800E+02  0.7561462E-02  0.1125453E+00
         25   -1    0    0    0    0  0.00000000000E+00  0.00000000000E+00  0.99999998245E-14  0.12509000000E+03  0.12509000000E+03 0.  0.
        -13    1    3    3    0    0  0.20348219723E+02  0.26220890856E+02 -0.51813397508E+01  0.33592299844E+02  0.10566000000E+00 0.  1.
         23    2    1    0    0    0 -0.18934698117E+02 -0.19120402057E+02  0.11449055737E+02  0.95846309315E+02  0.91276073341E+02 0.  0.
         13    1    3    3    0    0 -0.39282917840E+02 -0.45341292913E+02  0.16630395488E+02  0.62254009471E+02  0.10566000000E+00 0. -1.
         22    1    1    0    0    0  0.18934698117E+02  0.19120402057E+02 -0.11449055737E+02  0.29243690685E+02  0.00000000000E+00 0. -1.
</event>
<event>
 5    1  0.2370309E-009  0.9118800E+02  0.7561462E-02  0.1125453E+00
         25   -1    0    0    0    0  0.00000000000E+00  0.00000000000E+00  0.99999998245E-14  0.12509000000E+03  0.12509000000E+03 0.  0.
        -13    1    3    3    0    0 -0.12844916821E+02 -0.39614339874E+02  0.30605657029E+02  0.51681768720E+02  0.10566000000E+00 0. -1.
         23    2    1    0    0    0 -0.72977465385E+01 -0.26445402628E+02 -0.10893588153E+02  0.95572434255E+02  0.90899964257E+02 0.  0.
         13    1    3    3    0    0  0.55471702829E+01  0.13168937247E+02 -0.41499245182E+02  0.43890665535E+02  0.10566000000E+00 0.  1.
         22    1    1    0    0    0  0.72977465385E+01  0.26445402628E+02  0.10893588153E+02  0.29517565745E+02  0.00000000000E+00 0. -1.
</event>
<event>
 5    1  0.2370309E-009  0.9118800E+02  0.7561462E-02  0.1125453E+00
         25   -1    0    0    0    0  0.00000000000E+00  0.00000000000E+00  0.99999998245E-14  0.12509000000E+03  0.12509000000E+03 0.  0.
        -13    1    3    3    0    0  0.16013164280E+02 -0.24916350577E+02  0.25762961519E+02  0.39255411176E+02  0.10566000000E+00 0.  1.
         23    2    1    0    0    0 -0.11752694924E+02 -0.13410873403E+02 -0.22664549731E+02  0.96251498341E+02  0.91829688854E+02 0.  0.
         13    1    3    3    0    0 -0.27765859204E+02  0.11505477174E+02 -0.48427511250E+02  0.56996087166E+02  0.10566000000E+00 0. -1.
         22    1    1    0    0    0  0.11752694924E+02  0.13410873403E+02  0.22664549731E+02  0.28838501659E+02  0.00000000000E+00 0. -1.
</event>
<event>
 5    1  0.2370309E-009  0.9118800E+02  0.7561462E-02  0.1125453E+00
         25   -1    0    0    0    0  0.00000000000E+00  0.00000000000E+00  0.99999998245E-14  0.12509000000E+03  0.12509000000E+03 0.  0.
        -13    1    3    3    0    0  0.20627323971E+02  0.22665548115E+02 -0.24612527579E+02  0.39306503831E+02  0.10566000000E+00 0.  1.
         23    2    1    0    0    0  0.12882850993E+02 -0.26853920173E+02  0.35766583191E+00  0.95303613794E+02  0.90529277027E+02 0.  0.
         13    1    3    3    0    0 -0.77444729788E+01 -0.49519468288E+02  0.24970193411E+02  0.55997109963E+02  0.10566000000E+00 0. -1.
         22    1    1    0    0    0 -0.12882850993E+02  0.26853920173E+02 -0.35766583191E+00  0.29786386206E+02  0.00000000000E+00 0. -1.
</event>
<event>
 5    1  0.2370309E-009  0.9118800E+02  0.7561462E-02  0.1125453E+00
         25   -1    0    0    0    0  0.00000000000E+00  0.00000000000E+00  0.99999998245E-14  0.12509000000E+03  0.12509000000E+03 0.  0.
        -13    1    3    3    0    0 -0.21218510929E+02 -0.50881365273E+02 -0.28301846992E+02  0.61968897402E+02  0.10566000000E+00 0.  1.
         23    2    1    0    0    0 -0.12539828989E+02 -0.24471003139E+02 -0.78089374309E+01  0.96505794405E+02  0.92175438943E+02 0.  0.
         13    1    3    3    0    0  0.86786819407E+01  0.26410362134E+02  0.20492909561E+02  0.34536897003E+02  0.10566000000E+00 0. -1.
         22    1    1    0    0    0  0.12539828989E+02  0.24471003139E+02  0.78089374309E+01  0.28584205595E+02  0.00000000000E+00 0.  1.
</event>
<event>
 5    1  0.2370309E-009  0.9118800E+02  0.7561462E-02  0.1125453E+00
         25   -1    0    0    0    0  0.00000000000E+00  0.00000000000E+00  0.99999998245E-14  0.12509000000E+03  0.12509000000E+03 0.  0.
        -13    1    3    3    0    0 -0.14183066297E+02 -0.20376330259E+02 -0.31073760419E+02  0.39773659060E+02  0.10566000000E+00 0. -1.
         23    2    1    0    0    0 -0.11961100897E+02 -0.10873108755E+02  0.24247002966E+02  0.95948799244E+02  0.91416423552E+02 0.  0.
         13    1    3    3    0    0  0.22219654000E+01  0.95032215045E+01  0.55320763385E+02  0.56175140184E+02  0.10566000000E+00 0.  1.
         22    1    1    0    0    0  0.11961100897E+02  0.10873108755E+02 -0.24247002966E+02  0.29141200756E+02  0.00000000000E+00 0.  1.
</event>
<event>
 5    1  0.2370309E-009  0.9118800E+02  0.7561462E-02  0.1125453E+00
         25   -1    0    0    0    0  0.00000000000E+00  0.00000000000E+00  0.99999998245E-14  0.12509000000E+03  0.12509000000E+03 0.  0.
        -13    1    3    3    0    0 -0.36528952471E+02  0.40928741777E+02  0.22119333864E+02  0.59150675116E+02  0.10566000000E+00 0.  1.
         23    2    1    0    0    0 -0.24919831450E+02  0.14956993631E+02 -0.12975200551E+01  0.95997162114E+02  0.91482577126E+02 0.  0.
         13    1    3    3    0    0  0.11609121020E+02 -0.25971748146E+02 -0.23416853919E+02  0.36846486998E+02  0.10566000000E+00 0. -1.
         22    1    1    0    0    0  0.24919831450E+02 -0.14956993631E+02  0.12975200551E+01  0.29092837886E+02  0.00000000000E+00 0.  1.
</event>
<event>
 5    1  0.2370309E-009  0.9118800E+02  0.7561462E-02  0.1125453E+00
         25   -1    0    0    0    0  0.00000000000E+00  0.00000000000E+00  0.99999998245E-14  0.12509000000E+03  0.12509000000E+03 0.  0.
        -13    1    3    3    0    0  0.47968160626E+02  0.38449666976E+02 -0.68074554593E+01  0.61852032612E+02  0.10566000000E+00 0.  1.
         23    2    1    0    0    0  0.28154921072E+02  0.28847460329E+02 -0.83530354168E+01  0.83923888346E+02  0.73133920219E+02 0.  0.
         13    1    3    3    0    0 -0.19813239554E+02 -0.96022066468E+01 -0.15455799574E+01  0.22071855734E+02  0.10566000000E+00 0. -1.
         22    1    1    0    0    0 -0.28154921072E+02 -0.28847460329E+02  0.83530354168E+01  0.41166111654E+02  0.00000000000E+00 0.  1.
</event>
<event>
 5    1  0.2370309E-009  0.9118800E+02  0.7561462E-02  0.1125453E+00
         25   -1    0    0    0    0  0.00000000000E+00  0.00000000000E+00  0.99999998245E-14  0.12509000000E+03  0.12509000000E+03 0.  0.
        -13    1    3    3    0    0  0.34981489457E+02 -0.39444187599E+00  0.22193219386E+01  0.35054197222E+02  0.10566000000E+00 0. -1.
         23    2    1    0    0    0 -0.23555133145E+02 -0.57835039939E+01  0.16757316815E+02  0.95609482997E+02  0.90950933784E+02 0.  0.
         13    1    3    3    0    0 -0.58536622602E+02 -0.53890621179E+01  0.14537994876E+02  0.60555285774E+02  0.10566000000E+00 0.  1.
         22    1    1    0    0    0  0.23555133145E+02  0.57835039939E+01 -0.16757316815E+02  0.29480517003E+02  0.00000000000E+00 0.  1.
</event>
<event>
 5    1  0.2370309E-009  0.9118800E+02  0.7561462E-02  0.1125453E+00
         25   -1    0    0    0    0  0.00000000000E+00  0.00000000000E+00  0.99999998245E-14  0.12509000000E+03  0.12509000000E+03 0.  0.
        -13    1    3    3    0    0 -0.21876413913E+02  0.46762296880E+02 -0.35239339266E+02  0.62506896349E+02  0.10566000000E+00 0. -1.
         23    2    1    0    0    0 -0.11219313876E+02  0.20374422879E+02 -0.16018654756E+02  0.96848409895E+02  0.92639230823E+02 0.  0.
         13    1    3    3    0    0  0.10657100037E+02 -0.26387874002E+02  0.19220684510E+02  0.34341513546E+02  0.10566000000E+00 0.  1.
         22    1    1    0    0    0  0.11219313876E+02 -0.20374422879E+02  0.16018654756E+02  0.28241590105E+02  0.00000000000E+00 0. -1.
</event>
<event>
 5    1  0.2370309E-009  0.9118800E+02  0.7561462E-02  0.1125453E+00
         25   -1    0    0    0    0  0.00000000000E+00  0.00000000000E+00  0.99999998245E-14  0.12509000000E+03  0.12509000000E+03 0.  0.
        -13    1    3    3    0    0  0.30961023086E+02  0.41247332675E+01  0.13939141048E+02  0.34203935333E+02  0.10566000000E+00 0.  1.
         23    2    1    0    0    0 -0.17104426468E+02 -0.16239289171E+02 -0.18017178381E+02  0.95410130822E+02  0.90676338860E+02 0.  0.
         13    1    3    3    0    0 -0.48065449554E+02 -0.20364022439E+02 -0.31956319429E+02  0.61206195489E+02  0.10566000000E+00 0. -1.
         22    1    1    0    0    0  0.17104426468E+02  0.16239289171E+02  0.18017178381E+02  0.29679869178E+02  0.00000000000E+00 0. -1.
</event>
<event>
 5    1  0.2370309E-009  0.9118800E+02  0.7561462E-02  0.1125453E+00
         25   -1    0    0    0    0  0.00000000000E+00  0.00000000000E+00  0.99999998245E-14  0.12509000000E+03  0.12509000000E+03 0.  0.
        -13    1    3    3    0    0 -0.21565794985E+02 -0.67631781201E+01  0.36239470459E+02  0.42709887319E+02  0.10566000000E+00 0. -1.
         23    2    1    0    0    0 -0.54230096187E+01  0.27574294299E+02 -0.24264871494E+01  0.96882933877E+02  0.92685836551E+02 0.  0.
         13    1    3    3    0    0  0.16142785366E+02  0.34337472419E+02 -0.38665957609E+02  0.54173046558E+02  0.10566000000E+00 0.  1.
         22    1    1    0    0    0  0.54230096187E+01 -0.27574294299E+02  0.24264871494E+01  0.28207066123E+02  0.00000000000E+00 0.  1.
</event>
<event>
 5    1  0.2370309E-009  0.9118800E+02  0.7561462E-02  0.1125453E+00
         25   -1    0    0    0    0  0.00000000000E+00  0.00000000000E+00  0.99999998245E-14  0.12509000000E+03  0.12509000000E+03 0.  0.
        -13    1    3    3    0    0 -0.11618700802E+02  0.26755461873E+02  0.41046577301E+02  0.50355552033E+02  0.10566000000E+00 0.  1.
         23    2    1    0    0    0 -0.23293186497E+02  0.24213637713E+02  0.17309300011E+01  0.91446740539E+02  0.85033154994E+02 0.  0.
         13    1    3    3    0    0 -0.11674485694E+02 -0.25418241604E+01 -0.39315647299E+02  0.41091188507E+02  0.10566000000E+00 0. -1.
         22    1    1    0    0    0  0.23293186497E+02 -0.24213637713E+02 -0.17309300011E+01  0.33643259461E+02  0.00000000000E+00 0.  1.
</event>
<event>
 5    1  0.2370309E-009  0.9118800E+02  0.7561462E-02  0.1125453E+00
         25   -1    0    0    0    0  0.00000000000E+00  0.00000000000E+00  0.99999998245E-14  0.12509000000E+03  0.12509000000E+03 0.  0.
        -13    1    3    3    0    0  0.14546707445E+02  0.30041075720E+02  0.22912971498E+02  0.40485656162E+02  0.10566000000E+00 0.  1.
         23    2    1    0    0    0 -0.23293873616E+02  0.98724895854E+01 -0.13206490226E+02  0.96550869271E+02  0.92236589130E+02 0.  0.
         13    1    3    3    0    0 -0.37840581061E+02 -0.20168586135E+02 -0.36119461725E+02  0.56065213110E+02  0.10566000000E+00 0. -1.
         22    1    1    0    0    0  0.23293873616E+02 -0.98724895854E+01  0.13206490226E+02  0.28539130729E+02  0.00000000000E+00 0. -1.
</event>
<event>
 5    1  0.2370309E-009  0.9118800E+02  0.7561462E-02  0.1125453E+00
         25   -1    0    0    0    0  0.00000000000E+00  0.00000000000E+00  0.99999998245E-14  0.12509000000E+03  0.12509000000E+03 0.  0.
        -13    1    3    3    0    0 -0.10589973689E+02  0.47078726547E+01  0.16158959292E+02  0.19885540905E+02  0.10566000000E+00 0.  1.
         23    2    1    0    0    0 -0.37652792894E+01 -0.34802260238E+02 -0.28534329737E+02  0.79928261555E+02  0.65946526640E+02 0.  0.
         13    1    3    3    0    0  0.68246943993E+01 -0.39510132893E+02 -0.44693289028E+02  0.60042720650E+02  0.10566000000E+00 0. -1.
         22    1    1    0    0    0  0.37652792894E+01  0.34802260238E+02  0.28534329737E+02  0.45161738445E+02  0.00000000000E+00 0. -1.
</event>
<event>
 5    1  0.2370309E-009  0.9118800E+02  0.7561462E-02  0.1125453E+00
         25   -1    0    0    0    0  0.00000000000E+00  0.00000000000E+00  0.99999998245E-14  0.12509000000E+03  0.12509000000E+03 0.  0.
        -13    1    3    3    0    0 -0.22840515732E+01  0.14949913715E+02  0.50253849897E+02  0.52480257289E+02  0.10566000000E+00 0.  1.
         23    2    1    0    0    0  0.22863621663E+02  0.18939318784E+01  0.15131386030E+02  0.97607441591E+02  0.93658537450E+02 0.  0.
         13    1    3    3    0    0  0.25147673236E+02 -0.13055981837E+02 -0.35122463867E+02  0.45127184302E+02  0.10566000000E+00 0. -1.
         22    1    1    0    0    0 -0.22863621663E+02 -0.18939318784E+01 -0.15131386030E+02  0.27482558409E+02  0.00000000000E+00 0.  1.
</event>
<event>
 5    1  0.2370309E-009  0.9118800E+02  0.7561462E-02  0.1125453E+00
         25   -1    0    0    0    0  0.00000000000E+00  0.00000000000E+00  0.99999998245E-14  0.12509000000E+03  0.12509000000E+03 0.  0.
        -13    1    3    3    0    0  0.47404290059E+02  0.51428873480E+01 -0.32176143719E+02  0.57523311752E+02  0.10566000000E+00 0. -1.
         23    2    1    0    0    0  0.27928014095E+02  0.73893750820E+01  0.11381745070E+01  0.96178544198E+02  0.91730257208E+02 0.  0.
         13    1    3    3    0    0 -0.19476275964E+02  0.22464877340E+01  0.33314318226E+02  0.38655232446E+02  0.10566000000E+00 0.  1.
         22    1    1    0    0    0 -0.27928014095E+02 -0.73893750820E+01 -0.11381745070E+01  0.28911455802E+02  0.00000000000E+00 0. -1.
</event>
<event>
 5    1  0.2370309E-009  0.9118800E+02  0.7561462E-02  0.1125453E+00
         25   -1    0    0    0    0  0.00000000000E+00  0.00000000000E+00  0.99999998245E-14  0.12509000000E+03  0.12509000000E+03 0.  0.
        -13    1    3    3    0    0  0.90340445728E+01  0.39845170667E+02 -0.50747627245E+01  0.41170571621E+02  0.10566000000E+00 0.  1.
         23    2    1    0    0    0  0.20447739786E+02 -0.94109564920E+01 -0.21126986791E+02  0.94218885098E+02  0.89017821663E+02 0.  0.
         13    1    3    3    0    0  0.11413695213E+02 -0.49256127160E+02 -0.16052224067E+02  0.53048313476E+02  0.10566000000E+00 0. -1.
         22    1    1    0    0    0 -0.20447739786E+02  0.94109564920E+01  0.21126986791E+02  0.30871114902E+02  0.00000000000E+00 0. -1.
</event>
<event>
 5    1  0.2370309E-009  0.9118800E+02  0.7561462E-02  0.1125453E+00
         25   -1    0    0    0    0  0.00000000000E+00  0.00000000000E+00  0.99999998245E-14  0.12509000000E+03  0.12509000000E+03 0.  0.
        -13    1    3    3    0    0 -0.84674948955E+01 -0.26702413162E+01 -0.42263344606E+02  0.43185994487E+02  0.10566000000E+00 0. -1.
         23    2    1    0    0    0  0.23665193164E+01  0.29016381085E+02 -0.15031003569E+01  0.95938497540E+02  0.91402326090E+02 0.  0.
         13    1    3    3    0    0  0.10834014212E+02  0.31686622402E+02  0.40760244249E+02  0.52752503054E+02  0.10566000000E+00 0.  1.
         22    1    1    0    0    0 -0.23665193164E+01 -0.29016381085E+02  0.15031003569E+01  0.29151502460E+02  0.00000000000E+00 0.  1.
</event>
<event>
 5    1  0.2370309E-009  0.9118800E+02  0.7561462E-02  0.1125453E+00
         25   -1    0    0    0    0  0.00000000000E+00  0.00000000000E+00  0.99999998245E-14  0.12509000000E+03  0.12509000000E+03 0.  0.
        -13    1    3    3    0    0  0.18089404287E+02  0.19699467698E+02 -0.48498451160E+02  0.55384171962E+02  0.10566000000E+00 0.  1.
         23    2    1    0    0    0 -0.12551121120E+02  0.13677917723E+02 -0.21694574207E+02  0.96537055763E+02  0.92217853536E+02 0.  0.
         13    1    3    3    0    0 -0.30640525407E+02 -0.60215499747E+01  0.26803876953E+02  0.41152883800E+02  0.10566000000E+00 0. -1.
         22    1    1    0    0    0  0.12551121120E+02 -0.13677917723E+02  0.21694574207E+02  0.28552944237E+02  0.00000000000E+00 0.  1.
</event>
<event>
 5    1  0.2370309E-009  0.9118800E+02  0.7561462E-02  0.1125453E+00
         25   -1    0    0    0    0  0.00000000000E+00  0.00000000000E+00  0.99999998245E-14  0.12509000000E+03  0.12509000000E+03 0.  0.
        -13    1    3    3    0    0  0.37912384056E+02  0.29182323596E+02  0.80695924960E-01  0.47843228896E+02  0.10566000000E+00 0. -1.
         23    2    1    0    0    0  0.18691462774E+02 -0.68161756265E+01 -0.22961704037E+02  0.94707918388E+02  0.89702390840E+02 0.  0.
         13    1    3    3    0    0 -0.19220921282E+02 -0.35998499223E+02 -0.23042399961E+02  0.46864689493E+02  0.10566000000E+00 0.  1.
         22    1    1    0    0    0 -0.18691462774E+02  0.68161756265E+01  0.22961704037E+02  0.30382081612E+02  0.00000000000E+00 0. -1.
</event>
<event>
 5    1  0.2370309E-009  0.9118800E+02  0.7561462E-02  0.1125453E+00
         25   -1    0    0    0    0  0.00000000000E+00  0.00000000000E+00  0.99999998245E-14  0.12509000000E+03  0.12509000000E+03 0.  0.
        -13    1    3    3    0    0  0.29649163078E+01  0.58596610665E+01  0.35864988958E+02  0.36461417327E+02  0.10566000000E+00 0.  1.
         23    2    1    0    0    0 -0.16196003831E+02 -0.22802879758E+02 -0.11333820600E+02  0.94911574682E+02  0.89985941423E+02 0.  0.
         13    1    3    3    0    0 -0.19160920138E+02 -0.28662540824E+02 -0.47198809558E+02  0.58450157354E+02  0.10566000000E+00 0. -1.
         22    1    1    0    0    0  0.16196003831E+02  0.22802879758E+02  0.11333820600E+02  0.30178425318E+02  0.00000000000E+00 0. -1.
</event>
<event>
 5    1  0.2370309E-009  0.9118800E+02  0.7561462E-02  0.1125453E+00
         25   -1    0    0    0    0  0.00000000000E+00  0.00000000000E+00  0.99999998245E-14  0.12509000000E+03  0.12509000000E+03 0.  0.
        -13    1    3    3    0    0 -0.53843058311E+02  0.22387825574E+01 -0.19357048201E+02  0.57260750561E+02  0.10566000000E+00 0.  1.
         23    2    1    0    0    0 -0.17336976749E+02  0.11716656999E+02 -0.21564832890E+02  0.95041824820E+02  0.90166821135E+02 0.  0.
         13    1    3    3    0    0  0.36506081562E+02  0.94778744420E+01 -0.22077846884E+01  0.37781074260E+02  0.10566000000E+00 0. -1.
         22    1    1    0    0    0  0.17336976749E+02 -0.11716656999E+02  0.21564832890E+02  0.30048175180E+02  0.00000000000E+00 0.  1.
</event>
<event>
 5    1  0.2370309E-009  0.9118800E+02  0.7561462E-02  0.1125453E+00
         25   -1    0    0    0    0  0.00000000000E+00  0.00000000000E+00  0.99999998245E-14  0.12509000000E+03  0.12509000000E+03 0.  0.
        -13    1    3    3    0    0 -0.28025816219E+02 -0.13803727767E+01  0.23043923917E+02  0.36309577212E+02  0.10566000000E+00 0.  1.
         23    2    1    0    0    0  0.25679261656E+02 -0.15262403944E+02  0.40367525954E+01  0.94945998526E+02  0.90033781501E+02 0.  0.
         13    1    3    3    0    0  0.53705077875E+02 -0.13882031167E+02 -0.19007171322E+02  0.58636421315E+02  0.10566000000E+00 0. -1.
         22    1    1    0    0    0 -0.25679261656E+02  0.15262403944E+02 -0.40367525954E+01  0.30144001474E+02  0.00000000000E+00 0. -1.
</event>
<event>
 5    1  0.2370309E-009  0.9118800E+02  0.7561462E-02  0.1125453E+00
         25   -1    0    0    0    0  0.00000000000E+00  0.00000000000E+00  0.99999998245E-14  0.12509000000E+03  0.12509000000E+03 0.  0.
        -13    1    3    3    0    0 -0.30629049373E+02 -0.21548796381E+02  0.36507778902E+02  0.52300271274E+02  0.10566000000E+00 0.  1.
         23    2    1    0    0    0 -0.24974788931E+02  0.12043437013E+02  0.94726342259E+01  0.95789569006E+02  0.91198279994E+02 0.  0.
         13    1    3    3    0    0  0.56542604412E+01  0.33592233394E+02 -0.27035144676E+02  0.43489297732E+02  0.10566000000E+00 0. -1.
         22    1    1    0    0    0  0.24974788931E+02 -0.12043437013E+02 -0.94726342259E+01  0.29300430994E+02  0.00000000000E+00 0.  1.
</event>
<event>
 5    1  0.2370309E-009  0.9118800E+02  0.7561462E-02  0.1125453E+00
         25   -1    0    0    0    0  0.00000000000E+00  0.00000000000E+00  0.99999998245E-14  0.12509000000E+03  0.12509000000E+03 0.  0.
        -13    1    3    3    0    0  0.24997840249E+02  0.37676967922E+02 -0.42736930195E+02  0.62216575729E+02  0.10566000000E+00 0.  1.
         23    2    1    0    0    0  0.16171012175E+02  0.17543903670E+02 -0.18824838235E+02  0.94698147057E+02  0.89688763681E+02 0.  0.
         13    1    3    3    0    0 -0.88268280739E+01 -0.20133064252E+02  0.23912091960E+02  0.32481571328E+02  0.10566000000E+00 0. -1.
         22    1    1    0    0    0 -0.16171012175E+02 -0.17543903670E+02  0.18824838235E+02  0.30391852943E+02  0.00000000000E+00 0.  1.
</event>
<event>
 5    1  0.2370309E-009  0.9118800E+02  0.7561462E-02  0.1125453E+00
         25   -1    0    0    0    0  0.00000000000E+00  0.00000000000E+00  0.99999998245E-14  0.12509000000E+03  0.12509000000E+03 0.  0.
        -13    1    3    3    0    0 -0.15942614476E+02  0.32153247104E+02 -0.89714030639E+01  0.36993181704E+02  0.10566000000E+00 0.  1.
         23    2    1    0    0    0  0.13479245894E+02 -0.17572992978E+02 -0.19330828837E+02  0.95693042749E+02  0.91065785754E+02 0.  0.
         13    1    3    3    0    0  0.29421860370E+02 -0.49726240082E+02 -0.10359425773E+02  0.58699861045E+02  0.10566000000E+00 0. -1.
         22    1    1    0    0    0 -0.13479245894E+02  0.17572992978E+02  0.19330828837E+02  0.29396957251E+02  0.00000000000E+00 0. -1.
</event>
<event>
 5    1  0.2370309E-009  0.9118800E+02  0.7561462E-02  0.1125453E+00
         25   -1    0    0    0    0  0.00000000000E+00  0.00000000000E+00  0.99999998245E-14  0.12509000000E+03  0.12509000000E+03 0.  0.
        -13    1    3    3    0    0 -0.19550074649E+02 -0.21987953293E+02  0.20749505959E+02  0.36003175837E+02  0.10566000000E+00 0. -1.
         23    2    1    0    0    0 -0.11624712585E+01  0.27652781744E+02 -0.80485061486E+01  0.96266292243E+02  0.91849838831E+02 0.  0.
         13    1    3    3    0    0  0.18387603390E+02  0.49640735038E+02 -0.28798012108E+02  0.60263116406E+02  0.10566000000E+00 0.  1.
         22    1    1    0    0    0  0.11624712585E+01 -0.27652781744E+02  0.80485061486E+01  0.28823707757E+02  0.00000000000E+00 0.  1.
</event>
<event>
 5    1  0.2370309E-009  0.9118800E+02  0.7561462E-02  0.1125453E+00
         25   -1    0    0    0    0  0.00000000000E+00  0.00000000000E+00  0.99999998245E-14  0.12509000000E+03  0.12509000000E+03 0.  0.
        -13    1    3    3    0    0 -0.15583776478E+02  0.22216219114E+02  0.53981086410E+02  0.60418402288E+02  0.10566000000E+00 0.  1.
         23    2    1    0    0    0 -0.11359173983E+02  0.67412858568E-01  0.28309573596E+02  0.94586437335E+02  0.89532825223E+02 0.  0.
         13    1    3    3    0    0  0.42246024945E+01 -0.22148806256E+02 -0.25671512814E+02  0.34168035047E+02  0.10566000000E+00 0. -1.
         22    1    1    0    0    0  0.11359173983E+02 -0.67412858568E-01 -0.28309573596E+02  0.30503562665E+02  0.00000000000E+00 0.  1.
</event>
<event>
 5    1  0.2370309E-009  0.9118800E+02  0.7561462E-02  0.1125453E+00
         25   -1    0    0    0    0  0.00000000000E+00  0.00000000000E+00  0.99999998245E-14  0.12509000000E+03  0.12509000000E+03 0.  0.
        -13    1    3    3    0    0 -0.47056652649E+02  0.31338556647E+02  0.10962152815E+02  0.57590048182E+02  0.10566000000E+00 0.  1.
         23    2    1    0    0    0 -0.89704479436E+01  0.26553303086E+02  0.71506378772E+01  0.96164605221E+02  0.91711247042E+02 0.  0.
         13    1    3    3    0    0  0.38086204706E+02 -0.47852535607E+01 -0.38115149380E+01  0.38574557038E+02  0.10566000000E+00 0. -1.
         22    1    1    0    0    0  0.89704479436E+01 -0.26553303086E+02 -0.71506378772E+01  0.28925394779E+02  0.00000000000E+00 0.  1.
</event>
<event>
 5    1  0.2370309E-009  0.9118800E+02  0.7561462E-02  0.1125453E+00
         25   -1    0    0    0    0  0.00000000000E+00  0.00000000000E+00  0.99999998245E-14  0.12509000000E+03  0.12509000000E+03 0.  0.
        -13    1    3    3    0    0  0.68445892210E+01 -0.50175468257E+02  0.33708492999E+02  0.60833376371E+02  0.10566000000E+00 0. -1.
         23    2    1    0    0    0 -0.61097618362E+01 -0.25925447169E+02  0.11943210198E+02  0.95899277665E+02  0.91348635382E+02 0.  0.
         13    1    3    3    0    0 -0.12954351057E+02  0.24250021088E+02 -0.21765282801E+02  0.35065901294E+02  0.10566000000E+00 0.  1.
         22    1    1    0    0    0  0.61097618362E+01  0.25925447169E+02 -0.11943210198E+02  0.29190722335E+02  0.00000000000E+00 0. -1.
</event>
<event>
 5    1  0.2370309E-009  0.9118800E+02  0.7561462E-02  0.1125453E+00
         25   -1    0    0    0    0  0.00000000000E+00  0.00000000000E+00  0.99999998245E-14  0.12509000000E+03  0.12509000000E+03 0.  0.
        -13    1    3    3    0    0 -0.10658210872E+02  0.61110521062E+02  0.11827812869E+01  0.62044366215E+02  0.10566000000E+00 0. -1.
         23    2    1    0    0    0 -0.99648858079E+01  0.30496849674E+02  0.38218389542E+01  0.92779579975E+02  0.86971761039E+02 0.  0.
         13    1    3    3    0    0  0.69332506434E+00 -0.30613671388E+02  0.26390576673E+01  0.30735213760E+02  0.10566000000E+00 0.  1.
         22    1    1    0    0    0  0.99648858079E+01 -0.30496849674E+02 -0.38218389542E+01  0.32310420025E+02  0.00000000000E+00 0. -1.
</event>
<event>
 5    1  0.2370309E-009  0.9118800E+02  0.7561462E-02  0.1125453E+00
         25   -1    0    0    0    0  0.00000000000E+00  0.00000000000E+00  0.99999998245E-14  0.12509000000E+03  0.12509000000E+03 0.  0.
        -13    1    3    3    0    0  0.22574241477E+02 -0.25068784887E+01 -0.36143684227E+02  0.42687912710E+02  0.10566000000E+00 0.  1.
         23    2    1    0    0    0 -0.76966354267E+00 -0.25420409816E+02  0.87149623800E+01  0.98206172399E+02  0.94454815180E+02 0.  0.
         13    1    3    3    0    0 -0.23343905020E+02 -0.22913531328E+02  0.44858646607E+02  0.55518259689E+02  0.10566000000E+00 0. -1.
         22    1    1    0    0    0  0.76966354267E+00  0.25420409816E+02 -0.87149623800E+01  0.26883827601E+02  0.00000000000E+00 0. -1.
</event>
<event>
 5    1  0.2370309E-009  0.9118800E+02  0.7561462E-02  0.1125453E+00
         25   -1    0    0    0    0  0.00000000000E+00  0.00000000000E+00  0.99999998245E-14  0.12509000000E+03  0.12509000000E+03 0.  0.
        -13    1    3    3    0    0  0.15669026727E+02  0.25956735345E+02 -0.12095190586E+02  0.32643151007E+02  0.10566000000E+00 0.  1.
         23    2    1    0    0    0  0.28808754999E+00 -0.23125938867E+02  0.21036236759E+02  0.93826358179E+02  0.88464513728E+02 0.  0.
         13    1    3    3    0    0 -0.15380939177E+02 -0.49082674212E+02  0.33131427346E+02  0.61183207171E+02  0.10566000000E+00 0. -1.
         22    1    1    0    0    0 -0.28808754999E+00  0.23125938867E+02 -0.21036236759E+02  0.31263641821E+02  0.00000000000E+00 0. -1.
</event>
<event>
 5    1  0.2370309E-009  0.9118800E+02  0.7561462E-02  0.1125453E+00
         25   -1    0    0    0    0  0.00000000000E+00  0.00000000000E+00  0.99999998245E-14  0.12509000000E+03  0.12509000000E+03 0.  0.
        -13    1    3    3    0    0  0.18852904906E+02  0.15354655458E+02  0.44957351400E+02  0.51111369347E+02  0.10566000000E+00 0.  1.
         23    2    1    0    0    0  0.28896110935E+02 -0.22695774832E+01  0.53442025855E+01  0.95616338700E+02  0.90960362335E+02 0.  0.
         13    1    3    3    0    0  0.10043206029E+02 -0.17624232941E+02 -0.39613148814E+02  0.44504969353E+02  0.10566000000E+00 0. -1.
         22    1    1    0    0    0 -0.28896110935E+02  0.22695774832E+01 -0.53442025855E+01  0.29473661300E+02  0.00000000000E+00 0. -1.
</event>
<event>
 5    1  0.2370309E-009  0.9118800E+02  0.7561462E-02  0.1125453E+00
         25   -1    0    0    0    0  0.00000000000E+00  0.00000000000E+00  0.99999998245E-14  0.12509000000E+03  0.12509000000E+03 0.  0.
        -13    1    3    3    0    0 -0.22526326057E+02 -0.90258522323E+01 -0.31870536476E+02  0.40058003363E+02  0.10566000000E+00 0. -1.
         23    2    1    0    0    0 -0.16085082026E+02  0.64043060258E+01  0.22361691959E+02  0.96809436592E+02  0.92586590533E+02 0.  0.
         13    1    3    3    0    0  0.64412440317E+01  0.15430158258E+02  0.54232228434E+02  0.56751433229E+02  0.10566000000E+00 0.  1.
         22    1    1    0    0    0  0.16085082026E+02 -0.64043060258E+01 -0.22361691959E+02  0.28280563408E+02  0.00000000000E+00 0.  1.
</event>
<event>
 5    1  0.2370309E-009  0.9118800E+02  0.7561462E-02  0.1125453E+00
         25   -1    0    0    0    0  0.00000000000E+00  0.00000000000E+00  0.99999998245E-14  0.12509000000E+03  0.12509000000E+03 0.  0.
        -13    1    3    3    0    0 -0.34209244748E+02 -0.57914174634E+01  0.30994596666E+02  0.46524070426E+02  0.10566000000E+00 0. -1.
         23    2    1    0    0    0  0.12803197975E+02 -0.95318967097E+01  0.26832914507E+02  0.93868465217E+02  0.88524033618E+02 0.  0.
         13    1    3    3    0    0  0.47012442723E+02 -0.37404792463E+01 -0.41616821596E+01  0.47344394791E+02  0.10566000000E+00 0.  1.
         22    1    1    0    0    0 -0.12803197975E+02  0.95318967097E+01 -0.26832914507E+02  0.31221534783E+02  0.00000000000E+00 0.  1.
</event>
<event>
 5    1  0.2370309E-009  0.9118800E+02  0.7561462E-02  0.1125453E+00
         25   -1    0    0    0    0  0.00000000000E+00  0.00000000000E+00  0.99999998245E-14  0.12509000000E+03  0.12509000000E+03 0.  0.
        -13    1    3    3    0    0 -0.55054526403E+02  0.12115588107E+02  0.12544176755E+02  0.57750808541E+02  0.10566000000E+00 0.  1.
         23    2    1    0    0    0 -0.15868589797E+02  0.14706237281E+02  0.17405868587E+02  0.97322216177E+02  0.93276813535E+02 0.  0.
         13    1    3    3    0    0  0.39185936606E+02  0.25906491744E+01  0.48616918326E+01  0.39571407636E+02  0.10566000000E+00 0. -1.
         22    1    1    0    0    0  0.15868589797E+02 -0.14706237281E+02 -0.17405868587E+02  0.27767783823E+02  0.00000000000E+00 0.  1.
</event>
<event>
 5    1  0.2370309E-009  0.9118800E+02  0.7561462E-02  0.1125453E+00
         25   -1    0    0    0    0  0.00000000000E+00  0.00000000000E+00  0.99999998245E-14  0.12509000000E+03  0.12509000000E+03 0.  0.
        -13    1    3    3    0    0 -0.29249413307E+02 -0.93239167296E+01 -0.31506187838E+02  0.43989937919E+02  0.10566000000E+00 0.  1.
         23    2    1    0    0    0 -0.36649585752E+02  0.14288767435E+02  0.20694151552E+01  0.85699093820E+02  0.76109731256E+02 0.  0.
         13    1    3    3    0    0 -0.74001724447E+01  0.23612684164E+02  0.33575602993E+02  0.41709155902E+02  0.10566000000E+00 0. -1.
         22    1    1    0    0    0  0.36649585752E+02 -0.14288767435E+02 -0.20694151552E+01  0.39390906180E+02  0.00000000000E+00 0.  1.
</event>
<event>
 5    1  0.2370309E-009  0.9118800E+02  0.7561462E-02  0.1125453E+00
         25   -1    0    0    0    0  0.00000000000E+00  0.00000000000E+00  0.99999998245E-14  0.12509000000E+03  0.12509000000E+03 0.  0.
        -13    1    3    3    0    0 -0.31586148288E+02 -0.93648104815E+01  0.36328910208E+00  0.32947345599E+02  0.10566000000E+00 0.  1.
         23    2    1    0    0    0  0.26710410311E+02  0.96923864692E+01 -0.96284554528E+01  0.95088407895E+02  0.90231423502E+02 0.  0.
         13    1    3    3    0    0  0.58296558598E+02  0.19057196951E+02 -0.99917445549E+01  0.62141062296E+02  0.10566000000E+00 0. -1.
         22    1    1    0    0    0 -0.26710410311E+02 -0.96923864692E+01  0.96284554528E+01  0.30001592105E+02  0.00000000000E+00 0. -1.
</event>
<event>
 5    1  0.2370309E-009  0.9118800E+02  0.7561462E-02  0.1125453E+00
         25   -1    0    0    0    0  0.00000000000E+00  0.00000000000E+00  0.99999998245E-14  0.12509000000E+03  0.12509000000E+03 0.  0.
        -13    1    3    3    0    0 -0.70053610600E+01 -0.12622027187E+02 -0.59294150104E+02  0.61026207932E+02  0.10566000000E+00 0. -1.
         23    2    1    0    0    0 -0.12650619548E+02 -0.58798668538E+01 -0.24678556165E+02  0.96741417257E+02  0.92494646706E+02 0.  0.
         13    1    3    3    0    0 -0.56452584877E+01  0.67421603336E+01  0.34615593939E+02  0.35715209325E+02  0.10566000000E+00 0.  1.
         22    1    1    0    0    0  0.12650619548E+02  0.58798668538E+01  0.24678556165E+02  0.28348582743E+02  0.00000000000E+00 0. -1.
</event>
<event>
 5    1  0.2370309E-009  0.9118800E+02  0.7561462E-02  0.1125453E+00
         25   -1    0    0    0    0  0.00000000000E+00  0.00000000000E+00  0.99999998245E-14  0.12509000000E+03  0.12509000000E+03 0.  0.
        -13    1    3    3    0    0 -0.20301419968E+02 -0.40197780496E+02 -0.22646409627E+02  0.50407144757E+02  0.10566000000E+00 0.  1.
         23    2    1    0    0    0  0.17703200136E+02 -0.23539837944E+02 -0.65380446809E+01  0.94919264282E+02  0.89996630149E+02 0.  0.
         13    1    3    3    0    0  0.38004620105E+02  0.16657942551E+02  0.16108364947E+02  0.44512119525E+02  0.10566000000E+00 0. -1.
         22    1    1    0    0    0 -0.17703200136E+02  0.23539837944E+02  0.65380446809E+01  0.30170735718E+02  0.00000000000E+00 0.  1.
</event>
<event>
 5    1  0.2370309E-009  0.9118800E+02  0.7561462E-02  0.1125453E+00
         25   -1    0    0    0    0  0.00000000000E+00  0.00000000000E+00  0.99999998245E-14  0.12509000000E+03  0.12509000000E+03 0.  0.
        -13    1    3    3    0    0  0.32666867610E+02  0.14227700564E+02 -0.23267942563E+02  0.42555375900E+02  0.10566000000E+00 0.  1.
         23    2    1    0    0    0  0.13041892663E+02 -0.23425350384E+02  0.99772429435E+01  0.96482599181E+02  0.92143955652E+02 0.  0.
         13    1    3    3    0    0 -0.19624974948E+02 -0.37653050949E+02  0.33245185507E+02  0.53927223281E+02  0.10566000000E+00 0. -1.
         22    1    1    0    0    0 -0.13041892663E+02  0.23425350384E+02 -0.99772429435E+01  0.28607400819E+02  0.00000000000E+00 0.  1.
</event>
<event>
 5    1  0.2370309E-009  0.9118800E+02  0.7561462E-02  0.1125453E+00
         25   -1    0    0    0    0  0.00000000000E+00  0.00000000000E+00  0.99999998245E-14  0.12509000000E+03  0.12509000000E+03 0.  0.
        -13    1    3    3    0    0 -0.16498694489E+02 -0.16221418690E+01 -0.38016205789E+02  0.41473863224E+02  0.10566000000E+00 0.  1.
         23    2    1    0    0    0  0.25721175358E+02 -0.12244975172E+02 -0.48749367581E+01  0.96188732084E+02  0.91744149093E+02 0.  0.
         13    1    3    3    0    0  0.42219869847E+02 -0.10622833303E+02  0.33141269031E+02  0.54714868860E+02  0.10566000000E+00 0. -1.
         22    1    1    0    0    0 -0.25721175358E+02  0.12244975172E+02  0.48749367581E+01  0.28901267916E+02  0.00000000000E+00 0. -1.
</event>
<event>
 5    1  0.2370309E-009  0.9118800E+02  0.7561462E-02  0.1125453E+00
         25   -1    0    0    0    0  0.00000000000E+00  0.00000000000E+00  0.99999998245E-14  0.12509000000E+03  0.12509000000E+03 0.  0.
        -13    1    3    3    0    0  0.29640665524E+02  0.37044622404E+02  0.31970230768E+02  0.57209963478E+02  0.10566000000E+00 0.  1.
         23    2    1    0    0    0  0.15901992372E+02  0.22999313942E+02 -0.26358439724E+01  0.97004603855E+02  0.92849898721E+02 0.  0.
         13    1    3    3    0    0 -0.13738673153E+02 -0.14045308462E+02 -0.34606074740E+02  0.39794640377E+02  0.10566000000E+00 0. -1.
         22    1    1    0    0    0 -0.15901992372E+02 -0.22999313942E+02  0.26358439724E+01  0.28085396145E+02  0.00000000000E+00 0.  1.
</event>
<event>
 5    1  0.2370309E-009  0.9118800E+02  0.7561462E-02  0.1125453E+00
         25   -1    0    0    0    0  0.00000000000E+00  0.00000000000E+00  0.99999998245E-14  0.12509000000E+03  0.12509000000E+03 0.  0.
        -13    1    3    3    0    0 -0.49237603036E+02 -0.93480244303E+01 -0.17411794662E+02  0.53055714780E+02  0.10566000000E+00 0.  1.
         23    2    1    0    0    0 -0.23862028175E+02  0.12458587830E+02  0.10065796254E+02  0.96350948979E+02  0.91965060298E+02 0.  0.
         13    1    3    3    0    0  0.25375574861E+02  0.21806612260E+02  0.27477590916E+02  0.43295234199E+02  0.10566000000E+00 0. -1.
         22    1    1    0    0    0  0.23862028175E+02 -0.12458587830E+02 -0.10065796254E+02  0.28739051021E+02  0.00000000000E+00 0. -1.
</event>
<event>
 5    1  0.2370309E-009  0.9118800E+02  0.7561462E-02  0.1125453E+00
         25   -1    0    0    0    0  0.00000000000E+00  0.00000000000E+00  0.99999998245E-14  0.12509000000E+03  0.12509000000E+03 0.  0.
        -13    1    3    3    0    0  0.24259321617E+02 -0.34940814182E+02 -0.32470110748E+02  0.53513497709E+02  0.10566000000E+00 0.  1.
         23    2    1    0    0    0 -0.42792738542E+01 -0.41711899224E+01 -0.28840155376E+02  0.95637231502E+02  0.90989089880E+02 0.  0.
         13    1    3    3    0    0 -0.28538595471E+02  0.30769624260E+02  0.36299553724E+01  0.42123733793E+02  0.10566000000E+00 0. -1.
         22    1    1    0    0    0  0.42792738542E+01  0.41711899224E+01  0.28840155376E+02  0.29452768498E+02  0.00000000000E+00 0.  1.
</event>
<event>
 5    1  0.2370309E-009  0.9118800E+02  0.7561462E-02  0.1125453E+00
         25   -1    0    0    0    0  0.00000000000E+00  0.00000000000E+00  0.99999998245E-14  0.12509000000E+03  0.12509000000E+03 0.  0.
        -13    1    3    3    0    0  0.54001633317E+01 -0.30848537719E+02  0.22762758613E+02  0.38716254818E+02  0.10566000000E+00 0. -1.
         23    2    1    0    0    0 -0.70682257968E+01  0.22758506006E+02  0.20259669345E+02  0.93811195459E+02  0.88443070842E+02 0.  0.
         13    1    3    3    0    0 -0.12468389128E+02  0.53607043725E+02 -0.25030892681E+01  0.55094940642E+02  0.10566000000E+00 0.  1.
         22    1    1    0    0    0  0.70682257968E+01 -0.22758506006E+02 -0.20259669345E+02  0.31278804541E+02  0.00000000000E+00 0.  1.
</event>
<event>
 5    1  0.2370309E-009  0.9118800E+02  0.7561462E-02  0.1125453E+00
         25   -1    0    0    0    0  0.00000000000E+00  0.00000000000E+00  0.99999998245E-14  0.12509000000E+03  0.12509000000E+03 0.  0.
        -13    1    3    3    0    0 -0.43764562667E+02  0.20030745729E+02  0.15359188114E+01  0.48155352044E+02  0.10566000000E+00 0. -1.
         23    2    1    0    0    0 -0.55334229604E+01  0.58931996218E+01  0.27461705969E+02  0.96463196717E+02  0.92117612077E+02 0.  0.
         13    1    3    3    0    0  0.38231139706E+02 -0.14137546107E+02  0.25925787158E+02  0.48307844673E+02  0.10566000000E+00 0.  1.
         22    1    1    0    0    0  0.55334229604E+01 -0.58931996218E+01 -0.27461705969E+02  0.28626803283E+02  0.00000000000E+00 0. -1.
</event>
<event>
 5    1  0.2370309E-009  0.9118800E+02  0.7561462E-02  0.1125453E+00
         25   -1    0    0    0    0  0.00000000000E+00  0.00000000000E+00  0.99999998245E-14  0.12509000000E+03  0.12509000000E+03 0.  0.
        -13    1    3    3    0    0 -0.94438694532E+01  0.52003281753E+01  0.39273777237E+02  0.40726782660E+02  0.10566000000E+00 0.  1.
         23    2    1    0    0    0  0.22050781776E+02  0.19321421044E+02 -0.33589766928E+01  0.95580052312E+02  0.90910447076E+02 0.  0.
         13    1    3    3    0    0  0.31494651229E+02  0.14121092869E+02 -0.42632753930E+02  0.54853269652E+02  0.10566000000E+00 0. -1.
         22    1    1    0    0    0 -0.22050781776E+02 -0.19321421044E+02  0.33589766928E+01  0.29509947688E+02  0.00000000000E+00 0. -1.
</event>
<event>
 5    1  0.2370309E-009  0.9118800E+02  0.7561462E-02  0.1125453E+00
         25   -1    0    0    0    0  0.00000000000E+00  0.00000000000E+00  0.99999998245E-14  0.12509000000E+03  0.12509000000E+03 0.  0.
        -13    1    3    3    0    0 -0.38722284460E+02  0.27420370907E+02 -0.18164627178E+02  0.50806071478E+02  0.10566000000E+00 0. -1.
         23    2    1    0    0    0  0.10306179218E+02  0.13596558258E+02  0.57573365692E+01  0.10708359417E+03  0.10555882478E+03 0.  0.
         13    1    3    3    0    0  0.49028463678E+02 -0.13823812649E+02  0.23921963747E+02  0.56277522692E+02  0.10566000000E+00 0.  1.
         22    1    1    0    0    0 -0.10306179218E+02 -0.13596558258E+02 -0.57573365692E+01  0.18006405830E+02  0.00000000000E+00 0.  1.
</event>
<event>
 5    1  0.2370309E-009  0.9118800E+02  0.7561462E-02  0.1125453E+00
         25   -1    0    0    0    0  0.00000000000E+00  0.00000000000E+00  0.99999998245E-14  0.12509000000E+03  0.12509000000E+03 0.  0.
        -13    1    3    3    0    0 -0.44773067286E+01  0.50095829654E+02  0.31961484222E+02  0.59591828819E+02  0.10566000000E+00 0.  1.
         23    2    1    0    0    0 -0.11292267040E+02  0.17164544811E+02  0.22698999625E+02  0.94473313741E+02  0.89374635842E+02 0.  0.
         13    1    3    3    0    0 -0.68149603114E+01 -0.32931284843E+02 -0.92624845970E+01  0.34881484922E+02  0.10566000000E+00 0. -1.
         22    1    1    0    0    0  0.11292267040E+02 -0.17164544811E+02 -0.22698999625E+02  0.30616686259E+02  0.00000000000E+00 0.  1.
</event>
<event>
 5    1  0.2370309E-009  0.9118800E+02  0.7561462E-02  0.1125453E+00
         25   -1    0    0    0    0  0.00000000000E+00  0.00000000000E+00  0.99999998245E-14  0.12509000000E+03  0.12509000000E+03 0.  0.
        -13    1    3    3    0    0  0.31083224036E+02  0.66028071467E+00  0.19338691603E+02  0.36614190474E+02  0.10566000000E+00 0.  1.
         23    2    1    0    0    0 -0.20000297554E+02 -0.55967598188E+01 -0.15854040766E+02  0.98961735012E+02  0.95450189969E+02 0.  0.
         13    1    3    3    0    0 -0.51083521590E+02 -0.62570405334E+01 -0.35192732369E+02  0.62347544538E+02  0.10566000000E+00 0. -1.
         22    1    1    0    0    0  0.20000297554E+02  0.55967598188E+01  0.15854040766E+02  0.26128264988E+02  0.00000000000E+00 0. -1.
</event>
<event>
 5    1  0.2370309E-009  0.9118800E+02  0.7561462E-02  0.1125453E+00
         25   -1    0    0    0    0  0.00000000000E+00  0.00000000000E+00  0.99999998245E-14  0.12509000000E+03  0.12509000000E+03 0.  0.
        -13    1    3    3    0    0 -0.27097205852E+02 -0.26946876108E+02 -0.32789457338E+02  0.50354268672E+02  0.10566000000E+00 0.  1.
         23    2    1    0    0    0  0.14703260238E+02 -0.11776860807E+02 -0.22026500417E+02  0.96106435128E+02  0.91631871312E+02 0.  0.
         13    1    3    3    0    0  0.41800466091E+02  0.15170015301E+02  0.10762956921E+02  0.45752166455E+02  0.10566000000E+00 0. -1.
         22    1    1    0    0    0 -0.14703260238E+02  0.11776860807E+02  0.22026500417E+02  0.28983564872E+02  0.00000000000E+00 0. -1.
</event>
<event>
 5    1  0.2370309E-009  0.9118800E+02  0.7561462E-02  0.1125453E+00
         25   -1    0    0    0    0  0.00000000000E+00  0.00000000000E+00  0.99999998245E-14  0.12509000000E+03  0.12509000000E+03 0.  0.
        -13    1    3    3    0    0  0.65578210945E+01 -0.24296314688E+02 -0.28179770840E+02  0.37781299258E+02  0.10566000000E+00 0. -1.
         23    2    1    0    0    0  0.14606905683E+01  0.28596317185E+02 -0.39403019596E+01  0.96186558111E+02  0.91741184908E+02 0.  0.
         13    1    3    3    0    0 -0.50971305263E+01  0.52892631873E+02  0.24239468881E+02  0.58405258854E+02  0.10566000000E+00 0.  1.
         22    1    1    0    0    0 -0.14606905683E+01 -0.28596317185E+02  0.39403019596E+01  0.28903441889E+02  0.00000000000E+00 0.  1.
</event>
<event>
 5    1  0.2370309E-009  0.9118800E+02  0.7561462E-02  0.1125453E+00
         25   -1    0    0    0    0  0.00000000000E+00  0.00000000000E+00  0.99999998245E-14  0.12509000000E+03  0.12509000000E+03 0.  0.
        -13    1    3    3    0    0 -0.33231131316E+02  0.33044119737E+02 -0.19049343181E+01  0.46902685174E+02  0.10566000000E+00 0.  1.
         23    2    1    0    0    0  0.14761184469E+02  0.25655668168E+02 -0.20702446213E+00  0.95490190285E+02  0.90786715468E+02 0.  0.
         13    1    3    3    0    0  0.47992315785E+02 -0.73884515694E+01  0.16979098560E+01  0.48587505111E+02  0.10566000000E+00 0. -1.
         22    1    1    0    0    0 -0.14761184469E+02 -0.25655668168E+02  0.20702446213E+00  0.29599809715E+02  0.00000000000E+00 0. -1.
</event>
<event>
 5    1  0.2370309E-009  0.9118800E+02  0.7561462E-02  0.1125453E+00
         25   -1    0    0    0    0  0.00000000000E+00  0.00000000000E+00  0.99999998245E-14  0.12509000000E+03  0.12509000000E+03 0.  0.
        -13    1    3    3    0    0  0.23316300650E+02 -0.26144821979E+02 -0.20399038164E+02  0.40538050204E+02  0.10566000000E+00 0.  1.
         23    2    1    0    0    0  0.32119803496E+01 -0.86292052967E+01  0.27900718783E+02  0.95709222093E+02  0.91088007352E+02 0.  0.
         13    1    3    3    0    0 -0.20104320301E+02  0.17515616682E+02  0.48299756946E+02  0.55171171889E+02  0.10566000000E+00 0. -1.
         22    1    1    0    0    0 -0.32119803496E+01  0.86292052967E+01 -0.27900718783E+02  0.29380777907E+02  0.00000000000E+00 0. -1.
</event>
<event>
 5    1  0.2370309E-009  0.9118800E+02  0.7561462E-02  0.1125453E+00
         25   -1    0    0    0    0  0.00000000000E+00  0.00000000000E+00  0.99999998245E-14  0.12509000000E+03  0.12509000000E+03 0.  0.
        -13    1    3    3    0    0 -0.15119178674E+02  0.33444146395E+01  0.32098704724E+02  0.35638640295E+02  0.10566000000E+00 0.  1.
         23    2    1    0    0    0  0.47281023236E+01 -0.21048033012E+02 -0.19464165236E+02  0.96034391702E+02  0.91533469375E+02 0.  0.
         13    1    3    3    0    0  0.19847280998E+02 -0.24392447652E+02 -0.51562869960E+02  0.60395751407E+02  0.10566000000E+00 0. -1.
         22    1    1    0    0    0 -0.47281023236E+01  0.21048033012E+02  0.19464165236E+02  0.29055608298E+02  0.00000000000E+00 0. -1.
</event>
<event>
 5    1  0.2370309E-009  0.9118800E+02  0.7561462E-02  0.1125453E+00
         25   -1    0    0    0    0  0.00000000000E+00  0.00000000000E+00  0.99999998245E-14  0.12509000000E+03  0.12509000000E+03 0.  0.
        -13    1    3    3    0    0 -0.48098274420E+02  0.12919793950E+02 -0.20432777582E+02  0.53831910998E+02  0.10566000000E+00 0. -1.
         23    2    1    0    0    0 -0.21125845492E+02  0.16873553664E+02  0.11404587178E+02  0.95745788140E+02  0.91138209204E+02 0.  0.
         13    1    3    3    0    0  0.26972428929E+02  0.39537597136E+01  0.31837364760E+02  0.41913877142E+02  0.10566000000E+00 0.  1.
         22    1    1    0    0    0  0.21125845492E+02 -0.16873553664E+02 -0.11404587178E+02  0.29344211860E+02  0.00000000000E+00 0. -1.
</event>
<event>
 5    1  0.2370309E-009  0.9118800E+02  0.7561462E-02  0.1125453E+00
         25   -1    0    0    0    0  0.00000000000E+00  0.00000000000E+00  0.99999998245E-14  0.12509000000E+03  0.12509000000E+03 0.  0.
        -13    1    3    3    0    0  0.27533864690E+02 -0.10581425679E+02 -0.29966235570E+02  0.42048385373E+02  0.10566000000E+00 0.  1.
         23    2    1    0    0    0  0.11368931891E+02 -0.25999932606E+02  0.15535947310E+02  0.92738573962E+02  0.86912762779E+02 0.  0.
         13    1    3    3    0    0 -0.16164932799E+02 -0.15418506927E+02  0.45502182881E+02  0.50690188589E+02  0.10566000000E+00 0. -1.
         22    1    1    0    0    0 -0.11368931891E+02  0.25999932606E+02 -0.15535947310E+02  0.32351426038E+02  0.00000000000E+00 0. -1.
</event>
<event>
 5    1  0.2370309E-009  0.9118800E+02  0.7561462E-02  0.1125453E+00
         25   -1    0    0    0    0  0.00000000000E+00  0.00000000000E+00  0.99999998245E-14  0.12509000000E+03  0.12509000000E+03 0.  0.
        -13    1    3    3    0    0 -0.22709989521E+02  0.51625393046E+02  0.11425584119E+02  0.57545460010E+02  0.10566000000E+00 0. -1.
         23    2    1    0    0    0 -0.11079806853E+02  0.23764185913E+02 -0.12476287680E+02  0.96052844384E+02  0.91558683411E+02 0.  0.
         13    1    3    3    0    0  0.11630182668E+02 -0.27861207133E+02 -0.23901871799E+02  0.38507384374E+02  0.10566000000E+00 0.  1.
         22    1    1    0    0    0  0.11079806853E+02 -0.23764185913E+02  0.12476287680E+02  0.29037155616E+02  0.00000000000E+00 0. -1.
</event>
<event>
 5    1  0.2370309E-009  0.9118800E+02  0.7561462E-02  0.1125453E+00
         25   -1    0    0    0    0  0.00000000000E+00  0.00000000000E+00  0.99999998245E-14  0.12509000000E+03  0.12509000000E+03 0.  0.
        -13    1    3    3    0    0  0.35335648763E+02 -0.67194589316E+01  0.10821687695E+02  0.37561673158E+02  0.10566000000E+00 0.  1.
         23    2    1    0    0    0 -0.14008788966E+02  0.20415907314E+02 -0.11053570055E+02  0.97974748744E+02  0.94147833436E+02 0.  0.
         13    1    3    3    0    0 -0.49344437729E+02  0.27135366245E+02 -0.21875257750E+02  0.60413075586E+02  0.10566000000E+00 0. -1.
         22    1    1    0    0    0  0.14008788966E+02 -0.20415907314E+02  0.11053570055E+02  0.27115251256E+02  0.00000000000E+00 0. -1.
</event>
<event>
 5    1  0.2370309E-009  0.9118800E+02  0.7561462E-02  0.1125453E+00
         25   -1    0    0    0    0  0.00000000000E+00  0.00000000000E+00  0.99999998245E-14  0.12509000000E+03  0.12509000000E+03 0.  0.
        -13    1    3    3    0    0 -0.54624221281E+02  0.88331217959E+01  0.18256268078E+02  0.58267761921E+02  0.10566000000E+00 0. -1.
         23    2    1    0    0    0 -0.16621189913E+02  0.70610447787E+00  0.22220504464E+02  0.97331877651E+02  0.93289769272E+02 0.  0.
         13    1    3    3    0    0  0.38003031367E+02 -0.81270173180E+01  0.39642363868E+01  0.39064115730E+02  0.10566000000E+00 0.  1.
         22    1    1    0    0    0  0.16621189913E+02 -0.70610447787E+00 -0.22220504464E+02  0.27758122349E+02  0.00000000000E+00 0. -1.
</event>
<event>
 5    1  0.2370309E-009  0.9118800E+02  0.7561462E-02  0.1125453E+00
         25   -1    0    0    0    0  0.00000000000E+00  0.00000000000E+00  0.99999998245E-14  0.12509000000E+03  0.12509000000E+03 0.  0.
        -13    1    3    3    0    0  0.23792379299E+02 -0.25002643138E+02 -0.13462151331E+02  0.37046594433E+02  0.10566000000E+00 0.  1.
         23    2    1    0    0    0  0.33358152003E-01  0.28457784136E+02 -0.57802739414E+01  0.96051092350E+02  0.91556289702E+02 0.  0.
         13    1    3    3    0    0 -0.23759021147E+02  0.53460427274E+02  0.76818773894E+01  0.59004497917E+02  0.10566000000E+00 0. -1.
         22    1    1    0    0    0 -0.33358152003E-01 -0.28457784136E+02  0.57802739414E+01  0.29038907650E+02  0.00000000000E+00 0. -1.
</event>
<event>
 5    1  0.2370309E-009  0.9118800E+02  0.7561462E-02  0.1125453E+00
         25   -1    0    0    0    0  0.00000000000E+00  0.00000000000E+00  0.99999998245E-14  0.12509000000E+03  0.12509000000E+03 0.  0.
        -13    1    3    3    0    0  0.36644556850E+02 -0.33703994174E+01 -0.30880428409E+02  0.48039516668E+02  0.10566000000E+00 0. -1.
         23    2    1    0    0    0  0.78328707555E+01  0.62468673340E+01 -0.43145203154E+02  0.80796820266E+02  0.67573962398E+02 0.  0.
         13    1    3    3    0    0 -0.28811686095E+02  0.96172667513E+01 -0.12264774745E+02  0.32757303598E+02  0.10566000000E+00 0.  1.
         22    1    1    0    0    0 -0.78328707555E+01 -0.62468673340E+01  0.43145203154E+02  0.44293179734E+02  0.00000000000E+00 0. -1.
</event>
<event>
 5    1  0.2370309E-009  0.9118800E+02  0.7561462E-02  0.1125453E+00
         25   -1    0    0    0    0  0.00000000000E+00  0.00000000000E+00  0.99999998245E-14  0.12509000000E+03  0.12509000000E+03 0.  0.
        -13    1    3    3    0    0  0.29045072098E+02 -0.13958772603E+02  0.94596894064E+01  0.33585122204E+02  0.10566000000E+00 0.  1.
         23    2    1    0    0    0 -0.82156628603E+01  0.28096872815E+02 -0.11617011992E+02  0.93595772817E+02  0.88137859875E+02 0.  0.
         13    1    3    3    0    0 -0.37260734958E+02  0.42055645418E+02 -0.21076701398E+02  0.60010650613E+02  0.10566000000E+00 0. -1.
         22    1    1    0    0    0  0.82156628603E+01 -0.28096872815E+02  0.11617011992E+02  0.31494227183E+02  0.00000000000E+00 0. -1.
</event>
<event>
 5    1  0.2370309E-009  0.9118800E+02  0.7561462E-02  0.1125453E+00
         25   -1    0    0    0    0  0.00000000000E+00  0.00000000000E+00  0.99999998245E-14  0.12509000000E+03  0.12509000000E+03 0.  0.
        -13    1    3    3    0    0  0.25483236215E+02  0.10930747724E+01  0.31344497198E+02  0.40411369799E+02  0.10566000000E+00 0.  1.
         23    2    1    0    0    0 -0.24791472680E+01 -0.26465805175E+02 -0.93067689600E+01  0.96926176339E+02  0.92744178774E+02 0.  0.
         13    1    3    3    0    0 -0.27962383483E+02 -0.27558879947E+02 -0.40651266158E+02  0.56514806540E+02  0.10566000000E+00 0. -1.
         22    1    1    0    0    0  0.24791472680E+01  0.26465805175E+02  0.93067689600E+01  0.28163823661E+02  0.00000000000E+00 0. -1.
</event>
<event>
 5    1  0.2370309E-009  0.9118800E+02  0.7561462E-02  0.1125453E+00
         25   -1    0    0    0    0  0.00000000000E+00  0.00000000000E+00  0.99999998245E-14  0.12509000000E+03  0.12509000000E+03 0.  0.
        -13    1    3    3    0    0  0.52754980166E+02 -0.22044714552E+02 -0.21689959830E+02  0.61151638518E+02  0.10566000000E+00 0.  1.
         23    2    1    0    0    0  0.21853871800E+02 -0.74760568632E+01 -0.18562957161E+02  0.95457812814E+02  0.90742093373E+02 0.  0.
         13    1    3    3    0    0 -0.30901108366E+02  0.14568657689E+02  0.31270026685E+01  0.34306174296E+02  0.10566000000E+00 0. -1.
         22    1    1    0    0    0 -0.21853871800E+02  0.74760568632E+01  0.18562957161E+02  0.29632187186E+02  0.00000000000E+00 0.  1.
</event>
<event>
 5    1  0.2370309E-009  0.9118800E+02  0.7561462E-02  0.1125453E+00
         25   -1    0    0    0    0  0.00000000000E+00  0.00000000000E+00  0.99999998245E-14  0.12509000000E+03  0.12509000000E+03 0.  0.
        -13    1    3    3    0    0  0.25528232957E+02  0.42799546587E+02  0.96962633497E+01  0.50769287497E+02  0.10566000000E+00 0.  1.
         23    2    1    0    0    0 -0.33572945782E+01  0.15172121960E+02  0.26692772259E+02  0.94203614609E+02  0.88996360616E+02 0.  0.
         13    1    3    3    0    0 -0.28885527535E+02 -0.27627424627E+02  0.16996508910E+02  0.43434327112E+02  0.10566000000E+00 0. -1.
         22    1    1    0    0    0  0.33572945782E+01 -0.15172121960E+02 -0.26692772259E+02  0.30886385391E+02  0.00000000000E+00 0. -1.
</event>
<event>
 5    1  0.2370309E-009  0.9118800E+02  0.7561462E-02  0.1125453E+00
         25   -1    0    0    0    0  0.00000000000E+00  0.00000000000E+00  0.99999998245E-14  0.12509000000E+03  0.12509000000E+03 0.  0.
        -13    1    3    3    0    0  0.35481327761E+02  0.19258015560E+02  0.15665673718E+02  0.43303813689E+02  0.10566000000E+00 0.  1.
         23    2    1    0    0    0 -0.17737157998E+02  0.20404801781E+02  0.56891533582E+01  0.97461587532E+02  0.93463532294E+02 0.  0.
         13    1    3    3    0    0 -0.53218485759E+02  0.11467862212E+01 -0.99765203597E+01  0.54157773843E+02  0.10566000000E+00 0. -1.
         22    1    1    0    0    0  0.17737157998E+02 -0.20404801781E+02 -0.56891533582E+01  0.27628412468E+02  0.00000000000E+00 0. -1.
</event>
<event>
 5    1  0.2370309E-009  0.9118800E+02  0.7561462E-02  0.1125453E+00
         25   -1    0    0    0    0  0.00000000000E+00  0.00000000000E+00  0.99999998245E-14  0.12509000000E+03  0.12509000000E+03 0.  0.
        -13    1    3    3    0    0  0.42306205266E+01 -0.31137756800E+02  0.33794326452E+02  0.46146784427E+02  0.10566000000E+00 0. -1.
         23    2    1    0    0    0  0.13885707810E+02  0.14989482470E+02  0.22673480360E+02  0.94568136070E+02  0.89507252120E+02 0.  0.
         13    1    3    3    0    0  0.96550872831E+01  0.46127239270E+02 -0.11120846092E+02  0.48421351643E+02  0.10566000000E+00 0.  1.
         22    1    1    0    0    0 -0.13885707810E+02 -0.14989482470E+02 -0.22673480360E+02  0.30521863930E+02  0.00000000000E+00 0.  1.
</event>
<event>
 5    1  0.2370309E-009  0.9118800E+02  0.7561462E-02  0.1125453E+00
         25   -1    0    0    0    0  0.00000000000E+00  0.00000000000E+00  0.99999998245E-14  0.12509000000E+03  0.12509000000E+03 0.  0.
        -13    1    3    3    0    0  0.22158991019E+02 -0.27883728503E+02  0.13278442781E+02  0.38011201046E+02  0.10566000000E+00 0. -1.
         23    2    1    0    0    0  0.41284572636E+00  0.23445497532E+02  0.20141849062E+02  0.94177933105E+02  0.88960256318E+02 0.  0.
         13    1    3    3    0    0 -0.21746145293E+02  0.51329226034E+02  0.68634062813E+01  0.56166732059E+02  0.10566000000E+00 0.  1.
         22    1    1    0    0    0 -0.41284572636E+00 -0.23445497532E+02 -0.20141849062E+02  0.30912066895E+02  0.00000000000E+00 0.  1.
</event>
<event>
 5    1  0.2370309E-009  0.9118800E+02  0.7561462E-02  0.1125453E+00
         25   -1    0    0    0    0  0.00000000000E+00  0.00000000000E+00  0.99999998245E-14  0.12509000000E+03  0.12509000000E+03 0.  0.
        -13    1    3    3    0    0  0.99890550957E+00 -0.15955210359E+02 -0.30745916032E+02  0.34653846345E+02  0.10566000000E+00 0.  1.
         23    2    1    0    0    0  0.14518827714E+02  0.21469261765E+02  0.14888400581E+02  0.95200369176E+02  0.90386504858E+02 0.  0.
         13    1    3    3    0    0  0.13519922204E+02  0.37424472124E+02  0.45634316613E+02  0.60546522831E+02  0.10566000000E+00 0. -1.
         22    1    1    0    0    0 -0.14518827714E+02 -0.21469261765E+02 -0.14888400581E+02  0.29889630824E+02  0.00000000000E+00 0. -1.
</event>
<event>
 5    1  0.2370309E-009  0.9118800E+02  0.7561462E-02  0.1125453E+00
         25   -1    0    0    0    0  0.00000000000E+00  0.00000000000E+00  0.99999998245E-14  0.12509000000E+03  0.12509000000E+03 0.  0.
        -13    1    3    3    0    0 -0.38748238465E+02 -0.11552838736E+02 -0.35857712187E+02  0.54043322939E+02  0.10566000000E+00 0.  1.
         23    2    1    0    0    0 -0.82816662832E+00 -0.97408471089E+01 -0.31323243866E+02  0.92276655632E+02  0.86245380201E+02 0.  0.
         13    1    3    3    0    0  0.37920071837E+02  0.18119916271E+01  0.45344683212E+01  0.38233332692E+02  0.10566000000E+00 0. -1.
         22    1    1    0    0    0  0.82816662832E+00  0.97408471089E+01  0.31323243866E+02  0.32813344368E+02  0.00000000000E+00 0.  1.
</event>
<event>
 5    1  0.2370309E-009  0.9118800E+02  0.7561462E-02  0.1125453E+00
         25   -1    0    0    0    0  0.00000000000E+00  0.00000000000E+00  0.99999998245E-14  0.12509000000E+03  0.12509000000E+03 0.  0.
        -13    1    3    3    0    0 -0.25019711197E+02 -0.42451113036E+02  0.37582337095E+02  0.61971978925E+02  0.10566000000E+00 0. -1.
         23    2    1    0    0    0 -0.89891880666E+01 -0.17616156276E+02  0.22421026813E+02  0.95192894666E+02  0.90376159951E+02 0.  0.
         13    1    3    3    0    0  0.16030523130E+02  0.24834956760E+02 -0.15161310282E+02  0.33220915740E+02  0.10566000000E+00 0.  1.
         22    1    1    0    0    0  0.89891880666E+01  0.17616156276E+02 -0.22421026813E+02  0.29897105334E+02  0.00000000000E+00 0. -1.
</event>
<event>
 5    1  0.2370309E-009  0.9118800E+02  0.7561462E-02  0.1125453E+00
         25   -1    0    0    0    0  0.00000000000E+00  0.00000000000E+00  0.99999998245E-14  0.12509000000E+03  0.12509000000E+03 0.  0.
        -13    1    3    3    0    0  0.46353433103E+02  0.18044870795E+02 -0.13076852089E+02  0.51432220903E+02  0.10566000000E+00 0. -1.
         23    2    1    0    0    0  0.33763720886E+01  0.21975777493E+02 -0.20053109111E+02  0.95149026904E+02  0.90315421999E+02 0.  0.
         13    1    3    3    0    0 -0.42977061014E+02  0.39309066985E+01 -0.69762570218E+01  0.43716806001E+02  0.10566000000E+00 0.  1.
         22    1    1    0    0    0 -0.33763720886E+01 -0.21975777493E+02  0.20053109111E+02  0.29940973096E+02  0.00000000000E+00 0. -1.
</event>
<event>
 5    1  0.2370309E-009  0.9118800E+02  0.7561462E-02  0.1125453E+00
         25   -1    0    0    0    0  0.00000000000E+00  0.00000000000E+00  0.99999998245E-14  0.12509000000E+03  0.12509000000E+03 0.  0.
        -13    1    3    3    0    0 -0.27963675048E+02 -0.24592010322E+02  0.13018020930E+02  0.39448879918E+02  0.10566000000E+00 0.  1.
         23    2    1    0    0    0  0.18600909983E+02 -0.13996847248E+02 -0.17363300320E+02  0.96048826072E+02  0.91553193318E+02 0.  0.
         13    1    3    3    0    0  0.46564585031E+02  0.10595163074E+02 -0.30381321250E+02  0.56599946154E+02  0.10566000000E+00 0. -1.
         22    1    1    0    0    0 -0.18600909983E+02  0.13996847248E+02  0.17363300320E+02  0.29041173928E+02  0.00000000000E+00 0. -1.
</event>
<event>
 5    1  0.2370309E-009  0.9118800E+02  0.7561462E-02  0.1125453E+00
         25   -1    0    0    0    0  0.00000000000E+00  0.00000000000E+00  0.99999998245E-14  0.12509000000E+03  0.12509000000E+03 0.  0.
        -13    1    3    3    0    0  0.30663353447E+02 -0.41676737059E+02 -0.23570414435E+02  0.56857429217E+02  0.10566000000E+00 0.  1.
         23    2    1    0    0    0 -0.37270206845E+01 -0.24810251610E+02 -0.14083895132E+02  0.96318566768E+02  0.91921003770E+02 0.  0.
         13    1    3    3    0    0 -0.34390374131E+02  0.16866485449E+02  0.94865193037E+01  0.39461137551E+02  0.10566000000E+00 0. -1.
         22    1    1    0    0    0  0.37270206845E+01  0.24810251610E+02  0.14083895132E+02  0.28771433232E+02  0.00000000000E+00 0.  1.
</event>
<event>
 5    1  0.2370309E-009  0.9118800E+02  0.7561462E-02  0.1125453E+00
         25   -1    0    0    0    0  0.00000000000E+00  0.00000000000E+00  0.99999998245E-14  0.12509000000E+03  0.12509000000E+03 0.  0.
        -13    1    3    3    0    0  0.48396693301E+02  0.37234926695E+02 -0.10496261732E+02  0.61958553589E+02  0.10566000000E+00 0. -1.
         23    2    1    0    0    0  0.23680925832E+02  0.12871362440E+02 -0.28268358649E+00  0.98135628753E+02  0.94361345377E+02 0.  0.
         13    1    3    3    0    0 -0.24715767469E+02 -0.24363564255E+02  0.10213578146E+02  0.36177075163E+02  0.10566000000E+00 0.  1.
         22    1    1    0    0    0 -0.23680925832E+02 -0.12871362440E+02  0.28268358649E+00  0.26954371247E+02  0.00000000000E+00 0. -1.
</event>
<event>
 5    1  0.2370309E-009  0.9118800E+02  0.7561462E-02  0.1125453E+00
         25   -1    0    0    0    0  0.00000000000E+00  0.00000000000E+00  0.99999998245E-14  0.12509000000E+03  0.12509000000E+03 0.  0.
        -13    1    3    3    0    0  0.44197972872E+01  0.13658415601E+02 -0.32859673936E+02  0.35858837962E+02  0.10566000000E+00 0. -1.
         23    2    1    0    0    0 -0.17965191914E+02 -0.22032181000E+02  0.90223189605E+01  0.95264384171E+02  0.90475054749E+02 0.  0.
         13    1    3    3    0    0 -0.22384989202E+02 -0.35690596601E+02  0.41881992897E+02  0.59405546209E+02  0.10566000000E+00 0.  1.
         22    1    1    0    0    0  0.17965191914E+02  0.22032181000E+02 -0.90223189605E+01  0.29825615829E+02  0.00000000000E+00 0.  1.
</event>
<event>
 5    1  0.2370309E-009  0.9118800E+02  0.7561462E-02  0.1125453E+00
         25   -1    0    0    0    0  0.00000000000E+00  0.00000000000E+00  0.99999998245E-14  0.12509000000E+03  0.12509000000E+03 0.  0.
        -13    1    3    3    0    0 -0.10104463410E+02  0.44286933041E+01  0.31306022654E+02  0.33193248164E+02  0.10566000000E+00 0. -1.
         23    2    1    0    0    0  0.89533283634E+01 -0.17473550876E+02 -0.23046586987E+02  0.94814064989E+02  0.89850290367E+02 0.  0.
         13    1    3    3    0    0  0.19057791773E+02 -0.21902244180E+02 -0.54352609642E+02  0.61620816826E+02  0.10566000000E+00 0.  1.
         22    1    1    0    0    0 -0.89533283634E+01  0.17473550876E+02  0.23046586987E+02  0.30275935011E+02  0.00000000000E+00 0.  1.
</event>
<event>
 5    1  0.2370309E-009  0.9118800E+02  0.7561462E-02  0.1125453E+00
         25   -1    0    0    0    0  0.00000000000E+00  0.00000000000E+00  0.99999998245E-14  0.12509000000E+03  0.12509000000E+03 0.  0.
        -13    1    3    3    0    0 -0.15040340778E+02  0.43796891180E+02 -0.38396704630E+02  0.60155611693E+02  0.10566000000E+00 0.  1.
         23    2    1    0    0    0  0.46572047762E+01  0.23408347031E+02 -0.15121007289E+02  0.96836059948E+02  0.92622553289E+02 0.  0.
         13    1    3    3    0    0  0.19697545554E+02 -0.20388544149E+02  0.23275697341E+02  0.36680448254E+02  0.10566000000E+00 0. -1.
         22    1    1    0    0    0 -0.46572047762E+01 -0.23408347031E+02  0.15121007289E+02  0.28253940052E+02  0.00000000000E+00 0.  1.
</event>
<event>
 5    1  0.2370309E-009  0.9118800E+02  0.7561462E-02  0.1125453E+00
         25   -1    0    0    0    0  0.00000000000E+00  0.00000000000E+00  0.99999998245E-14  0.12509000000E+03  0.12509000000E+03 0.  0.
        -13    1    3    3    0    0  0.54147137146E+01  0.27913675895E+02  0.21210973102E+02  0.35474060531E+02  0.10566000000E+00 0.  1.
         23    2    1    0    0    0  0.12628280164E+02 -0.11198208743E+02 -0.24038573486E+02  0.95717796232E+02  0.91099781346E+02 0.  0.
         13    1    3    3    0    0  0.72135664497E+01 -0.39111884638E+02 -0.45249546587E+02  0.60243735701E+02  0.10566000000E+00 0. -1.
         22    1    1    0    0    0 -0.12628280164E+02  0.11198208743E+02  0.24038573486E+02  0.29372203768E+02  0.00000000000E+00 0. -1.
</event>
<event>
 5    1  0.2370309E-009  0.9118800E+02  0.7561462E-02  0.1125453E+00
         25   -1    0    0    0    0  0.00000000000E+00  0.00000000000E+00  0.99999998245E-14  0.12509000000E+03  0.12509000000E+03 0.  0.
        -13    1    3    3    0    0  0.15775793687E+02 -0.32538942791E+01  0.42996059466E+02  0.45914439865E+02  0.10566000000E+00 0.  1.
         23    2    1    0    0    0 -0.24362629361E+02  0.63126056003E+01  0.17843635125E+02  0.94239035456E+02  0.89046132933E+02 0.  0.
         13    1    3    3    0    0 -0.40138423048E+02  0.95664998795E+01 -0.25152424342E+02  0.48324595591E+02  0.10566000000E+00 0. -1.
         22    1    1    0    0    0  0.24362629361E+02 -0.63126056003E+01 -0.17843635125E+02  0.30850964544E+02  0.00000000000E+00 0. -1.
</event>
<event>
 5    1  0.2370309E-009  0.9118800E+02  0.7561462E-02  0.1125453E+00
         25   -1    0    0    0    0  0.00000000000E+00  0.00000000000E+00  0.99999998245E-14  0.12509000000E+03  0.12509000000E+03 0.  0.
        -13    1    3    3    0    0 -0.19562899281E+02 -0.11278916911E+01  0.31827640981E+02  0.37376316865E+02  0.10566000000E+00 0.  1.
         23    2    1    0    0    0  0.17911420149E+02  0.15003207468E+02 -0.13293831351E+02  0.98208014246E+02  0.94457254375E+02 0.  0.
         13    1    3    3    0    0  0.37474319430E+02  0.16131099159E+02 -0.45121472332E+02  0.60831697381E+02  0.10566000000E+00 0. -1.
         22    1    1    0    0    0 -0.17911420149E+02 -0.15003207468E+02  0.13293831351E+02  0.26881985754E+02  0.00000000000E+00 0. -1.
</event>
<event>
 5    1  0.2370309E-009  0.9118800E+02  0.7561462E-02  0.1125453E+00
         25   -1    0    0    0    0  0.00000000000E+00  0.00000000000E+00  0.99999998245E-14  0.12509000000E+03  0.12509000000E+03 0.  0.
        -13    1    3    3    0    0 -0.31249081254E+02  0.29228899489E+02 -0.36067347949E+02  0.55961579647E+02  0.10566000000E+00 0.  1.
         23    2    1    0    0    0 -0.28484074408E+02 -0.76215130373E+00 -0.13723461392E+02  0.93463163894E+02  0.87949452772E+02 0.  0.
         13    1    3    3    0    0  0.27650068456E+01 -0.29991050792E+02  0.22343886556E+02  0.37501584246E+02  0.10566000000E+00 0. -1.
         22    1    1    0    0    0  0.28484074408E+02  0.76215130373E+00  0.13723461392E+02  0.31626836106E+02  0.00000000000E+00 0.  1.
</event>
<event>
 5    1  0.2370309E-009  0.9118800E+02  0.7561462E-02  0.1125453E+00
         25   -1    0    0    0    0  0.00000000000E+00  0.00000000000E+00  0.99999998245E-14  0.12509000000E+03  0.12509000000E+03 0.  0.
        -13    1    3    3    0    0  0.24356747306E+02  0.27986758221E+02  0.10717957224E+02  0.38618590680E+02  0.10566000000E+00 0.  1.
         23    2    1    0    0    0 -0.11741459244E+02  0.14130891428E+02 -0.26867098503E+02  0.92541805892E+02  0.86629099603E+02 0.  0.
         13    1    3    3    0    0 -0.36098206550E+02 -0.13855866793E+02 -0.37585055727E+02  0.53923215211E+02  0.10566000000E+00 0. -1.
         22    1    1    0    0    0  0.11741459244E+02 -0.14130891428E+02  0.26867098503E+02  0.32548194108E+02  0.00000000000E+00 0. -1.
</event>
<event>
 5    1  0.2370309E-009  0.9118800E+02  0.7561462E-02  0.1125453E+00
         25   -1    0    0    0    0  0.00000000000E+00  0.00000000000E+00  0.99999998245E-14  0.12509000000E+03  0.12509000000E+03 0.  0.
        -13    1    3    3    0    0 -0.23484892769E+02 -0.27422704929E+02  0.34855605414E+02  0.50184353407E+02  0.10566000000E+00 0.  1.
         23    2    1    0    0    0 -0.16781291068E+02  0.13126206168E+02  0.45607966824E+00  0.10377997825E+03  0.10156853282E+03 0.  0.
         13    1    3    3    0    0  0.67036017014E+01  0.40548911097E+02 -0.34399525746E+02  0.53595624845E+02  0.10566000000E+00 0. -1.
         22    1    1    0    0    0  0.16781291068E+02 -0.13126206168E+02 -0.45607966824E+00  0.21310021749E+02  0.00000000000E+00 0.  1.
</event>
<event>
 5    1  0.2370309E-009  0.9118800E+02  0.7561462E-02  0.1125453E+00
         25   -1    0    0    0    0  0.00000000000E+00  0.00000000000E+00  0.99999998245E-14  0.12509000000E+03  0.12509000000E+03 0.  0.
        -13    1    3    3    0    0  0.40477152055E+02 -0.18204330838E+02 -0.14331355273E+02  0.46639000930E+02  0.10566000000E+00 0. -1.
         23    2    1    0    0    0  0.11301547804E+02 -0.17855511954E+02  0.22892379076E+02  0.93935460850E+02  0.88618652074E+02 0.  0.
         13    1    3    3    0    0 -0.29175604251E+02  0.34881888364E+00  0.37223734349E+02  0.47296459920E+02  0.10566000000E+00 0.  1.
         22    1    1    0    0    0 -0.11301547804E+02  0.17855511954E+02 -0.22892379076E+02  0.31154539150E+02  0.00000000000E+00 0. -1.
</event>
<event>
 5    1  0.2370309E-009  0.9118800E+02  0.7561462E-02  0.1125453E+00
         25   -1    0    0    0    0  0.00000000000E+00  0.00000000000E+00  0.99999998245E-14  0.12509000000E+03  0.12509000000E+03 0.  0.
        -13    1    3    3    0    0 -0.20715868993E+02 -0.42857013566E+01 -0.11063582671E+02  0.23873175109E+02  0.10566000000E+00 0.  1.
         23    2    1    0    0    0 -0.24740823842E+02 -0.19761078259E+01  0.41550201890E+02  0.76691315683E+02  0.59490547632E+02 0.  0.
         13    1    3    3    0    0 -0.40249548494E+01  0.23095935307E+01  0.52613784561E+02  0.52818140574E+02  0.10566000000E+00 0. -1.
         22    1    1    0    0    0  0.24740823842E+02  0.19761078259E+01 -0.41550201890E+02  0.48398684317E+02  0.00000000000E+00 0. -1.
</event>
<event>
 5    1  0.2370309E-009  0.9118800E+02  0.7561462E-02  0.1125453E+00
         25   -1    0    0    0    0  0.00000000000E+00  0.00000000000E+00  0.99999998245E-14  0.12509000000E+03  0.12509000000E+03 0.  0.
        -13    1    3    3    0    0 -0.44821640714E+02  0.17271317189E+02  0.21414971845E+02  0.52591729929E+02  0.10566000000E+00 0.  1.
         23    2    1    0    0    0 -0.38662517597E+01  0.28796600804E+01  0.28157520254E+02  0.96522775919E+02  0.92198481437E+02 0.  0.
         13    1    3    3    0    0  0.40955388954E+02 -0.14391657108E+02  0.67425484090E+01  0.43931045990E+02  0.10566000000E+00 0. -1.
         22    1    1    0    0    0  0.38662517597E+01 -0.28796600804E+01 -0.28157520254E+02  0.28567224081E+02  0.00000000000E+00 0. -1.
</event>
<event>
 5    1  0.2370309E-009  0.9118800E+02  0.7561462E-02  0.1125453E+00
         25   -1    0    0    0    0  0.00000000000E+00  0.00000000000E+00  0.99999998245E-14  0.12509000000E+03  0.12509000000E+03 0.  0.
        -13    1    3    3    0    0 -0.36871528344E+02  0.36413132210E+02  0.94961516606E+00  0.51829901918E+02  0.10566000000E+00 0. -1.
         23    2    1    0    0    0 -0.18355079050E+02  0.19759956203E+01  0.22108225448E+02  0.96287445980E+02  0.91878643521E+02 0.  0.
         13    1    3    3    0    0  0.18516449294E+02 -0.34437136590E+02  0.21158610282E+02  0.44457544062E+02  0.10566000000E+00 0.  1.
         22    1    1    0    0    0  0.18355079050E+02 -0.19759956203E+01 -0.22108225448E+02  0.28802554020E+02  0.00000000000E+00 0.  1.
</event>
<event>
 5    1  0.2370309E-009  0.9118800E+02  0.7561462E-02  0.1125453E+00
         25   -1    0    0    0    0  0.00000000000E+00  0.00000000000E+00  0.99999998245E-14  0.12509000000E+03  0.12509000000E+03 0.  0.
        -13    1    3    3    0    0  0.32421293696E+02  0.62414229675E+01  0.43565353518E+02  0.54663029890E+02  0.10566000000E+00 0.  1.
         23    2    1    0    0    0 -0.17888251040E+01 -0.98020806378E+01  0.27715058704E+02  0.95638257113E+02  0.90990499859E+02 0.  0.
         13    1    3    3    0    0 -0.34210118800E+02 -0.16043503605E+02 -0.15850294814E+02  0.40975227223E+02  0.10566000000E+00 0. -1.
         22    1    1    0    0    0  0.17888251040E+01  0.98020806378E+01 -0.27715058704E+02  0.29451742887E+02  0.00000000000E+00 0.  1.
</event>
<event>
 5    1  0.2370309E-009  0.9118800E+02  0.7561462E-02  0.1125453E+00
         25   -1    0    0    0    0  0.00000000000E+00  0.00000000000E+00  0.99999998245E-14  0.12509000000E+03  0.12509000000E+03 0.  0.
        -13    1    3    3    0    0  0.16750425808E+02 -0.32867371479E+02 -0.69445523599E+01  0.37537698974E+02  0.10566000000E+00 0.  1.
         23    2    1    0    0    0 -0.12991104200E+01  0.93527547243E+01  0.28193968247E+02  0.95356827376E+02  0.90602775746E+02 0.  0.
         13    1    3    3    0    0 -0.18049536228E+02  0.42220126204E+02  0.35138520607E+02  0.57819128402E+02  0.10566000000E+00 0. -1.
         22    1    1    0    0    0  0.12991104200E+01 -0.93527547243E+01 -0.28193968247E+02  0.29733172624E+02  0.00000000000E+00 0. -1.
</event>
<event>
 5    1  0.2370309E-009  0.9118800E+02  0.7561462E-02  0.1125453E+00
         25   -1    0    0    0    0  0.00000000000E+00  0.00000000000E+00  0.99999998245E-14  0.12509000000E+03  0.12509000000E+03 0.  0.
        -13    1    3    3    0    0  0.33222338114E+02  0.11098572424E+01 -0.22530735840E+02  0.40157200530E+02  0.10566000000E+00 0.  1.
         23    2    1    0    0    0  0.71040983976E+01  0.31781438572E+01  0.27433366162E+02  0.96574067762E+02  0.92268045242E+02 0.  0.
         13    1    3    3    0    0 -0.26118239717E+02  0.20682866147E+01  0.49964102002E+02  0.56416867232E+02  0.10566000000E+00 0. -1.
         22    1    1    0    0    0 -0.71040983976E+01 -0.31781438572E+01 -0.27433366162E+02  0.28515932238E+02  0.00000000000E+00 0. -1.
</event>
<event>
 5    1  0.2370309E-009  0.9118800E+02  0.7561462E-02  0.1125453E+00
         25   -1    0    0    0    0  0.00000000000E+00  0.00000000000E+00  0.99999998245E-14  0.12509000000E+03  0.12509000000E+03 0.  0.
        -13    1    3    3    0    0  0.29257826135E+02 -0.14270421740E+01 -0.45128068699E+02  0.53801585367E+02  0.10566000000E+00 0.  1.
         23    2    1    0    0    0  0.11697018770E+02 -0.23183283598E+02 -0.14200801436E+02  0.95493587245E+02  0.90791395831E+02 0.  0.
         13    1    3    3    0    0 -0.17560807365E+02 -0.21756241424E+02  0.30927267263E+02  0.41692001878E+02  0.10566000000E+00 0. -1.
         22    1    1    0    0    0 -0.11697018770E+02  0.23183283598E+02  0.14200801436E+02  0.29596412755E+02  0.00000000000E+00 0.  1.
</event>
<event>
 5    1  0.2370309E-009  0.9118800E+02  0.7561462E-02  0.1125453E+00
         25   -1    0    0    0    0  0.00000000000E+00  0.00000000000E+00  0.99999998245E-14  0.12509000000E+03  0.12509000000E+03 0.  0.
        -13    1    3    3    0    0 -0.31269753212E+02 -0.27817385313E+02 -0.33445459266E+02  0.53574381015E+02  0.10566000000E+00 0. -1.
         23    2    1    0    0    0 -0.22698352251E+02  0.96861189233E+01 -0.14643761364E+02  0.96393731225E+02  0.92023233903E+02 0.  0.
         13    1    3    3    0    0  0.85714009610E+01  0.37503504236E+02  0.18801697901E+02  0.42819350211E+02  0.10566000000E+00 0.  1.
         22    1    1    0    0    0  0.22698352251E+02 -0.96861189233E+01  0.14643761364E+02  0.28696268775E+02  0.00000000000E+00 0. -1.
</event>
<event>
 5    1  0.2370309E-009  0.9118800E+02  0.7561462E-02  0.1125453E+00
         25   -1    0    0    0    0  0.00000000000E+00  0.00000000000E+00  0.99999998245E-14  0.12509000000E+03  0.12509000000E+03 0.  0.
        -13    1    3    3    0    0  0.18525048968E+02  0.26533559091E+02 -0.65929492458E+01  0.33025525599E+02  0.10566000000E+00 0. -1.
         23    2    1    0    0    0 -0.90487878240E+01 -0.28263446221E+02  0.35490946180E+01  0.95201891562E+02  0.90388611733E+02 0.  0.
         13    1    3    3    0    0 -0.27573836792E+02 -0.54797005312E+02  0.10142043864E+02  0.62176365963E+02  0.10566000000E+00 0.  1.
         22    1    1    0    0    0  0.90487878240E+01  0.28263446221E+02 -0.35490946180E+01  0.29888108438E+02  0.00000000000E+00 0.  1.
</event>
<event>
 5    1  0.2370309E-009  0.9118800E+02  0.7561462E-02  0.1125453E+00
         25   -1    0    0    0    0  0.00000000000E+00  0.00000000000E+00  0.99999998245E-14  0.12509000000E+03  0.12509000000E+03 0.  0.
        -13    1    3    3    0    0 -0.12663546970E+02  0.52484824152E+02 -0.27567191206E+02  0.60621641211E+02  0.10566000000E+00 0.  1.
         23    2    1    0    0    0 -0.17299085902E+02  0.25737302027E+02 -0.12633668120E+02  0.91604530631E+02  0.85264959822E+02 0.  0.
         13    1    3    3    0    0 -0.46355389320E+01 -0.26747522125E+02  0.14933523086E+02  0.30982889420E+02  0.10566000000E+00 0. -1.
         22    1    1    0    0    0  0.17299085902E+02 -0.25737302027E+02  0.12633668120E+02  0.33485469369E+02  0.00000000000E+00 0.  1.
</event>
<event>
 5    1  0.2370309E-009  0.9118800E+02  0.7561462E-02  0.1125453E+00
         25   -1    0    0    0    0  0.00000000000E+00  0.00000000000E+00  0.99999998245E-14  0.12509000000E+03  0.12509000000E+03 0.  0.
        -13    1    3    3    0    0 -0.50461351857E+02  0.29214296817E+02  0.10940189921E+02  0.59325560168E+02  0.10566000000E+00 0. -1.
         23    2    1    0    0    0 -0.25591498752E+02  0.18184571438E+01  0.12890608525E+02  0.96377644073E+02  0.92001363545E+02 0.  0.
         13    1    3    3    0    0  0.24869853106E+02 -0.27395839673E+02  0.19504186048E+01  0.37052083904E+02  0.10566000000E+00 0.  1.
         22    1    1    0    0    0  0.25591498752E+02 -0.18184571438E+01 -0.12890608525E+02  0.28712355927E+02  0.00000000000E+00 0. -1.
</event>
<event>
 5    1  0.2370309E-009  0.9118800E+02  0.7561462E-02  0.1125453E+00
         25   -1    0    0    0    0  0.00000000000E+00  0.00000000000E+00  0.99999998245E-14  0.12509000000E+03  0.12509000000E+03 0.  0.
        -13    1    3    3    0    0  0.18401364406E+02  0.31208372150E+01  0.35995816927E+02  0.40547007746E+02  0.10566000000E+00 0. -1.
         23    2    1    0    0    0 -0.24436746035E+02 -0.15257629476E+02  0.70024945373E+01  0.95442323131E+02  0.90720737987E+02 0.  0.
         13    1    3    3    0    0 -0.42838110440E+02 -0.18378466691E+02 -0.28993322389E+02  0.54895315385E+02  0.10566000000E+00 0.  1.
         22    1    1    0    0    0  0.24436746035E+02  0.15257629476E+02 -0.70024945373E+01  0.29647676869E+02  0.00000000000E+00 0.  1.
</event>
<event>
 5    1  0.2370309E-009  0.9118800E+02  0.7561462E-02  0.1125453E+00
         25   -1    0    0    0    0  0.00000000000E+00  0.00000000000E+00  0.99999998245E-14  0.12509000000E+03  0.12509000000E+03 0.  0.
        -13    1    3    3    0    0 -0.52645651416E+01  0.50758999302E+02 -0.56570124040E+01  0.51343983188E+02  0.10566000000E+00 0.  1.
         23    2    1    0    0    0 -0.26885512992E+02  0.12673742498E+02 -0.16555650689E+01  0.95320964856E+02  0.90553248907E+02 0.  0.
         13    1    3    3    0    0 -0.21620947850E+02 -0.38085256804E+02  0.40014473351E+01  0.43976981668E+02  0.10566000000E+00 0. -1.
         22    1    1    0    0    0  0.26885512992E+02 -0.12673742498E+02  0.16555650689E+01  0.29769035144E+02  0.00000000000E+00 0.  1.
</event>
<event>
 5    1  0.2370309E-009  0.9118800E+02  0.7561462E-02  0.1125453E+00
         25   -1    0    0    0    0  0.00000000000E+00  0.00000000000E+00  0.99999998245E-14  0.12509000000E+03  0.12509000000E+03 0.  0.
        -13    1    3    3    0    0 -0.38530247711E+02  0.15225127879E+02  0.24550037911E+02  0.48157035136E+02  0.10566000000E+00 0. -1.
         23    2    1    0    0    0 -0.15201949657E+02 -0.23324856839E+02  0.10000915375E+02  0.95506786377E+02  0.90809579427E+02 0.  0.
         13    1    3    3    0    0  0.23328298054E+02 -0.38549984719E+02 -0.14549122536E+02  0.47349751241E+02  0.10566000000E+00 0.  1.
         22    1    1    0    0    0  0.15201949657E+02  0.23324856839E+02 -0.10000915375E+02  0.29583213623E+02  0.00000000000E+00 0.  1.
</event>
<event>
 5    1  0.2370309E-009  0.9118800E+02  0.7561462E-02  0.1125453E+00
         25   -1    0    0    0    0  0.00000000000E+00  0.00000000000E+00  0.99999998245E-14  0.12509000000E+03  0.12509000000E+03 0.  0.
        -13    1    3    3    0    0 -0.12458876443E+02 -0.12762090788E+02 -0.26352759311E+02  0.31820962444E+02  0.10566000000E+00 0. -1.
         23    2    1    0    0    0  0.83683430567E+01  0.36970613072E+01  0.29791924901E+02  0.93925016170E+02  0.88603907619E+02 0.  0.
         13    1    3    3    0    0  0.20827219500E+02  0.16459152095E+02  0.56144684213E+02  0.62104053726E+02  0.10566000000E+00 0.  1.
         22    1    1    0    0    0 -0.83683430567E+01 -0.36970613072E+01 -0.29791924901E+02  0.31164983830E+02  0.00000000000E+00 0.  1.
</event>
<event>
 5    1  0.2370309E-009  0.9118800E+02  0.7561462E-02  0.1125453E+00
         25   -1    0    0    0    0  0.00000000000E+00  0.00000000000E+00  0.99999998245E-14  0.12509000000E+03  0.12509000000E+03 0.  0.
        -13    1    3    3    0    0  0.26958391164E+02  0.19438999372E+02 -0.48963022919E+02  0.59177853359E+02  0.10566000000E+00 0. -1.
         23    2    1    0    0    0  0.23140712588E+02  0.13829746612E+02 -0.14154626933E+02  0.94641552846E+02  0.89609796290E+02 0.  0.
         13    1    3    3    0    0 -0.38176785762E+01 -0.56092527593E+01  0.34808395986E+02  0.35463699488E+02  0.10566000000E+00 0.  1.
         22    1    1    0    0    0 -0.23140712588E+02 -0.13829746612E+02  0.14154626933E+02  0.30448447154E+02  0.00000000000E+00 0. -1.
</event>
<event>
 5    1  0.2370309E-009  0.9118800E+02  0.7561462E-02  0.1125453E+00
         25   -1    0    0    0    0  0.00000000000E+00  0.00000000000E+00  0.99999998245E-14  0.12509000000E+03  0.12509000000E+03 0.  0.
        -13    1    3    3    0    0  0.18050248572E+02  0.36447011479E+02  0.27686866666E+02  0.49201319790E+02  0.10566000000E+00 0.  1.
         23    2    1    0    0    0  0.28317633136E+02  0.52721321522E+00 -0.16757903143E+01  0.96717926171E+02  0.92462871843E+02 0.  0.
         13    1    3    3    0    0  0.10267384563E+02 -0.35919798263E+02 -0.29362656980E+02  0.47516606381E+02  0.10566000000E+00 0. -1.
         22    1    1    0    0    0 -0.28317633136E+02 -0.52721321522E+00  0.16757903143E+01  0.28372073829E+02  0.00000000000E+00 0. -1.
</event>
<event>
 5    1  0.2370309E-009  0.9118800E+02  0.7561462E-02  0.1125453E+00
         25   -1    0    0    0    0  0.00000000000E+00  0.00000000000E+00  0.99999998245E-14  0.12509000000E+03  0.12509000000E+03 0.  0.
        -13    1    3    3    0    0 -0.95771288659E+01  0.69834783880E+01  0.38666055075E+02  0.40442123421E+02  0.10566000000E+00 0.  1.
         23    2    1    0    0    0  0.24995924328E+02  0.13098862324E+02 -0.49555024308E+01  0.96438064088E+02  0.92083477201E+02 0.  0.
         13    1    3    3    0    0  0.34573053194E+02  0.61153839364E+01 -0.43621557506E+02  0.55995940666E+02  0.10566000000E+00 0. -1.
         22    1    1    0    0    0 -0.24995924328E+02 -0.13098862324E+02  0.49555024308E+01  0.28651935912E+02  0.00000000000E+00 0. -1.
</event>
<event>
 5    1  0.2370309E-009  0.9118800E+02  0.7561462E-02  0.1125453E+00
         25   -1    0    0    0    0  0.00000000000E+00  0.00000000000E+00  0.99999998245E-14  0.12509000000E+03  0.12509000000E+03 0.  0.
        -13    1    3    3    0    0 -0.46963964165E+02  0.31014022749E+01  0.84365048039E+01  0.47816507647E+02  0.10566000000E+00 0. -1.
         23    2    1    0    0    0 -0.55636728842E+01  0.94265790105E+01  0.28723043954E+02  0.94351943754E+02  0.89204602955E+02 0.  0.
         13    1    3    3    0    0  0.41400291281E+02  0.63251767356E+01  0.20286539150E+02  0.46535436107E+02  0.10566000000E+00 0.  1.
         22    1    1    0    0    0  0.55636728842E+01 -0.94265790105E+01 -0.28723043954E+02  0.30738056246E+02  0.00000000000E+00 0. -1.
</event>
<event>
 5    1  0.2370309E-009  0.9118800E+02  0.7561462E-02  0.1125453E+00
         25   -1    0    0    0    0  0.00000000000E+00  0.00000000000E+00  0.99999998245E-14  0.12509000000E+03  0.12509000000E+03 0.  0.
        -13    1    3    3    0    0  0.31857977030E+02 -0.37266733739E+02 -0.27963179711E+02  0.56441923493E+02  0.10566000000E+00 0. -1.
         23    2    1    0    0    0  0.19093131049E+02 -0.21707403885E+02  0.56632912345E+01  0.95631013183E+02  0.90980540656E+02 0.  0.
         13    1    3    3    0    0 -0.12764845980E+02  0.15559329854E+02  0.33626470946E+02  0.39189089690E+02  0.10566000000E+00 0.  1.
         22    1    1    0    0    0 -0.19093131049E+02  0.21707403885E+02 -0.56632912345E+01  0.29458986817E+02  0.00000000000E+00 0. -1.
</event>
<event>
 5    1  0.2370309E-009  0.9118800E+02  0.7561462E-02  0.1125453E+00
         25   -1    0    0    0    0  0.00000000000E+00  0.00000000000E+00  0.99999998245E-14  0.12509000000E+03  0.12509000000E+03 0.  0.
        -13    1    3    3    0    0  0.98243265412E+01 -0.35792908175E+02 -0.12780542121E+02  0.39255612192E+02  0.10566000000E+00 0.  1.
         23    2    1    0    0    0  0.82870013554E+00  0.18195667093E+02 -0.23833280336E+02  0.95093428589E+02  0.90238383542E+02 0.  0.
         13    1    3    3    0    0 -0.89956264056E+01  0.53988575268E+02 -0.11052738215E+02  0.55837816397E+02  0.10566000000E+00 0. -1.
         22    1    1    0    0    0 -0.82870013554E+00 -0.18195667093E+02  0.23833280336E+02  0.29996571411E+02  0.00000000000E+00 0. -1.
</event>
<event>
 5    1  0.2370309E-009  0.9118800E+02  0.7561462E-02  0.1125453E+00
         25   -1    0    0    0    0  0.00000000000E+00  0.00000000000E+00  0.99999998245E-14  0.12509000000E+03  0.12509000000E+03 0.  0.
        -13    1    3    3    0    0  0.23876046384E+02 -0.21460201443E+02 -0.15227896555E+02  0.35531758111E+02  0.10566000000E+00 0.  1.
         23    2    1    0    0    0 -0.30588823781E+02 -0.31749994018E+01 -0.38965477635E+01  0.94090970241E+02  0.88837890762E+02 0.  0.
         13    1    3    3    0    0 -0.54464870165E+02  0.18285202042E+02  0.11331348792E+02  0.58559212130E+02  0.10566000000E+00 0. -1.
         22    1    1    0    0    0  0.30588823781E+02  0.31749994018E+01  0.38965477635E+01  0.30999029759E+02  0.00000000000E+00 0. -1.
</event>
<event>
 5    1  0.2370309E-009  0.9118800E+02  0.7561462E-02  0.1125453E+00
         25   -1    0    0    0    0  0.00000000000E+00  0.00000000000E+00  0.99999998245E-14  0.12509000000E+03  0.12509000000E+03 0.  0.
        -13    1    3    3    0    0 -0.11708126886E+02  0.22844641613E+02 -0.33673498273E+02  0.42342337389E+02  0.10566000000E+00 0.  1.
         23    2    1    0    0    0  0.22605071014E+02 -0.12862481179E+02 -0.13117693132E+02  0.95960864572E+02  0.91432931697E+02 0.  0.
         13    1    3    3    0    0  0.34313197900E+02 -0.35707122793E+02  0.20555805141E+02  0.53618527183E+02  0.10566000000E+00 0. -1.
         22    1    1    0    0    0 -0.22605071014E+02  0.12862481179E+02  0.13117693132E+02  0.29129135428E+02  0.00000000000E+00 0. -1.
</event>
<event>
 5    1  0.2370309E-009  0.9118800E+02  0.7561462E-02  0.1125453E+00
         25   -1    0    0    0    0  0.00000000000E+00  0.00000000000E+00  0.99999998245E-14  0.12509000000E+03  0.12509000000E+03 0.  0.
        -13    1    3    3    0    0 -0.45976629050E+02  0.37102037431E+01  0.48919836138E+01  0.46384897308E+02  0.10566000000E+00 0.  1.
         23    2    1    0    0    0 -0.80705967957E+01 -0.27813000042E+02  0.50872089934E+01  0.95686306366E+02  0.91056532037E+02 0.  0.
         13    1    3    3    0    0  0.37906032254E+02 -0.31523203785E+02  0.19522537965E+00  0.49301409058E+02  0.10566000000E+00 0. -1.
         22    1    1    0    0    0  0.80705967957E+01  0.27813000042E+02 -0.50872089934E+01  0.29403693634E+02  0.00000000000E+00 0. -1.
</event>
<event>
 5    1  0.2370309E-009  0.9118800E+02  0.7561462E-02  0.1125453E+00
         25   -1    0    0    0    0  0.00000000000E+00  0.00000000000E+00  0.99999998245E-14  0.12509000000E+03  0.12509000000E+03 0.  0.
        -13    1    3    3    0    0 -0.18389312743E+02  0.67523237885E+01 -0.36109677615E+02  0.41081390935E+02  0.10566000000E+00 0.  1.
         23    2    1    0    0    0 -0.19942696111E+02 -0.99311579233E+01  0.17188465647E+02  0.96951372152E+02  0.92778155753E+02 0.  0.
         13    1    3    3    0    0 -0.15533833673E+01 -0.16683481712E+02  0.53298143262E+02  0.55869981217E+02  0.10566000000E+00 0. -1.
         22    1    1    0    0    0  0.19942696111E+02  0.99311579233E+01 -0.17188465647E+02  0.28138627848E+02  0.00000000000E+00 0. -1.
</event>
<event>
 5    1  0.2370309E-009  0.9118800E+02  0.7561462E-02  0.1125453E+00
         25   -1    0    0    0    0  0.00000000000E+00  0.00000000000E+00  0.99999998245E-14  0.12509000000E+03  0.12509000000E+03 0.  0.
        -13    1    3    3    0    0 -0.22795472854E+02 -0.51713212232E+02  0.77147779819E+01  0.57038748806E+02  0.10566000000E+00 0. -1.
         23    2    1    0    0    0 -0.24888780796E+02 -0.12184083322E+02  0.64220415948E+01  0.96644509775E+02  0.92363495795E+02 0.  0.
         13    1    3    3    0    0 -0.20933079426E+01  0.39529128910E+02 -0.12927363871E+01  0.39605760969E+02  0.10566000000E+00 0.  1.
         22    1    1    0    0    0  0.24888780796E+02  0.12184083322E+02 -0.64220415948E+01  0.28445490225E+02  0.00000000000E+00 0. -1.
</event>
<event>
 5    1  0.2370309E-009  0.9118800E+02  0.7561462E-02  0.1125453E+00
         25   -1    0    0    0    0  0.00000000000E+00  0.00000000000E+00  0.99999998245E-14  0.12509000000E+03  0.12509000000E+03 0.  0.
        -13    1    3    3    0    0  0.76285671636E+01 -0.32853216559E+02 -0.43422849201E+01  0.34005815350E+02  0.10566000000E+00 0.  1.
         23    2    1    0    0    0 -0.18684997141E+02  0.21388155350E+02 -0.10945262410E+02  0.94653491057E+02  0.89626459780E+02 0.  0.
         13    1    3    3    0    0 -0.26313564304E+02  0.54241371908E+02 -0.66029774903E+01  0.60647675707E+02  0.10566000000E+00 0. -1.
         22    1    1    0    0    0  0.18684997141E+02 -0.21388155350E+02  0.10945262410E+02  0.30436508943E+02  0.00000000000E+00 0. -1.
</event>
<event>
 5    1  0.2370309E-009  0.9118800E+02  0.7561462E-02  0.1125453E+00
         25   -1    0    0    0    0  0.00000000000E+00  0.00000000000E+00  0.99999998245E-14  0.12509000000E+03  0.12509000000E+03 0.  0.
        -13    1    3    3    0    0 -0.29809686543E+02 -0.50293572451E+01 -0.22118753481E+02  0.37458807585E+02  0.10566000000E+00 0.  1.
         23    2    1    0    0    0  0.97912150716E+00 -0.49574653852E+01  0.28195084559E+02  0.96445664866E+02  0.92093801834E+02 0.  0.
         13    1    3    3    0    0  0.30788808050E+02  0.71891859950E-01  0.50313838040E+02  0.58986857281E+02  0.10566000000E+00 0. -1.
         22    1    1    0    0    0 -0.97912150716E+00  0.49574653852E+01 -0.28195084559E+02  0.28644335134E+02  0.00000000000E+00 0. -1.
</event>
<event>
 5    1  0.2370309E-009  0.9118800E+02  0.7561462E-02  0.1125453E+00
         25   -1    0    0    0    0  0.00000000000E+00  0.00000000000E+00  0.99999998245E-14  0.12509000000E+03  0.12509000000E+03 0.  0.
        -13    1    3    3    0    0 -0.33690924016E+02 -0.80182341462E+01 -0.43884014587E+02  0.55903383978E+02  0.10566000000E+00 0.  1.
         23    2    1    0    0    0 -0.17812990992E+02 -0.24426109460E+02 -0.20648170022E+02  0.88480105208E+02  0.80550882185E+02 0.  0.
         13    1    3    3    0    0  0.15877933024E+02 -0.16407875314E+02  0.23235844564E+02  0.32576721230E+02  0.10566000000E+00 0. -1.
         22    1    1    0    0    0  0.17812990992E+02  0.24426109460E+02  0.20648170022E+02  0.36609894792E+02  0.00000000000E+00 0.  1.
</event>
<event>
 5    1  0.2370309E-009  0.9118800E+02  0.7561462E-02  0.1125453E+00
         25   -1    0    0    0    0  0.00000000000E+00  0.00000000000E+00  0.99999998245E-14  0.12509000000E+03  0.12509000000E+03 0.  0.
        -13    1    3    3    0    0  0.29800693028E+02  0.19965378855E+02 -0.36782081588E+02  0.51377333015E+02  0.10566000000E+00 0.  1.
         23    2    1    0    0    0  0.87503661493E+01 -0.16335297981E+02 -0.23017268557E+02  0.95539948906E+02  0.90855249255E+02 0.  0.
         13    1    3    3    0    0 -0.21050326878E+02 -0.36300676836E+02  0.13764813032E+02  0.44162615890E+02  0.10566000000E+00 0. -1.
         22    1    1    0    0    0 -0.87503661493E+01  0.16335297981E+02  0.23017268557E+02  0.29550051094E+02  0.00000000000E+00 0.  1.
</event>
<event>
 5    1  0.2370309E-009  0.9118800E+02  0.7561462E-02  0.1125453E+00
         25   -1    0    0    0    0  0.00000000000E+00  0.00000000000E+00  0.99999998245E-14  0.12509000000E+03  0.12509000000E+03 0.  0.
        -13    1    3    3    0    0  0.22115152996E+02  0.34037148981E+02 -0.37923275821E+02  0.55549919134E+02  0.10566000000E+00 0.  1.
         23    2    1    0    0    0  0.17871343818E+02  0.24182925134E+02  0.60453433735E-01  0.95020040696E+02  0.90136594574E+02 0.  0.
         13    1    3    3    0    0 -0.42438091776E+01 -0.98542238466E+01  0.37983729255E+02  0.39470121562E+02  0.10566000000E+00 0. -1.
         22    1    1    0    0    0 -0.17871343818E+02 -0.24182925134E+02 -0.60453433735E-01  0.30069959304E+02  0.00000000000E+00 0.  1.
</event>
<event>
 5    1  0.2370309E-009  0.9118800E+02  0.7561462E-02  0.1125453E+00
         25   -1    0    0    0    0  0.00000000000E+00  0.00000000000E+00  0.99999998245E-14  0.12509000000E+03  0.12509000000E+03 0.  0.
        -13    1    3    3    0    0  0.44213627867E+02 -0.43697951343E+01 -0.23647157762E+00  0.44429799476E+02  0.10566000000E+00 0.  1.
         23    2    1    0    0    0  0.39621909698E+01  0.16516958710E+02  0.23875006266E+02  0.95789406039E+02  0.91198056464E+02 0.  0.
         13    1    3    3    0    0 -0.40251436897E+02  0.20886753844E+02  0.24111477843E+02  0.51359606562E+02  0.10566000000E+00 0. -1.
         22    1    1    0    0    0 -0.39621909698E+01 -0.16516958710E+02 -0.23875006266E+02  0.29300593961E+02  0.00000000000E+00 0. -1.
</event>
<event>
 5    1  0.2370309E-009  0.9118800E+02  0.7561462E-02  0.1125453E+00
         25   -1    0    0    0    0  0.00000000000E+00  0.00000000000E+00  0.99999998245E-14  0.12509000000E+03  0.12509000000E+03 0.  0.
        -13    1    3    3    0    0  0.34031824598E+02  0.16747738326E+01 -0.14756012258E+02  0.37131132687E+02  0.10566000000E+00 0. -1.
         23    2    1    0    0    0 -0.53226552037E+01  0.21411361725E+02  0.21589230979E+02  0.94221375742E+02  0.89021321508E+02 0.  0.
         13    1    3    3    0    0 -0.39354479801E+02  0.19736587893E+02  0.36345243237E+02  0.57090243055E+02  0.10566000000E+00 0.  1.
         22    1    1    0    0    0  0.53226552037E+01 -0.21411361725E+02 -0.21589230979E+02  0.30868624258E+02  0.00000000000E+00 0.  1.
</event>
<event>
 5    1  0.2370309E-009  0.9118800E+02  0.7561462E-02  0.1125453E+00
         25   -1    0    0    0    0  0.00000000000E+00  0.00000000000E+00  0.99999998245E-14  0.12509000000E+03  0.12509000000E+03 0.  0.
        -13    1    3    3    0    0  0.11844669618E+00 -0.33674296038E+02 -0.62130256964E+01  0.34243029884E+02  0.10566000000E+00 0.  1.
         23    2    1    0    0    0 -0.16768987951E+02  0.24326497744E+02  0.31604050377E+01  0.95375262757E+02  0.90628224834E+02 0.  0.
         13    1    3    3    0    0 -0.16887434647E+02  0.58000793782E+02  0.93734307341E+01  0.61132232874E+02  0.10566000000E+00 0. -1.
         22    1    1    0    0    0  0.16768987951E+02 -0.24326497744E+02 -0.31604050377E+01  0.29714737243E+02  0.00000000000E+00 0. -1.
</event>
<event>
 5    1  0.2370309E-009  0.9118800E+02  0.7561462E-02  0.1125453E+00
         25   -1    0    0    0    0  0.00000000000E+00  0.00000000000E+00  0.99999998245E-14  0.12509000000E+03  0.12509000000E+03 0.  0.
        -13    1    3    3    0    0  0.48070941078E+02 -0.33165831972E+02  0.16550048583E+02  0.60701754988E+02  0.10566000000E+00 0.  1.
         23    2    1    0    0    0  0.16567776695E+02 -0.17478765968E+02  0.16503462334E+02  0.95894747759E+02  0.91342432059E+02 0.  0.
         13    1    3    3    0    0 -0.31503164382E+02  0.15687066003E+02 -0.46586249648E-01  0.35192992772E+02  0.10566000000E+00 0. -1.
         22    1    1    0    0    0 -0.16567776695E+02  0.17478765968E+02 -0.16503462334E+02  0.29195252241E+02  0.00000000000E+00 0.  1.
</event>
<event>
 5    1  0.2370309E-009  0.9118800E+02  0.7561462E-02  0.1125453E+00
         25   -1    0    0    0    0  0.00000000000E+00  0.00000000000E+00  0.99999998245E-14  0.12509000000E+03  0.12509000000E+03 0.  0.
        -13    1    3    3    0    0  0.54551805076E+02 -0.68619109616E+01 -0.88051768280E+01  0.55682381075E+02  0.10566000000E+00 0. -1.
         23    2    1    0    0    0  0.24555268680E+02  0.16804586855E+01  0.16171514770E+02  0.95639990640E+02  0.90992883009E+02 0.  0.
         13    1    3    3    0    0 -0.29996536396E+02  0.85423696471E+01  0.24976691598E+02  0.39957609565E+02  0.10566000000E+00 0.  1.
         22    1    1    0    0    0 -0.24555268680E+02 -0.16804586855E+01 -0.16171514770E+02  0.29450009360E+02  0.00000000000E+00 0. -1.
</event>
<event>
 5    1  0.2370309E-009  0.9118800E+02  0.7561462E-02  0.1125453E+00
         25   -1    0    0    0    0  0.00000000000E+00  0.00000000000E+00  0.99999998245E-14  0.12509000000E+03  0.12509000000E+03 0.  0.
        -13    1    3    3    0    0  0.13734669927E+02 -0.17587942631E+02 -0.25879146751E+02  0.34171893196E+02  0.10566000000E+00 0.  1.
         23    2    1    0    0    0 -0.11592112260E+02  0.11254221062E+02  0.23411306874E+02  0.96644897646E+02  0.92364021097E+02 0.  0.
         13    1    3    3    0    0 -0.25326782187E+02  0.28842163693E+02  0.49290453625E+02  0.62473004450E+02  0.10566000000E+00 0. -1.
         22    1    1    0    0    0  0.11592112260E+02 -0.11254221062E+02 -0.23411306874E+02  0.28445102354E+02  0.00000000000E+00 0. -1.
</event>
<event>
 5    1  0.2370309E-009  0.9118800E+02  0.7561462E-02  0.1125453E+00
         25   -1    0    0    0    0  0.00000000000E+00  0.00000000000E+00  0.99999998245E-14  0.12509000000E+03  0.12509000000E+03 0.  0.
        -13    1    3    3    0    0  0.29545751114E+01 -0.59198302289E+02 -0.13468409009E+02  0.60783038039E+02  0.10566000000E+00 0. -1.
         23    2    1    0    0    0  0.11561490473E+02 -0.27231250215E+02 -0.38567462860E+01  0.95255732083E+02  0.90463091660E+02 0.  0.
         13    1    3    3    0    0  0.86069153615E+01  0.31967052074E+02  0.96116627229E+01  0.34472694044E+02  0.10566000000E+00 0.  1.
         22    1    1    0    0    0 -0.11561490473E+02  0.27231250215E+02  0.38567462860E+01  0.29834267917E+02  0.00000000000E+00 0. -1.
</event>
<event>
 5    1  0.2370309E-009  0.9118800E+02  0.7561462E-02  0.1125453E+00
         25   -1    0    0    0    0  0.00000000000E+00  0.00000000000E+00  0.99999998245E-14  0.12509000000E+03  0.12509000000E+03 0.  0.
        -13    1    3    3    0    0 -0.28786318280E+02 -0.42466890445E+02 -0.30073854535E+02  0.59468788409E+02  0.10566000000E+00 0.  1.
         23    2    1    0    0    0 -0.22901165546E+02 -0.96787788122E+01 -0.15186429302E+02  0.95956346305E+02  0.91426750017E+02 0.  0.
         13    1    3    3    0    0  0.58851527340E+01  0.32788111633E+02  0.14887425233E+02  0.36487557896E+02  0.10566000000E+00 0. -1.
         22    1    1    0    0    0  0.22901165546E+02  0.96787788122E+01  0.15186429302E+02  0.29133653695E+02  0.00000000000E+00 0.  1.
</event>
<event>
 5    1  0.2370309E-009  0.9118800E+02  0.7561462E-02  0.1125453E+00
         25   -1    0    0    0    0  0.00000000000E+00  0.00000000000E+00  0.99999998245E-14  0.12509000000E+03  0.12509000000E+03 0.  0.
        -13    1    3    3    0    0 -0.54913222325E+01 -0.30379969229E+02 -0.54394341775E+02  0.62544805791E+02  0.10566000000E+00 0.  1.
         23    2    1    0    0    0 -0.25989545646E+01 -0.13827097678E+02 -0.24765952511E+02  0.96606748802E+02  0.92312341078E+02 0.  0.
         13    1    3    3    0    0  0.28923676679E+01  0.16552871552E+02  0.29628389264E+02  0.34061943012E+02  0.10566000000E+00 0. -1.
         22    1    1    0    0    0  0.25989545646E+01  0.13827097678E+02  0.24765952511E+02  0.28483251198E+02  0.00000000000E+00 0.  1.
</event>
<event>
 5    1  0.2370309E-009  0.9118800E+02  0.7561462E-02  0.1125453E+00
         25   -1    0    0    0    0  0.00000000000E+00  0.00000000000E+00  0.99999998245E-14  0.12509000000E+03  0.12509000000E+03 0.  0.
        -13    1    3    3    0    0 -0.46535797382E+02  0.24798617894E+02 -0.25161023933E+02  0.58426365425E+02  0.10566000000E+00 0. -1.
         23    2    1    0    0    0 -0.11284921419E+02  0.12782820372E+02 -0.23951829495E+02  0.95688638054E+02  0.91059735166E+02 0.  0.
         13    1    3    3    0    0  0.35250875963E+02 -0.12015797523E+02  0.12091944375E+01  0.37262272629E+02  0.10566000000E+00 0.  1.
         22    1    1    0    0    0  0.11284921419E+02 -0.12782820372E+02  0.23951829495E+02  0.29401361946E+02  0.00000000000E+00 0. -1.
</event>
<event>
 5    1  0.2370309E-009  0.9118800E+02  0.7561462E-02  0.1125453E+00
         25   -1    0    0    0    0  0.00000000000E+00  0.00000000000E+00  0.99999998245E-14  0.12509000000E+03  0.12509000000E+03 0.  0.
        -13    1    3    3    0    0 -0.13316600248E+01  0.25205135288E+02  0.53718308523E+02  0.59352674732E+02  0.10566000000E+00 0.  1.
         23    2    1    0    0    0 -0.74663836881E+01 -0.34470750618E+00  0.27958997082E+02  0.96149177164E+02  0.91690201455E+02 0.  0.
         13    1    3    3    0    0 -0.61347236633E+01 -0.25549842794E+02 -0.25759311441E+02  0.36796502431E+02  0.10566000000E+00 0. -1.
         22    1    1    0    0    0  0.74663836881E+01  0.34470750618E+00 -0.27958997082E+02  0.28940822836E+02  0.00000000000E+00 0.  1.
</event>
<event>
 5    1  0.2370309E-009  0.9118800E+02  0.7561462E-02  0.1125453E+00
         25   -1    0    0    0    0  0.00000000000E+00  0.00000000000E+00  0.99999998245E-14  0.12509000000E+03  0.12509000000E+03 0.  0.
        -13    1    3    3    0    0 -0.13564841784E+02  0.34901868779E+02 -0.46338766209E+01  0.37731013152E+02  0.10566000000E+00 0.  1.
         23    2    1    0    0    0  0.17981666812E+02 -0.17627700739E+01  0.24841516027E+02  0.94372763500E+02  0.89233793333E+02 0.  0.
         13    1    3    3    0    0  0.31546508596E+02 -0.36664638853E+02  0.29475392648E+02  0.56641750349E+02  0.10566000000E+00 0. -1.
         22    1    1    0    0    0 -0.17981666812E+02  0.17627700739E+01 -0.24841516027E+02  0.30717236500E+02  0.00000000000E+00 0. -1.
</event>
<event>
 5    1  0.2370309E-009  0.9118800E+02  0.7561462E-02  0.1125453E+00
         25   -1    0    0    0    0  0.00000000000E+00  0.00000000000E+00  0.99999998245E-14  0.12509000000E+03  0.12509000000E+03 0.  0.
        -13    1    3    3    0    0  0.40951451114E+02  0.24295648497E+02  0.36179117054E+02  0.59801668531E+02  0.10566000000E+00 0.  1.
         23    2    1    0    0    0  0.14323523125E+02  0.16198333762E+01  0.24479582626E+02  0.96681600882E+02  0.92413715479E+02 0.  0.
         13    1    3    3    0    0 -0.26627927989E+02 -0.22675815121E+02 -0.11699534427E+02  0.36879932351E+02  0.10566000000E+00 0. -1.
         22    1    1    0    0    0 -0.14323523125E+02 -0.16198333762E+01 -0.24479582626E+02  0.28408399118E+02  0.00000000000E+00 0.  1.
</event>
<event>
 5    1  0.2370309E-009  0.9118800E+02  0.7561462E-02  0.1125453E+00
         25   -1    0    0    0    0  0.00000000000E+00  0.00000000000E+00  0.99999998245E-14  0.12509000000E+03  0.12509000000E+03 0.  0.
        -13    1    3    3    0    0 -0.31619738900E+02  0.29520645756E+02  0.33331233767E+02  0.54610060634E+02  0.10566000000E+00 0.  1.
         23    2    1    0    0    0 -0.15983900021E+01  0.28417770903E+01  0.30002762552E+02  0.94910597946E+02  0.89984583646E+02 0.  0.
         13    1    3    3    0    0  0.30021348898E+02 -0.26678868666E+02 -0.33284712150E+01  0.40300537312E+02  0.10566000000E+00 0. -1.
         22    1    1    0    0    0  0.15983900021E+01 -0.28417770903E+01 -0.30002762552E+02  0.30179402054E+02  0.00000000000E+00 0. -1.
</event>
<event>
 5    1  0.2370309E-009  0.9118800E+02  0.7561462E-02  0.1125453E+00
         25   -1    0    0    0    0  0.00000000000E+00  0.00000000000E+00  0.99999998245E-14  0.12509000000E+03  0.12509000000E+03 0.  0.
        -13    1    3    3    0    0 -0.26031617294E+02  0.33448578551E+02  0.79437281472E+01  0.43122691091E+02  0.10566000000E+00 0.  1.
         23    2    1    0    0    0  0.22820614876E+02  0.56323531371E+01 -0.55549573608E+01  0.10093712405E+03  0.98004803942E+02 0.  0.
         13    1    3    3    0    0  0.48852232170E+02 -0.27816225414E+02 -0.13498685508E+02  0.57814432963E+02  0.10566000000E+00 0. -1.
         22    1    1    0    0    0 -0.22820614876E+02 -0.56323531371E+01  0.55549573608E+01  0.24152875946E+02  0.00000000000E+00 0. -1.
</event>
<event>
 5    1  0.2370309E-009  0.9118800E+02  0.7561462E-02  0.1125453E+00
         25   -1    0    0    0    0  0.00000000000E+00  0.00000000000E+00  0.99999998245E-14  0.12509000000E+03  0.12509000000E+03 0.  0.
        -13    1    3    3    0    0 -0.19474156751E+02 -0.13394439881E+02 -0.55969246439E+02  0.60755423724E+02  0.10566000000E+00 0.  1.
         23    2    1    0    0    0  0.10834090420E+00 -0.11058793881E+02 -0.28057700370E+02  0.94931365914E+02  0.90013449130E+02 0.  0.
         13    1    3    3    0    0  0.19582497655E+02  0.23356459993E+01  0.27911546069E+02  0.34175942190E+02  0.10566000000E+00 0. -1.
         22    1    1    0    0    0 -0.10834090420E+00  0.11058793881E+02  0.28057700370E+02  0.30158634086E+02  0.00000000000E+00 0.  1.
</event>
<event>
 5    1  0.2370309E-009  0.9118800E+02  0.7561462E-02  0.1125453E+00
         25   -1    0    0    0    0  0.00000000000E+00  0.00000000000E+00  0.99999998245E-14  0.12509000000E+03  0.12509000000E+03 0.  0.
        -13    1    3    3    0    0  0.23496244844E+02  0.96143712800E+01  0.23305192123E+02  0.34462338876E+02  0.10566000000E+00 0. -1.
         23    2    1    0    0    0 -0.55006932293E+01 -0.12346591121E+02 -0.26031484707E+02  0.95758547012E+02  0.91155719467E+02 0.  0.
         13    1    3    3    0    0 -0.28996938073E+02 -0.21960962401E+02 -0.49336676830E+02  0.61296208136E+02  0.10566000000E+00 0.  1.
         22    1    1    0    0    0  0.55006932293E+01  0.12346591121E+02  0.26031484707E+02  0.29331452988E+02  0.00000000000E+00 0.  1.
</event>
<event>
 5    1  0.2370309E-009  0.9118800E+02  0.7561462E-02  0.1125453E+00
         25   -1    0    0    0    0  0.00000000000E+00  0.00000000000E+00  0.99999998245E-14  0.12509000000E+03  0.12509000000E+03 0.  0.
        -13    1    3    3    0    0 -0.58528128124E+01  0.59910472135E+02 -0.56679674886E+01  0.60462030306E+02  0.10566000000E+00 0. -1.
         23    2    1    0    0    0 -0.29110894918E+01  0.28001406541E+02 -0.14109511071E+02  0.93599818785E+02  0.88143601944E+02 0.  0.
         13    1    3    3    0    0  0.29417233206E+01 -0.31909065594E+02 -0.84415435820E+01  0.33137788479E+02  0.10566000000E+00 0.  1.
         22    1    1    0    0    0  0.29110894918E+01 -0.28001406541E+02  0.14109511071E+02  0.31490181215E+02  0.00000000000E+00 0. -1.
</event>
<event>
 5    1  0.2370309E-009  0.9118800E+02  0.7561462E-02  0.1125453E+00
         25   -1    0    0    0    0  0.00000000000E+00  0.00000000000E+00  0.99999998245E-14  0.12509000000E+03  0.12509000000E+03 0.  0.
        -13    1    3    3    0    0  0.16715038152E+02 -0.26425486595E+02 -0.29252629005E+02  0.42818527648E+02  0.10566000000E+00 0.  1.
         23    2    1    0    0    0 -0.16939415819E+02 -0.22229197850E+02  0.10645257796E+02  0.95183436190E+02  0.90363067489E+02 0.  0.
         13    1    3    3    0    0 -0.33654453971E+02  0.41962887443E+01  0.39897886802E+02  0.52364908542E+02  0.10566000000E+00 0. -1.
         22    1    1    0    0    0  0.16939415819E+02  0.22229197850E+02 -0.10645257796E+02  0.29906563810E+02  0.00000000000E+00 0.  1.
</event>
<event>
 5    1  0.2370309E-009  0.9118800E+02  0.7561462E-02  0.1125453E+00
         25   -1    0    0    0    0  0.00000000000E+00  0.00000000000E+00  0.99999998245E-14  0.12509000000E+03  0.12509000000E+03 0.  0.
        -13    1    3    3    0    0  0.25525759231E+02 -0.32202760725E+02 -0.25298874934E+02  0.48255843373E+02  0.10566000000E+00 0. -1.
         23    2    1    0    0    0  0.27949046045E+02  0.75674294233E+01  0.12044591406E+01  0.96109560308E+02  0.91636137511E+02 0.  0.
         13    1    3    3    0    0  0.24232868138E+01  0.39770190149E+02  0.26503334074E+02  0.47853716935E+02  0.10566000000E+00 0.  1.
         22    1    1    0    0    0 -0.27949046045E+02 -0.75674294233E+01 -0.12044591406E+01  0.28980439692E+02  0.00000000000E+00 0. -1.
</event>
<event>
 5    1  0.2370309E-009  0.9118800E+02  0.7561462E-02  0.1125453E+00
         25   -1    0    0    0    0  0.00000000000E+00  0.00000000000E+00  0.99999998245E-14  0.12509000000E+03  0.12509000000E+03 0.  0.
        -13    1    3    3    0    0  0.19987803302E+02  0.14089340188E+02  0.26150160405E+02  0.35803126134E+02  0.10566000000E+00 0. -1.
         23    2    1    0    0    0 -0.25487423725E+02 -0.57311015242E+01 -0.99290607562E+01  0.97142897461E+02  0.93036025210E+02 0.  0.
         13    1    3    3    0    0 -0.45475227027E+02 -0.19820441712E+02 -0.36079221161E+02  0.61339771327E+02  0.10566000000E+00 0.  1.
         22    1    1    0    0    0  0.25487423725E+02  0.57311015242E+01  0.99290607562E+01  0.27947102539E+02  0.00000000000E+00 0.  1.
</event>
<event>
 5    1  0.2370309E-009  0.9118800E+02  0.7561462E-02  0.1125453E+00
         25   -1    0    0    0    0  0.00000000000E+00  0.00000000000E+00  0.99999998245E-14  0.12509000000E+03  0.12509000000E+03 0.  0.
        -13    1    3    3    0    0 -0.33387101925E+01  0.56641680873E+02 -0.63091752763E+01  0.57089787656E+02  0.10566000000E+00 0. -1.
         23    2    1    0    0    0  0.11275420287E+02  0.28638622851E+02  0.10115385601E+02  0.92692054891E+02  0.86845783965E+02 0.  0.
         13    1    3    3    0    0  0.14614130479E+02 -0.28003058022E+02  0.16424560877E+02  0.35602267235E+02  0.10566000000E+00 0.  1.
         22    1    1    0    0    0 -0.11275420287E+02 -0.28638622851E+02 -0.10115385601E+02  0.32397945109E+02  0.00000000000E+00 0. -1.
</event>
<event>
 5    1  0.2370309E-009  0.9118800E+02  0.7561462E-02  0.1125453E+00
         25   -1    0    0    0    0  0.00000000000E+00  0.00000000000E+00  0.99999998245E-14  0.12509000000E+03  0.12509000000E+03 0.  0.
        -13    1    3    3    0    0 -0.10262732151E+02  0.49676541626E+02  0.33816769762E+02  0.60964477693E+02  0.10566000000E+00 0.  1.
         23    2    1    0    0    0 -0.13672860344E+02  0.19345771542E+02  0.17974279365E+02  0.95353142311E+02  0.90597687847E+02 0.  0.
         13    1    3    3    0    0 -0.34101281932E+01 -0.30330770084E+02 -0.15842490398E+02  0.34388664618E+02  0.10566000000E+00 0. -1.
         22    1    1    0    0    0  0.13672860344E+02 -0.19345771542E+02 -0.17974279365E+02  0.29736857689E+02  0.00000000000E+00 0.  1.
</event>
<event>
 5    1  0.2370309E-009  0.9118800E+02  0.7561462E-02  0.1125453E+00
         25   -1    0    0    0    0  0.00000000000E+00  0.00000000000E+00  0.99999998245E-14  0.12509000000E+03  0.12509000000E+03 0.  0.
        -13    1    3    3    0    0 -0.42238696955E+02 -0.40385798998E+01 -0.44228792149E+02  0.61291229936E+02  0.10566000000E+00 0.  1.
         23    2    1    0    0    0 -0.13977193701E+02 -0.64692799630E+01 -0.25556480903E+02  0.95251312979E+02  0.90456980831E+02 0.  0.
         13    1    3    3    0    0  0.28261503254E+02 -0.24307000632E+01  0.18672311246E+02  0.33960083043E+02  0.10566000000E+00 0. -1.
         22    1    1    0    0    0  0.13977193701E+02  0.64692799630E+01  0.25556480903E+02  0.29838687021E+02  0.00000000000E+00 0.  1.
</event>
<event>
 5    1  0.2370309E-009  0.9118800E+02  0.7561462E-02  0.1125453E+00
         25   -1    0    0    0    0  0.00000000000E+00  0.00000000000E+00  0.99999998245E-14  0.12509000000E+03  0.12509000000E+03 0.  0.
        -13    1    3    3    0    0 -0.38144067823E+02  0.27558297102E+02 -0.28226120843E+02  0.54873989386E+02  0.10566000000E+00 0.  1.
         23    2    1    0    0    0 -0.18160842578E+02 -0.63553474346E+01  0.36263494098E+01  0.10551049403E+03  0.10367790167E+03 0.  0.
         13    1    3    3    0    0  0.19983225245E+02 -0.33913644537E+02  0.31852470253E+02  0.50636504640E+02  0.10566000000E+00 0. -1.
         22    1    1    0    0    0  0.18160842578E+02  0.63553474346E+01 -0.36263494098E+01  0.19579505974E+02  0.00000000000E+00 0.  1.
</event>
<event>
 5    1  0.2370309E-009  0.9118800E+02  0.7561462E-02  0.1125453E+00
         25   -1    0    0    0    0  0.00000000000E+00  0.00000000000E+00  0.99999998245E-14  0.12509000000E+03  0.12509000000E+03 0.  0.
        -13    1    3    3    0    0  0.14061320052E+02 -0.12666643325E+02 -0.31846109223E+02  0.37045248162E+02  0.10566000000E+00 0. -1.
         23    2    1    0    0    0  0.74459522992E+01 -0.15569561885E+01  0.26867768068E+02  0.97166116331E+02  0.93067238509E+02 0.  0.
         13    1    3    3    0    0 -0.66153677527E+01  0.11109687136E+02  0.58713877291E+02  0.60120868169E+02  0.10566000000E+00 0.  1.
         22    1    1    0    0    0 -0.74459522992E+01  0.15569561885E+01 -0.26867768068E+02  0.27923883669E+02  0.00000000000E+00 0.  1.
</event>
<event>
 5    1  0.2370309E-009  0.9118800E+02  0.7561462E-02  0.1125453E+00
         25   -1    0    0    0    0  0.00000000000E+00  0.00000000000E+00  0.99999998245E-14  0.12509000000E+03  0.12509000000E+03 0.  0.
        -13    1    3    3    0    0  0.13144968056E+02  0.48397209188E+02  0.14926636326E+02  0.52324904953E+02  0.10566000000E+00 0. -1.
         23    2    1    0    0    0 -0.18981829314E+02  0.20179665524E+02  0.11062725971E+02  0.95258596234E+02  0.90467052045E+02 0.  0.
         13    1    3    3    0    0 -0.32126797370E+02 -0.28217543664E+02 -0.38639103553E+01  0.42933691280E+02  0.10566000000E+00 0.  1.
         22    1    1    0    0    0  0.18981829314E+02 -0.20179665524E+02 -0.11062725971E+02  0.29831403766E+02  0.00000000000E+00 0. -1.
</event>
<event>
 5    1  0.2370309E-009  0.9118800E+02  0.7561462E-02  0.1125453E+00
         25   -1    0    0    0    0  0.00000000000E+00  0.00000000000E+00  0.99999998245E-14  0.12509000000E+03  0.12509000000E+03 0.  0.
        -13    1    3    3    0    0 -0.34920232266E+02  0.70915959206E+01  0.34339741505E+02  0.49486789802E+02  0.10566000000E+00 0. -1.
         23    2    1    0    0    0 -0.12392213663E+02  0.26642055539E+02 -0.94688939914E+00  0.95691655109E+02  0.91063879640E+02 0.  0.
         13    1    3    3    0    0  0.22528018603E+02  0.19550459618E+02 -0.35286630904E+02  0.46204865307E+02  0.10566000000E+00 0.  1.
         22    1    1    0    0    0  0.12392213663E+02 -0.26642055539E+02  0.94688939914E+00  0.29398344891E+02  0.00000000000E+00 0. -1.
</event>
<event>
 5    1  0.2370309E-009  0.9118800E+02  0.7561462E-02  0.1125453E+00
         25   -1    0    0    0    0  0.00000000000E+00  0.00000000000E+00  0.99999998245E-14  0.12509000000E+03  0.12509000000E+03 0.  0.
        -13    1    3    3    0    0  0.56595708797E+02 -0.39947279209E+01  0.41455858886E+00  0.56738127642E+02  0.10566000000E+00 0.  1.
         23    2    1    0    0    0  0.20521089585E+02 -0.18413951303E+02  0.81262561969E+01  0.96345874337E+02  0.91958157558E+02 0.  0.
         13    1    3    3    0    0 -0.36074619212E+02 -0.14419223382E+02  0.77116976081E+01  0.39607746695E+02  0.10566000000E+00 0. -1.
         22    1    1    0    0    0 -0.20521089585E+02  0.18413951303E+02 -0.81262561969E+01  0.28744125663E+02  0.00000000000E+00 0.  1.
</event>
<event>
 5    1  0.2370309E-009  0.9118800E+02  0.7561462E-02  0.1125453E+00
         25   -1    0    0    0    0  0.00000000000E+00  0.00000000000E+00  0.99999998245E-14  0.12509000000E+03  0.12509000000E+03 0.  0.
        -13    1    3    3    0    0 -0.54401901179E+01  0.17398923477E+00  0.62154272724E+02  0.62392232872E+02  0.10566000000E+00 0. -1.
         23    2    1    0    0    0 -0.27426116412E+01  0.28860324538E+01  0.41619006045E+02  0.83280996590E+02  0.72025909414E+02 0.  0.
         13    1    3    3    0    0  0.26975784767E+01  0.27120432190E+01 -0.20535266679E+02  0.20888763719E+02  0.10566000000E+00 0.  1.
         22    1    1    0    0    0  0.27426116412E+01 -0.28860324538E+01 -0.41619006045E+02  0.41809003410E+02  0.00000000000E+00 0. -1.
</event>
<event>
 5    1  0.2370309E-009  0.9118800E+02  0.7561462E-02  0.1125453E+00
         25   -1    0    0    0    0  0.00000000000E+00  0.00000000000E+00  0.99999998245E-14  0.12509000000E+03  0.12509000000E+03 0.  0.
        -13    1    3    3    0    0 -0.43918521441E+01 -0.21595049414E+02  0.33664715336E+02  0.40236286448E+02  0.10566000000E+00 0.  1.
         23    2    1    0    0    0  0.23624369313E+02  0.10546966970E+02 -0.60663387171E+01  0.98516520681E+02  0.94864930527E+02 0.  0.
         13    1    3    3    0    0  0.28016221457E+02  0.32142016384E+02 -0.39731054053E+02  0.58280234232E+02  0.10566000000E+00 0. -1.
         22    1    1    0    0    0 -0.23624369313E+02 -0.10546966970E+02  0.60663387171E+01  0.26573479319E+02  0.00000000000E+00 0. -1.
</event>
<event>
 5    1  0.2370309E-009  0.9118800E+02  0.7561462E-02  0.1125453E+00
         25   -1    0    0    0    0  0.00000000000E+00  0.00000000000E+00  0.99999998245E-14  0.12509000000E+03  0.12509000000E+03 0.  0.
        -13    1    3    3    0    0  0.59938104484E+02 -0.60703055736E+01 -0.46826388379E+01  0.60426511147E+02  0.10566000000E+00 0. -1.
         23    2    1    0    0    0  0.29754497759E+02 -0.17446523937E+01  0.91528023324E+01  0.93910716182E+02  0.88583716757E+02 0.  0.
         13    1    3    3    0    0 -0.30183606725E+02  0.43256531800E+01  0.13835441170E+02  0.33484205034E+02  0.10566000000E+00 0.  1.
         22    1    1    0    0    0 -0.29754497759E+02  0.17446523937E+01 -0.91528023324E+01  0.31179283818E+02  0.00000000000E+00 0. -1.
</event>
<event>
 5    1  0.2370309E-009  0.9118800E+02  0.7561462E-02  0.1125453E+00
         25   -1    0    0    0    0  0.00000000000E+00  0.00000000000E+00  0.99999998245E-14  0.12509000000E+03  0.12509000000E+03 0.  0.
        -13    1    3    3    0    0 -0.25342103178E+02 -0.38076877045E+02  0.30090321124E+02  0.54749514595E+02  0.10566000000E+00 0.  1.
         23    2    1    0    0    0 -0.18132430300E+02  0.19065153527E+01  0.22583053401E+02  0.96065628684E+02  0.91576148009E+02 0.  0.
         13    1    3    3    0    0  0.72096728785E+01  0.39983392398E+02 -0.75072677232E+01  0.41316114089E+02  0.10566000000E+00 0. -1.
         22    1    1    0    0    0  0.18132430300E+02 -0.19065153527E+01 -0.22583053401E+02  0.29024371316E+02  0.00000000000E+00 0.  1.
</event>
<event>
 5    1  0.2370309E-009  0.9118800E+02  0.7561462E-02  0.1125453E+00
         25   -1    0    0    0    0  0.00000000000E+00  0.00000000000E+00  0.99999998245E-14  0.12509000000E+03  0.12509000000E+03 0.  0.
        -13    1    3    3    0    0  0.22832595735E+02 -0.32791664912E+02 -0.19254520195E+02  0.44355027084E+02  0.10566000000E+00 0.  1.
         23    2    1    0    0    0  0.17435307388E+02 -0.47783474253E+01  0.23307111107E+02  0.95593492139E+02  0.90928937986E+02 0.  0.
         13    1    3    3    0    0 -0.53972883464E+01  0.28013317486E+02  0.42561631302E+02  0.51238465055E+02  0.10566000000E+00 0. -1.
         22    1    1    0    0    0 -0.17435307388E+02  0.47783474253E+01 -0.23307111107E+02  0.29496507861E+02  0.00000000000E+00 0.  1.
</event>
<event>
 5    1  0.2370309E-009  0.9118800E+02  0.7561462E-02  0.1125453E+00
         25   -1    0    0    0    0  0.00000000000E+00  0.00000000000E+00  0.99999998245E-14  0.12509000000E+03  0.12509000000E+03 0.  0.
        -13    1    3    3    0    0  0.32984897900E+02 -0.26545567920E+02 -0.35800059066E+02  0.55446605476E+02  0.10566000000E+00 0.  1.
         23    2    1    0    0    0  0.20642720972E+01 -0.40967395946E-02 -0.28096005299E+02  0.96918263280E+02  0.92733505312E+02 0.  0.
         13    1    3    3    0    0 -0.30920625803E+02  0.26541471181E+02  0.77040537670E+01  0.41471657803E+02  0.10566000000E+00 0. -1.
         22    1    1    0    0    0 -0.20642720972E+01  0.40967395946E-02  0.28096005299E+02  0.28171736720E+02  0.00000000000E+00 0.  1.
</event>
<event>
 5    1  0.2370309E-009  0.9118800E+02  0.7561462E-02  0.1125453E+00
         25   -1    0    0    0    0  0.00000000000E+00  0.00000000000E+00  0.99999998245E-14  0.12509000000E+03  0.12509000000E+03 0.  0.
        -13    1    3    3    0    0 -0.20273969472E+02 -0.26532352603E+02 -0.18721650101E+02  0.38281992103E+02  0.10566000000E+00 0. -1.
         23    2    1    0    0    0  0.28559178282E+02 -0.92602245954E+01  0.39201142837E+01  0.94812190970E+02  0.89847681310E+02 0.  0.
         13    1    3    3    0    0  0.48833147754E+02  0.17272128008E+02  0.22641764385E+02  0.56530198867E+02  0.10566000000E+00 0.  1.
         22    1    1    0    0    0 -0.28559178282E+02  0.92602245954E+01 -0.39201142837E+01  0.30277809030E+02  0.00000000000E+00 0.  1.
</event>
<event>
 5    1  0.2370309E-009  0.9118800E+02  0.7561462E-02  0.1125453E+00
         25   -1    0    0    0    0  0.00000000000E+00  0.00000000000E+00  0.99999998245E-14  0.12509000000E+03  0.12509000000E+03 0.  0.
        -13    1    3    3    0    0 -0.26069680691E+02  0.21205250306E+02  0.16005994607E+02  0.37222223459E+02  0.10566000000E+00 0. -1.
         23    2    1    0    0    0  0.22949240984E+02 -0.12984743433E+02  0.80896912476E+01  0.97508949834E+02  0.93526899710E+02 0.  0.
         13    1    3    3    0    0  0.49018921675E+02 -0.34189993739E+02 -0.79163033599E+01  0.60286726375E+02  0.10566000000E+00 0.  1.
         22    1    1    0    0    0 -0.22949240984E+02  0.12984743433E+02 -0.80896912476E+01  0.27581050166E+02  0.00000000000E+00 0.  1.
</event>
<event>
 5    1  0.2370309E-009  0.9118800E+02  0.7561462E-02  0.1125453E+00
         25   -1    0    0    0    0  0.00000000000E+00  0.00000000000E+00  0.99999998245E-14  0.12509000000E+03  0.12509000000E+03 0.  0.
        -13    1    3    3    0    0 -0.20992874936E+02 -0.41255184025E+02 -0.50106587216E+01  0.46559734448E+02  0.10566000000E+00 0.  1.
         23    2    1    0    0    0 -0.95390457855E+01  0.94372752893E+01 -0.20320987669E+02  0.10073844770E+03  0.97750891283E+02 0.  0.
         13    1    3    3    0    0  0.11453829150E+02  0.50692459315E+02 -0.15310328947E+02  0.54178713256E+02  0.10566000000E+00 0. -1.
         22    1    1    0    0    0  0.95390457855E+01 -0.94372752893E+01  0.20320987669E+02  0.24351552296E+02  0.00000000000E+00 0. -1.
</event>
<event>
 5    1  0.2370309E-009  0.9118800E+02  0.7561462E-02  0.1125453E+00
         25   -1    0    0    0    0  0.00000000000E+00  0.00000000000E+00  0.99999998245E-14  0.12509000000E+03  0.12509000000E+03 0.  0.
        -13    1    3    3    0    0  0.11501010575E+02 -0.30144228801E+02 -0.31593618769E+02  0.45156568572E+02  0.10566000000E+00 0. -1.
         23    2    1    0    0    0  0.24810331181E+02  0.12574889582E+02 -0.62451223461E+01  0.96582423210E+02  0.92279372228E+02 0.  0.
         13    1    3    3    0    0  0.13309320606E+02  0.42719118383E+02  0.25348496423E+02  0.51425854638E+02  0.10566000000E+00 0.  1.
         22    1    1    0    0    0 -0.24810331181E+02 -0.12574889582E+02  0.62451223461E+01  0.28507576790E+02  0.00000000000E+00 0.  1.
</event>
<event>
 5    1  0.2370309E-009  0.9118800E+02  0.7561462E-02  0.1125453E+00
         25   -1    0    0    0    0  0.00000000000E+00  0.00000000000E+00  0.99999998245E-14  0.12509000000E+03  0.12509000000E+03 0.  0.
        -13    1    3    3    0    0 -0.11675048071E+02  0.40030583198E+02 -0.39519175820E+02  0.57450245954E+02  0.10566000000E+00 0.  1.
         23    2    1    0    0    0 -0.58724712361E+01  0.36556078661E+01 -0.28301339124E+02  0.95955567046E+02  0.91425683829E+02 0.  0.
         13    1    3    3    0    0  0.58025768344E+01 -0.36374975331E+02  0.11217836696E+02  0.38505321093E+02  0.10566000000E+00 0. -1.
         22    1    1    0    0    0  0.58724712361E+01 -0.36556078661E+01  0.28301339124E+02  0.29134432954E+02  0.00000000000E+00 0.  1.
</event>
<event>
 5    1  0.2370309E-009  0.9118800E+02  0.7561462E-02  0.1125453E+00
         25   -1    0    0    0    0  0.00000000000E+00  0.00000000000E+00  0.99999998245E-14  0.12509000000E+03  0.12509000000E+03 0.  0.
        -13    1    3    3    0    0 -0.76114661810E+01  0.33871775000E+02  0.49261601649E+02  0.60265646268E+02  0.10566000000E+00 0. -1.
         23    2    1    0    0    0  0.31400135994E+00  0.23915009327E+02  0.14892441542E+02  0.96915346798E+02  0.92729571130E+02 0.  0.
         13    1    3    3    0    0  0.79254675410E+01 -0.99567656726E+01 -0.34369160107E+02  0.36649700530E+02  0.10566000000E+00 0.  1.
         22    1    1    0    0    0 -0.31400135994E+00 -0.23915009327E+02 -0.14892441542E+02  0.28174653202E+02  0.00000000000E+00 0. -1.
</event>
<event>
 5    1  0.2370309E-009  0.9118800E+02  0.7561462E-02  0.1125453E+00
         25   -1    0    0    0    0  0.00000000000E+00  0.00000000000E+00  0.99999998245E-14  0.12509000000E+03  0.12509000000E+03 0.  0.
        -13    1    3    3    0    0  0.76666370586E+01  0.21186462378E+02  0.32527415756E+02  0.39568768640E+02  0.10566000000E+00 0. -1.
         23    2    1    0    0    0  0.19258024686E+02 -0.19822455773E+02 -0.57616296841E+01  0.96858853295E+02  0.92653331388E+02 0.  0.
         13    1    3    3    0    0  0.11591387627E+02 -0.41008918151E+02 -0.38289045440E+02  0.57290084655E+02  0.10566000000E+00 0.  1.
         22    1    1    0    0    0 -0.19258024686E+02  0.19822455773E+02  0.57616296841E+01  0.28231146705E+02  0.00000000000E+00 0.  1.
</event>
<event>
 5    1  0.2370309E-009  0.9118800E+02  0.7561462E-02  0.1125453E+00
         25   -1    0    0    0    0  0.00000000000E+00  0.00000000000E+00  0.99999998245E-14  0.12509000000E+03  0.12509000000E+03 0.  0.
        -13    1    3    3    0    0 -0.57833729849E+01 -0.50387308473E+02 -0.18480805184E+01  0.50751894781E+02  0.10566000000E+00 0. -1.
         23    2    1    0    0    0  0.61058441657E+01 -0.13102991422E+02 -0.24992610890E+02  0.96217862631E+02  0.91783859000E+02 0.  0.
         13    1    3    3    0    0  0.11889217151E+02  0.37284317050E+02 -0.23144530371E+02  0.45465967850E+02  0.10566000000E+00 0.  1.
         22    1    1    0    0    0 -0.61058441657E+01  0.13102991422E+02  0.24992610890E+02  0.28872137369E+02  0.00000000000E+00 0. -1.
</event>
<event>
 5    1  0.2370309E-009  0.9118800E+02  0.7561462E-02  0.1125453E+00
         25   -1    0    0    0    0  0.00000000000E+00  0.00000000000E+00  0.99999998245E-14  0.12509000000E+03  0.12509000000E+03 0.  0.
        -13    1    3    3    0    0 -0.45496459951E+02  0.13261298926E+02  0.20934824468E+02  0.51807991245E+02  0.10566000000E+00 0.  1.
         23    2    1    0    0    0 -0.14975359332E+02 -0.12655969468E+02  0.26384578686E+02  0.92217808975E+02  0.86159986940E+02 0.  0.
         13    1    3    3    0    0  0.30521100619E+02 -0.25917268393E+02  0.54497542180E+01  0.40409817731E+02  0.10566000000E+00 0. -1.
         22    1    1    0    0    0  0.14975359332E+02  0.12655969468E+02 -0.26384578686E+02  0.32872191025E+02  0.00000000000E+00 0.  1.
</event>
<event>
 5    1  0.2370309E-009  0.9118800E+02  0.7561462E-02  0.1125453E+00
         25   -1    0    0    0    0  0.00000000000E+00  0.00000000000E+00  0.99999998245E-14  0.12509000000E+03  0.12509000000E+03 0.  0.
        -13    1    3    3    0    0  0.35966764036E+02 -0.15127326644E+02 -0.13529769411E+02  0.41297820172E+02  0.10566000000E+00 0.  1.
         23    2    1    0    0    0  0.46889146917E+01  0.27920493246E+02  0.19400578618E+01  0.96712126778E+02  0.92455025701E+02 0.  0.
         13    1    3    3    0    0 -0.31277849344E+02  0.43047819889E+02  0.15469827273E+02  0.55414306607E+02  0.10566000000E+00 0. -1.
         22    1    1    0    0    0 -0.46889146917E+01 -0.27920493246E+02 -0.19400578618E+01  0.28377873222E+02  0.00000000000E+00 0. -1.
</event>
<event>
 5    1  0.2370309E-009  0.9118800E+02  0.7561462E-02  0.1125453E+00
         25   -1    0    0    0    0  0.00000000000E+00  0.00000000000E+00  0.99999998245E-14  0.12509000000E+03  0.12509000000E+03 0.  0.
        -13    1    3    3    0    0  0.15164281608E+02  0.11115284137E+02  0.39981202208E+02  0.44181587479E+02  0.10566000000E+00 0.  1.
         23    2    1    0    0    0  0.34071277464E+01 -0.21154319143E+02 -0.71523128155E+01  0.10250085844E+03  0.99980781474E+02 0.  0.
         13    1    3    3    0    0 -0.11757153862E+02 -0.32269603280E+02 -0.47133515023E+02  0.58319270959E+02  0.10566000000E+00 0. -1.
         22    1    1    0    0    0 -0.34071277464E+01  0.21154319143E+02  0.71523128155E+01  0.22589141562E+02  0.00000000000E+00 0. -1.
</event>
<event>
 5    1  0.2370309E-009  0.9118800E+02  0.7561462E-02  0.1125453E+00
         25   -1    0    0    0    0  0.00000000000E+00  0.00000000000E+00  0.99999998245E-14  0.12509000000E+03  0.12509000000E+03 0.  0.
        -13    1    3    3    0    0  0.26168862224E+02  0.43659822246E+02 -0.11010707633E+00  0.50901991280E+02  0.10566000000E+00 0. -1.
         23    2    1    0    0    0  0.14878145629E+02  0.87471489218E+01 -0.24616326251E+02  0.95026145461E+02  0.90145066263E+02 0.  0.
         13    1    3    3    0    0 -0.11290716595E+02 -0.34912673325E+02 -0.24506219175E+02  0.44124154181E+02  0.10566000000E+00 0.  1.
         22    1    1    0    0    0 -0.14878145629E+02 -0.87471489218E+01  0.24616326251E+02  0.30063854539E+02  0.00000000000E+00 0. -1.
</event>
<event>
 5    1  0.2370309E-009  0.9118800E+02  0.7561462E-02  0.1125453E+00
         25   -1    0    0    0    0  0.00000000000E+00  0.00000000000E+00  0.99999998245E-14  0.12509000000E+03  0.12509000000E+03 0.  0.
        -13    1    3    3    0    0 -0.18071232311E+02  0.48566730521E+01 -0.21628565923E+02  0.28600047872E+02  0.10566000000E+00 0.  1.
         23    2    1    0    0    0 -0.13989474938E+02 -0.17910420200E+02  0.31327532167E+02  0.86387250325E+02  0.77232468471E+02 0.  0.
         13    1    3    3    0    0  0.40817573731E+01 -0.22767093252E+02  0.52956098090E+02  0.57787202453E+02  0.10566000000E+00 0. -1.
         22    1    1    0    0    0  0.13989474938E+02  0.17910420200E+02 -0.31327532167E+02  0.38702749675E+02  0.00000000000E+00 0. -1.
</event>
<event>
 5    1  0.2370309E-009  0.9118800E+02  0.7561462E-02  0.1125453E+00
         25   -1    0    0    0    0  0.00000000000E+00  0.00000000000E+00  0.99999998245E-14  0.12509000000E+03  0.12509000000E+03 0.  0.
        -13    1    3    3    0    0  0.35110240451E+02 -0.30300161278E+02  0.30792989129E+02  0.55669094671E+02  0.10566000000E+00 0. -1.
         23    2    1    0    0    0 -0.21668661820E+01 -0.22498511901E+02  0.19069757440E+02  0.95517479045E+02  0.90824307360E+02 0.  0.
         13    1    3    3    0    0 -0.37277106633E+02  0.78016493772E+01 -0.11723231689E+02  0.39848384374E+02  0.10566000000E+00 0.  1.
         22    1    1    0    0    0  0.21668661820E+01  0.22498511901E+02 -0.19069757440E+02  0.29572520955E+02  0.00000000000E+00 0.  1.
</event>
<event>
 5    1  0.2370309E-009  0.9118800E+02  0.7561462E-02  0.1125453E+00
         25   -1    0    0    0    0  0.00000000000E+00  0.00000000000E+00  0.99999998245E-14  0.12509000000E+03  0.12509000000E+03 0.  0.
        -13    1    3    3    0    0 -0.44603055602E+02 -0.48231621696E+01 -0.44046474384E+01  0.45078903552E+02  0.10566000000E+00 0. -1.
         23    2    1    0    0    0 -0.27725508214E+00 -0.25886716966E+02  0.11631906539E+02  0.96708663961E+02  0.92450340452E+02 0.  0.
         13    1    3    3    0    0  0.44325800520E+02 -0.21063554796E+02  0.16036553977E+02  0.51629760409E+02  0.10566000000E+00 0.  1.
         22    1    1    0    0    0  0.27725508214E+00  0.25886716966E+02 -0.11631906539E+02  0.28381336039E+02  0.00000000000E+00 0.  1.
</event>
<event>
 5    1  0.2370309E-009  0.9118800E+02  0.7561462E-02  0.1125453E+00
         25   -1    0    0    0    0  0.00000000000E+00  0.00000000000E+00  0.99999998245E-14  0.12509000000E+03  0.12509000000E+03 0.  0.
        -13    1    3    3    0    0  0.16597607044E+02 -0.21246164656E+01  0.42439390990E+02  0.45619158545E+02  0.10566000000E+00 0.  1.
         23    2    1    0    0    0  0.17473761368E+01 -0.28896239680E+02  0.23719365519E+01  0.96043966295E+02  0.91546553118E+02 0.  0.
         13    1    3    3    0    0 -0.14850230907E+02 -0.26771623214E+02 -0.40067454438E+02  0.50424807750E+02  0.10566000000E+00 0. -1.
         22    1    1    0    0    0 -0.17473761368E+01  0.28896239680E+02 -0.23719365519E+01  0.29046033705E+02  0.00000000000E+00 0.  1.
</event>
<event>
 5    1  0.2370309E-009  0.9118800E+02  0.7561462E-02  0.1125453E+00
         25   -1    0    0    0    0  0.00000000000E+00  0.00000000000E+00  0.99999998245E-14  0.12509000000E+03  0.12509000000E+03 0.  0.
        -13    1    3    3    0    0 -0.25447275387E+01 -0.40806060399E+02 -0.98955377083E+01  0.42065936744E+02  0.10566000000E+00 0.  1.
         23    2    1    0    0    0  0.26011156148E+01  0.12834314722E+02 -0.23983949617E+02  0.97763908511E+02  0.93867281474E+02 0.  0.
         13    1    3    3    0    0  0.51458431535E+01  0.53640375121E+02 -0.14088411909E+02  0.55697971768E+02  0.10566000000E+00 0. -1.
         22    1    1    0    0    0 -0.26011156148E+01 -0.12834314722E+02  0.23983949617E+02  0.27326091489E+02  0.00000000000E+00 0. -1.
</event>
<event>
 5    1  0.2370309E-009  0.9118800E+02  0.7561462E-02  0.1125453E+00
         25   -1    0    0    0    0  0.00000000000E+00  0.00000000000E+00  0.99999998245E-14  0.12509000000E+03  0.12509000000E+03 0.  0.
        -13    1    3    3    0    0 -0.15192778544E+02  0.12858552133E+02 -0.22951449587E+02  0.30379978358E+02  0.10566000000E+00 0.  1.
         23    2    1    0    0    0  0.76998306625E+01 -0.14806885977E+01  0.32284261839E+02  0.91867215748E+02  0.85649471311E+02 0.  0.
         13    1    3    3    0    0  0.22892609206E+02 -0.14339240730E+02  0.55235711427E+02  0.61487237390E+02  0.10566000000E+00 0. -1.
         22    1    1    0    0    0 -0.76998306625E+01  0.14806885977E+01 -0.32284261839E+02  0.33222784252E+02  0.00000000000E+00 0. -1.
</event>
<event>
 5    1  0.2370309E-009  0.9118800E+02  0.7561462E-02  0.1125453E+00
         25   -1    0    0    0    0  0.00000000000E+00  0.00000000000E+00  0.99999998245E-14  0.12509000000E+03  0.12509000000E+03 0.  0.
        -13    1    3    3    0    0 -0.35617365631E+02 -0.44092641977E+02  0.20317536035E+02  0.60212716643E+02  0.10566000000E+00 0. -1.
         23    2    1    0    0    0 -0.24721187363E+02 -0.23500571625E+02  0.22074478597E+00  0.90980430967E+02  0.84344389970E+02 0.  0.
         13    1    3    3    0    0  0.10896178268E+02  0.20592070352E+02 -0.20096791249E+02  0.30767714324E+02  0.10566000000E+00 0.  1.
         22    1    1    0    0    0  0.24721187363E+02  0.23500571625E+02 -0.22074478597E+00  0.34109569033E+02  0.00000000000E+00 0. -1.
</event>
<event>
 5    1  0.2370309E-009  0.9118800E+02  0.7561462E-02  0.1125453E+00
         25   -1    0    0    0    0  0.00000000000E+00  0.00000000000E+00  0.99999998245E-14  0.12509000000E+03  0.12509000000E+03 0.  0.
        -13    1    3    3    0    0  0.40963400798E+02 -0.33046309316E+02  0.22137039488E+02  0.57097446928E+02  0.10566000000E+00 0.  1.
         23    2    1    0    0    0  0.59199121603E+01 -0.20635339541E+02  0.22108100115E+02  0.94273921589E+02  0.89095126708E+02 0.  0.
         13    1    3    3    0    0 -0.35043488638E+02  0.12410969774E+02 -0.28939373680E-01  0.37176474661E+02  0.10566000000E+00 0. -1.
         22    1    1    0    0    0 -0.59199121603E+01  0.20635339541E+02 -0.22108100115E+02  0.30816078411E+02  0.00000000000E+00 0. -1.
</event>
<event>
 5    1  0.2370309E-009  0.9118800E+02  0.7561462E-02  0.1125453E+00
         25   -1    0    0    0    0  0.00000000000E+00  0.00000000000E+00  0.99999998245E-14  0.12509000000E+03  0.12509000000E+03 0.  0.
        -13    1    3    3    0    0 -0.46145858673E+02  0.31779596838E+02 -0.11367977519E+02  0.57171891037E+02  0.10566000000E+00 0.  1.
         23    2    1    0    0    0 -0.28702597815E+02  0.44802033974E+01  0.80537871878E+01  0.94944107545E+02  0.90031154195E+02 0.  0.
         13    1    3    3    0    0  0.17443260858E+02 -0.27299393440E+02  0.19421764707E+02  0.37772216508E+02  0.10566000000E+00 0. -1.
         22    1    1    0    0    0  0.28702597815E+02 -0.44802033974E+01 -0.80537871878E+01  0.30145892455E+02  0.00000000000E+00 0.  1.
</event>
<event>
 5    1  0.2370309E-009  0.9118800E+02  0.7561462E-02  0.1125453E+00
         25   -1    0    0    0    0  0.00000000000E+00  0.00000000000E+00  0.99999998245E-14  0.12509000000E+03  0.12509000000E+03 0.  0.
        -13    1    3    3    0    0 -0.31590599949E+02  0.45483695961E+02  0.13259430286E+02  0.56943447902E+02  0.10566000000E+00 0. -1.
         23    2    1    0    0    0  0.36121626652E+01  0.26506645142E+02  0.71477198172E+01  0.97399932207E+02  0.93380977397E+02 0.  0.
         13    1    3    3    0    0  0.35202762614E+02 -0.18977050820E+02 -0.61117104686E+01  0.40456484305E+02  0.10566000000E+00 0.  1.
         22    1    1    0    0    0 -0.36121626652E+01 -0.26506645142E+02 -0.71477198172E+01  0.27690067793E+02  0.00000000000E+00 0. -1.
</event>
<event>
 5    1  0.2370309E-009  0.9118800E+02  0.7561462E-02  0.1125453E+00
         25   -1    0    0    0    0  0.00000000000E+00  0.00000000000E+00  0.99999998245E-14  0.12509000000E+03  0.12509000000E+03 0.  0.
        -13    1    3    3    0    0 -0.20329220939E+02 -0.17167975949E+02 -0.21772893824E+02  0.34381487630E+02  0.10566000000E+00 0.  1.
         23    2    1    0    0    0  0.12131079195E+02  0.16850218615E+02  0.19246029338E+02  0.96779178834E+02  0.92545701471E+02 0.  0.
         13    1    3    3    0    0  0.32460300134E+02  0.34018194564E+02  0.41018923162E+02  0.62397691204E+02  0.10566000000E+00 0. -1.
         22    1    1    0    0    0 -0.12131079195E+02 -0.16850218615E+02 -0.19246029338E+02  0.28310821166E+02  0.00000000000E+00 0. -1.
</event>
<event>
 5    1  0.2370309E-009  0.9118800E+02  0.7561462E-02  0.1125453E+00
         25   -1    0    0    0    0  0.00000000000E+00  0.00000000000E+00  0.99999998245E-14  0.12509000000E+03  0.12509000000E+03 0.  0.
        -13    1    3    3    0    0 -0.27597231090E+02  0.27711080300E+02 -0.47596402053E+02  0.61603082615E+02  0.10566000000E+00 0.  1.
         23    2    1    0    0    0 -0.20143337562E+02  0.12091182358E+02 -0.19711854436E+02  0.94422298028E+02  0.89303204985E+02 0.  0.
         13    1    3    3    0    0  0.74538935272E+01 -0.15619897942E+02  0.27884547617E+02  0.32819215413E+02  0.10566000000E+00 0. -1.
         22    1    1    0    0    0  0.20143337562E+02 -0.12091182358E+02  0.19711854436E+02  0.30667701972E+02  0.00000000000E+00 0.  1.
</event>
<event>
 5    1  0.2370309E-009  0.9118800E+02  0.7561462E-02  0.1125453E+00
         25   -1    0    0    0    0  0.00000000000E+00  0.00000000000E+00  0.99999998245E-14  0.12509000000E+03  0.12509000000E+03 0.  0.
        -13    1    3    3    0    0 -0.73065831940E+01  0.31432523248E+02  0.35869008442E+02  0.48249213531E+02  0.10566000000E+00 0. -1.
         23    2    1    0    0    0 -0.87190230503E+01 -0.14399715693E+02  0.24280197163E+02  0.95545099437E+02  0.90862340258E+02 0.  0.
         13    1    3    3    0    0 -0.14124398563E+01 -0.45832238942E+02 -0.11588811279E+02  0.47295885906E+02  0.10566000000E+00 0.  1.
         22    1    1    0    0    0  0.87190230503E+01  0.14399715693E+02 -0.24280197163E+02  0.29544900563E+02  0.00000000000E+00 0.  1.
</event>
<event>
 5    1  0.2370309E-009  0.9118800E+02  0.7561462E-02  0.1125453E+00
         25   -1    0    0    0    0  0.00000000000E+00  0.00000000000E+00  0.99999998245E-14  0.12509000000E+03  0.12509000000E+03 0.  0.
        -13    1    3    3    0    0 -0.18580513407E+02 -0.13092617440E+02  0.35335395818E+02  0.42014919630E+02  0.10566000000E+00 0. -1.
         23    2    1    0    0    0 -0.17405230896E+02  0.22329797399E+02 -0.56716377696E+01  0.96215627463E+02  0.91780812694E+02 0.  0.
         13    1    3    3    0    0  0.11752825110E+01  0.35422414838E+02 -0.41007033587E+02  0.54200707833E+02  0.10566000000E+00 0.  1.
         22    1    1    0    0    0  0.17405230896E+02 -0.22329797399E+02  0.56716377696E+01  0.28874372537E+02  0.00000000000E+00 0. -1.
</event>
<event>
 5    1  0.2370309E-009  0.9118800E+02  0.7561462E-02  0.1125453E+00
         25   -1    0    0    0    0  0.00000000000E+00  0.00000000000E+00  0.99999998245E-14  0.12509000000E+03  0.12509000000E+03 0.  0.
        -13    1    3    3    0    0  0.86858457030E+01 -0.22356342969E+02 -0.54478019758E+02  0.59524077375E+02  0.10566000000E+00 0.  1.
         23    2    1    0    0    0  0.90841742602E+01 -0.21346594267E+02 -0.18770537776E+02  0.95248210557E+02  0.90452690491E+02 0.  0.
         13    1    3    3    0    0  0.39832855719E+00  0.10097487024E+01  0.35707481982E+02  0.35724133182E+02  0.10566000000E+00 0. -1.
         22    1    1    0    0    0 -0.90841742602E+01  0.21346594267E+02  0.18770537776E+02  0.29841789443E+02  0.00000000000E+00 0.  1.
</event>
<event>
 5    1  0.2370309E-009  0.9118800E+02  0.7561462E-02  0.1125453E+00
         25   -1    0    0    0    0  0.00000000000E+00  0.00000000000E+00  0.99999998245E-14  0.12509000000E+03  0.12509000000E+03 0.  0.
        -13    1    3    3    0    0 -0.39926453475E+01 -0.13724341080E+02 -0.51622180434E+02  0.53564535205E+02  0.10566000000E+00 0. -1.
         23    2    1    0    0    0 -0.24008306472E+02 -0.52254298530E+01 -0.14575826292E+02  0.96521510210E+02  0.92196764175E+02 0.  0.
         13    1    3    3    0    0 -0.20015661124E+02  0.84989112272E+01  0.37046354142E+02  0.42956975005E+02  0.10566000000E+00 0.  1.
         22    1    1    0    0    0  0.24008306472E+02  0.52254298530E+01  0.14575826292E+02  0.28568489790E+02  0.00000000000E+00 0.  1.
</event>
<event>
 5    1  0.2370309E-009  0.9118800E+02  0.7561462E-02  0.1125453E+00
         25   -1    0    0    0    0  0.00000000000E+00  0.00000000000E+00  0.99999998245E-14  0.12509000000E+03  0.12509000000E+03 0.  0.
        -13    1    3    3    0    0 -0.24459658552E+02  0.13491625935E+02  0.51128520510E+02  0.58261785421E+02  0.10566000000E+00 0. -1.
         23    2    1    0    0    0 -0.14295988567E+02  0.17409393660E+02  0.10664809295E+02  0.10016610717E+03  0.97015713112E+02 0.  0.
         13    1    3    3    0    0  0.10163669985E+02  0.39177677246E+01 -0.40463711215E+02  0.41904321744E+02  0.10566000000E+00 0.  1.
         22    1    1    0    0    0  0.14295988567E+02 -0.17409393660E+02 -0.10664809295E+02  0.24923892834E+02  0.00000000000E+00 0. -1.
</event>
<event>
 5    1  0.2370309E-009  0.9118800E+02  0.7561462E-02  0.1125453E+00
         25   -1    0    0    0    0  0.00000000000E+00  0.00000000000E+00  0.99999998245E-14  0.12509000000E+03  0.12509000000E+03 0.  0.
        -13    1    3    3    0    0  0.99946855058E+01 -0.58584765573E+02  0.13755690646E+02  0.61002448187E+02  0.10566000000E+00 0.  1.
         23    2    1    0    0    0  0.78989766483E+01 -0.23661514139E+02  0.14948035157E+02  0.96008995229E+02  0.91498755873E+02 0.  0.
         13    1    3    3    0    0 -0.20957088575E+01  0.34923251434E+02  0.11923445109E+01  0.35006547042E+02  0.10566000000E+00 0. -1.
         22    1    1    0    0    0 -0.78989766483E+01  0.23661514139E+02 -0.14948035157E+02  0.29081004771E+02  0.00000000000E+00 0.  1.
</event>
<event>
 5    1  0.2370309E-009  0.9118800E+02  0.7561462E-02  0.1125453E+00
         25   -1    0    0    0    0  0.00000000000E+00  0.00000000000E+00  0.99999998245E-14  0.12509000000E+03  0.12509000000E+03 0.  0.
        -13    1    3    3    0    0 -0.15671686612E+02 -0.29622544402E+02  0.57780305750E+01  0.34007259511E+02  0.10566000000E+00 0.  1.
         23    2    1    0    0    0  0.90878907330E+01  0.24906615051E+02  0.15042953217E+02  0.94606895290E+02  0.89561403315E+02 0.  0.
         13    1    3    3    0    0  0.24759577345E+02  0.54529159453E+02  0.92649226423E+01  0.60599635779E+02  0.10566000000E+00 0. -1.
         22    1    1    0    0    0 -0.90878907330E+01 -0.24906615051E+02 -0.15042953217E+02  0.30483104710E+02  0.00000000000E+00 0.  1.
</event>
<event>
 5    1  0.2370309E-009  0.9118800E+02  0.7561462E-02  0.1125453E+00
         25   -1    0    0    0    0  0.00000000000E+00  0.00000000000E+00  0.99999998245E-14  0.12509000000E+03  0.12509000000E+03 0.  0.
        -13    1    3    3    0    0  0.14345950418E+02  0.29442293124E+02 -0.39858507099E+02  0.51588435429E+02  0.10566000000E+00 0. -1.
         23    2    1    0    0    0  0.23546121388E+02  0.18240368951E+02  0.13524238213E+01  0.95274568726E+02  0.90489134728E+02 0.  0.
         13    1    3    3    0    0  0.92001709698E+01 -0.11201924173E+02  0.41210930921E+02  0.43686133297E+02  0.10566000000E+00 0.  1.
         22    1    1    0    0    0 -0.23546121388E+02 -0.18240368951E+02 -0.13524238213E+01  0.29815431274E+02  0.00000000000E+00 0. -1.
</event>
<event>
 5    1  0.2370309E-009  0.9118800E+02  0.7561462E-02  0.1125453E+00
         25   -1    0    0    0    0  0.00000000000E+00  0.00000000000E+00  0.99999998245E-14  0.12509000000E+03  0.12509000000E+03 0.  0.
        -13    1    3    3    0    0 -0.39783049198E+02  0.10477897554E+01  0.14417039344E+02  0.42327899244E+02  0.10566000000E+00 0. -1.
         23    2    1    0    0    0  0.64627975895E+01 -0.26621764531E+02  0.20620097136E+01  0.97617504964E+02  0.93671977090E+02 0.  0.
         13    1    3    3    0    0  0.46245846788E+02 -0.27669554286E+02 -0.12355029631E+02  0.55289605721E+02  0.10566000000E+00 0.  1.
         22    1    1    0    0    0 -0.64627975895E+01  0.26621764531E+02 -0.20620097136E+01  0.27472495036E+02  0.00000000000E+00 0.  1.
</event>
<event>
 5    1  0.2370309E-009  0.9118800E+02  0.7561462E-02  0.1125453E+00
         25   -1    0    0    0    0  0.00000000000E+00  0.00000000000E+00  0.99999998245E-14  0.12509000000E+03  0.12509000000E+03 0.  0.
        -13    1    3    3    0    0 -0.21832521410E+02 -0.46411057986E+01 -0.28839730026E+02  0.36468343068E+02  0.10566000000E+00 0.  1.
         23    2    1    0    0    0  0.99081718296E+00  0.10740329258E+02  0.25512155722E+02  0.97391507607E+02  0.93369691405E+02 0.  0.
         13    1    3    3    0    0  0.22823338593E+02  0.15381435057E+02  0.54351885748E+02  0.60923164538E+02  0.10566000000E+00 0. -1.
         22    1    1    0    0    0 -0.99081718296E+00 -0.10740329258E+02 -0.25512155722E+02  0.27698492393E+02  0.00000000000E+00 0. -1.
</event>
<event>
 5    1  0.2370309E-009  0.9118800E+02  0.7561462E-02  0.1125453E+00
         25   -1    0    0    0    0  0.00000000000E+00  0.00000000000E+00  0.99999998245E-14  0.12509000000E+03  0.12509000000E+03 0.  0.
        -13    1    3    3    0    0  0.10601714064E+02 -0.11018269729E+02 -0.37349819119E+02  0.40358626850E+02  0.10566000000E+00 0.  1.
         23    2    1    0    0    0  0.10957195120E+02  0.26918282772E+02  0.31553648768E+01  0.95856279747E+02  0.91289736374E+02 0.  0.
         13    1    3    3    0    0  0.35548105604E+00  0.37936552502E+02  0.40505183996E+02  0.55497652897E+02  0.10566000000E+00 0. -1.
         22    1    1    0    0    0 -0.10957195120E+02 -0.26918282772E+02 -0.31553648768E+01  0.29233720253E+02  0.00000000000E+00 0. -1.
</event>
<event>
 5    1  0.2370309E-009  0.9118800E+02  0.7561462E-02  0.1125453E+00
         25   -1    0    0    0    0  0.00000000000E+00  0.00000000000E+00  0.99999998245E-14  0.12509000000E+03  0.12509000000E+03 0.  0.
        -13    1    3    3    0    0 -0.20837944442E+02 -0.12241480443E+02 -0.34527601804E+02  0.42145465028E+02  0.10566000000E+00 0. -1.
         23    2    1    0    0    0 -0.16120637297E+02 -0.21604435461E+02  0.15995777267E+02  0.93745280049E+02  0.88349793789E+02 0.  0.
         13    1    3    3    0    0  0.47173071450E+01 -0.93629550182E+01  0.50523379071E+02  0.51599815021E+02  0.10566000000E+00 0.  1.
         22    1    1    0    0    0  0.16120637297E+02  0.21604435461E+02 -0.15995777267E+02  0.31344719951E+02  0.00000000000E+00 0.  1.
</event>
<event>
 5    1  0.2370309E-009  0.9118800E+02  0.7561462E-02  0.1125453E+00
         25   -1    0    0    0    0  0.00000000000E+00  0.00000000000E+00  0.99999998245E-14  0.12509000000E+03  0.12509000000E+03 0.  0.
        -13    1    3    3    0    0 -0.61334384356E+01 -0.58828347432E+02 -0.22770903809E+00  0.59147751810E+02  0.10566000000E+00 0.  1.
         23    2    1    0    0    0 -0.12975711220E+02 -0.21094096979E+02 -0.94364521935E+01  0.98587610692E+02  0.94958624373E+02 0.  0.
         13    1    3    3    0    0 -0.68422727846E+01  0.37734250453E+02 -0.92087431554E+01  0.39439858882E+02  0.10566000000E+00 0. -1.
         22    1    1    0    0    0  0.12975711220E+02  0.21094096979E+02  0.94364521935E+01  0.26502389308E+02  0.00000000000E+00 0.  1.
</event>
<event>
 4    1  0.2370309E-009  0.9118800E+02  0.7561462E-02  0.1125453E+00
         25   -1    0    0    0    0  0.00000000000E+00  0.00000000000E+00  0.99999998245E-14  0.12509000000E+03  0.12509000000E+03 0.  0.
        -13    1    1    0    0    0  0.47934046259E+02  0.15244010172E+02 -0.24339709412E+02  0.55879202349E+02  0.10566000000E+00 0.  1.
         13    1    1    0    0    0 -0.76272626297E+01  0.10921400412E+02 -0.33673894427E+01  0.13740545763E+02  0.10566000000E+00 0. -1.
         22    1    1    0    0    0 -0.40306783629E+02 -0.26165410584E+02  0.27707098855E+02  0.55470251888E+02  0.00000000000E+00 0.  1.
</event>
<event>
 5    1  0.2370309E-009  0.9118800E+02  0.7561462E-02  0.1125453E+00
         25   -1    0    0    0    0  0.00000000000E+00  0.00000000000E+00  0.99999998245E-14  0.12509000000E+03  0.12509000000E+03 0.  0.
        -13    1    3    3    0    0  0.21125700011E+02  0.18009261196E+02  0.25630003733E+02  0.37782759894E+02  0.10566000000E+00 0.  1.
         23    2    1    0    0    0  0.54787449761E+01  0.85759121766E+01 -0.28454703273E+02  0.94870253897E+02  0.89928482807E+02 0.  0.
         13    1    3    3    0    0 -0.15646955035E+02 -0.94333490192E+01 -0.54084707006E+02  0.57087494003E+02  0.10566000000E+00 0. -1.
         22    1    1    0    0    0 -0.54787449761E+01 -0.85759121766E+01  0.28454703273E+02  0.30219746103E+02  0.00000000000E+00 0. -1.
</event>
<event>
 5    1  0.2370309E-009  0.9118800E+02  0.7561462E-02  0.1125453E+00
         25   -1    0    0    0    0  0.00000000000E+00  0.00000000000E+00  0.99999998245E-14  0.12509000000E+03  0.12509000000E+03 0.  0.
        -13    1    3    3    0    0 -0.26191704234E+01  0.30410141039E+02  0.22054694675E+02  0.37657103619E+02  0.10566000000E+00 0.  1.
         23    2    1    0    0    0  0.15099810403E+02 -0.18950781019E+02 -0.97261145826E+01  0.98979969737E+02  0.95474084070E+02 0.  0.
         13    1    3    3    0    0  0.17718980826E+02 -0.49360922058E+02 -0.31780809258E+02  0.61322866119E+02  0.10566000000E+00 0. -1.
         22    1    1    0    0    0 -0.15099810403E+02  0.18950781019E+02  0.97261145826E+01  0.26110030263E+02  0.00000000000E+00 0. -1.
</event>
<event>
 5    1  0.2370309E-009  0.9118800E+02  0.7561462E-02  0.1125453E+00
         25   -1    0    0    0    0  0.00000000000E+00  0.00000000000E+00  0.99999998245E-14  0.12509000000E+03  0.12509000000E+03 0.  0.
        -13    1    3    3    0    0 -0.57293260156E+01 -0.41373228767E+02 -0.14737689278E+02  0.44291984427E+02  0.10566000000E+00 0.  1.
         23    2    1    0    0    0 -0.25374424119E+02  0.54510264292E+01 -0.15084023585E+02  0.95071624694E+02  0.90208153545E+02 0.  0.
         13    1    3    3    0    0 -0.19645098103E+02  0.46824255196E+02 -0.34633430760E+00  0.50779640267E+02  0.10566000000E+00 0. -1.
         22    1    1    0    0    0  0.25374424119E+02 -0.54510264292E+01  0.15084023585E+02  0.30018375306E+02  0.00000000000E+00 0. -1.
</event>
<event>
 5    1  0.2370309E-009  0.9118800E+02  0.7561462E-02  0.1125453E+00
         25   -1    0    0    0    0  0.00000000000E+00  0.00000000000E+00  0.99999998245E-14  0.12509000000E+03  0.12509000000E+03 0.  0.
        -13    1    3    3    0    0  0.22783416983E+02 -0.15899550904E+02 -0.26404197408E+02  0.38328483053E+02  0.10566000000E+00 0.  1.
         23    2    1    0    0    0 -0.19918752647E+01 -0.92206767822E+01  0.26409775698E+02  0.97046022040E+02  0.92905681710E+02 0.  0.
         13    1    3    3    0    0 -0.24775292247E+02  0.66788741219E+01  0.52813973106E+02  0.58717538987E+02  0.10566000000E+00 0. -1.
         22    1    1    0    0    0  0.19918752647E+01  0.92206767822E+01 -0.26409775698E+02  0.28043977960E+02  0.00000000000E+00 0. -1.
</event>
<event>
 5    1  0.2370309E-009  0.9118800E+02  0.7561462E-02  0.1125453E+00
         25   -1    0    0    0    0  0.00000000000E+00  0.00000000000E+00  0.99999998245E-14  0.12509000000E+03  0.12509000000E+03 0.  0.
        -13    1    3    3    0    0 -0.20048074173E+02 -0.13659944230E+02  0.42140210592E+02  0.48624354671E+02  0.10566000000E+00 0.  1.
         23    2    1    0    0    0 -0.17203343823E+00 -0.29462873110E+02  0.27385553238E+01  0.95499627027E+02  0.90799716903E+02 0.  0.
         13    1    3    3    0    0  0.19876040735E+02 -0.15802928880E+02 -0.39401655268E+02  0.46875272355E+02  0.10566000000E+00 0. -1.
         22    1    1    0    0    0  0.17203343823E+00  0.29462873110E+02 -0.27385553238E+01  0.29590372973E+02  0.00000000000E+00 0.  1.
</event>
<event>
 5    1  0.2370309E-009  0.9118800E+02  0.7561462E-02  0.1125453E+00
         25   -1    0    0    0    0  0.00000000000E+00  0.00000000000E+00  0.99999998245E-14  0.12509000000E+03  0.12509000000E+03 0.  0.
        -13    1    3    3    0    0  0.13926458256E+02 -0.30583542474E+02 -0.48590058597E+02  0.59078797112E+02  0.10566000000E+00 0.  1.
         23    2    1    0    0    0  0.10415825530E+02 -0.24860133468E+02 -0.13242248071E+02  0.95058803029E+02  0.90190372223E+02 0.  0.
         13    1    3    3    0    0 -0.35106327252E+01  0.57234090054E+01  0.35347810525E+02  0.35980005916E+02  0.10566000000E+00 0. -1.
         22    1    1    0    0    0 -0.10415825530E+02  0.24860133468E+02  0.13242248071E+02  0.30031196971E+02  0.00000000000E+00 0.  1.
</event>
<event>
 5    1  0.2370309E-009  0.9118800E+02  0.7561462E-02  0.1125453E+00
         25   -1    0    0    0    0  0.00000000000E+00  0.00000000000E+00  0.99999998245E-14  0.12509000000E+03  0.12509000000E+03 0.  0.
        -13    1    3    3    0    0  0.13854416785E+02 -0.30597816472E+02  0.12668440019E+02  0.35898074793E+02  0.10566000000E+00 0. -1.
         23    2    1    0    0    0 -0.55365018112E+01  0.25569624875E+02  0.14168622635E+02  0.95337547397E+02  0.90576153085E+02 0.  0.
         13    1    3    3    0    0 -0.19390918596E+02  0.56167441347E+02  0.15001826152E+01  0.59439472603E+02  0.10566000000E+00 0.  1.
         22    1    1    0    0    0  0.55365018112E+01 -0.25569624875E+02 -0.14168622635E+02  0.29752452603E+02  0.00000000000E+00 0.  1.
</event>
<event>
 5    1  0.2370309E-009  0.9118800E+02  0.7561462E-02  0.1125453E+00
         25   -1    0    0    0    0  0.00000000000E+00  0.00000000000E+00  0.99999998245E-14  0.12509000000E+03  0.12509000000E+03 0.  0.
        -13    1    3    3    0    0  0.10939270224E+02  0.43551523573E+02 -0.16496622192E+02  0.47838818404E+02  0.10566000000E+00 0. -1.
         23    2    1    0    0    0  0.20883708259E+02  0.11125303821E+02  0.17345015005E+02  0.95751438322E+02  0.91145963923E+02 0.  0.
         13    1    3    3    0    0  0.99444380352E+01 -0.32426219751E+02  0.33841637197E+02  0.47912619918E+02  0.10566000000E+00 0.  1.
         22    1    1    0    0    0 -0.20883708259E+02 -0.11125303821E+02 -0.17345015005E+02  0.29338561678E+02  0.00000000000E+00 0.  1.
</event>
<event>
 5    1  0.2370309E-009  0.9118800E+02  0.7561462E-02  0.1125453E+00
         25   -1    0    0    0    0  0.00000000000E+00  0.00000000000E+00  0.99999998245E-14  0.12509000000E+03  0.12509000000E+03 0.  0.
        -13    1    3    3    0    0  0.31781859432E+02 -0.41067131059E+02 -0.24539710106E+02  0.57435218974E+02  0.10566000000E+00 0. -1.
         23    2    1    0    0    0 -0.10855370664E+01 -0.27383657242E+02 -0.94803731968E+01  0.96091369849E+02  0.91611302845E+02 0.  0.
         13    1    3    3    0    0 -0.32867396499E+02  0.13683473817E+02  0.15059336910E+02  0.38656150876E+02  0.10566000000E+00 0.  1.
         22    1    1    0    0    0  0.10855370664E+01  0.27383657242E+02  0.94803731968E+01  0.28998630151E+02  0.00000000000E+00 0. -1.
</event>
<event>
 5    1  0.2370309E-009  0.9118800E+02  0.7561462E-02  0.1125453E+00
         25   -1    0    0    0    0  0.00000000000E+00  0.00000000000E+00  0.99999998245E-14  0.12509000000E+03  0.12509000000E+03 0.  0.
        -13    1    3    3    0    0  0.35158532579E+02 -0.15009738115E+02 -0.18996675967E+02  0.42688400218E+02  0.10566000000E+00 0.  1.
         23    2    1    0    0    0 -0.52291543641E+01 -0.26738772631E+02  0.12384119834E+02  0.95162212891E+02  0.90333683204E+02 0.  0.
         13    1    3    3    0    0 -0.40387686943E+02 -0.11729034516E+02  0.31380795802E+02  0.52473812673E+02  0.10566000000E+00 0. -1.
         22    1    1    0    0    0  0.52291543641E+01  0.26738772631E+02 -0.12384119834E+02  0.29927787109E+02  0.00000000000E+00 0.  1.
</event>
<event>
 5    1  0.2370309E-009  0.9118800E+02  0.7561462E-02  0.1125453E+00
         25   -1    0    0    0    0  0.00000000000E+00  0.00000000000E+00  0.99999998245E-14  0.12509000000E+03  0.12509000000E+03 0.  0.
        -13    1    3    3    0    0 -0.91562189271E+01  0.29173048162E+01 -0.33065390268E+02  0.34433678427E+02  0.10566000000E+00 0.  1.
         23    2    1    0    0    0  0.93009271935E+01 -0.82472272904E+01  0.25432503655E+02  0.96782116879E+02  0.92549672613E+02 0.  0.
         13    1    3    3    0    0  0.18457146121E+02 -0.11164532107E+02  0.58497893922E+02  0.62348438452E+02  0.10566000000E+00 0. -1.
         22    1    1    0    0    0 -0.93009271935E+01  0.82472272904E+01 -0.25432503655E+02  0.28307883121E+02  0.00000000000E+00 0. -1.
</event>
<event>
 5    1  0.2370309E-009  0.9118800E+02  0.7561462E-02  0.1125453E+00
         25   -1    0    0    0    0  0.00000000000E+00  0.00000000000E+00  0.99999998245E-14  0.12509000000E+03  0.12509000000E+03 0.  0.
        -13    1    3    3    0    0 -0.24519429839E+02 -0.31995164878E+02  0.34286482496E+02  0.52919439351E+02  0.10566000000E+00 0. -1.
         23    2    1    0    0    0 -0.17540134146E+02  0.82323169161E+01  0.22461865204E+02  0.95425834140E+02  0.90697999345E+02 0.  0.
         13    1    3    3    0    0  0.69792956928E+01  0.40227481794E+02 -0.11824617291E+02  0.42506394790E+02  0.10566000000E+00 0.  1.
         22    1    1    0    0    0  0.17540134146E+02 -0.82323169161E+01 -0.22461865204E+02  0.29664165860E+02  0.00000000000E+00 0. -1.
</event>
<event>
 5    1  0.2370309E-009  0.9118800E+02  0.7561462E-02  0.1125453E+00
         25   -1    0    0    0    0  0.00000000000E+00  0.00000000000E+00  0.99999998245E-14  0.12509000000E+03  0.12509000000E+03 0.  0.
        -13    1    3    3    0    0 -0.24572792052E+02 -0.22419361215E+02 -0.12224411986E+02  0.35438641042E+02  0.10566000000E+00 0.  1.
         23    2    1    0    0    0  0.19077887703E+02  0.18899324218E+02 -0.12321715664E+02  0.95543850809E+02  0.90860621258E+02 0.  0.
         13    1    3    3    0    0  0.43650679755E+02  0.41318685433E+02 -0.97303678720E-01  0.60105209766E+02  0.10566000000E+00 0. -1.
         22    1    1    0    0    0 -0.19077887703E+02 -0.18899324218E+02  0.12321715664E+02  0.29546149191E+02  0.00000000000E+00 0. -1.
</event>
<event>
 5    1  0.2370309E-009  0.9118800E+02  0.7561462E-02  0.1125453E+00
         25   -1    0    0    0    0  0.00000000000E+00  0.00000000000E+00  0.99999998245E-14  0.12509000000E+03  0.12509000000E+03 0.  0.
        -13    1    3    3    0    0  0.18862554731E+01  0.31925916171E+02  0.33258595023E+01  0.32154231270E+02  0.10566000000E+00 0.  1.
         23    2    1    0    0    0  0.60201966351E+01 -0.28184494913E+02 -0.11261890192E+02  0.94147493771E+02  0.88917444248E+02 0.  0.
         13    1    3    3    0    0  0.41339411620E+01 -0.60110411085E+02 -0.14587749695E+02  0.61993262501E+02  0.10566000000E+00 0. -1.
         22    1    1    0    0    0 -0.60201966351E+01  0.28184494913E+02  0.11261890192E+02  0.30942506229E+02  0.00000000000E+00 0. -1.
</event>
<event>
 5    1  0.2370309E-009  0.9118800E+02  0.7561462E-02  0.1125453E+00
         25   -1    0    0    0    0  0.00000000000E+00  0.00000000000E+00  0.99999998245E-14  0.12509000000E+03  0.12509000000E+03 0.  0.
        -13    1    3    3    0    0  0.36178346566E+02 -0.19871920027E+02 -0.54607702159E+01  0.41636488099E+02  0.10566000000E+00 0.  1.
         23    2    1    0    0    0 -0.92056874984E+01 -0.35842065125E+00 -0.27762709684E+02  0.95838654789E+02  0.91265582533E+02 0.  0.
         13    1    3    3    0    0 -0.45384034064E+02  0.19513499376E+02 -0.22301939468E+02  0.54202166690E+02  0.10566000000E+00 0. -1.
         22    1    1    0    0    0  0.92056874984E+01  0.35842065125E+00  0.27762709684E+02  0.29251345211E+02  0.00000000000E+00 0. -1.
</event>
<event>
 5    1  0.2370309E-009  0.9118800E+02  0.7561462E-02  0.1125453E+00
         25   -1    0    0    0    0  0.00000000000E+00  0.00000000000E+00  0.99999998245E-14  0.12509000000E+03  0.12509000000E+03 0.  0.
        -13    1    3    3    0    0  0.15287897243E+02 -0.52206476521E+02  0.22801453259E+02  0.58984349005E+02  0.10566000000E+00 0. -1.
         23    2    1    0    0    0  0.20931473111E+02 -0.18810854451E+02  0.92058658636E+01  0.95480495140E+02  0.90773356080E+02 0.  0.
         13    1    3    3    0    0  0.56435758682E+01  0.33395622070E+02 -0.13595587395E+02  0.36496146134E+02  0.10566000000E+00 0.  1.
         22    1    1    0    0    0 -0.20931473111E+02  0.18810854451E+02 -0.92058658636E+01  0.29609504860E+02  0.00000000000E+00 0. -1.
</event>
<event>
 5    1  0.2370309E-009  0.9118800E+02  0.7561462E-02  0.1125453E+00
         25   -1    0    0    0    0  0.00000000000E+00  0.00000000000E+00  0.99999998245E-14  0.12509000000E+03  0.12509000000E+03 0.  0.
        -13    1    3    3    0    0 -0.23083491301E+01 -0.24395106240E+02  0.23590368060E+02  0.34014207522E+02  0.10566000000E+00 0. -1.
         23    2    1    0    0    0  0.42573089927E+01  0.28310218519E+02 -0.74178344555E+01  0.95516068566E+02  0.90822364722E+02 0.  0.
         13    1    3    3    0    0  0.65656581228E+01  0.52705324759E+02 -0.31008202515E+02  0.61501861043E+02  0.10566000000E+00 0.  1.
         22    1    1    0    0    0 -0.42573089927E+01 -0.28310218519E+02  0.74178344555E+01  0.29573931434E+02  0.00000000000E+00 0.  1.
</event>
<event>
 5    1  0.2370309E-009  0.9118800E+02  0.7561462E-02  0.1125453E+00
         25   -1    0    0    0    0  0.00000000000E+00  0.00000000000E+00  0.99999998245E-14  0.12509000000E+03  0.12509000000E+03 0.  0.
        -13    1    3    3    0    0  0.43444468098E+01  0.33005792840E+02  0.33314907134E+02  0.47097248120E+02  0.10566000000E+00 0.  1.
         23    2    1    0    0    0 -0.23275445028E+02  0.18496071241E+02 -0.32723564304E+01  0.95180815637E+02  0.90359439773E+02 0.  0.
         13    1    3    3    0    0 -0.27619891838E+02 -0.14509721599E+02 -0.36587263564E+02  0.48083567517E+02  0.10566000000E+00 0. -1.
         22    1    1    0    0    0  0.23275445028E+02 -0.18496071241E+02  0.32723564304E+01  0.29909184363E+02  0.00000000000E+00 0.  1.
</event>
<event>
 5    1  0.2370309E-009  0.9118800E+02  0.7561462E-02  0.1125453E+00
         25   -1    0    0    0    0  0.00000000000E+00  0.00000000000E+00  0.99999998245E-14  0.12509000000E+03  0.12509000000E+03 0.  0.
        -13    1    3    3    0    0  0.94760808027E+01 -0.11398519808E+02 -0.58547254580E+02  0.60394656585E+02  0.10566000000E+00 0.  1.
         23    2    1    0    0    0 -0.38365067580E+01  0.23866443413E+01 -0.29833204297E+02  0.94916585643E+02  0.89992906921E+02 0.  0.
         13    1    3    3    0    0 -0.13312587561E+02  0.13785164150E+02  0.28714050282E+02  0.34521929057E+02  0.10566000000E+00 0. -1.
         22    1    1    0    0    0  0.38365067580E+01 -0.23866443413E+01  0.29833204297E+02  0.30173414357E+02  0.00000000000E+00 0.  1.
</event>
<event>
 5    1  0.2370309E-009  0.9118800E+02  0.7561462E-02  0.1125453E+00
         25   -1    0    0    0    0  0.00000000000E+00  0.00000000000E+00  0.99999998245E-14  0.12509000000E+03  0.12509000000E+03 0.  0.
        -13    1    3    3    0    0  0.72675699265E+00 -0.29779839776E+02  0.22820559896E+02  0.37525406737E+02  0.10566000000E+00 0.  1.
         23    2    1    0    0    0  0.26094337036E+02  0.54205926848E+01 -0.14493616440E+02  0.94752528650E+02  0.89764578301E+02 0.  0.
         13    1    3    3    0    0  0.25367580044E+02  0.35200432461E+02 -0.37314176336E+02  0.57227121912E+02  0.10566000000E+00 0. -1.
         22    1    1    0    0    0 -0.26094337036E+02 -0.54205926848E+01  0.14493616440E+02  0.30337471350E+02  0.00000000000E+00 0. -1.
</event>
<event>
 5    1  0.2370309E-009  0.9118800E+02  0.7561462E-02  0.1125453E+00
         25   -1    0    0    0    0  0.00000000000E+00  0.00000000000E+00  0.99999998245E-14  0.12509000000E+03  0.12509000000E+03 0.  0.
        -13    1    3    3    0    0  0.28736194195E+02 -0.46781335665E+02 -0.58522367672E+01  0.55213422849E+02  0.10566000000E+00 0. -1.
         23    2    1    0    0    0  0.65241363319E+01 -0.17806297871E+02 -0.22774318345E+02  0.95453904191E+02  0.90736705089E+02 0.  0.
         13    1    3    3    0    0 -0.22212057863E+02  0.28975037794E+02 -0.16922081578E+02  0.40240481342E+02  0.10566000000E+00 0.  1.
         22    1    1    0    0    0 -0.65241363319E+01  0.17806297871E+02  0.22774318345E+02  0.29636095809E+02  0.00000000000E+00 0. -1.
</event>
<event>
 5    1  0.2370309E-009  0.9118800E+02  0.7561462E-02  0.1125453E+00
         25   -1    0    0    0    0  0.00000000000E+00  0.00000000000E+00  0.99999998245E-14  0.12509000000E+03  0.12509000000E+03 0.  0.
        -13    1    3    3    0    0  0.13708520468E+02  0.14558061254E+01  0.37241803049E+02  0.39711534386E+02  0.10566000000E+00 0.  1.
         23    2    1    0    0    0 -0.15678609492E+02 -0.24232644553E+02 -0.33605395100E+01  0.96032589871E+02  0.91531006953E+02 0.  0.
         13    1    3    3    0    0 -0.29387129960E+02 -0.25688450678E+02 -0.40602342559E+02  0.56321055484E+02  0.10566000000E+00 0. -1.
         22    1    1    0    0    0  0.15678609492E+02  0.24232644553E+02  0.33605395100E+01  0.29057410129E+02  0.00000000000E+00 0. -1.
</event>
<event>
 5    1  0.2370309E-009  0.9118800E+02  0.7561462E-02  0.1125453E+00
         25   -1    0    0    0    0  0.00000000000E+00  0.00000000000E+00  0.99999998245E-14  0.12509000000E+03  0.12509000000E+03 0.  0.
        -13    1    3    3    0    0 -0.31664113596E+02  0.18373126605E+02  0.16044164113E+02  0.39970166840E+02  0.10566000000E+00 0.  1.
         23    2    1    0    0    0 -0.25184661287E+02 -0.18630688667E+02 -0.16509124128E+02  0.89679254402E+02  0.82392037032E+02 0.  0.
         13    1    3    3    0    0  0.64794523095E+01 -0.37003815272E+02 -0.32553288241E+02  0.49709087562E+02  0.10566000000E+00 0. -1.
         22    1    1    0    0    0  0.25184661287E+02  0.18630688667E+02  0.16509124128E+02  0.35410745598E+02  0.00000000000E+00 0.  1.
</event>
<event>
 5    1  0.2370309E-009  0.9118800E+02  0.7561462E-02  0.1125453E+00
         25   -1    0    0    0    0  0.00000000000E+00  0.00000000000E+00  0.99999998245E-14  0.12509000000E+03  0.12509000000E+03 0.  0.
        -13    1    3    3    0    0  0.94069299246E+01 -0.35680641117E+02 -0.49548772281E+02  0.61779369370E+02  0.10566000000E+00 0.  1.
         23    2    1    0    0    0  0.10562411267E+02 -0.18424280890E+02 -0.20587475156E+02  0.95511920424E+02  0.90816651291E+02 0.  0.
         13    1    3    3    0    0  0.11554813426E+01  0.17256360227E+02  0.28961297125E+02  0.33732551054E+02  0.10566000000E+00 0. -1.
         22    1    1    0    0    0 -0.10562411267E+02  0.18424280890E+02  0.20587475156E+02  0.29578079576E+02  0.00000000000E+00 0.  1.
</event>
<event>
 5    1  0.2370309E-009  0.9118800E+02  0.7561462E-02  0.1125453E+00
         25   -1    0    0    0    0  0.00000000000E+00  0.00000000000E+00  0.99999998245E-14  0.12509000000E+03  0.12509000000E+03 0.  0.
        -13    1    3    3    0    0 -0.27470356989E+02 -0.99352442824E+00 -0.27133342005E+02  0.38624306030E+02  0.10566000000E+00 0.  1.
         23    2    1    0    0    0  0.18788395056E+02 -0.16691663657E+02  0.79087101977E+01  0.98743024435E+02  0.95163132321E+02 0.  0.
         13    1    3    3    0    0  0.46258752045E+02 -0.15698139229E+02  0.35042052203E+02  0.60118718405E+02  0.10566000000E+00 0. -1.
         22    1    1    0    0    0 -0.18788395056E+02  0.16691663657E+02 -0.79087101977E+01  0.26346975565E+02  0.00000000000E+00 0. -1.
</event>
<event>
 5    1  0.2370309E-009  0.9118800E+02  0.7561462E-02  0.1125453E+00
         25   -1    0    0    0    0  0.00000000000E+00  0.00000000000E+00  0.99999998245E-14  0.12509000000E+03  0.12509000000E+03 0.  0.
        -13    1    3    3    0    0 -0.27935936288E+02  0.48556094434E+02 -0.24309517058E+02  0.61066149597E+02  0.10566000000E+00 0.  1.
         23    2    1    0    0    0 -0.13446905215E+02  0.15078887641E+02 -0.17887947940E+02  0.98105360039E+02  0.94321211159E+02 0.  0.
         13    1    3    3    0    0  0.14489031074E+02 -0.33477206793E+02  0.64215691179E+01  0.37039210441E+02  0.10566000000E+00 0. -1.
         22    1    1    0    0    0  0.13446905215E+02 -0.15078887641E+02  0.17887947940E+02  0.26984639961E+02  0.00000000000E+00 0.  1.
</event>
<event>
 5    1  0.2370309E-009  0.9118800E+02  0.7561462E-02  0.1125453E+00
         25   -1    0    0    0    0  0.00000000000E+00  0.00000000000E+00  0.99999998245E-14  0.12509000000E+03  0.12509000000E+03 0.  0.
        -13    1    3    3    0    0 -0.30507519940E+02 -0.41415206298E+02 -0.23276259760E+00  0.51439220718E+02  0.10566000000E+00 0.  1.
         23    2    1    0    0    0  0.99167413427E+01 -0.24096327403E+02 -0.11142666301E+02  0.96750385227E+02  0.92506774218E+02 0.  0.
         13    1    3    3    0    0  0.40424261282E+02  0.17318878895E+02 -0.10909903703E+02  0.45311164510E+02  0.10566000000E+00 0. -1.
         22    1    1    0    0    0 -0.99167413427E+01  0.24096327403E+02  0.11142666301E+02  0.28339614773E+02  0.00000000000E+00 0. -1.
</event>
<event>
 5    1  0.2370309E-009  0.9118800E+02  0.7561462E-02  0.1125453E+00
         25   -1    0    0    0    0  0.00000000000E+00  0.00000000000E+00  0.99999998245E-14  0.12509000000E+03  0.12509000000E+03 0.  0.
        -13    1    3    3    0    0 -0.58411785905E+01  0.33668381833E+02 -0.49390766533E+02  0.60059456252E+02  0.10566000000E+00 0.  1.
         23    2    1    0    0    0 -0.12686190785E+02  0.20558223253E+02 -0.17353924755E+02  0.95345442778E+02  0.90587056329E+02 0.  0.
         13    1    3    3    0    0 -0.68450121944E+01 -0.13110158580E+02  0.32036841778E+02  0.35285986526E+02  0.10566000000E+00 0. -1.
         22    1    1    0    0    0  0.12686190785E+02 -0.20558223253E+02  0.17353924755E+02  0.29744557222E+02  0.00000000000E+00 0.  1.
</event>
<event>
 5    1  0.2370309E-009  0.9118800E+02  0.7561462E-02  0.1125453E+00
         25   -1    0    0    0    0  0.00000000000E+00  0.00000000000E+00  0.99999998245E-14  0.12509000000E+03  0.12509000000E+03 0.  0.
        -13    1    3    3    0    0 -0.35580255599E+02 -0.12303185085E+02  0.31582527862E+02  0.49140514669E+02  0.10566000000E+00 0. -1.
         23    2    1    0    0    0  0.48956828275E+01  0.24456646767E+01  0.32403310830E+02  0.92227809891E+02  0.86174505386E+02 0.  0.
         13    1    3    3    0    0  0.40475938426E+02  0.14748849762E+02  0.82078296733E+00  0.43087295222E+02  0.10566000000E+00 0.  1.
         22    1    1    0    0    0 -0.48956828275E+01 -0.24456646767E+01 -0.32403310830E+02  0.32862190109E+02  0.00000000000E+00 0. -1.
</event>
<event>
 5    1  0.2370309E-009  0.9118800E+02  0.7561462E-02  0.1125453E+00
         25   -1    0    0    0    0  0.00000000000E+00  0.00000000000E+00  0.99999998245E-14  0.12509000000E+03  0.12509000000E+03 0.  0.
        -13    1    3    3    0    0 -0.28510835670E+02  0.24418133224E+02 -0.28591740698E+02  0.47186987411E+02  0.10566000000E+00 0. -1.
         23    2    1    0    0    0 -0.36913706616E+02 -0.82296774313E+01 -0.21321159832E+02  0.81674090665E+02  0.69178868903E+02 0.  0.
         13    1    3    3    0    0 -0.84028709460E+01 -0.32647810655E+02  0.72705808658E+01  0.34487103254E+02  0.10566000000E+00 0.  1.
         22    1    1    0    0    0  0.36913706616E+02  0.82296774313E+01  0.21321159832E+02  0.43415909335E+02  0.00000000000E+00 0. -1.
</event>
<event>
 5    1  0.2370309E-009  0.9118800E+02  0.7561462E-02  0.1125453E+00
         25   -1    0    0    0    0  0.00000000000E+00  0.00000000000E+00  0.99999998245E-14  0.12509000000E+03  0.12509000000E+03 0.  0.
        -13    1    3    3    0    0  0.13613812715E+02  0.63469842357E+00 -0.27475232314E+02  0.30669827086E+02  0.10566000000E+00 0. -1.
         23    2    1    0    0    0 -0.86038363824E+01 -0.14222254498E+02  0.28158839999E+02  0.92391088801E+02  0.86411194276E+02 0.  0.
         13    1    3    3    0    0 -0.22217649097E+02 -0.14856952922E+02  0.55634072313E+02  0.61721261715E+02  0.10566000000E+00 0.  1.
         22    1    1    0    0    0  0.86038363824E+01  0.14222254498E+02 -0.28158839999E+02  0.32698911199E+02  0.00000000000E+00 0.  1.
</event>
<event>
 5    1  0.2370309E-009  0.9118800E+02  0.7561462E-02  0.1125453E+00
         25   -1    0    0    0    0  0.00000000000E+00  0.00000000000E+00  0.99999998245E-14  0.12509000000E+03  0.12509000000E+03 0.  0.
        -13    1    3    3    0    0  0.93960531525E+01 -0.23028619714E+02  0.29857051671E+02  0.38859462674E+02  0.10566000000E+00 0. -1.
         23    2    1    0    0    0 -0.13877927707E+02  0.23302975209E+02  0.15711805281E+01  0.97922111983E+02  0.94077871341E+02 0.  0.
         13    1    3    3    0    0 -0.23273980859E+02  0.46331594923E+02 -0.28285871143E+02  0.59062649310E+02  0.10566000000E+00 0.  1.
         22    1    1    0    0    0  0.13877927707E+02 -0.23302975209E+02 -0.15711805281E+01  0.27167888017E+02  0.00000000000E+00 0.  1.
</event>
<event>
 5    1  0.2370309E-009  0.9118800E+02  0.7561462E-02  0.1125453E+00
         25   -1    0    0    0    0  0.00000000000E+00  0.00000000000E+00  0.99999998245E-14  0.12509000000E+03  0.12509000000E+03 0.  0.
        -13    1    3    3    0    0 -0.18294726993E+02 -0.12889718792E+02  0.29755664520E+02  0.37232413585E+02  0.10566000000E+00 0.  1.
         23    2    1    0    0    0 -0.53255044790E+01 -0.84600890789E+01 -0.27355564538E+02  0.95965079118E+02  0.91438697463E+02 0.  0.
         13    1    3    3    0    0  0.12969222514E+02  0.44296297133E+01 -0.57111229058E+02  0.58732665533E+02  0.10566000000E+00 0. -1.
         22    1    1    0    0    0  0.53255044790E+01  0.84600890789E+01  0.27355564538E+02  0.29124920882E+02  0.00000000000E+00 0. -1.
</event>
<event>
 5    1  0.2370309E-009  0.9118800E+02  0.7561462E-02  0.1125453E+00
         25   -1    0    0    0    0  0.00000000000E+00  0.00000000000E+00  0.99999998245E-14  0.12509000000E+03  0.12509000000E+03 0.  0.
        -13    1    3    3    0    0 -0.23883994511E+02 -0.13018055277E+02 -0.17756536214E+02  0.32484160746E+02  0.10566000000E+00 0. -1.
         23    2    1    0    0    0  0.14753015114E+02 -0.55137429185E+01  0.28076433882E+02  0.92897781135E+02  0.87141601915E+02 0.  0.
         13    1    3    3    0    0  0.38637009624E+02  0.75043123587E+01  0.45832970096E+02  0.60413620389E+02  0.10566000000E+00 0.  1.
         22    1    1    0    0    0 -0.14753015114E+02  0.55137429185E+01 -0.28076433882E+02  0.32192218865E+02  0.00000000000E+00 0.  1.
</event>
<event>
 5    1  0.2370309E-009  0.9118800E+02  0.7561462E-02  0.1125453E+00
         25   -1    0    0    0    0  0.00000000000E+00  0.00000000000E+00  0.99999998245E-14  0.12509000000E+03  0.12509000000E+03 0.  0.
        -13    1    3    3    0    0  0.32139884324E+02  0.65277071723E+01  0.16236640853E+02  0.36595393092E+02  0.10566000000E+00 0. -1.
         23    2    1    0    0    0 -0.10780802580E+02 -0.28449632557E+02 -0.11955623019E+01  0.94642723175E+02  0.89611429984E+02 0.  0.
         13    1    3    3    0    0 -0.42920686904E+02 -0.34977339729E+02 -0.17432203155E+02  0.58047330083E+02  0.10566000000E+00 0.  1.
         22    1    1    0    0    0  0.10780802580E+02  0.28449632557E+02  0.11955623019E+01  0.30447276825E+02  0.00000000000E+00 0.  1.
</event>
<event>
 5    1  0.2370309E-009  0.9118800E+02  0.7561462E-02  0.1125453E+00
         25   -1    0    0    0    0  0.00000000000E+00  0.00000000000E+00  0.99999998245E-14  0.12509000000E+03  0.12509000000E+03 0.  0.
        -13    1    3    3    0    0 -0.27974023797E+02 -0.53069473375E+02 -0.74197269566E+01  0.60448147397E+02  0.10566000000E+00 0.  1.
         23    2    1    0    0    0 -0.16042394844E+02 -0.22278505246E+02  0.74201790597E+01  0.96651482359E+02  0.92372938443E+02 0.  0.
         13    1    3    3    0    0  0.11931628953E+02  0.30790968128E+02  0.14839906016E+02  0.36203334962E+02  0.10566000000E+00 0. -1.
         22    1    1    0    0    0  0.16042394844E+02  0.22278505246E+02 -0.74201790597E+01  0.28438517641E+02  0.00000000000E+00 0.  1.
</event>
<event>
 5    1  0.2370309E-009  0.9118800E+02  0.7561462E-02  0.1125453E+00
         25   -1    0    0    0    0  0.00000000000E+00  0.00000000000E+00  0.99999998245E-14  0.12509000000E+03  0.12509000000E+03 0.  0.
        -13    1    3    3    0    0  0.11024026295E+02  0.10813490057E+02 -0.35251793421E+02  0.38485852289E+02  0.10566000000E+00 0.  1.
         23    2    1    0    0    0  0.72436664928E+01  0.22980517067E+02  0.19119941170E+02  0.94330497090E+02  0.89174523616E+02 0.  0.
         13    1    3    3    0    0 -0.37803598026E+01  0.12167027009E+02  0.54371734591E+02  0.55844644801E+02  0.10566000000E+00 0. -1.
         22    1    1    0    0    0 -0.72436664928E+01 -0.22980517067E+02 -0.19119941170E+02  0.30759502910E+02  0.00000000000E+00 0. -1.
</event>
<event>
 5    1  0.2370309E-009  0.9118800E+02  0.7561462E-02  0.1125453E+00
         25   -1    0    0    0    0  0.00000000000E+00  0.00000000000E+00  0.99999998245E-14  0.12509000000E+03  0.12509000000E+03 0.  0.
        -13    1    3    3    0    0 -0.49134957597E+02  0.79968465342E+01 -0.25216408717E+02  0.55803871238E+02  0.10566000000E+00 0. -1.
         23    2    1    0    0    0 -0.11557918112E+02  0.16427817741E+02 -0.23249506623E+02  0.94365445894E+02  0.89223534752E+02 0.  0.
         13    1    3    3    0    0  0.37577039486E+02  0.84309712072E+01  0.19669020936E+01  0.38561574655E+02  0.10566000000E+00 0.  1.
         22    1    1    0    0    0  0.11557918112E+02 -0.16427817741E+02  0.23249506623E+02  0.30724554106E+02  0.00000000000E+00 0. -1.
</event>
<event>
 5    1  0.2370309E-009  0.9118800E+02  0.7561462E-02  0.1125453E+00
         25   -1    0    0    0    0  0.00000000000E+00  0.00000000000E+00  0.99999998245E-14  0.12509000000E+03  0.12509000000E+03 0.  0.
        -13    1    3    3    0    0 -0.33884107032E+02  0.45549008622E+02 -0.82982398676E+01  0.57373485555E+02  0.10566000000E+00 0. -1.
         23    2    1    0    0    0 -0.20549065546E+01  0.28292046453E+02  0.56363082016E+01  0.96168891730E+02  0.91717093461E+02 0.  0.
         13    1    3    3    0    0  0.31829200477E+02 -0.17256962170E+02  0.13934548069E+02  0.38795406175E+02  0.10566000000E+00 0.  1.
         22    1    1    0    0    0  0.20549065546E+01 -0.28292046453E+02 -0.56363082016E+01  0.28921108270E+02  0.00000000000E+00 0. -1.
</event>
<event>
 5    1  0.2370309E-009  0.9118800E+02  0.7561462E-02  0.1125453E+00
         25   -1    0    0    0    0  0.00000000000E+00  0.00000000000E+00  0.99999998245E-14  0.12509000000E+03  0.12509000000E+03 0.  0.
        -13    1    3    3    0    0  0.15354796342E+02 -0.32491077339E+02  0.10004393244E+02  0.37303336654E+02  0.10566000000E+00 0. -1.
         23    2    1    0    0    0 -0.21596538184E+02  0.89207051585E+01  0.20756184595E+02  0.93836061992E+02  0.88478233985E+02 0.  0.
         13    1    3    3    0    0 -0.36951334525E+02  0.41411782497E+02  0.10751791351E+02  0.56532725338E+02  0.10566000000E+00 0.  1.
         22    1    1    0    0    0  0.21596538184E+02 -0.89207051585E+01 -0.20756184595E+02  0.31253938008E+02  0.00000000000E+00 0.  1.
</event>
<event>
 5    1  0.2370309E-009  0.9118800E+02  0.7561462E-02  0.1125453E+00
         25   -1    0    0    0    0  0.00000000000E+00  0.00000000000E+00  0.99999998245E-14  0.12509000000E+03  0.12509000000E+03 0.  0.
        -13    1    3    3    0    0  0.52478421076E+02  0.25350311293E+02  0.67329590265E+00  0.58284538711E+02  0.10566000000E+00 0.  1.
         23    2    1    0    0    0  0.22270964068E+02  0.14675014541E+02 -0.15571383876E+02  0.94206025384E+02  0.88999749047E+02 0.  0.
         13    1    3    3    0    0 -0.30207457008E+02 -0.10675296752E+02 -0.16244679779E+02  0.35921486673E+02  0.10566000000E+00 0. -1.
         22    1    1    0    0    0 -0.22270964068E+02 -0.14675014541E+02  0.15571383876E+02  0.30883974616E+02  0.00000000000E+00 0.  1.
</event>
<event>
 5    1  0.2370309E-009  0.9118800E+02  0.7561462E-02  0.1125453E+00
         25   -1    0    0    0    0  0.00000000000E+00  0.00000000000E+00  0.99999998245E-14  0.12509000000E+03  0.12509000000E+03 0.  0.
        -13    1    3    3    0    0  0.22233888602E+02 -0.21251483197E+02  0.39049726585E+02  0.49707782599E+02  0.10566000000E+00 0. -1.
         23    2    1    0    0    0  0.26716086350E+02 -0.92268708927E+01 -0.56957971008E+01  0.96257266502E+02  0.91837545881E+02 0.  0.
         13    1    3    3    0    0  0.44821977479E+01  0.12024612305E+02 -0.44745523686E+02  0.46549483904E+02  0.10566000000E+00 0.  1.
         22    1    1    0    0    0 -0.26716086350E+02  0.92268708927E+01  0.56957971008E+01  0.28832733498E+02  0.00000000000E+00 0. -1.
</event>
<event>
 5    1  0.2370309E-009  0.9118800E+02  0.7561462E-02  0.1125453E+00
         25   -1    0    0    0    0  0.00000000000E+00  0.00000000000E+00  0.99999998245E-14  0.12509000000E+03  0.12509000000E+03 0.  0.
        -13    1    3    3    0    0  0.22948769713E+02  0.12219844492E+02 -0.53921883188E+02  0.59862770411E+02  0.10566000000E+00 0. -1.
         23    2    1    0    0    0  0.84404589446E+01  0.16516993254E+02 -0.16362255974E+02  0.10035589735E+03  0.97260116692E+02 0.  0.
         13    1    3    3    0    0 -0.14508310768E+02  0.42971487624E+01  0.37559627213E+02  0.40493126939E+02  0.10566000000E+00 0.  1.
         22    1    1    0    0    0 -0.84404589446E+01 -0.16516993254E+02  0.16362255974E+02  0.24734102650E+02  0.00000000000E+00 0. -1.
</event>
<event>
 5    1  0.2370309E-009  0.9118800E+02  0.7561462E-02  0.1125453E+00
         25   -1    0    0    0    0  0.00000000000E+00  0.00000000000E+00  0.99999998245E-14  0.12509000000E+03  0.12509000000E+03 0.  0.
        -13    1    3    3    0    0 -0.36181787705E+02 -0.38379378589E+02  0.10835777247E+02  0.53847225508E+02  0.10566000000E+00 0.  1.
         23    2    1    0    0    0 -0.25009059467E+02 -0.54118292871E+01 -0.13344903016E+02  0.96231251099E+02  0.91802104005E+02 0.  0.
         13    1    3    3    0    0  0.11172728238E+02  0.32967549302E+02 -0.24180680263E+02  0.42384025590E+02  0.10566000000E+00 0. -1.
         22    1    1    0    0    0  0.25009059467E+02  0.54118292871E+01  0.13344903016E+02  0.28858748901E+02  0.00000000000E+00 0. -1.
</event>
<event>
 5    1  0.2370309E-009  0.9118800E+02  0.7561462E-02  0.1125453E+00
         25   -1    0    0    0    0  0.00000000000E+00  0.00000000000E+00  0.99999998245E-14  0.12509000000E+03  0.12509000000E+03 0.  0.
        -13    1    3    3    0    0 -0.55323020092E+02  0.36618040130E+01  0.16585913321E+02  0.57871832919E+02  0.10566000000E+00 0.  1.
         23    2    1    0    0    0 -0.19621741432E+02  0.49415038640E+01  0.23309203090E+02  0.94223348967E+02  0.89024094181E+02 0.  0.
         13    1    3    3    0    0  0.35701278660E+02  0.12796998510E+01  0.67232897692E+01  0.36351516048E+02  0.10566000000E+00 0. -1.
         22    1    1    0    0    0  0.19621741432E+02 -0.49415038640E+01 -0.23309203090E+02  0.30866651033E+02  0.00000000000E+00 0.  1.
</event>
<event>
 5    1  0.2370309E-009  0.9118800E+02  0.7561462E-02  0.1125453E+00
         25   -1    0    0    0    0  0.00000000000E+00  0.00000000000E+00  0.99999998245E-14  0.12509000000E+03  0.12509000000E+03 0.  0.
        -13    1    3    3    0    0  0.49109013747E+02 -0.19387113073E+02 -0.59829658098E+01  0.53135321853E+02  0.10566000000E+00 0.  1.
         23    2    1    0    0    0  0.21848216816E+02 -0.27691930010E+00  0.20079084343E+02  0.95415248267E+02  0.90683398213E+02 0.  0.
         13    1    3    3    0    0 -0.27260796931E+02  0.19110193773E+02  0.26062050153E+02  0.42279926414E+02  0.10566000000E+00 0. -1.
         22    1    1    0    0    0 -0.21848216816E+02  0.27691930010E+00 -0.20079084343E+02  0.29674751733E+02  0.00000000000E+00 0.  1.
</event>
<event>
 5    1  0.2370309E-009  0.9118800E+02  0.7561462E-02  0.1125453E+00
         25   -1    0    0    0    0  0.00000000000E+00  0.00000000000E+00  0.99999998245E-14  0.12509000000E+03  0.12509000000E+03 0.  0.
        -13    1    3    3    0    0 -0.36674513562E+02 -0.86176036133E+00  0.44864253787E+01  0.36958108077E+02  0.10566000000E+00 0.  1.
         23    2    1    0    0    0  0.15889623258E+02 -0.22941890574E+02 -0.94070939907E+01  0.95639976439E+02  0.90992863487E+02 0.  0.
         13    1    3    3    0    0  0.52564136821E+02 -0.22080130213E+02 -0.13893519369E+02  0.58681868362E+02  0.10566000000E+00 0. -1.
         22    1    1    0    0    0 -0.15889623258E+02  0.22941890574E+02  0.94070939907E+01  0.29450023561E+02  0.00000000000E+00 0. -1.
</event>
<event>
 5    1  0.2370309E-009  0.9118800E+02  0.7561462E-02  0.1125453E+00
         25   -1    0    0    0    0  0.00000000000E+00  0.00000000000E+00  0.99999998245E-14  0.12509000000E+03  0.12509000000E+03 0.  0.
        -13    1    3    3    0    0  0.44724843017E+02 -0.31416029711E+02 -0.17972317689E+02  0.57535153366E+02  0.10566000000E+00 0. -1.
         23    2    1    0    0    0  0.12232538300E+02 -0.67495233765E+01 -0.22526083036E+02  0.98583105123E+02  0.94952688954E+02 0.  0.
         13    1    3    3    0    0 -0.32492304717E+02  0.24666506334E+02 -0.45537653473E+01  0.41047951757E+02  0.10566000000E+00 0.  1.
         22    1    1    0    0    0 -0.12232538300E+02  0.67495233765E+01  0.22526083036E+02  0.26506894877E+02  0.00000000000E+00 0. -1.
</event>
<event>
 5    1  0.2370309E-009  0.9118800E+02  0.7561462E-02  0.1125453E+00
         25   -1    0    0    0    0  0.00000000000E+00  0.00000000000E+00  0.99999998245E-14  0.12509000000E+03  0.12509000000E+03 0.  0.
        -13    1    3    3    0    0 -0.23246305441E+02  0.35166627498E+02 -0.12179192847E+01  0.42173177467E+02  0.10566000000E+00 0.  1.
         23    2    1    0    0    0  0.23586261389E+02  0.16097851307E+02 -0.12395153142E+02  0.93959751616E+02  0.88652933168E+02 0.  0.
         13    1    3    3    0    0  0.46832566831E+02 -0.19068776191E+02 -0.11177233857E+02  0.51786574149E+02  0.10566000000E+00 0. -1.
         22    1    1    0    0    0 -0.23586261389E+02 -0.16097851307E+02  0.12395153142E+02  0.31130248384E+02  0.00000000000E+00 0.  1.
</event>
<event>
 5    1  0.2370309E-009  0.9118800E+02  0.7561462E-02  0.1125453E+00
         25   -1    0    0    0    0  0.00000000000E+00  0.00000000000E+00  0.99999998245E-14  0.12509000000E+03  0.12509000000E+03 0.  0.
        -13    1    3    3    0    0  0.35525674527E+02 -0.10413665631E+02 -0.52461398028E+01  0.37390521918E+02  0.10566000000E+00 0. -1.
         23    2    1    0    0    0  0.26129109275E+02  0.41062585642E+01  0.35014104089E+02  0.81208578008E+02  0.68331939428E+02 0.  0.
         13    1    3    3    0    0 -0.93965652521E+01  0.14519924195E+02  0.40260243892E+02  0.43818056089E+02  0.10566000000E+00 0.  1.
         22    1    1    0    0    0 -0.26129109275E+02 -0.41062585642E+01 -0.35014104089E+02  0.43881421992E+02  0.00000000000E+00 0.  1.
</event>
<event>
 5    1  0.2370309E-009  0.9118800E+02  0.7561462E-02  0.1125453E+00
         25   -1    0    0    0    0  0.00000000000E+00  0.00000000000E+00  0.99999998245E-14  0.12509000000E+03  0.12509000000E+03 0.  0.
        -13    1    3    3    0    0 -0.70924072437E+00 -0.20446156978E+02 -0.42057148068E+02  0.46769255128E+02  0.10566000000E+00 0. -1.
         23    2    1    0    0    0 -0.26567578597E+02 -0.25653874785E+01 -0.11335015245E+01  0.98374793260E+02  0.94677862660E+02 0.  0.
         13    1    3    3    0    0 -0.25858337873E+02  0.17880769500E+02  0.40923646544E+02  0.51605538132E+02  0.10566000000E+00 0.  1.
         22    1    1    0    0    0  0.26567578597E+02  0.25653874785E+01  0.11335015245E+01  0.26715206740E+02  0.00000000000E+00 0. -1.
</event>
<event>
 5    1  0.2370309E-009  0.9118800E+02  0.7561462E-02  0.1125453E+00
         25   -1    0    0    0    0  0.00000000000E+00  0.00000000000E+00  0.99999998245E-14  0.12509000000E+03  0.12509000000E+03 0.  0.
        -13    1    3    3    0    0 -0.38681957541E+02  0.31246933200E+02  0.34114624862E+02  0.60303262492E+02  0.10566000000E+00 0.  1.
         23    2    1    0    0    0 -0.15550809564E+02  0.31637907781E+01  0.20534442274E+02  0.99138110479E+02  0.95681055490E+02 0.  0.
         13    1    3    3    0    0  0.23131147977E+02 -0.28083142422E+02 -0.13580182588E+02  0.38834847988E+02  0.10566000000E+00 0. -1.
         22    1    1    0    0    0  0.15550809564E+02 -0.31637907781E+01 -0.20534442274E+02  0.25951889521E+02  0.00000000000E+00 0.  1.
</event>
<event>
 5    1  0.2370309E-009  0.9118800E+02  0.7561462E-02  0.1125453E+00
         25   -1    0    0    0    0  0.00000000000E+00  0.00000000000E+00  0.99999998245E-14  0.12509000000E+03  0.12509000000E+03 0.  0.
        -13    1    3    3    0    0  0.34924464970E+02  0.38765282596E+01  0.12580148498E+02  0.37323143290E+02  0.10566000000E+00 0. -1.
         23    2    1    0    0    0 -0.19735966570E+02  0.18447021249E+02 -0.69963332407E+01  0.97183913778E+02  0.93091156663E+02 0.  0.
         13    1    3    3    0    0 -0.54660431540E+02  0.14570492990E+02 -0.19576481739E+02  0.59860770488E+02  0.10566000000E+00 0.  1.
         22    1    1    0    0    0  0.19735966570E+02 -0.18447021249E+02  0.69963332407E+01  0.27906086222E+02  0.00000000000E+00 0.  1.
</event>
<event>
 5    1  0.2370309E-009  0.9118800E+02  0.7561462E-02  0.1125453E+00
         25   -1    0    0    0    0  0.00000000000E+00  0.00000000000E+00  0.99999998245E-14  0.12509000000E+03  0.12509000000E+03 0.  0.
        -13    1    3    3    0    0  0.30289291230E+02 -0.11824539271E+02  0.33421477974E+00  0.32517437718E+02  0.10566000000E+00 0. -1.
         23    2    1    0    0    0 -0.23561017891E+02  0.18588020302E+02 -0.52869395370E+01  0.94617261487E+02  0.89575880564E+02 0.  0.
         13    1    3    3    0    0 -0.53850309121E+02  0.30412559574E+02 -0.56211543168E+01  0.62099823769E+02  0.10566000000E+00 0.  1.
         22    1    1    0    0    0  0.23561017891E+02 -0.18588020302E+02  0.52869395370E+01  0.30472738513E+02  0.00000000000E+00 0.  1.
</event>
<event>
 5    1  0.2370309E-009  0.9118800E+02  0.7561462E-02  0.1125453E+00
         25   -1    0    0    0    0  0.00000000000E+00  0.00000000000E+00  0.99999998245E-14  0.12509000000E+03  0.12509000000E+03 0.  0.
        -13    1    3    3    0    0  0.15802619589E+02  0.13922157577E+02  0.56485585809E+02  0.60284175583E+02  0.10566000000E+00 0.  1.
         23    2    1    0    0    0  0.18656289959E+02  0.60451119886E+01  0.22706437525E+02  0.95086952837E+02  0.90229406297E+02 0.  0.
         13    1    3    3    0    0  0.28536703698E+01 -0.78770455884E+01 -0.33779148284E+02  0.34802777254E+02  0.10566000000E+00 0. -1.
         22    1    1    0    0    0 -0.18656289959E+02 -0.60451119886E+01 -0.22706437525E+02  0.30003047163E+02  0.00000000000E+00 0.  1.
</event>
<event>
 5    1  0.2370309E-009  0.9118800E+02  0.7561462E-02  0.1125453E+00
         25   -1    0    0    0    0  0.00000000000E+00  0.00000000000E+00  0.99999998245E-14  0.12509000000E+03  0.12509000000E+03 0.  0.
        -13    1    3    3    0    0  0.14779604578E+02  0.17979460319E+01  0.60320463170E+02  0.62130819748E+02  0.10566000000E+00 0. -1.
         23    2    1    0    0    0  0.34635230989E+01 -0.32749720124E+01  0.26747362423E+02  0.97921215881E+02  0.94076679837E+02 0.  0.
         13    1    3    3    0    0 -0.11316081479E+02 -0.50729180443E+01 -0.33573100748E+02  0.35790396133E+02  0.10566000000E+00 0.  1.
         22    1    1    0    0    0 -0.34635230989E+01  0.32749720124E+01 -0.26747362423E+02  0.27168784119E+02  0.00000000000E+00 0. -1.
</event>
<event>
 5    1  0.2370309E-009  0.9118800E+02  0.7561462E-02  0.1125453E+00
         25   -1    0    0    0    0  0.00000000000E+00  0.00000000000E+00  0.99999998245E-14  0.12509000000E+03  0.12509000000E+03 0.  0.
        -13    1    3    3    0    0  0.12632332134E+02  0.15389479692E+02  0.29513774901E+02  0.35601769244E+02  0.10566000000E+00 0. -1.
         23    2    1    0    0    0 -0.33220961489E+02 -0.12352089944E+00  0.85081760293E+00  0.91857915650E+02  0.85635887555E+02 0.  0.
         13    1    3    3    0    0 -0.45853293623E+02 -0.15513000591E+02 -0.28662957298E+02  0.56256146406E+02  0.10566000000E+00 0.  1.
         22    1    1    0    0    0  0.33220961489E+02  0.12352089944E+00 -0.85081760293E+00  0.33232084350E+02  0.00000000000E+00 0.  1.
</event>
<event>
 5    1  0.2370309E-009  0.9118800E+02  0.7561462E-02  0.1125453E+00
         25   -1    0    0    0    0  0.00000000000E+00  0.00000000000E+00  0.99999998245E-14  0.12509000000E+03  0.12509000000E+03 0.  0.
        -13    1    3    3    0    0 -0.22975464061E+02 -0.23268083323E+02  0.28907495926E+02  0.43645505325E+02  0.10566000000E+00 0. -1.
         23    2    1    0    0    0  0.10035905891E+02  0.14915928243E+02  0.25034009500E+02  0.94269455650E+02  0.89088856287E+02 0.  0.
         13    1    3    3    0    0  0.33011369952E+02  0.38184011566E+02 -0.38734864260E+01  0.50623950325E+02  0.10566000000E+00 0.  1.
         22    1    1    0    0    0 -0.10035905891E+02 -0.14915928243E+02 -0.25034009500E+02  0.30820544350E+02  0.00000000000E+00 0.  1.
</event>
<event>
 5    1  0.2370309E-009  0.9118800E+02  0.7561462E-02  0.1125453E+00
         25   -1    0    0    0    0  0.00000000000E+00  0.00000000000E+00  0.99999998245E-14  0.12509000000E+03  0.12509000000E+03 0.  0.
        -13    1    3    3    0    0 -0.44323168651E+01  0.29031035787E+02  0.18398177615E+02  0.34654733807E+02  0.10566000000E+00 0.  1.
         23    2    1    0    0    0  0.17840546173E+02 -0.24575652381E+02  0.86158977391E+01  0.93522905240E+02  0.88034381539E+02 0.  0.
         13    1    3    3    0    0  0.22272863039E+02 -0.53606688168E+02 -0.97822798762E+01  0.58868171433E+02  0.10566000000E+00 0. -1.
         22    1    1    0    0    0 -0.17840546173E+02  0.24575652381E+02 -0.86158977391E+01  0.31567094760E+02  0.00000000000E+00 0. -1.
</event>
<event>
 5    1  0.2370309E-009  0.9118800E+02  0.7561462E-02  0.1125453E+00
         25   -1    0    0    0    0  0.00000000000E+00  0.00000000000E+00  0.99999998245E-14  0.12509000000E+03  0.12509000000E+03 0.  0.
        -13    1    3    3    0    0  0.51902787832E+02  0.55633214864E+01  0.18543075492E+02  0.55395909085E+02  0.10566000000E+00 0.  1.
         23    2    1    0    0    0  0.14173177234E+02 -0.16836218753E+02  0.12753112557E+02  0.99654216256E+02  0.96353431298E+02 0.  0.
         13    1    3    3    0    0 -0.37729610597E+02 -0.22399540239E+02 -0.57899629349E+01  0.44258307170E+02  0.10566000000E+00 0. -1.
         22    1    1    0    0    0 -0.14173177234E+02  0.16836218753E+02 -0.12753112557E+02  0.25435783744E+02  0.00000000000E+00 0.  1.
</event>
<event>
 5    1  0.2370309E-009  0.9118800E+02  0.7561462E-02  0.1125453E+00
         25   -1    0    0    0    0  0.00000000000E+00  0.00000000000E+00  0.99999998245E-14  0.12509000000E+03  0.12509000000E+03 0.  0.
        -13    1    3    3    0    0  0.38594350906E+02 -0.67261657081E+01 -0.10007356264E+02  0.40434188139E+02  0.10566000000E+00 0. -1.
         23    2    1    0    0    0  0.81425510956E+01  0.13516134755E+02  0.27858237281E+02  0.93073310267E+02  0.87393207187E+02 0.  0.
         13    1    3    3    0    0 -0.30451799811E+02  0.20242300463E+02  0.37865593546E+02  0.52639122128E+02  0.10566000000E+00 0.  1.
         22    1    1    0    0    0 -0.81425510956E+01 -0.13516134755E+02 -0.27858237281E+02  0.32016689733E+02  0.00000000000E+00 0.  1.
</event>
<event>
 5    1  0.2370309E-009  0.9118800E+02  0.7561462E-02  0.1125453E+00
         25   -1    0    0    0    0  0.00000000000E+00  0.00000000000E+00  0.99999998245E-14  0.12509000000E+03  0.12509000000E+03 0.  0.
        -13    1    3    3    0    0  0.13829824888E+02  0.47223453238E+02 -0.67827308639E+01  0.49672277924E+02  0.10566000000E+00 0. -1.
         23    2    1    0    0    0  0.31827504333E+02  0.11809212025E+02  0.41889234704E+01  0.90884816174E+02  0.84202465584E+02 0.  0.
         13    1    3    3    0    0  0.17997679446E+02 -0.35414241213E+02  0.10971654334E+02  0.41212538250E+02  0.10566000000E+00 0.  1.
         22    1    1    0    0    0 -0.31827504333E+02 -0.11809212025E+02 -0.41889234704E+01  0.34205183826E+02  0.00000000000E+00 0. -1.
</event>
<event>
 5    1  0.2370309E-009  0.9118800E+02  0.7561462E-02  0.1125453E+00
         25   -1    0    0    0    0  0.00000000000E+00  0.00000000000E+00  0.99999998245E-14  0.12509000000E+03  0.12509000000E+03 0.  0.
        -13    1    3    3    0    0  0.11973815301E+02  0.14781892878E+02  0.31000440463E+02  0.36371899632E+02  0.10566000000E+00 0.  1.
         23    2    1    0    0    0  0.13066193471E+02 -0.12336630282E+02 -0.22459267161E+02  0.96326541586E+02  0.91931855599E+02 0.  0.
         13    1    3    3    0    0  0.10923781709E+01 -0.27118523160E+02 -0.53459707624E+02  0.59954641953E+02  0.10566000000E+00 0. -1.
         22    1    1    0    0    0 -0.13066193471E+02  0.12336630282E+02  0.22459267161E+02  0.28763458414E+02  0.00000000000E+00 0. -1.
</event>
<event>
 5    1  0.2370309E-009  0.9118800E+02  0.7561462E-02  0.1125453E+00
         25   -1    0    0    0    0  0.00000000000E+00  0.00000000000E+00  0.99999998245E-14  0.12509000000E+03  0.12509000000E+03 0.  0.
        -13    1    3    3    0    0  0.41138196757E+02  0.31360648437E+02 -0.12350215243E+02  0.53182520469E+02  0.10566000000E+00 0. -1.
         23    2    1    0    0    0  0.50269460009E+01  0.11335148918E+02 -0.25679980944E+02  0.96573036481E+02  0.92266647098E+02 0.  0.
         13    1    3    3    0    0 -0.36111250756E+02 -0.20025499519E+02 -0.13329765700E+02  0.43390516012E+02  0.10566000000E+00 0.  1.
         22    1    1    0    0    0 -0.50269460009E+01 -0.11335148918E+02  0.25679980944E+02  0.28516963519E+02  0.00000000000E+00 0. -1.
</event>
<event>
 5    1  0.2370309E-009  0.9118800E+02  0.7561462E-02  0.1125453E+00
         25   -1    0    0    0    0  0.00000000000E+00  0.00000000000E+00  0.99999998245E-14  0.12509000000E+03  0.12509000000E+03 0.  0.
        -13    1    3    3    0    0 -0.35230930058E+02  0.68991908046E+01 -0.27578201590E+02  0.45270140639E+02  0.10566000000E+00 0.  1.
         23    2    1    0    0    0 -0.13378188723E+02  0.24607905914E+02  0.12650093495E+02  0.94356470551E+02  0.89210950574E+02 0.  0.
         13    1    3    3    0    0  0.21852741335E+02  0.17708715109E+02  0.40228295085E+02  0.49086329912E+02  0.10566000000E+00 0. -1.
         22    1    1    0    0    0  0.13378188723E+02 -0.24607905914E+02 -0.12650093495E+02  0.30733529449E+02  0.00000000000E+00 0.  1.
</event>
<event>
 5    1  0.2370309E-009  0.9118800E+02  0.7561462E-02  0.1125453E+00
         25   -1    0    0    0    0  0.00000000000E+00  0.00000000000E+00  0.99999998245E-14  0.12509000000E+03  0.12509000000E+03 0.  0.
        -13    1    3    3    0    0 -0.32601374494E+02  0.43470754847E+02 -0.28010208665E+02  0.61132144567E+02  0.10566000000E+00 0. -1.
         23    2    1    0    0    0 -0.10957772743E+02  0.20283643818E+02 -0.21611269009E+02  0.93490222497E+02  0.87987929652E+02 0.  0.
         13    1    3    3    0    0  0.21643601751E+02 -0.23187111029E+02  0.63989396557E+01  0.32358077931E+02  0.10566000000E+00 0.  1.
         22    1    1    0    0    0  0.10957772743E+02 -0.20283643818E+02  0.21611269009E+02  0.31599777503E+02  0.00000000000E+00 0. -1.
</event>
<event>
 5    1  0.2370309E-009  0.9118800E+02  0.7561462E-02  0.1125453E+00
         25   -1    0    0    0    0  0.00000000000E+00  0.00000000000E+00  0.99999998245E-14  0.12509000000E+03  0.12509000000E+03 0.  0.
        -13    1    3    3    0    0  0.36647613142E+02  0.15156515348E+01 -0.44959373998E+01  0.36953610997E+02  0.10566000000E+00 0. -1.
         23    2    1    0    0    0 -0.22094958912E+02 -0.12070040758E+02 -0.11036234412E+02  0.97600519044E+02  0.93649291266E+02 0.  0.
         13    1    3    3    0    0 -0.58742572054E+02 -0.13585692292E+02 -0.65402970122E+01  0.60646908047E+02  0.10566000000E+00 0.  1.
         22    1    1    0    0    0  0.22094958912E+02  0.12070040758E+02  0.11036234412E+02  0.27489480956E+02  0.00000000000E+00 0.  1.
</event>
<event>
 5    1  0.2370309E-009  0.9118800E+02  0.7561462E-02  0.1125453E+00
         25   -1    0    0    0    0  0.00000000000E+00  0.00000000000E+00  0.99999998245E-14  0.12509000000E+03  0.12509000000E+03 0.  0.
        -13    1    3    3    0    0  0.23905535768E+02 -0.20357344110E+02  0.12903925075E+02  0.33947290702E+02  0.10566000000E+00 0. -1.
         23    2    1    0    0    0 -0.16807828126E+02  0.13133483192E+02 -0.19800362103E+02  0.95985948624E+02  0.91467242917E+02 0.  0.
         13    1    3    3    0    0 -0.40713363894E+02  0.33490827302E+02 -0.32704287179E+02  0.62038657923E+02  0.10566000000E+00 0.  1.
         22    1    1    0    0    0  0.16807828126E+02 -0.13133483192E+02  0.19800362103E+02  0.29104051376E+02  0.00000000000E+00 0.  1.
</event>
<event>
 5    1  0.2370309E-009  0.9118800E+02  0.7561462E-02  0.1125453E+00
         25   -1    0    0    0    0  0.00000000000E+00  0.00000000000E+00  0.99999998245E-14  0.12509000000E+03  0.12509000000E+03 0.  0.
        -13    1    3    3    0    0 -0.64134814181E+01 -0.35703695099E+02 -0.32373773282E+02  0.48620560961E+02  0.10566000000E+00 0.  1.
         23    2    1    0    0    0  0.63814784221E+01  0.96140169163E+01 -0.26640549323E+02  0.96057751441E+02  0.91565387323E+02 0.  0.
         13    1    3    3    0    0  0.12794959840E+02  0.45317712015E+02  0.57332239589E+01  0.47437190480E+02  0.10566000000E+00 0. -1.
         22    1    1    0    0    0 -0.63814784221E+01 -0.96140169163E+01  0.26640549323E+02  0.29032248559E+02  0.00000000000E+00 0. -1.
</event>
<event>
 5    1  0.2370309E-009  0.9118800E+02  0.7561462E-02  0.1125453E+00
         25   -1    0    0    0    0  0.00000000000E+00  0.00000000000E+00  0.99999998245E-14  0.12509000000E+03  0.12509000000E+03 0.  0.
        -13    1    3    3    0    0  0.21995429862E+02  0.42181594752E+01 -0.12780918687E+02  0.25786718494E+02  0.10566000000E+00 0. -1.
         23    2    1    0    0    0 -0.36805075504E+02 -0.39975681785E+01 -0.14866325466E+02  0.85195116029E+02  0.75276862501E+02 0.  0.
         13    1    3    3    0    0 -0.58800505366E+02 -0.82157276536E+01 -0.20854067786E+01  0.59408397535E+02  0.10566000000E+00 0.  1.
         22    1    1    0    0    0  0.36805075504E+02  0.39975681785E+01  0.14866325466E+02  0.39894883971E+02  0.00000000000E+00 0.  1.
</event>
<event>
 5    1  0.2370309E-009  0.9118800E+02  0.7561462E-02  0.1125453E+00
         25   -1    0    0    0    0  0.00000000000E+00  0.00000000000E+00  0.99999998245E-14  0.12509000000E+03  0.12509000000E+03 0.  0.
        -13    1    3    3    0    0 -0.59996890385E+01 -0.40181900711E+02  0.70427508133E+01  0.41233395645E+02  0.10566000000E+00 0.  1.
         23    2    1    0    0    0  0.22311981780E+02 -0.36420488100E+01 -0.20101208471E+02  0.94838592885E+02  0.89884431733E+02 0.  0.
         13    1    3    3    0    0  0.28311670818E+02  0.36539851901E+02 -0.27143959284E+02  0.53605197240E+02  0.10566000000E+00 0. -1.
         22    1    1    0    0    0 -0.22311981780E+02  0.36420488100E+01  0.20101208471E+02  0.30251407115E+02  0.00000000000E+00 0. -1.
</event>
<event>
 5    1  0.2370309E-009  0.9118800E+02  0.7561462E-02  0.1125453E+00
         25   -1    0    0    0    0  0.00000000000E+00  0.00000000000E+00  0.99999998245E-14  0.12509000000E+03  0.12509000000E+03 0.  0.
        -13    1    3    3    0    0  0.21975543424E+02 -0.19847492868E+02 -0.24800810818E+02  0.38625624437E+02  0.10566000000E+00 0.  1.
         23    2    1    0    0    0 -0.13934594782E+02  0.16344528090E+02  0.11033539963E+02  0.10094345709E+03  0.98012886885E+02 0.  0.
         13    1    3    3    0    0 -0.35910138206E+02  0.36192020958E+02  0.35834350781E+02  0.62317832656E+02  0.10566000000E+00 0. -1.
         22    1    1    0    0    0  0.13934594782E+02 -0.16344528090E+02 -0.11033539963E+02  0.24146542907E+02  0.00000000000E+00 0. -1.
</event>
<event>
 5    1  0.2370309E-009  0.9118800E+02  0.7561462E-02  0.1125453E+00
         25   -1    0    0    0    0  0.00000000000E+00  0.00000000000E+00  0.99999998245E-14  0.12509000000E+03  0.12509000000E+03 0.  0.
        -13    1    3    3    0    0 -0.26095501024E+01  0.16609521319E+02 -0.35411984695E+02  0.39200838949E+02  0.10566000000E+00 0. -1.
         23    2    1    0    0    0 -0.19483614799E+02 -0.21916507794E+02  0.22780460029E+01  0.95676838777E+02  0.91043524895E+02 0.  0.
         13    1    3    3    0    0 -0.16874064697E+02 -0.38526029112E+02  0.37690030698E+02  0.56475999829E+02  0.10566000000E+00 0.  1.
         22    1    1    0    0    0  0.19483614799E+02  0.21916507794E+02 -0.22780460029E+01  0.29413161223E+02  0.00000000000E+00 0.  1.
</event>
<event>
 5    1  0.2370309E-009  0.9118800E+02  0.7561462E-02  0.1125453E+00
         25   -1    0    0    0    0  0.00000000000E+00  0.00000000000E+00  0.99999998245E-14  0.12509000000E+03  0.12509000000E+03 0.  0.
        -13    1    3    3    0    0 -0.87744348609E+01 -0.35901058304E+01 -0.52579888204E+02  0.53427852049E+02  0.10566000000E+00 0.  1.
         23    2    1    0    0    0  0.15213156643E+02 -0.15191152442E+02 -0.18220678657E+02  0.96908368069E+02  0.92720156512E+02 0.  0.
         13    1    3    3    0    0  0.23987591504E+02 -0.11601046612E+02  0.34359209547E+02  0.43480516020E+02  0.10566000000E+00 0. -1.
         22    1    1    0    0    0 -0.15213156643E+02  0.15191152442E+02  0.18220678657E+02  0.28181631931E+02  0.00000000000E+00 0. -1.
</event>
<event>
 5    1  0.2370309E-009  0.9118800E+02  0.7561462E-02  0.1125453E+00
         25   -1    0    0    0    0  0.00000000000E+00  0.00000000000E+00  0.99999998245E-14  0.12509000000E+03  0.12509000000E+03 0.  0.
        -13    1    3    3    0    0 -0.12554731129E+02  0.33622787692E+02 -0.45322467709E+01  0.36175482729E+02  0.10566000000E+00 0.  1.
         23    2    1    0    0    0  0.23727081636E+01 -0.16641836965E+02  0.23936926840E+02  0.95840094903E+02  0.91267556355E+02 0.  0.
         13    1    3    3    0    0  0.14927439293E+02 -0.50264624657E+02  0.28469173611E+02  0.59664612174E+02  0.10566000000E+00 0. -1.
         22    1    1    0    0    0 -0.23727081636E+01  0.16641836965E+02 -0.23936926840E+02  0.29249905097E+02  0.00000000000E+00 0. -1.
</event>
<event>
 5    1  0.2370309E-009  0.9118800E+02  0.7561462E-02  0.1125453E+00
         25   -1    0    0    0    0  0.00000000000E+00  0.00000000000E+00  0.99999998245E-14  0.12509000000E+03  0.12509000000E+03 0.  0.
        -13    1    3    3    0    0 -0.26724401153E+02 -0.20116495975E+02 -0.29159696743E+02  0.44375287103E+02  0.10566000000E+00 0.  1.
         23    2    1    0    0    0  0.15354283155E+02  0.88616130089E+01 -0.23315574992E+02  0.95800100145E+02  0.91212723643E+02 0.  0.
         13    1    3    3    0    0  0.42078684308E+02  0.28978108984E+02  0.58441217517E+01  0.51424813042E+02  0.10566000000E+00 0. -1.
         22    1    1    0    0    0 -0.15354283155E+02 -0.88616130089E+01  0.23315574992E+02  0.29289899855E+02  0.00000000000E+00 0.  1.
</event>
<event>
 5    1  0.2370309E-009  0.9118800E+02  0.7561462E-02  0.1125453E+00
         25   -1    0    0    0    0  0.00000000000E+00  0.00000000000E+00  0.99999998245E-14  0.12509000000E+03  0.12509000000E+03 0.  0.
        -13    1    3    3    0    0 -0.30282303043E+02 -0.32430793468E+02 -0.19487648329E+01  0.44413771411E+02  0.10566000000E+00 0.  1.
         23    2    1    0    0    0  0.56387663142E+01 -0.25240968223E+02  0.24395705157E+02  0.89536482699E+02  0.82174990974E+02 0.  0.
         13    1    3    3    0    0  0.35921069358E+02  0.71898252452E+01  0.26344469990E+02  0.45122711288E+02  0.10566000000E+00 0. -1.
         22    1    1    0    0    0 -0.56387663142E+01  0.25240968223E+02 -0.24395705157E+02  0.35553517301E+02  0.00000000000E+00 0. -1.
</event>
<event>
 5    1  0.2370309E-009  0.9118800E+02  0.7561462E-02  0.1125453E+00
         25   -1    0    0    0    0  0.00000000000E+00  0.00000000000E+00  0.99999998245E-14  0.12509000000E+03  0.12509000000E+03 0.  0.
        -13    1    3    3    0    0 -0.61083838377E+01 -0.40231477315E+02  0.24622509163E+02  0.47562203919E+02  0.10566000000E+00 0.  1.
         23    2    1    0    0    0 -0.16208544369E+00  0.58885852310E+01  0.30130355553E+02  0.94389185134E+02  0.89256810590E+02 0.  0.
         13    1    3    3    0    0  0.59462983940E+01  0.46120062546E+02  0.55078463896E+01  0.46826981215E+02  0.10566000000E+00 0. -1.
         22    1    1    0    0    0  0.16208544369E+00 -0.58885852310E+01 -0.30130355553E+02  0.30700814866E+02  0.00000000000E+00 0. -1.
</event>
<event>
 5    1  0.2370309E-009  0.9118800E+02  0.7561462E-02  0.1125453E+00
         25   -1    0    0    0    0  0.00000000000E+00  0.00000000000E+00  0.99999998245E-14  0.12509000000E+03  0.12509000000E+03 0.  0.
        -13    1    3    3    0    0 -0.47776688566E+02 -0.30288495470E+02 -0.18181950038E+02  0.59418847174E+02  0.10566000000E+00 0.  1.
         23    2    1    0    0    0 -0.16956819102E+02 -0.22848030671E+02  0.12576213369E+01  0.96609342861E+02  0.92315856152E+02 0.  0.
         13    1    3    3    0    0  0.30819869464E+02  0.74404647988E+01  0.19439571375E+02  0.37190495688E+02  0.10566000000E+00 0. -1.
         22    1    1    0    0    0  0.16956819102E+02  0.22848030671E+02 -0.12576213369E+01  0.28480657139E+02  0.00000000000E+00 0.  1.
</event>
<event>
 5    1  0.2370309E-009  0.9118800E+02  0.7561462E-02  0.1125453E+00
         25   -1    0    0    0    0  0.00000000000E+00  0.00000000000E+00  0.99999998245E-14  0.12509000000E+03  0.12509000000E+03 0.  0.
        -13    1    3    3    0    0 -0.15106345901E+02  0.82969298095E+01 -0.47795072036E+02  0.50807684515E+02  0.10566000000E+00 0. -1.
         23    2    1    0    0    0 -0.10398663442E+02 -0.22559684144E+02 -0.15053760379E+02  0.96043705028E+02  0.91546196120E+02 0.  0.
         13    1    3    3    0    0  0.47076824594E+01 -0.30856613953E+02  0.32741311658E+02  0.45236020514E+02  0.10566000000E+00 0.  1.
         22    1    1    0    0    0  0.10398663442E+02  0.22559684144E+02  0.15053760379E+02  0.29046294972E+02  0.00000000000E+00 0.  1.
</event>
<event>
 5    1  0.2370309E-009  0.9118800E+02  0.7561462E-02  0.1125453E+00
         25   -1    0    0    0    0  0.00000000000E+00  0.00000000000E+00  0.99999998245E-14  0.12509000000E+03  0.12509000000E+03 0.  0.
        -13    1    3    3    0    0  0.64757993044E+01 -0.24987641699E+01  0.25273294431E+02  0.26209356620E+02  0.10566000000E+00 0.  1.
         23    2    1    0    0    0 -0.11151703492E+02  0.41106170174E+02 -0.50944046055E+01  0.82194421260E+02  0.70113423899E+02 0.  0.
         13    1    3    3    0    0 -0.17627502797E+02  0.43604934344E+02 -0.30367699036E+02  0.55985064640E+02  0.10566000000E+00 0. -1.
         22    1    1    0    0    0  0.11151703492E+02 -0.41106170174E+02  0.50944046055E+01  0.42895578740E+02  0.00000000000E+00 0. -1.
</event>
<event>
 5    1  0.2370309E-009  0.9118800E+02  0.7561462E-02  0.1125453E+00
         25   -1    0    0    0    0  0.00000000000E+00  0.00000000000E+00  0.99999998245E-14  0.12509000000E+03  0.12509000000E+03 0.  0.
        -13    1    3    3    0    0  0.25977821105E+01 -0.30119052556E+02 -0.25624415031E+02  0.39629882771E+02  0.10566000000E+00 0.  1.
         23    2    1    0    0    0  0.17155419883E+02  0.16934142972E+02  0.84776493506E+01  0.99537227781E+02  0.96201432142E+02 0.  0.
         13    1    3    3    0    0  0.14557637773E+02  0.47053195529E+02  0.34102064381E+02  0.59907345009E+02  0.10566000000E+00 0. -1.
         22    1    1    0    0    0 -0.17155419883E+02 -0.16934142972E+02 -0.84776493506E+01  0.25552772219E+02  0.00000000000E+00 0. -1.
</event>
<event>
 5    1  0.2370309E-009  0.9118800E+02  0.7561462E-02  0.1125453E+00
         25   -1    0    0    0    0  0.00000000000E+00  0.00000000000E+00  0.99999998245E-14  0.12509000000E+03  0.12509000000E+03 0.  0.
        -13    1    3    3    0    0 -0.38626758456E+02  0.34673676889E+02 -0.29101076741E+02  0.59507765622E+02  0.10566000000E+00 0.  1.
         23    2    1    0    0    0 -0.28195232714E+02  0.84157705530E+01 -0.85404872181E+01  0.94451196765E+02  0.89343675247E+02 0.  0.
         13    1    3    3    0    0  0.10431525742E+02 -0.26257906336E+02  0.20560589523E+02  0.34943431143E+02  0.10566000000E+00 0. -1.
         22    1    1    0    0    0  0.28195232714E+02 -0.84157705530E+01  0.85404872181E+01  0.30638803235E+02  0.00000000000E+00 0.  1.
</event>
<event>
 5    1  0.2370309E-009  0.9118800E+02  0.7561462E-02  0.1125453E+00
         25   -1    0    0    0    0  0.00000000000E+00  0.00000000000E+00  0.99999998245E-14  0.12509000000E+03  0.12509000000E+03 0.  0.
        -13    1    3    3    0    0 -0.48254777489E+02  0.19433347445E+02  0.14612198983E+02  0.54034304534E+02  0.10566000000E+00 0. -1.
         23    2    1    0    0    0 -0.20302306836E+02 -0.11715848182E+02 -0.62963800441E+01  0.10081884092E+03  0.97853714907E+02 0.  0.
         13    1    3    3    0    0  0.27952470653E+02 -0.31149195626E+02 -0.20908579027E+02  0.46784536385E+02  0.10566000000E+00 0.  1.
         22    1    1    0    0    0  0.20302306836E+02  0.11715848182E+02  0.62963800441E+01  0.24271159081E+02  0.00000000000E+00 0.  1.
</event>
<event>
 5    1  0.2370309E-009  0.9118800E+02  0.7561462E-02  0.1125453E+00
         25   -1    0    0    0    0  0.00000000000E+00  0.00000000000E+00  0.99999998245E-14  0.12509000000E+03  0.12509000000E+03 0.  0.
        -13    1    3    3    0    0  0.28254539951E+02  0.11396520480E+02 -0.52896751750E+02  0.61043240549E+02  0.10566000000E+00 0. -1.
         23    2    1    0    0    0  0.80195990565E+01  0.12479891166E+02 -0.30022467936E+02  0.91602536174E+02  0.85262033754E+02 0.  0.
         13    1    3    3    0    0 -0.20234940895E+02  0.10833706858E+01  0.22874283814E+02  0.30559295625E+02  0.10566000000E+00 0.  1.
         22    1    1    0    0    0 -0.80195990565E+01 -0.12479891166E+02  0.30022467936E+02  0.33487463826E+02  0.00000000000E+00 0. -1.
</event>
<event>
 5    1  0.2370309E-009  0.9118800E+02  0.7561462E-02  0.1125453E+00
         25   -1    0    0    0    0  0.00000000000E+00  0.00000000000E+00  0.99999998245E-14  0.12509000000E+03  0.12509000000E+03 0.  0.
        -13    1    3    3    0    0 -0.21539042497E+02  0.22847055414E+02 -0.20736300741E+02  0.37628760612E+02  0.10566000000E+00 0. -1.
         23    2    1    0    0    0 -0.10056005536E+01  0.63562943768E+01  0.29793288498E+02  0.94609616961E+02  0.89565204579E+02 0.  0.
         13    1    3    3    0    0  0.20533441943E+02 -0.16490761037E+02  0.50529589238E+02  0.56980856349E+02  0.10566000000E+00 0.  1.
         22    1    1    0    0    0  0.10056005536E+01 -0.63562943768E+01 -0.29793288498E+02  0.30480383039E+02  0.00000000000E+00 0. -1.
</event>
<event>
 5    1  0.2370309E-009  0.9118800E+02  0.7561462E-02  0.1125453E+00
         25   -1    0    0    0    0  0.00000000000E+00  0.00000000000E+00  0.99999998245E-14  0.12509000000E+03  0.12509000000E+03 0.  0.
        -13    1    3    3    0    0 -0.17046857324E+02 -0.20843366537E+02 -0.15387531766E+02  0.31013361171E+02  0.10566000000E+00 0. -1.
         23    2    1    0    0    0 -0.12940665696E+02  0.32114037327E+02 -0.21271041714E+02  0.84454677463E+02  0.74036228345E+02 0.  0.
         13    1    3    3    0    0  0.41061916278E+01  0.52957403864E+02 -0.58835099482E+01  0.53441316292E+02  0.10566000000E+00 0.  1.
         22    1    1    0    0    0  0.12940665696E+02 -0.32114037327E+02  0.21271041714E+02  0.40635322537E+02  0.00000000000E+00 0.  1.
</event>
<event>
 5    1  0.2370309E-009  0.9118800E+02  0.7561462E-02  0.1125453E+00
         25   -1    0    0    0    0  0.00000000000E+00  0.00000000000E+00  0.99999998245E-14  0.12509000000E+03  0.12509000000E+03 0.  0.
        -13    1    3    3    0    0 -0.26197048854E+02  0.20188743839E+02  0.50210595500E+02  0.60124752066E+02  0.10566000000E+00 0.  1.
         23    2    1    0    0    0 -0.13074753052E+01  0.77448573038E+01  0.28807441056E+02  0.95230981822E+02  0.90428861169E+02 0.  0.
         13    1    3    3    0    0  0.24889573549E+02 -0.12443886535E+02 -0.21403154444E+02  0.35106229757E+02  0.10566000000E+00 0. -1.
         22    1    1    0    0    0  0.13074753052E+01 -0.77448573038E+01 -0.28807441056E+02  0.29859018178E+02  0.00000000000E+00 0.  1.
</event>
<event>
 5    1  0.2370309E-009  0.9118800E+02  0.7561462E-02  0.1125453E+00
         25   -1    0    0    0    0  0.00000000000E+00  0.00000000000E+00  0.99999998245E-14  0.12509000000E+03  0.12509000000E+03 0.  0.
        -13    1    3    3    0    0  0.14221633909E+02  0.52962305231E+02 -0.18511014057E+02  0.57878575068E+02  0.10566000000E+00 0. -1.
         23    2    1    0    0    0 -0.11154376407E+02  0.20149126963E+02 -0.48195360959E+01  0.10156054275E+03  0.98797310109E+02 0.  0.
         13    1    3    3    0    0 -0.25376010316E+02 -0.32813178268E+02  0.13691477961E+02  0.43681967680E+02  0.10566000000E+00 0.  1.
         22    1    1    0    0    0  0.11154376407E+02 -0.20149126963E+02  0.48195360959E+01  0.23529457252E+02  0.00000000000E+00 0. -1.
</event>
<event>
 5    1  0.2370309E-009  0.9118800E+02  0.7561462E-02  0.1125453E+00
         25   -1    0    0    0    0  0.00000000000E+00  0.00000000000E+00  0.99999998245E-14  0.12509000000E+03  0.12509000000E+03 0.  0.
        -13    1    3    3    0    0 -0.25640523985E+02 -0.22490760232E+02 -0.17960928586E+02  0.38547073634E+02  0.10566000000E+00 0. -1.
         23    2    1    0    0    0  0.21182759528E+01  0.27163689829E+02 -0.10364905599E+02  0.95938938163E+02  0.91402929109E+02 0.  0.
         13    1    3    3    0    0  0.27758799938E+02  0.49654450061E+02  0.75960229869E+01  0.57391864529E+02  0.10566000000E+00 0.  1.
         22    1    1    0    0    0 -0.21182759528E+01 -0.27163689829E+02  0.10364905599E+02  0.29151061837E+02  0.00000000000E+00 0.  1.
</event>
<event>
 5    1  0.2370309E-009  0.9118800E+02  0.7561462E-02  0.1125453E+00
         25   -1    0    0    0    0  0.00000000000E+00  0.00000000000E+00  0.99999998245E-14  0.12509000000E+03  0.12509000000E+03 0.  0.
        -13    1    3    3    0    0 -0.29724908922E+02  0.38435058154E+02 -0.32164344520E+02  0.58269890408E+02  0.10566000000E+00 0.  1.
         23    2    1    0    0    0 -0.22110284011E+02  0.20603755209E+02 -0.11505006002E+01  0.94845942082E+02  0.89894658851E+02 0.  0.
         13    1    3    3    0    0  0.76146249105E+01 -0.17831302946E+02  0.31013843920E+02  0.36576051673E+02  0.10566000000E+00 0. -1.
         22    1    1    0    0    0  0.22110284011E+02 -0.20603755209E+02  0.11505006002E+01  0.30244057918E+02  0.00000000000E+00 0.  1.
</event>
<event>
 5    1  0.2370309E-009  0.9118800E+02  0.7561462E-02  0.1125453E+00
         25   -1    0    0    0    0  0.00000000000E+00  0.00000000000E+00  0.99999998245E-14  0.12509000000E+03  0.12509000000E+03 0.  0.
        -13    1    3    3    0    0 -0.24348944377E+02  0.18566132536E+01 -0.48406819737E+02  0.54217612140E+02  0.10566000000E+00 0.  1.
         23    2    1    0    0    0 -0.38328669892E+01  0.22344160147E+02 -0.19057405131E+02  0.95473500335E+02  0.90763716395E+02 0.  0.
         13    1    3    3    0    0  0.20516077388E+02  0.20487546894E+02  0.29349414605E+02  0.41255888196E+02  0.10566000000E+00 0. -1.
         22    1    1    0    0    0  0.38328669892E+01 -0.22344160147E+02  0.19057405131E+02  0.29616499665E+02  0.00000000000E+00 0.  1.
</event>
<event>
 5    1  0.2370309E-009  0.9118800E+02  0.7561462E-02  0.1125453E+00
         25   -1    0    0    0    0  0.00000000000E+00  0.00000000000E+00  0.99999998245E-14  0.12509000000E+03  0.12509000000E+03 0.  0.
        -13    1    3    3    0    0  0.65280114361E+01  0.25771783571E+02  0.21657524743E+02  0.34290804945E+02  0.10566000000E+00 0.  1.
         23    2    1    0    0    0 -0.16741775261E+02 -0.22101567630E+02 -0.92725463863E+01  0.95853952950E+02  0.91286548018E+02 0.  0.
         13    1    3    3    0    0 -0.23269786697E+02 -0.47873351202E+02 -0.30930071129E+02  0.61563148005E+02  0.10566000000E+00 0. -1.
         22    1    1    0    0    0  0.16741775261E+02  0.22101567630E+02  0.92725463863E+01  0.29236047050E+02  0.00000000000E+00 0. -1.
</event>
<event>
 5    1  0.2370309E-009  0.9118800E+02  0.7561462E-02  0.1125453E+00
         25   -1    0    0    0    0  0.00000000000E+00  0.00000000000E+00  0.99999998245E-14  0.12509000000E+03  0.12509000000E+03 0.  0.
        -13    1    3    3    0    0  0.47392949146E+02  0.20111001249E+02 -0.19678671913E+02  0.55116288811E+02  0.10566000000E+00 0.  1.
         23    2    1    0    0    0  0.70104860114E+01  0.16798028958E+02 -0.22986503850E+02  0.95769357950E+02  0.91170553755E+02 0.  0.
         13    1    3    3    0    0 -0.40382463135E+02 -0.33129722906E+01 -0.33078319363E+01  0.40653069139E+02  0.10566000000E+00 0. -1.
         22    1    1    0    0    0 -0.70104860114E+01 -0.16798028958E+02  0.22986503850E+02  0.29320642050E+02  0.00000000000E+00 0.  1.
</event>
<event>
 5    1  0.2370309E-009  0.9118800E+02  0.7561462E-02  0.1125453E+00
         25   -1    0    0    0    0  0.00000000000E+00  0.00000000000E+00  0.99999998245E-14  0.12509000000E+03  0.12509000000E+03 0.  0.
        -13    1    3    3    0    0 -0.39122274593E+02 -0.25748105228E+02  0.24648945855E+02  0.52925409663E+02  0.10566000000E+00 0.  1.
         23    2    1    0    0    0 -0.23924050141E+02 -0.18587802548E+02 -0.11418009748E+02  0.92713503504E+02  0.86876672397E+02 0.  0.
         13    1    3    3    0    0  0.15198224452E+02  0.71603026803E+01 -0.36066955604E+02  0.39788093841E+02  0.10566000000E+00 0. -1.
         22    1    1    0    0    0  0.23924050141E+02  0.18587802548E+02  0.11418009748E+02  0.32376496496E+02  0.00000000000E+00 0.  1.
</event>
<event>
 5    1  0.2370309E-009  0.9118800E+02  0.7561462E-02  0.1125453E+00
         25   -1    0    0    0    0  0.00000000000E+00  0.00000000000E+00  0.99999998245E-14  0.12509000000E+03  0.12509000000E+03 0.  0.
        -13    1    3    3    0    0 -0.57935306542E+02 -0.13426037334E+01 -0.90994580305E+01  0.58661006038E+02  0.10566000000E+00 0.  1.
         23    2    1    0    0    0 -0.18398705133E+02 -0.13745303553E+02 -0.98411798142E+01  0.10010411317E+03  0.96935746420E+02 0.  0.
         13    1    3    3    0    0  0.39536601410E+02 -0.12402699820E+02 -0.74172178372E+00  0.41443107136E+02  0.10566000000E+00 0. -1.
         22    1    1    0    0    0  0.18398705133E+02  0.13745303553E+02  0.98411798142E+01  0.24985886826E+02  0.00000000000E+00 0.  1.
</event>
<event>
 5    1  0.2370309E-009  0.9118800E+02  0.7561462E-02  0.1125453E+00
         25   -1    0    0    0    0  0.00000000000E+00  0.00000000000E+00  0.99999998245E-14  0.12509000000E+03  0.12509000000E+03 0.  0.
        -13    1    3    3    0    0 -0.29250535844E+01  0.24306565621E+02  0.23314221879E+02  0.33807235566E+02  0.10566000000E+00 0. -1.
         23    2    1    0    0    0 -0.75065000133E+01 -0.15565184025E+02 -0.23787090970E+02  0.95688500157E+02  0.91059545734E+02 0.  0.
         13    1    3    3    0    0 -0.45814464289E+01 -0.39871749646E+02 -0.47101312849E+02  0.61881264591E+02  0.10566000000E+00 0.  1.
         22    1    1    0    0    0  0.75065000133E+01  0.15565184025E+02  0.23787090970E+02  0.29401499843E+02  0.00000000000E+00 0.  1.
</event>
<event>
 5    1  0.2370309E-009  0.9118800E+02  0.7561462E-02  0.1125453E+00
         25   -1    0    0    0    0  0.00000000000E+00  0.00000000000E+00  0.99999998245E-14  0.12509000000E+03  0.12509000000E+03 0.  0.
        -13    1    3    3    0    0 -0.16761080256E+02 -0.38457994859E+02 -0.34740211311E+02  0.54468749076E+02  0.10566000000E+00 0.  1.
         23    2    1    0    0    0 -0.34510946735E+00 -0.40651971511E+00 -0.28742959402E+02  0.96342094441E+02  0.91953015651E+02 0.  0.
         13    1    3    3    0    0  0.16415970789E+02  0.38051475144E+02  0.59972519095E+01  0.41873345365E+02  0.10566000000E+00 0. -1.
         22    1    1    0    0    0  0.34510946735E+00  0.40651971511E+00  0.28742959402E+02  0.28747905559E+02  0.00000000000E+00 0. -1.
</event>
<event>
 5    1  0.2370309E-009  0.9118800E+02  0.7561462E-02  0.1125453E+00
         25   -1    0    0    0    0  0.00000000000E+00  0.00000000000E+00  0.99999998245E-14  0.12509000000E+03  0.12509000000E+03 0.  0.
        -13    1    3    3    0    0  0.37552222053E+02 -0.46194075614E+02  0.17942922948E+02  0.62177340333E+02  0.10566000000E+00 0.  1.
         23    2    1    0    0    0  0.21739241353E+02 -0.19200611911E+02  0.80337118117E+01  0.94993511204E+02  0.90099769884E+02 0.  0.
         13    1    3    3    0    0 -0.15812980700E+02  0.26993463703E+02 -0.99092111364E+01  0.32816170872E+02  0.10566000000E+00 0. -1.
         22    1    1    0    0    0 -0.21739241353E+02  0.19200611911E+02 -0.80337118117E+01  0.30096488796E+02  0.00000000000E+00 0.  1.
</event>
<event>
 5    1  0.2370309E-009  0.9118800E+02  0.7561462E-02  0.1125453E+00
         25   -1    0    0    0    0  0.00000000000E+00  0.00000000000E+00  0.99999998245E-14  0.12509000000E+03  0.12509000000E+03 0.  0.
        -13    1    3    3    0    0  0.10429345950E+02  0.14423282407E+02  0.37989539152E+02  0.41952575384E+02  0.10566000000E+00 0.  1.
         23    2    1    0    0    0 -0.25659969953E+02 -0.64941281227E+01 -0.36457779020E+00  0.98618493148E+02  0.94999297449E+02 0.  0.
         13    1    3    3    0    0 -0.36089315903E+02 -0.20917410530E+02 -0.38354116942E+02  0.56665917764E+02  0.10566000000E+00 0. -1.
         22    1    1    0    0    0  0.25659969953E+02  0.64941281227E+01  0.36457779020E+00  0.26471506852E+02  0.00000000000E+00 0. -1.
</event>
<event>
 5    1  0.2370309E-009  0.9118800E+02  0.7561462E-02  0.1125453E+00
         25   -1    0    0    0    0  0.00000000000E+00  0.00000000000E+00  0.99999998245E-14  0.12509000000E+03  0.12509000000E+03 0.  0.
        -13    1    3    3    0    0  0.54921379997E+01 -0.13587169987E+02 -0.30441665882E+02  0.33785809947E+02  0.10566000000E+00 0.  1.
         23    2    1    0    0    0  0.10848400954E+02  0.79676848040E-01  0.28535221900E+02  0.94562094069E+02  0.89498807781E+02 0.  0.
         13    1    3    3    0    0  0.53562629541E+01  0.13666846835E+02  0.58976887782E+02  0.60776284122E+02  0.10566000000E+00 0. -1.
         22    1    1    0    0    0 -0.10848400954E+02 -0.79676848040E-01 -0.28535221900E+02  0.30527905931E+02  0.00000000000E+00 0. -1.
</event>
<event>
 5    1  0.2370309E-009  0.9118800E+02  0.7561462E-02  0.1125453E+00
         25   -1    0    0    0    0  0.00000000000E+00  0.00000000000E+00  0.99999998245E-14  0.12509000000E+03  0.12509000000E+03 0.  0.
        -13    1    3    3    0    0 -0.37653437099E+01  0.42632063748E+02  0.33592127827E+02  0.54406919493E+02  0.10566000000E+00 0. -1.
         23    2    1    0    0    0 -0.15158061568E+02  0.27485438911E+02 -0.81759836232E+00  0.93691199868E+02  0.88273191191E+02 0.  0.
         13    1    3    3    0    0 -0.11392717858E+02 -0.15146624837E+02 -0.34409726189E+02  0.39284280376E+02  0.10566000000E+00 0.  1.
         22    1    1    0    0    0  0.15158061568E+02 -0.27485438911E+02  0.81759836232E+00  0.31398800132E+02  0.00000000000E+00 0.  1.
</event>
<event>
 5    1  0.2370309E-009  0.9118800E+02  0.7561462E-02  0.1125453E+00
         25   -1    0    0    0    0  0.00000000000E+00  0.00000000000E+00  0.99999998245E-14  0.12509000000E+03  0.12509000000E+03 0.  0.
        -13    1    3    3    0    0  0.51634835481E+02  0.27709753682E+02  0.43978031633E+01  0.58765113128E+02  0.10566000000E+00 0.  1.
         23    2    1    0    0    0  0.27109134582E+02  0.38672434885E+01 -0.10082856943E+02  0.95909102925E+02  0.91362088800E+02 0.  0.
         13    1    3    3    0    0 -0.24525700899E+02 -0.23842510194E+02 -0.14480660106E+02  0.37143989797E+02  0.10566000000E+00 0. -1.
         22    1    1    0    0    0 -0.27109134582E+02 -0.38672434885E+01  0.10082856943E+02  0.29180897075E+02  0.00000000000E+00 0.  1.
</event>
<event>
 5    1  0.2370309E-009  0.9118800E+02  0.7561462E-02  0.1125453E+00
         25   -1    0    0    0    0  0.00000000000E+00  0.00000000000E+00  0.99999998245E-14  0.12509000000E+03  0.12509000000E+03 0.  0.
        -13    1    3    3    0    0 -0.44168580660E+02  0.15514779988E+01  0.41542848328E+02  0.60655502741E+02  0.10566000000E+00 0.  1.
         23    2    1    0    0    0 -0.12816172576E+02 -0.84146935075E+01  0.19623397368E+02  0.10018740836E+03  0.97043174528E+02 0.  0.
         13    1    3    3    0    0  0.31352408084E+02 -0.99661715064E+01 -0.21919450960E+02  0.39531905615E+02  0.10566000000E+00 0. -1.
         22    1    1    0    0    0  0.12816172576E+02  0.84146935075E+01 -0.19623397368E+02  0.24902591644E+02  0.00000000000E+00 0.  1.
</event>
<event>
 5    1  0.2370309E-009  0.9118800E+02  0.7561462E-02  0.1125453E+00
         25   -1    0    0    0    0  0.00000000000E+00  0.00000000000E+00  0.99999998245E-14  0.12509000000E+03  0.12509000000E+03 0.  0.
        -13    1    3    3    0    0 -0.18147052187E+01 -0.33035914924E+02 -0.52153840344E+02  0.61763250049E+02  0.10566000000E+00 0.  1.
         23    2    1    0    0    0 -0.32523064713E+00 -0.21137994344E+02 -0.20375274385E+02  0.95728930774E+02  0.91115069012E+02 0.  0.
         13    1    3    3    0    0  0.14894745716E+01  0.11897920580E+02  0.31778565959E+02  0.33965680725E+02  0.10566000000E+00 0. -1.
         22    1    1    0    0    0  0.32523064713E+00  0.21137994344E+02  0.20375274385E+02  0.29361069226E+02  0.00000000000E+00 0.  1.
</event>
<event>
 5    1  0.2370309E-009  0.9118800E+02  0.7561462E-02  0.1125453E+00
         25   -1    0    0    0    0  0.00000000000E+00  0.00000000000E+00  0.99999998245E-14  0.12509000000E+03  0.12509000000E+03 0.  0.
        -13    1    3    3    0    0 -0.14417951182E+02  0.30363466481E+02 -0.19647818410E+02  0.38934115443E+02  0.10566000000E+00 0.  1.
         23    2    1    0    0    0 -0.76254716345E+01  0.16386808068E+01  0.28572892732E+02  0.95471706809E+02  0.90761244535E+02 0.  0.
         13    1    3    3    0    0  0.67924795475E+01 -0.28724785674E+02  0.48220711142E+02  0.56537591366E+02  0.10566000000E+00 0. -1.
         22    1    1    0    0    0  0.76254716345E+01 -0.16386808068E+01 -0.28572892732E+02  0.29618293191E+02  0.00000000000E+00 0.  1.
</event>
<event>
 5    1  0.2370309E-009  0.9118800E+02  0.7561462E-02  0.1125453E+00
         25   -1    0    0    0    0  0.00000000000E+00  0.00000000000E+00  0.99999998245E-14  0.12509000000E+03  0.12509000000E+03 0.  0.
        -13    1    3    3    0    0  0.42699330857E+02 -0.37717758961E+01 -0.22316477698E+01  0.42923776218E+02  0.10566000000E+00 0.  1.
         23    2    1    0    0    0  0.52856223689E+01  0.30290223807E+02  0.46718349315E+01  0.93989171977E+02  0.88694435819E+02 0.  0.
         13    1    3    3    0    0 -0.37413708488E+02  0.34061999703E+02  0.69034827013E+01  0.51065395759E+02  0.10566000000E+00 0. -1.
         22    1    1    0    0    0 -0.52856223689E+01 -0.30290223807E+02 -0.46718349315E+01  0.31100828023E+02  0.00000000000E+00 0.  1.
</event>
<event>
 5    1  0.2370309E-009  0.9118800E+02  0.7561462E-02  0.1125453E+00
         25   -1    0    0    0    0  0.00000000000E+00  0.00000000000E+00  0.99999998245E-14  0.12509000000E+03  0.12509000000E+03 0.  0.
        -13    1    3    3    0    0  0.76748174458E+01  0.15665492591E+02  0.56001827252E+02  0.58655999697E+02  0.10566000000E+00 0. -1.
         23    2    1    0    0    0 -0.11719627488E+02  0.76391293112E+01  0.29312316496E+02  0.92610500875E+02  0.86728236514E+02 0.  0.
         13    1    3    3    0    0 -0.19394444934E+02 -0.80263632800E+01 -0.26689510756E+02  0.33954501177E+02  0.10566000000E+00 0.  1.
         22    1    1    0    0    0  0.11719627488E+02 -0.76391293112E+01 -0.29312316496E+02  0.32479499125E+02  0.00000000000E+00 0.  1.
</event>
<event>
 5    1  0.2370309E-009  0.9118800E+02  0.7561462E-02  0.1125453E+00
         25   -1    0    0    0    0  0.00000000000E+00  0.00000000000E+00  0.99999998245E-14  0.12509000000E+03  0.12509000000E+03 0.  0.
        -13    1    3    3    0    0  0.24811798440E+02  0.21778415917E+02  0.48082307550E+02  0.58325330733E+02  0.10566000000E+00 0.  1.
         23    2    1    0    0    0  0.24093331893E+02  0.14558394930E+02  0.13120475688E+02  0.94032273313E+02  0.88755202875E+02 0.  0.
         13    1    3    3    0    0 -0.71846654707E+00 -0.72200209864E+01 -0.34961831862E+02  0.35706942580E+02  0.10566000000E+00 0. -1.
         22    1    1    0    0    0 -0.24093331893E+02 -0.14558394930E+02 -0.13120475688E+02  0.31057726687E+02  0.00000000000E+00 0.  1.
</event>
<event>
 5    1  0.2370309E-009  0.9118800E+02  0.7561462E-02  0.1125453E+00
         25   -1    0    0    0    0  0.00000000000E+00  0.00000000000E+00  0.99999998245E-14  0.12509000000E+03  0.12509000000E+03 0.  0.
        -13    1    3    3    0    0 -0.12743118333E+02  0.30559281266E+02  0.88564958999E+01  0.34273975842E+02  0.10566000000E+00 0.  1.
         23    2    1    0    0    0  0.61619656620E+01 -0.16212808147E+02 -0.24732942984E+02  0.94881666092E+02  0.89944355704E+02 0.  0.
         13    1    3    3    0    0  0.18905083995E+02 -0.46772089413E+02 -0.33589438884E+02  0.60607690250E+02  0.10566000000E+00 0. -1.
         22    1    1    0    0    0 -0.61619656620E+01  0.16212808147E+02  0.24732942984E+02  0.30208333908E+02  0.00000000000E+00 0. -1.
</event>
<event>
 5    1  0.2370309E-009  0.9118800E+02  0.7561462E-02  0.1125453E+00
         25   -1    0    0    0    0  0.00000000000E+00  0.00000000000E+00  0.99999998245E-14  0.12509000000E+03  0.12509000000E+03 0.  0.
        -13    1    3    3    0    0  0.41436981528E+02  0.31276335235E+02  0.34518971021E+02  0.62344230754E+02  0.10566000000E+00 0.  1.
         23    2    1    0    0    0  0.18584801224E+02  0.18357821795E+02  0.18151985910E+02  0.93279639265E+02  0.87688038245E+02 0.  0.
         13    1    3    3    0    0 -0.22852180304E+02 -0.12918513440E+02 -0.16366985111E+02  0.30935408512E+02  0.10566000000E+00 0. -1.
         22    1    1    0    0    0 -0.18584801224E+02 -0.18357821795E+02 -0.18151985910E+02  0.31810360735E+02  0.00000000000E+00 0.  1.
</event>
<event>
 5    1  0.2370309E-009  0.9118800E+02  0.7561462E-02  0.1125453E+00
         25   -1    0    0    0    0  0.00000000000E+00  0.00000000000E+00  0.99999998245E-14  0.12509000000E+03  0.12509000000E+03 0.  0.
        -13    1    3    3    0    0 -0.16169273521E+02 -0.49634678440E+02 -0.30759883026E+02  0.60590661639E+02  0.10566000000E+00 0. -1.
         23    2    1    0    0    0 -0.19267837261E+02 -0.28223031550E+02 -0.13195174836E+02  0.88458023510E+02  0.80516583519E+02 0.  0.
         13    1    3    3    0    0 -0.30985637401E+01  0.21411646890E+02  0.17564708190E+02  0.27867361870E+02  0.10566000000E+00 0.  1.
         22    1    1    0    0    0  0.19267837261E+02  0.28223031550E+02  0.13195174836E+02  0.36631976490E+02  0.00000000000E+00 0. -1.
</event>
<event>
 5    1  0.2370309E-009  0.9118800E+02  0.7561462E-02  0.1125453E+00
         25   -1    0    0    0    0  0.00000000000E+00  0.00000000000E+00  0.99999998245E-14  0.12509000000E+03  0.12509000000E+03 0.  0.
        -13    1    3    3    0    0 -0.12263884689E+02 -0.21414952556E+02 -0.25845844571E+02  0.35735443278E+02  0.10566000000E+00 0. -1.
         23    2    1    0    0    0  0.16767698778E+02  0.16847527694E+02  0.13438279214E+02  0.97784647778E+02  0.93894915098E+02 0.  0.
         13    1    3    3    0    0  0.29031583467E+02  0.38262480250E+02  0.39284123786E+02  0.62049204500E+02  0.10566000000E+00 0.  1.
         22    1    1    0    0    0 -0.16767698778E+02 -0.16847527694E+02 -0.13438279214E+02  0.27305352222E+02  0.00000000000E+00 0.  1.
</event>
<event>
 5    1  0.2370309E-009  0.9118800E+02  0.7561462E-02  0.1125453E+00
         25   -1    0    0    0    0  0.00000000000E+00  0.00000000000E+00  0.99999998245E-14  0.12509000000E+03  0.12509000000E+03 0.  0.
        -13    1    3    3    0    0  0.15392312283E+02 -0.22023306786E+01  0.59152370487E+02  0.61161978681E+02  0.10566000000E+00 0.  1.
         23    2    1    0    0    0  0.96365694816E+01  0.78475829124E+01  0.26163464925E+02  0.96124936115E+02  0.91657124204E+02 0.  0.
         13    1    3    3    0    0 -0.57557428015E+01  0.10049913591E+02 -0.32988905562E+02  0.34962957435E+02  0.10566000000E+00 0. -1.
         22    1    1    0    0    0 -0.96365694816E+01 -0.78475829124E+01 -0.26163464925E+02  0.28965063885E+02  0.00000000000E+00 0.  1.
</event>
<event>
 5    1  0.2370309E-009  0.9118800E+02  0.7561462E-02  0.1125453E+00
         25   -1    0    0    0    0  0.00000000000E+00  0.00000000000E+00  0.99999998245E-14  0.12509000000E+03  0.12509000000E+03 0.  0.
        -13    1    3    3    0    0 -0.47700761485E+02  0.23350446212E+02 -0.29916264115E+02  0.60955721693E+02  0.10566000000E+00 0. -1.
         23    2    1    0    0    0 -0.16930825252E+02  0.18664969709E+02 -0.17209577191E+02  0.94574373101E+02  0.89515968198E+02 0.  0.
         13    1    3    3    0    0  0.30769936233E+02 -0.46854765029E+01  0.12706686924E+02  0.33618651408E+02  0.10566000000E+00 0.  1.
         22    1    1    0    0    0  0.16930825252E+02 -0.18664969709E+02  0.17209577191E+02  0.30515626899E+02  0.00000000000E+00 0. -1.
</event>
<event>
 5    1  0.2370309E-009  0.9118800E+02  0.7561462E-02  0.1125453E+00
         25   -1    0    0    0    0  0.00000000000E+00  0.00000000000E+00  0.99999998245E-14  0.12509000000E+03  0.12509000000E+03 0.  0.
        -13    1    3    3    0    0  0.15513146663E+02 -0.56270405824E+02  0.16979329124E+01  0.58394438359E+02  0.10566000000E+00 0. -1.
         23    2    1    0    0    0  0.73054729685E+01 -0.23914275537E+02 -0.15219070548E+02  0.95817442577E+02  0.91236504119E+02 0.  0.
         13    1    3    3    0    0 -0.82076736942E+01  0.32356130287E+02 -0.16917003460E+02  0.37423004218E+02  0.10566000000E+00 0.  1.
         22    1    1    0    0    0 -0.73054729685E+01  0.23914275537E+02  0.15219070548E+02  0.29272557423E+02  0.00000000000E+00 0. -1.
</event>
<event>
 5    1  0.2370309E-009  0.9118800E+02  0.7561462E-02  0.1125453E+00
         25   -1    0    0    0    0  0.00000000000E+00  0.00000000000E+00  0.99999998245E-14  0.12509000000E+03  0.12509000000E+03 0.  0.
        -13    1    3    3    0    0 -0.76825053316E+01  0.26418283221E+02  0.23908371219E+02  0.36449526127E+02  0.10566000000E+00 0.  1.
         23    2    1    0    0    0 -0.13024008548E+02 -0.16344812027E+02 -0.18695364722E+02  0.97049059557E+02  0.92909771391E+02 0.  0.
         13    1    3    3    0    0 -0.53415032163E+01 -0.42763095248E+02 -0.42603735941E+02  0.60599533430E+02  0.10566000000E+00 0. -1.
         22    1    1    0    0    0  0.13024008548E+02  0.16344812027E+02  0.18695364722E+02  0.28040940443E+02  0.00000000000E+00 0. -1.
</event>
<event>
 5    1  0.2370309E-009  0.9118800E+02  0.7561462E-02  0.1125453E+00
         25   -1    0    0    0    0  0.00000000000E+00  0.00000000000E+00  0.99999998245E-14  0.12509000000E+03  0.12509000000E+03 0.  0.
        -13    1    3    3    0    0 -0.22969173326E+02  0.13946765250E+02 -0.21665973002E+02  0.34518411528E+02  0.10566000000E+00 0.  1.
         23    2    1    0    0    0  0.19103181844E+02 -0.17550601181E+02  0.11552309244E+02  0.96692623233E+02  0.92428633985E+02 0.  0.
         13    1    3    3    0    0  0.42072355170E+02 -0.31497366432E+02  0.33218282246E+02  0.62174211705E+02  0.10566000000E+00 0. -1.
         22    1    1    0    0    0 -0.19103181844E+02  0.17550601181E+02 -0.11552309244E+02  0.28397376767E+02  0.00000000000E+00 0. -1.
</event>
<event>
 5    1  0.2370309E-009  0.9118800E+02  0.7561462E-02  0.1125453E+00
         25   -1    0    0    0    0  0.00000000000E+00  0.00000000000E+00  0.99999998245E-14  0.12509000000E+03  0.12509000000E+03 0.  0.
        -13    1    3    3    0    0 -0.98681594985E+01  0.21789368537E+01 -0.11722383120E+02  0.15477524600E+02  0.10566000000E+00 0.  1.
         23    2    1    0    0    0  0.48947207469E+02 -0.55679443726E+01 -0.66530325957E+00  0.75822629947E+02  0.57635036740E+02 0.  0.
         13    1    3    3    0    0  0.58815366967E+02 -0.77468812263E+01  0.11057079860E+02  0.60345105347E+02  0.10566000000E+00 0. -1.
         22    1    1    0    0    0 -0.48947207469E+02  0.55679443726E+01  0.66530325957E+00  0.49267370053E+02  0.00000000000E+00 0. -1.
</event>
<event>
 5    1  0.2370309E-009  0.9118800E+02  0.7561462E-02  0.1125453E+00
         25   -1    0    0    0    0  0.00000000000E+00  0.00000000000E+00  0.99999998245E-14  0.12509000000E+03  0.12509000000E+03 0.  0.
        -13    1    3    3    0    0  0.13187762332E+02 -0.18671191843E+02  0.25606087723E+02  0.34325112857E+02  0.10566000000E+00 0.  1.
         23    2    1    0    0    0 -0.98044822147E+01  0.25502267642E+02 -0.10482803093E+02  0.95825983067E+02  0.91248212825E+02 0.  0.
         13    1    3    3    0    0 -0.22992244547E+02  0.44173459485E+02 -0.36088890816E+02  0.61500870210E+02  0.10566000000E+00 0. -1.
         22    1    1    0    0    0  0.98044822147E+01 -0.25502267642E+02  0.10482803093E+02  0.29264016933E+02  0.00000000000E+00 0. -1.
</event>
<event>
 5    1  0.2370309E-009  0.9118800E+02  0.7561462E-02  0.1125453E+00
         25   -1    0    0    0    0  0.00000000000E+00  0.00000000000E+00  0.99999998245E-14  0.12509000000E+03  0.12509000000E+03 0.  0.
        -13    1    3    3    0    0  0.60337845632E+02 -0.32492628665E+01 -0.13924280218E+02  0.62008951517E+02  0.10566000000E+00 0. -1.
         23    2    1    0    0    0  0.27289076152E+02 -0.12317109153E+01 -0.12223334660E+02  0.95163077351E+02  0.90334880261E+02 0.  0.
         13    1    3    3    0    0 -0.33048769480E+02  0.20175519512E+01  0.17009455584E+01  0.33154125834E+02  0.10566000000E+00 0.  1.
         22    1    1    0    0    0 -0.27289076152E+02  0.12317109153E+01  0.12223334660E+02  0.29926922649E+02  0.00000000000E+00 0. -1.
</event>
<event>
 5    1  0.2370309E-009  0.9118800E+02  0.7561462E-02  0.1125453E+00
         25   -1    0    0    0    0  0.00000000000E+00  0.00000000000E+00  0.99999998245E-14  0.12509000000E+03  0.12509000000E+03 0.  0.
        -13    1    3    3    0    0 -0.38830028105E+02 -0.25562327582E+02  0.94671676821E+01  0.47443040606E+02  0.10566000000E+00 0.  1.
         23    2    1    0    0    0 -0.10151303763E+02 -0.14997339242E+02 -0.25454764080E+02  0.93850375054E+02  0.88498467393E+02 0.  0.
         13    1    3    3    0    0  0.28678724341E+02  0.10564988340E+02 -0.34921931762E+02  0.46407334447E+02  0.10566000000E+00 0. -1.
         22    1    1    0    0    0  0.10151303763E+02  0.14997339242E+02  0.25454764080E+02  0.31239624946E+02  0.00000000000E+00 0.  1.
</event>
<event>
 5    1  0.2370309E-009  0.9118800E+02  0.7561462E-02  0.1125453E+00
         25   -1    0    0    0    0  0.00000000000E+00  0.00000000000E+00  0.99999998245E-14  0.12509000000E+03  0.12509000000E+03 0.  0.
        -13    1    3    3    0    0 -0.15450809507E+02 -0.58464287003E+02  0.93601340414E+01  0.61191695863E+02  0.10566000000E+00 0.  1.
         23    2    1    0    0    0 -0.11600626126E+02 -0.12712213925E+02  0.10786289731E+01  0.10784649833E+03  0.10645904777E+03 0.  0.
         13    1    3    3    0    0  0.38501833813E+01  0.45752073078E+02 -0.82815050683E+01  0.46654802467E+02  0.10566000000E+00 0. -1.
         22    1    1    0    0    0  0.11600626126E+02  0.12712213925E+02 -0.10786289731E+01  0.17243501670E+02  0.00000000000E+00 0.  1.
</event>
<event>
 5    1  0.2370309E-009  0.9118800E+02  0.7561462E-02  0.1125453E+00
         25   -1    0    0    0    0  0.00000000000E+00  0.00000000000E+00  0.99999998245E-14  0.12509000000E+03  0.12509000000E+03 0.  0.
        -13    1    3    3    0    0 -0.13119573576E+02 -0.13156227003E+02 -0.46148209101E+02  0.49748144559E+02  0.10566000000E+00 0. -1.
         23    2    1    0    0    0 -0.31861641933E+01 -0.28712260156E+02 -0.37888406598E+01  0.95954097078E+02  0.91423672575E+02 0.  0.
         13    1    3    3    0    0  0.99334093822E+01 -0.15556033153E+02  0.42359368442E+02  0.46205952519E+02  0.10566000000E+00 0.  1.
         22    1    1    0    0    0  0.31861641933E+01  0.28712260156E+02  0.37888406598E+01  0.29135902922E+02  0.00000000000E+00 0. -1.
</event>
<event>
 5    1  0.2370309E-009  0.9118800E+02  0.7561462E-02  0.1125453E+00
         25   -1    0    0    0    0  0.00000000000E+00  0.00000000000E+00  0.99999998245E-14  0.12509000000E+03  0.12509000000E+03 0.  0.
        -13    1    3    3    0    0 -0.36117527070E+02  0.30398521601E+02  0.85981089325E+01  0.47984211137E+02  0.10566000000E+00 0.  1.
         23    2    1    0    0    0 -0.32696292953E+02  0.23285628505E+01 -0.18753303503E+02  0.87325517082E+02  0.78737473692E+02 0.  0.
         13    1    3    3    0    0  0.34212341172E+01 -0.28069958751E+02 -0.27351412436E+02  0.39341305944E+02  0.10566000000E+00 0. -1.
         22    1    1    0    0    0  0.32696292953E+02 -0.23285628505E+01  0.18753303503E+02  0.37764482918E+02  0.00000000000E+00 0.  1.
</event>
<event>
 5    1  0.2370309E-009  0.9118800E+02  0.7561462E-02  0.1125453E+00
         25   -1    0    0    0    0  0.00000000000E+00  0.00000000000E+00  0.99999998245E-14  0.12509000000E+03  0.12509000000E+03 0.  0.
        -13    1    3    3    0    0 -0.31103960665E+02 -0.41069439194E+02 -0.23816034659E+02  0.56757112996E+02  0.10566000000E+00 0. -1.
         23    2    1    0    0    0  0.35812614093E+01 -0.25974666107E+02 -0.96530195680E+01  0.97149178620E+02  0.93044470051E+02 0.  0.
         13    1    3    3    0    0  0.34685222074E+02  0.15094773087E+02  0.14163015091E+02  0.40392065624E+02  0.10566000000E+00 0.  1.
         22    1    1    0    0    0 -0.35812614093E+01  0.25974666107E+02  0.96530195680E+01  0.27940821380E+02  0.00000000000E+00 0. -1.
</event>
<event>
 5    1  0.2370309E-009  0.9118800E+02  0.7561462E-02  0.1125453E+00
         25   -1    0    0    0    0  0.00000000000E+00  0.00000000000E+00  0.99999998245E-14  0.12509000000E+03  0.12509000000E+03 0.  0.
        -13    1    3    3    0    0 -0.18418910959E+02  0.13370135172E+02  0.44981332967E+02  0.50411787064E+02  0.10566000000E+00 0.  1.
         23    2    1    0    0    0  0.18825567086E+02 -0.14113251594E+01  0.19772080434E+02  0.97752681560E+02  0.93852318952E+02 0.  0.
         13    1    3    3    0    0  0.37244478045E+02 -0.14781460332E+02 -0.25209252533E+02  0.47340894496E+02  0.10566000000E+00 0. -1.
         22    1    1    0    0    0 -0.18825567086E+02  0.14113251594E+01 -0.19772080434E+02  0.27337318440E+02  0.00000000000E+00 0. -1.
</event>
<event>
 5    1  0.2370309E-009  0.9118800E+02  0.7561462E-02  0.1125453E+00
         25   -1    0    0    0    0  0.00000000000E+00  0.00000000000E+00  0.99999998245E-14  0.12509000000E+03  0.12509000000E+03 0.  0.
        -13    1    3    3    0    0  0.20301028699E+02 -0.34677680738E+02  0.82835313841E+01  0.41028055814E+02  0.10566000000E+00 0. -1.
         23    2    1    0    0    0 -0.27524576023E+02 -0.73164465318E+01  0.44902814057E+01  0.96257807884E+02  0.91838283283E+02 0.  0.
         13    1    3    3    0    0 -0.47825604722E+02  0.27361234207E+02 -0.37932499784E+01  0.55229752070E+02  0.10566000000E+00 0.  1.
         22    1    1    0    0    0  0.27524576023E+02  0.73164465318E+01 -0.44902814057E+01  0.28832192116E+02  0.00000000000E+00 0.  1.
</event>
<event>
 5    1  0.2370309E-009  0.9118800E+02  0.7561462E-02  0.1125453E+00
         25   -1    0    0    0    0  0.00000000000E+00  0.00000000000E+00  0.99999998245E-14  0.12509000000E+03  0.12509000000E+03 0.  0.
        -13    1    3    3    0    0 -0.15416275334E+02 -0.87640636928E+00  0.36917628754E+02  0.40016897808E+02  0.10566000000E+00 0.  1.
         23    2    1    0    0    0 -0.91868141298E+01 -0.21269368408E+02 -0.15909260517E+02  0.96985051031E+02  0.92823552868E+02 0.  0.
         13    1    3    3    0    0  0.62294612038E+01 -0.20392962039E+02 -0.52826889271E+02  0.56968153224E+02  0.10566000000E+00 0. -1.
         22    1    1    0    0    0  0.91868141298E+01  0.21269368408E+02  0.15909260517E+02  0.28104948969E+02  0.00000000000E+00 0. -1.
</event>
<event>
 5    1  0.2370309E-009  0.9118800E+02  0.7561462E-02  0.1125453E+00
         25   -1    0    0    0    0  0.00000000000E+00  0.00000000000E+00  0.99999998245E-14  0.12509000000E+03  0.12509000000E+03 0.  0.
        -13    1    3    3    0    0  0.27385170366E+02  0.85879282959E+01  0.13766762924E+02  0.31831352372E+02  0.10566000000E+00 0.  1.
         23    2    1    0    0    0 -0.23160856087E+02 -0.13523539691E+01 -0.20851026009E+02  0.93896741087E+02  0.88563980179E+02 0.  0.
         13    1    3    3    0    0 -0.50546026453E+02 -0.99402822649E+01 -0.34617788933E+02  0.62065388715E+02  0.10566000000E+00 0. -1.
         22    1    1    0    0    0  0.23160856087E+02  0.13523539691E+01  0.20851026009E+02  0.31193258913E+02  0.00000000000E+00 0. -1.
</event>
<event>
 5    1  0.2370309E-009  0.9118800E+02  0.7561462E-02  0.1125453E+00
         25   -1    0    0    0    0  0.00000000000E+00  0.00000000000E+00  0.99999998245E-14  0.12509000000E+03  0.12509000000E+03 0.  0.
        -13    1    3    3    0    0 -0.46753750203E+02 -0.15023526244E+02  0.17278894489E+02  0.52059493444E+02  0.10566000000E+00 0.  1.
         23    2    1    0    0    0 -0.36278707287E+01 -0.23293185737E+02  0.17092284439E+02  0.95971618603E+02  0.91447643174E+02 0.  0.
         13    1    3    3    0    0  0.43125879475E+02 -0.82696594935E+01 -0.18661004937E+00  0.43912125159E+02  0.10566000000E+00 0. -1.
         22    1    1    0    0    0  0.36278707287E+01  0.23293185737E+02 -0.17092284439E+02  0.29118381397E+02  0.00000000000E+00 0.  1.
</event>
<event>
 5    1  0.2370309E-009  0.9118800E+02  0.7561462E-02  0.1125453E+00
         25   -1    0    0    0    0  0.00000000000E+00  0.00000000000E+00  0.99999998245E-14  0.12509000000E+03  0.12509000000E+03 0.  0.
        -13    1    3    3    0    0  0.44565276426E+02 -0.41283119827E+02  0.15596438716E+01  0.60768441634E+02  0.10566000000E+00 0. -1.
         23    2    1    0    0    0  0.13462391393E+02 -0.23775019061E+02 -0.56711079443E+01  0.97185717556E+02  0.93093580435E+02 0.  0.
         13    1    3    3    0    0 -0.31102885032E+02  0.17508100766E+02 -0.72307518160E+01  0.36417275923E+02  0.10566000000E+00 0.  1.
         22    1    1    0    0    0 -0.13462391393E+02  0.23775019061E+02  0.56711079443E+01  0.27904282444E+02  0.00000000000E+00 0. -1.
</event>
<event>
 5    1  0.2370309E-009  0.9118800E+02  0.7561462E-02  0.1125453E+00
         25   -1    0    0    0    0  0.00000000000E+00  0.00000000000E+00  0.99999998245E-14  0.12509000000E+03  0.12509000000E+03 0.  0.
        -13    1    3    3    0    0  0.44933256493E+02  0.29901980506E+02 -0.13886772207E+02  0.55731316005E+02  0.10566000000E+00 0.  1.
         23    2    1    0    0    0  0.98290038536E+01  0.23495644105E+02  0.89467486183E+01  0.98095576140E+02  0.94308234735E+02 0.  0.
         13    1    3    3    0    0 -0.35104252640E+02 -0.64063364010E+01  0.22833520825E+02  0.42364260135E+02  0.10566000000E+00 0. -1.
         22    1    1    0    0    0 -0.98290038536E+01 -0.23495644105E+02 -0.89467486183E+01  0.26994423860E+02  0.00000000000E+00 0.  1.
</event>
<event>
 5    1  0.2370309E-009  0.9118800E+02  0.7561462E-02  0.1125453E+00
         25   -1    0    0    0    0  0.00000000000E+00  0.00000000000E+00  0.99999998245E-14  0.12509000000E+03  0.12509000000E+03 0.  0.
        -13    1    3    3    0    0  0.51934094595E+01 -0.17395140804E+02  0.40681393328E+02  0.44548281140E+02  0.10566000000E+00 0.  1.
         23    2    1    0    0    0 -0.23453118080E+02 -0.17124356985E+02 -0.20323022082E+01  0.95979476094E+02  0.91458390698E+02 0.  0.
         13    1    3    3    0    0 -0.28646527540E+02  0.27078381890E+00 -0.42713695536E+02  0.51431194954E+02  0.10566000000E+00 0. -1.
         22    1    1    0    0    0  0.23453118080E+02  0.17124356985E+02  0.20323022082E+01  0.29110523906E+02  0.00000000000E+00 0. -1.
</event>
<event>
 5    1  0.2370309E-009  0.9118800E+02  0.7561462E-02  0.1125453E+00
         25   -1    0    0    0    0  0.00000000000E+00  0.00000000000E+00  0.99999998245E-14  0.12509000000E+03  0.12509000000E+03 0.  0.
        -13    1    3    3    0    0 -0.24184759566E+02 -0.15484989082E+02  0.51944366811E+02  0.59354156464E+02  0.10566000000E+00 0.  1.
         23    2    1    0    0    0  0.15620773823E-01 -0.19689706014E+01  0.30825162348E+02  0.94202013289E+02  0.88994109832E+02 0.  0.
         13    1    3    3    0    0  0.24200380340E+02  0.13516018481E+02 -0.21119204462E+02  0.34847856825E+02  0.10566000000E+00 0. -1.
         22    1    1    0    0    0 -0.15620773823E-01  0.19689706014E+01 -0.30825162348E+02  0.30887986711E+02  0.00000000000E+00 0.  1.
</event>
<event>
 5    1  0.2370309E-009  0.9118800E+02  0.7561462E-02  0.1125453E+00
         25   -1    0    0    0    0  0.00000000000E+00  0.00000000000E+00  0.99999998245E-14  0.12509000000E+03  0.12509000000E+03 0.  0.
        -13    1    3    3    0    0  0.22644270506E+02  0.99254684093E+01 -0.27537651774E+02  0.37008260418E+02  0.10566000000E+00 0.  1.
         23    2    1    0    0    0  0.32850134825E+01 -0.16873067652E+01  0.27941914079E+02  0.96905094818E+02  0.92715740420E+02 0.  0.
         13    1    3    3    0    0 -0.19359257024E+02 -0.11612775175E+02  0.55479565854E+02  0.59896834400E+02  0.10566000000E+00 0. -1.
         22    1    1    0    0    0 -0.32850134825E+01  0.16873067652E+01 -0.27941914079E+02  0.28184905182E+02  0.00000000000E+00 0. -1.
</event>
<event>
 5    1  0.2370309E-009  0.9118800E+02  0.7561462E-02  0.1125453E+00
         25   -1    0    0    0    0  0.00000000000E+00  0.00000000000E+00  0.99999998245E-14  0.12509000000E+03  0.12509000000E+03 0.  0.
        -13    1    3    3    0    0 -0.26519045022E+02  0.23338757955E+02 -0.40812397281E+02  0.53977961313E+02  0.10566000000E+00 0.  1.
         23    2    1    0    0    0  0.78422694849E+01  0.15450068066E+02 -0.29272691978E+02  0.91073881915E+02  0.84482872096E+02 0.  0.
         13    1    3    3    0    0  0.34361314507E+02 -0.78886898887E+01  0.11539705303E+02  0.37095920602E+02  0.10566000000E+00 0. -1.
         22    1    1    0    0    0 -0.78422694849E+01 -0.15450068066E+02  0.29272691978E+02  0.34016118085E+02  0.00000000000E+00 0.  1.
</event>
<event>
 5    1  0.2370309E-009  0.9118800E+02  0.7561462E-02  0.1125453E+00
         25   -1    0    0    0    0  0.00000000000E+00  0.00000000000E+00  0.99999998245E-14  0.12509000000E+03  0.12509000000E+03 0.  0.
        -13    1    3    3    0    0 -0.25431424072E+01  0.37330275592E+02 -0.15812338144E+02  0.40620909033E+02  0.10566000000E+00 0.  1.
         23    2    1    0    0    0 -0.25955791345E+02 -0.11830209741E+02 -0.55153583538E+01  0.96037011434E+02  0.91537049442E+02 0.  0.
         13    1    3    3    0    0 -0.23412648938E+02 -0.49160485333E+02  0.10296979790E+02  0.55416102400E+02  0.10566000000E+00 0. -1.
         22    1    1    0    0    0  0.25955791345E+02  0.11830209741E+02  0.55153583538E+01  0.29052988566E+02  0.00000000000E+00 0. -1.
</event>
<event>
 5    1  0.2370309E-009  0.9118800E+02  0.7561462E-02  0.1125453E+00
         25   -1    0    0    0    0  0.00000000000E+00  0.00000000000E+00  0.99999998245E-14  0.12509000000E+03  0.12509000000E+03 0.  0.
        -13    1    3    3    0    0 -0.14193809642E+02 -0.45117495369E+02 -0.26494394173E+02  0.54212698763E+02  0.10566000000E+00 0. -1.
         23    2    1    0    0    0 -0.12232953478E+02 -0.40374929685E+01 -0.26815382795E+02  0.95340861278E+02  0.90580729598E+02 0.  0.
         13    1    3    3    0    0  0.19608561645E+01  0.41080002400E+02 -0.32098862265E+00  0.41128162515E+02  0.10566000000E+00 0.  1.
         22    1    1    0    0    0  0.12232953478E+02  0.40374929685E+01  0.26815382795E+02  0.29749138722E+02  0.00000000000E+00 0. -1.
</event>
<event>
 5    1  0.2370309E-009  0.9118800E+02  0.7561462E-02  0.1125453E+00
         25   -1    0    0    0    0  0.00000000000E+00  0.00000000000E+00  0.99999998245E-14  0.12509000000E+03  0.12509000000E+03 0.  0.
        -13    1    3    3    0    0 -0.42018474397E+02  0.13803456910E+02 -0.20558073850E+02  0.48772258280E+02  0.10566000000E+00 0. -1.
         23    2    1    0    0    0 -0.39211925653E+01 -0.18956362659E+02 -0.17308198571E+02  0.99122844319E+02  0.95661094975E+02 0.  0.
         13    1    3    3    0    0  0.38097281831E+02 -0.32759819569E+02  0.32498752793E+01  0.50350586039E+02  0.10566000000E+00 0.  1.
         22    1    1    0    0    0  0.39211925653E+01  0.18956362659E+02  0.17308198571E+02  0.25967155681E+02  0.00000000000E+00 0. -1.
</event>
<event>
 5    1  0.2370309E-009  0.9118800E+02  0.7561462E-02  0.1125453E+00
         25   -1    0    0    0    0  0.00000000000E+00  0.00000000000E+00  0.99999998245E-14  0.12509000000E+03  0.12509000000E+03 0.  0.
        -13    1    3    3    0    0  0.21573481014E+02  0.11323167532E+02 -0.28218043315E+02  0.37281340354E+02  0.10566000000E+00 0.  1.
         23    2    1    0    0    0 -0.29537033901E+02  0.82106642155E+01 -0.18137581559E+02  0.89469454757E+02  0.82072894985E+02 0.  0.
         13    1    3    3    0    0 -0.51110514915E+02 -0.31125033160E+01  0.10080461756E+02  0.52188114404E+02  0.10566000000E+00 0. -1.
         22    1    1    0    0    0  0.29537033901E+02 -0.82106642155E+01  0.18137581559E+02  0.35620545243E+02  0.00000000000E+00 0. -1.
</event>
<event>
 5    1  0.2370309E-009  0.9118800E+02  0.7561462E-02  0.1125453E+00
         25   -1    0    0    0    0  0.00000000000E+00  0.00000000000E+00  0.99999998245E-14  0.12509000000E+03  0.12509000000E+03 0.  0.
        -13    1    3    3    0    0  0.32618236451E+02  0.39591405765E+01  0.40901260414E+02  0.52464734925E+02  0.10566000000E+00 0. -1.
         23    2    1    0    0    0 -0.57385084838E+01  0.14226827077E+02  0.26050142377E+02  0.94858509693E+02  0.89912145203E+02 0.  0.
         13    1    3    3    0    0 -0.38356744935E+02  0.10267686501E+02 -0.14851118037E+02  0.42393774768E+02  0.10566000000E+00 0.  1.
         22    1    1    0    0    0  0.57385084838E+01 -0.14226827077E+02 -0.26050142377E+02  0.30231490307E+02  0.00000000000E+00 0. -1.
</event>
<event>
 5    1  0.2370309E-009  0.9118800E+02  0.7561462E-02  0.1125453E+00
         25   -1    0    0    0    0  0.00000000000E+00  0.00000000000E+00  0.99999998245E-14  0.12509000000E+03  0.12509000000E+03 0.  0.
        -13    1    3    3    0    0  0.33288557120E+02  0.84101977923E+01 -0.16849864525E+02  0.38246418924E+02  0.10566000000E+00 0.  1.
         23    2    1    0    0    0 -0.36528325424E+01 -0.28877462748E+02  0.57945798320E+01  0.95411250097E+02  0.90677882912E+02 0.  0.
         13    1    3    3    0    0 -0.36941389662E+02 -0.37287660541E+02  0.22644444357E+02  0.57164831173E+02  0.10566000000E+00 0. -1.
         22    1    1    0    0    0  0.36528325424E+01  0.28877462748E+02 -0.57945798320E+01  0.29678749903E+02  0.00000000000E+00 0. -1.
</event>
<event>
 5    1  0.2370309E-009  0.9118800E+02  0.7561462E-02  0.1125453E+00
         25   -1    0    0    0    0  0.00000000000E+00  0.00000000000E+00  0.99999998245E-14  0.12509000000E+03  0.12509000000E+03 0.  0.
        -13    1    3    3    0    0 -0.58881286119E+01 -0.33693370649E+02  0.19702696738E+02  0.39473037722E+02  0.10566000000E+00 0.  1.
         23    2    1    0    0    0 -0.10142146493E+02 -0.16684610978E+01 -0.26965272982E+02  0.96232196118E+02  0.91803391684E+02 0.  0.
         13    1    3    3    0    0 -0.42540178806E+01  0.32024909551E+02 -0.46667969720E+02  0.56759158395E+02  0.10566000000E+00 0. -1.
         22    1    1    0    0    0  0.10142146493E+02  0.16684610978E+01  0.26965272982E+02  0.28857803882E+02  0.00000000000E+00 0. -1.
</event>
<event>
 5    1  0.2370309E-009  0.9118800E+02  0.7561462E-02  0.1125453E+00
         25   -1    0    0    0    0  0.00000000000E+00  0.00000000000E+00  0.99999998245E-14  0.12509000000E+03  0.12509000000E+03 0.  0.
        -13    1    3    3    0    0  0.31674781101E+02 -0.10767429499E+01 -0.25765323439E+02  0.40845002010E+02  0.10566000000E+00 0.  1.
         23    2    1    0    0    0 -0.60589749145E+01  0.24870519530E+02  0.85852865926E+01  0.98090721036E+02  0.94301794727E+02 0.  0.
         13    1    3    3    0    0 -0.37733756016E+02  0.25947262480E+02  0.34350610032E+02  0.57245719026E+02  0.10566000000E+00 0. -1.
         22    1    1    0    0    0  0.60589749145E+01 -0.24870519530E+02 -0.85852865926E+01  0.26999278964E+02  0.00000000000E+00 0. -1.
</event>
<event>
 5    1  0.2370309E-009  0.9118800E+02  0.7561462E-02  0.1125453E+00
         25   -1    0    0    0    0  0.00000000000E+00  0.00000000000E+00  0.99999998245E-14  0.12509000000E+03  0.12509000000E+03 0.  0.
        -13    1    3    3    0    0 -0.20390752675E+02  0.53759175388E+02 -0.10495917466E+01  0.57506039160E+02  0.10566000000E+00 0. -1.
         23    2    1    0    0    0  0.36478460417E+01  0.25509837962E+02  0.11780937823E+02  0.96755407898E+02  0.92513565751E+02 0.  0.
         13    1    3    3    0    0  0.24038598716E+02 -0.28249337426E+02  0.12830529570E+02  0.39249368738E+02  0.10566000000E+00 0.  1.
         22    1    1    0    0    0 -0.36478460417E+01 -0.25509837962E+02 -0.11780937823E+02  0.28334592102E+02  0.00000000000E+00 0. -1.
</event>
<event>
 5    1  0.2370309E-009  0.9118800E+02  0.7561462E-02  0.1125453E+00
         25   -1    0    0    0    0  0.00000000000E+00  0.00000000000E+00  0.99999998245E-14  0.12509000000E+03  0.12509000000E+03 0.  0.
        -13    1    3    3    0    0 -0.28947516863E+02 -0.28895234630E+02  0.83050107826E+01  0.41735808187E+02  0.10566000000E+00 0. -1.
         23    2    1    0    0    0 -0.21269529581E+02  0.21207494412E+02 -0.61218198702E+01  0.94436657828E+02  0.89323316974E+02 0.  0.
         13    1    3    3    0    0  0.76779872823E+01  0.50102729042E+02 -0.14426830653E+02  0.52700849641E+02  0.10566000000E+00 0.  1.
         22    1    1    0    0    0  0.21269529581E+02 -0.21207494412E+02  0.61218198702E+01  0.30653342172E+02  0.00000000000E+00 0.  1.
</event>
<event>
 5    1  0.2370309E-009  0.9118800E+02  0.7561462E-02  0.1125453E+00
         25   -1    0    0    0    0  0.00000000000E+00  0.00000000000E+00  0.99999998245E-14  0.12509000000E+03  0.12509000000E+03 0.  0.
        -13    1    3    3    0    0  0.48987549441E+02 -0.35374046943E+02  0.82546131586E+01  0.60985678645E+02  0.10566000000E+00 0.  1.
         23    2    1    0    0    0  0.25177411892E+02 -0.11244574425E+02 -0.43937976300E+01  0.97167822772E+02  0.93069532077E+02 0.  0.
         13    1    3    3    0    0 -0.23810137549E+02  0.24129472518E+02 -0.12648410789E+02  0.36182144127E+02  0.10566000000E+00 0. -1.
         22    1    1    0    0    0 -0.25177411892E+02  0.11244574425E+02  0.43937976300E+01  0.27922177228E+02  0.00000000000E+00 0.  1.
</event>
<event>
 5    1  0.2370309E-009  0.9118800E+02  0.7561462E-02  0.1125453E+00
         25   -1    0    0    0    0  0.00000000000E+00  0.00000000000E+00  0.99999998245E-14  0.12509000000E+03  0.12509000000E+03 0.  0.
        -13    1    3    3    0    0  0.15750123113E+01  0.19797836847E+02 -0.54179054741E+02  0.57704559129E+02  0.10566000000E+00 0. -1.
         23    2    1    0    0    0  0.69210720246E+01  0.22943758300E+02 -0.16255701105E+02  0.96132011442E+02  0.91666779821E+02 0.  0.
         13    1    3    3    0    0  0.53460597134E+01  0.31459214535E+01  0.37923353636E+02  0.38427452314E+02  0.10566000000E+00 0.  1.
         22    1    1    0    0    0 -0.69210720246E+01 -0.22943758300E+02  0.16255701105E+02  0.28957988558E+02  0.00000000000E+00 0. -1.
</event>
<event>
 5    1  0.2370309E-009  0.9118800E+02  0.7561462E-02  0.1125453E+00
         25   -1    0    0    0    0  0.00000000000E+00  0.00000000000E+00  0.99999998245E-14  0.12509000000E+03  0.12509000000E+03 0.  0.
        -13    1    3    3    0    0  0.15072579513E+01  0.24821960920E+02 -0.29642887012E+02  0.38692550767E+02  0.10566000000E+00 0.  1.
         23    2    1    0    0    0 -0.55183684475E+01  0.11985646597E+02  0.25841711876E+02  0.96074449215E+02  0.91588195771E+02 0.  0.
         13    1    3    3    0    0 -0.70256263987E+01 -0.12836314323E+02  0.55484598888E+02  0.57381898448E+02  0.10566000000E+00 0. -1.
         22    1    1    0    0    0  0.55183684475E+01 -0.11985646597E+02 -0.25841711876E+02  0.29015550785E+02  0.00000000000E+00 0. -1.
</event>
<event>
 5    1  0.2370309E-009  0.9118800E+02  0.7561462E-02  0.1125453E+00
         25   -1    0    0    0    0  0.00000000000E+00  0.00000000000E+00  0.99999998245E-14  0.12509000000E+03  0.12509000000E+03 0.  0.
        -13    1    3    3    0    0 -0.76445276774E+01  0.27127836344E+01 -0.29955762514E+02  0.31034768732E+02  0.10566000000E+00 0. -1.
         23    2    1    0    0    0 -0.24909534243E+02 -0.53682728590E+01  0.25115259280E+02  0.89311801354E+02  0.81832257470E+02 0.  0.
         13    1    3    3    0    0 -0.17265006565E+02 -0.80810564934E+01  0.55071021793E+02  0.58277032621E+02  0.10566000000E+00 0.  1.
         22    1    1    0    0    0  0.24909534243E+02  0.53682728590E+01 -0.25115259280E+02  0.35778198646E+02  0.00000000000E+00 0.  1.
</event>
<event>
 5    1  0.2370309E-009  0.9118800E+02  0.7561462E-02  0.1125453E+00
         25   -1    0    0    0    0  0.00000000000E+00  0.00000000000E+00  0.99999998245E-14  0.12509000000E+03  0.12509000000E+03 0.  0.
        -13    1    3    3    0    0  0.11453838480E+02  0.32415025225E+02 -0.97009093497E+00  0.34392971909E+02  0.10566000000E+00 0.  1.
         23    2    1    0    0    0 -0.87695087156E-01 -0.27835595632E+02  0.73485454212E+01  0.96300606216E+02  0.91896559039E+02 0.  0.
         13    1    3    3    0    0 -0.11541533567E+02 -0.60250620857E+02  0.83186363561E+01  0.61907634308E+02  0.10566000000E+00 0. -1.
         22    1    1    0    0    0  0.87695087156E-01  0.27835595632E+02 -0.73485454212E+01  0.28789393784E+02  0.00000000000E+00 0. -1.
</event>
<event>
 5    1  0.2370309E-009  0.9118800E+02  0.7561462E-02  0.1125453E+00
         25   -1    0    0    0    0  0.00000000000E+00  0.00000000000E+00  0.99999998245E-14  0.12509000000E+03  0.12509000000E+03 0.  0.
        -13    1    3    3    0    0  0.11532975506E+02  0.16536459258E+02 -0.50909433462E+02  0.54756237894E+02  0.10566000000E+00 0.  1.
         23    2    1    0    0    0  0.71602255205E+01 -0.14336014906E+02 -0.25470937053E+02  0.94997496162E+02  0.90105302230E+02 0.  0.
         13    1    3    3    0    0 -0.43727499854E+01 -0.30872474164E+02  0.25438496409E+02  0.40241258269E+02  0.10566000000E+00 0. -1.
         22    1    1    0    0    0 -0.71602255205E+01  0.14336014906E+02  0.25470937053E+02  0.30092503838E+02  0.00000000000E+00 0.  1.
</event>
<event>
 5    1  0.2370309E-009  0.9118800E+02  0.7561462E-02  0.1125453E+00
         25   -1    0    0    0    0  0.00000000000E+00  0.00000000000E+00  0.99999998245E-14  0.12509000000E+03  0.12509000000E+03 0.  0.
        -13    1    3    3    0    0  0.21602346105E+02  0.45360242841E+02  0.46378202619E+01  0.50455262646E+02  0.10566000000E+00 0.  1.
         23    2    1    0    0    0  0.19142895175E+02  0.43290386292E+01  0.22464794350E+02  0.95259512301E+02  0.90468318695E+02 0.  0.
         13    1    3    3    0    0 -0.24594509298E+01 -0.41031204212E+02  0.17826974088E+02  0.44804249655E+02  0.10566000000E+00 0. -1.
         22    1    1    0    0    0 -0.19142895175E+02 -0.43290386292E+01 -0.22464794350E+02  0.29830487699E+02  0.00000000000E+00 0. -1.
</event>
<event>
 5    1  0.2370309E-009  0.9118800E+02  0.7561462E-02  0.1125453E+00
         25   -1    0    0    0    0  0.00000000000E+00  0.00000000000E+00  0.99999998245E-14  0.12509000000E+03  0.12509000000E+03 0.  0.
        -13    1    3    3    0    0 -0.50079860136E+02  0.20670797379E+02 -0.13420087467E+02  0.55815626551E+02  0.10566000000E+00 0. -1.
         23    2    1    0    0    0 -0.27520159365E+02 -0.17484365382E+01  0.10469714143E+02  0.95593710131E+02  0.90929237875E+02 0.  0.
         13    1    3    3    0    0  0.22559700771E+02 -0.22419233918E+02  0.23889801610E+02  0.39778083580E+02  0.10566000000E+00 0.  1.
         22    1    1    0    0    0  0.27520159365E+02  0.17484365382E+01 -0.10469714143E+02  0.29496289869E+02  0.00000000000E+00 0. -1.
</event>
<event>
 5    1  0.2370309E-009  0.9118800E+02  0.7561462E-02  0.1125453E+00
         25   -1    0    0    0    0  0.00000000000E+00  0.00000000000E+00  0.99999998245E-14  0.12509000000E+03  0.12509000000E+03 0.  0.
        -13    1    3    3    0    0  0.40287815636E+02  0.28592906074E+02  0.27322771953E+02  0.56455357564E+02  0.10566000000E+00 0.  1.
         23    2    1    0    0    0  0.39162522250E+01  0.14079629592E+02  0.25549852635E+02  0.95655870650E+02  0.91014711004E+02 0.  0.
         13    1    3    3    0    0 -0.36371563411E+02 -0.14513276483E+02 -0.17729193182E+01  0.39200513085E+02  0.10566000000E+00 0. -1.
         22    1    1    0    0    0 -0.39162522250E+01 -0.14079629592E+02 -0.25549852635E+02  0.29434129350E+02  0.00000000000E+00 0.  1.
</event>
<event>
 5    1  0.2370309E-009  0.9118800E+02  0.7561462E-02  0.1125453E+00
         25   -1    0    0    0    0  0.00000000000E+00  0.00000000000E+00  0.99999998245E-14  0.12509000000E+03  0.12509000000E+03 0.  0.
        -13    1    3    3    0    0  0.57049652121E+01 -0.51470344295E+02  0.21467522226E+02  0.56058974701E+02  0.10566000000E+00 0. -1.
         23    2    1    0    0    0 -0.14302742456E+02 -0.12338680400E+02  0.15975429132E+02  0.10035084456E+03  0.97253617890E+02 0.  0.
         13    1    3    3    0    0 -0.20007707668E+02  0.39131663895E+02 -0.54920930939E+01  0.44291869862E+02  0.10566000000E+00 0.  1.
         22    1    1    0    0    0  0.14302742456E+02  0.12338680400E+02 -0.15975429132E+02  0.24739155437E+02  0.00000000000E+00 0. -1.
</event>
<event>
 5    1  0.2370309E-009  0.9118800E+02  0.7561462E-02  0.1125453E+00
         25   -1    0    0    0    0  0.00000000000E+00  0.00000000000E+00  0.99999998245E-14  0.12509000000E+03  0.12509000000E+03 0.  0.
        -13    1    3    3    0    0  0.29067524389E+02  0.53731731389E+02  0.10243232801E+02  0.61943158738E+02  0.10566000000E+00 0. -1.
         23    2    1    0    0    0  0.84171140725E+01  0.24955209425E+02  0.85398094308E+01  0.97403565923E+02  0.93385844873E+02 0.  0.
         13    1    3    3    0    0 -0.20650410316E+02 -0.28776521964E+02 -0.17034233698E+01  0.35460407186E+02  0.10566000000E+00 0.  1.
         22    1    1    0    0    0 -0.84171140725E+01 -0.24955209425E+02 -0.85398094308E+01  0.27686434077E+02  0.00000000000E+00 0. -1.
</event>
<event>
 5    1  0.2370309E-009  0.9118800E+02  0.7561462E-02  0.1125453E+00
         25   -1    0    0    0    0  0.00000000000E+00  0.00000000000E+00  0.99999998245E-14  0.12509000000E+03  0.12509000000E+03 0.  0.
        -13    1    3    3    0    0  0.70281047311E+01 -0.27911021703E+02 -0.45826437991E+02  0.54115552031E+02  0.10566000000E+00 0.  1.
         23    2    1    0    0    0  0.14770443555E+02 -0.36227532944E+02 -0.22761596435E+02  0.79827538530E+02  0.65755193631E+02 0.  0.
         13    1    3    3    0    0  0.77423388239E+01 -0.83165112414E+01  0.23064841556E+02  0.25711986499E+02  0.10566000000E+00 0. -1.
         22    1    1    0    0    0 -0.14770443555E+02  0.36227532944E+02  0.22761596435E+02  0.45262461470E+02  0.00000000000E+00 0.  1.
</event>
<event>
 5    1  0.2370309E-009  0.9118800E+02  0.7561462E-02  0.1125453E+00
         25   -1    0    0    0    0  0.00000000000E+00  0.00000000000E+00  0.99999998245E-14  0.12509000000E+03  0.12509000000E+03 0.  0.
        -13    1    3    3    0    0  0.64686909797E+00 -0.32278285328E+02  0.11824038418E+02  0.34382047523E+02  0.10566000000E+00 0.  1.
         23    2    1    0    0    0 -0.83098605245E+01  0.27880016822E+02  0.29224634550E+01  0.95851499481E+02  0.91283185966E+02 0.  0.
         13    1    3    3    0    0 -0.89567296224E+01  0.60158302150E+02 -0.89015749632E+01  0.61469451958E+02  0.10566000000E+00 0. -1.
         22    1    1    0    0    0  0.83098605245E+01 -0.27880016822E+02 -0.29224634550E+01  0.29238500519E+02  0.00000000000E+00 0. -1.
</event>
<event>
 5    1  0.2370309E-009  0.9118800E+02  0.7561462E-02  0.1125453E+00
         25   -1    0    0    0    0  0.00000000000E+00  0.00000000000E+00  0.99999998245E-14  0.12509000000E+03  0.12509000000E+03 0.  0.
        -13    1    3    3    0    0  0.63247908682E+01  0.11647478636E+01 -0.28530630817E+02  0.29246669485E+02  0.10566000000E+00 0.  1.
         23    2    1    0    0    0 -0.15964489419E+02  0.15847526571E+02  0.26452709475E+02  0.90366018958E+02  0.83428187820E+02 0.  0.
         13    1    3    3    0    0 -0.22289280287E+02  0.14682778708E+02  0.54983340292E+02  0.61119349473E+02  0.10566000000E+00 0. -1.
         22    1    1    0    0    0  0.15964489419E+02 -0.15847526571E+02 -0.26452709475E+02  0.34723981042E+02  0.00000000000E+00 0. -1.
</event>
<event>
 5    1  0.2370309E-009  0.9118800E+02  0.7561462E-02  0.1125453E+00
         25   -1    0    0    0    0  0.00000000000E+00  0.00000000000E+00  0.99999998245E-14  0.12509000000E+03  0.12509000000E+03 0.  0.
        -13    1    3    3    0    0 -0.63540923892E+01 -0.56524119714E+02  0.22162980435E+01  0.56923402398E+02  0.10566000000E+00 0. -1.
         23    2    1    0    0    0  0.15325824498E+02 -0.26215890874E+02 -0.31012413663E+01  0.94565067095E+02  0.89502963000E+02 0.  0.
         13    1    3    3    0    0  0.21679916887E+02  0.30308228841E+02 -0.53175394098E+01  0.37641664696E+02  0.10566000000E+00 0.  1.
         22    1    1    0    0    0 -0.15325824498E+02  0.26215890874E+02  0.31012413663E+01  0.30524932905E+02  0.00000000000E+00 0. -1.
</event>
<event>
 5    1  0.2370309E-009  0.9118800E+02  0.7561462E-02  0.1125453E+00
         25   -1    0    0    0    0  0.00000000000E+00  0.00000000000E+00  0.99999998245E-14  0.12509000000E+03  0.12509000000E+03 0.  0.
        -13    1    3    3    0    0 -0.25938827173E+02  0.37964384323E+02  0.14460003871E+02  0.48199793652E+02  0.10566000000E+00 0. -1.
         23    2    1    0    0    0 -0.14863592982E+02  0.12068934768E+02 -0.23061879002E+02  0.95116080572E+02  0.90269778650E+02 0.  0.
         13    1    3    3    0    0  0.11075234191E+02 -0.25895449555E+02 -0.37521882873E+02  0.46916286921E+02  0.10566000000E+00 0.  1.
         22    1    1    0    0    0  0.14863592982E+02 -0.12068934768E+02  0.23061879002E+02  0.29973919428E+02  0.00000000000E+00 0.  1.
</event>
<event>
 5    1  0.2370309E-009  0.9118800E+02  0.7561462E-02  0.1125453E+00
         25   -1    0    0    0    0  0.00000000000E+00  0.00000000000E+00  0.99999998245E-14  0.12509000000E+03  0.12509000000E+03 0.  0.
        -13    1    3    3    0    0  0.25963601087E+02 -0.27615716481E+02  0.90451982991E+01  0.38968745867E+02  0.10566000000E+00 0. -1.
         23    2    1    0    0    0  0.12346702133E+02  0.22715382432E+02 -0.13672250898E+02  0.95843460082E+02  0.91272168503E+02 0.  0.
         13    1    3    3    0    0 -0.13616898954E+02  0.50331098913E+02 -0.22717449197E+02  0.56874714214E+02  0.10566000000E+00 0.  1.
         22    1    1    0    0    0 -0.12346702133E+02 -0.22715382432E+02  0.13672250898E+02  0.29246539918E+02  0.00000000000E+00 0.  1.
</event>
<event>
 5    1  0.2370309E-009  0.9118800E+02  0.7561462E-02  0.1125453E+00
         25   -1    0    0    0    0  0.00000000000E+00  0.00000000000E+00  0.99999998245E-14  0.12509000000E+03  0.12509000000E+03 0.  0.
        -13    1    3    3    0    0  0.16466107229E+02 -0.36880308111E+02 -0.44480337429E+02  0.60081622777E+02  0.10566000000E+00 0.  1.
         23    2    1    0    0    0 -0.20496160762E+01 -0.23422250265E+02 -0.15863126536E+02  0.96727321758E+02  0.92475581952E+02 0.  0.
         13    1    3    3    0    0 -0.18515723305E+02  0.13458057846E+02  0.28617210893E+02  0.36645698981E+02  0.10566000000E+00 0. -1.
         22    1    1    0    0    0  0.20496160762E+01  0.23422250265E+02  0.15863126536E+02  0.28362678242E+02  0.00000000000E+00 0.  1.
</event>
<event>
 5    1  0.2370309E-009  0.9118800E+02  0.7561462E-02  0.1125453E+00
         25   -1    0    0    0    0  0.00000000000E+00  0.00000000000E+00  0.99999998245E-14  0.12509000000E+03  0.12509000000E+03 0.  0.
        -13    1    3    3    0    0  0.84715460720E+01 -0.18964840836E+02 -0.37260785986E+02  0.42659226635E+02  0.10566000000E+00 0.  1.
         23    2    1    0    0    0 -0.14001598357E+02  0.22319058183E+02 -0.10666954110E+02  0.96665204051E+02  0.92391518277E+02 0.  0.
         13    1    3    3    0    0 -0.22473144429E+02  0.41283899019E+02  0.26593831877E+02  0.54005977416E+02  0.10566000000E+00 0. -1.
         22    1    1    0    0    0  0.14001598357E+02 -0.22319058183E+02  0.10666954110E+02  0.28424795949E+02  0.00000000000E+00 0. -1.
</event>
<event>
 5    1  0.2370309E-009  0.9118800E+02  0.7561462E-02  0.1125453E+00
         25   -1    0    0    0    0  0.00000000000E+00  0.00000000000E+00  0.99999998245E-14  0.12509000000E+03  0.12509000000E+03 0.  0.
        -13    1    3    3    0    0  0.18233694996E+02 -0.85720846961E+01 -0.48557798125E+02  0.52572038120E+02  0.10566000000E+00 0. -1.
         23    2    1    0    0    0  0.23301416927E+02 -0.15395989954E+02 -0.52923607964E+01  0.96664630693E+02  0.92390741997E+02 0.  0.
         13    1    3    3    0    0  0.50677219307E+01 -0.68239052577E+01  0.43265437329E+02  0.44092592573E+02  0.10566000000E+00 0.  1.
         22    1    1    0    0    0 -0.23301416927E+02  0.15395989954E+02  0.52923607964E+01  0.28425369307E+02  0.00000000000E+00 0.  1.
</event>
<event>
 5    1  0.2370309E-009  0.9118800E+02  0.7561462E-02  0.1125453E+00
         25   -1    0    0    0    0  0.00000000000E+00  0.00000000000E+00  0.99999998245E-14  0.12509000000E+03  0.12509000000E+03 0.  0.
        -13    1    3    3    0    0  0.38020924847E+02  0.15235886427E+02  0.24073176506E+02  0.47510545698E+02  0.10566000000E+00 0.  1.
         23    2    1    0    0    0 -0.97661892758E+01 -0.53087114189E+01  0.23007695556E+02  0.99537800003E+02  0.96202176195E+02 0.  0.
         13    1    3    3    0    0 -0.47787114122E+02 -0.20544597846E+02 -0.10654809503E+01  0.52027254305E+02  0.10566000000E+00 0. -1.
         22    1    1    0    0    0  0.97661892758E+01  0.53087114189E+01 -0.23007695556E+02  0.25552199997E+02  0.00000000000E+00 0.  1.
</event>
<event>
 5    1  0.2370309E-009  0.9118800E+02  0.7561462E-02  0.1125453E+00
         25   -1    0    0    0    0  0.00000000000E+00  0.00000000000E+00  0.99999998245E-14  0.12509000000E+03  0.12509000000E+03 0.  0.
        -13    1    3    3    0    0  0.40806426865E+02  0.10986618060E+01 -0.33386214370E+02  0.52735396132E+02  0.10566000000E+00 0.  1.
         23    2    1    0    0    0  0.94372407322E+01  0.23358732930E+02 -0.17824492423E+02  0.94228949356E+02  0.89031963080E+02 0.  0.
         13    1    3    3    0    0 -0.31369186133E+02  0.22260071124E+02  0.15561721948E+02  0.41493553223E+02  0.10566000000E+00 0. -1.
         22    1    1    0    0    0 -0.94372407322E+01 -0.23358732930E+02  0.17824492423E+02  0.30861050644E+02  0.00000000000E+00 0.  1.
</event>
<event>
 5    1  0.2370309E-009  0.9118800E+02  0.7561462E-02  0.1125453E+00
         25   -1    0    0    0    0  0.00000000000E+00  0.00000000000E+00  0.99999998245E-14  0.12509000000E+03  0.12509000000E+03 0.  0.
        -13    1    3    3    0    0 -0.59954240269E+01 -0.29432050987E+02  0.13599396361E+02  0.32971889239E+02  0.10566000000E+00 0.  1.
         23    2    1    0    0    0 -0.25649526128E+01  0.29472638463E+02 -0.55170660557E+01  0.94995923876E+02  0.90103119454E+02 0.  0.
         13    1    3    3    0    0  0.34304714140E+01  0.58904689450E+02 -0.19116462416E+02  0.62024034637E+02  0.10566000000E+00 0. -1.
         22    1    1    0    0    0  0.25649526128E+01 -0.29472638463E+02  0.55170660557E+01  0.30094076124E+02  0.00000000000E+00 0. -1.
</event>
<event>
 5    1  0.2370309E-009  0.9118800E+02  0.7561462E-02  0.1125453E+00
         25   -1    0    0    0    0  0.00000000000E+00  0.00000000000E+00  0.99999998245E-14  0.12509000000E+03  0.12509000000E+03 0.  0.
        -13    1    3    3    0    0  0.28685074944E+02 -0.24747554371E+01 -0.28364274901E+02  0.40416595523E+02  0.10566000000E+00 0.  1.
         23    2    1    0    0    0 -0.12087725846E+02  0.25984859588E+02 -0.28886273833E+01  0.96286003540E+02  0.91876679661E+02 0.  0.
         13    1    3    3    0    0 -0.40772800789E+02  0.28459615025E+02  0.25475647518E+02  0.55869408016E+02  0.10566000000E+00 0. -1.
         22    1    1    0    0    0  0.12087725846E+02 -0.25984859588E+02  0.28886273833E+01  0.28803996460E+02  0.00000000000E+00 0. -1.
</event>
<event>
 5    1  0.2370309E-009  0.9118800E+02  0.7561462E-02  0.1125453E+00
         25   -1    0    0    0    0  0.00000000000E+00  0.00000000000E+00  0.99999998245E-14  0.12509000000E+03  0.12509000000E+03 0.  0.
        -13    1    3    3    0    0 -0.29387825017E+01  0.34098008285E+02 -0.14701456782E+02  0.37248551746E+02  0.10566000000E+00 0.  1.
         23    2    1    0    0    0  0.14263259780E+02 -0.20158353247E+02 -0.18411806464E+02  0.94287493569E+02  0.89114179798E+02 0.  0.
         13    1    3    3    0    0  0.17202042281E+02 -0.54256361533E+02 -0.37103496816E+01  0.57038941823E+02  0.10566000000E+00 0. -1.
         22    1    1    0    0    0 -0.14263259780E+02  0.20158353247E+02  0.18411806464E+02  0.30802506431E+02  0.00000000000E+00 0. -1.
</event>
<event>
 5    1  0.2370309E-009  0.9118800E+02  0.7561462E-02  0.1125453E+00
         25   -1    0    0    0    0  0.00000000000E+00  0.00000000000E+00  0.99999998245E-14  0.12509000000E+03  0.12509000000E+03 0.  0.
        -13    1    3    3    0    0  0.36609608027E+01 -0.87452429586E+01 -0.33278776360E+02  0.34603034960E+02  0.10566000000E+00 0.  1.
         23    2    1    0    0    0 -0.16353752703E+02  0.19146301751E+02  0.16437125448E+02  0.95019995158E+02  0.90136531377E+02 0.  0.
         13    1    3    3    0    0 -0.20014713506E+02  0.27891544709E+02  0.49715901808E+02  0.60416960198E+02  0.10566000000E+00 0. -1.
         22    1    1    0    0    0  0.16353752703E+02 -0.19146301751E+02 -0.16437125448E+02  0.30070004842E+02  0.00000000000E+00 0. -1.
</event>
<event>
 5    1  0.2370309E-009  0.9118800E+02  0.7561462E-02  0.1125453E+00
         25   -1    0    0    0    0  0.00000000000E+00  0.00000000000E+00  0.99999998245E-14  0.12509000000E+03  0.12509000000E+03 0.  0.
        -13    1    3    3    0    0 -0.24464361907E+01  0.19325375661E+02 -0.27404696499E+02  0.33622667186E+02  0.10566000000E+00 0.  1.
         23    2    1    0    0    0  0.19332989490E+02 -0.16661040414E+02  0.16715645914E+02  0.94581516449E+02  0.89525949786E+02 0.  0.
         13    1    3    3    0    0  0.21779425680E+02 -0.35986416075E+02  0.44120342412E+02  0.60958849263E+02  0.10566000000E+00 0. -1.
         22    1    1    0    0    0 -0.19332989490E+02  0.16661040414E+02 -0.16715645914E+02  0.30508483551E+02  0.00000000000E+00 0. -1.
</event>
<event>
 5    1  0.2370309E-009  0.9118800E+02  0.7561462E-02  0.1125453E+00
         25   -1    0    0    0    0  0.00000000000E+00  0.00000000000E+00  0.99999998245E-14  0.12509000000E+03  0.12509000000E+03 0.  0.
        -13    1    3    3    0    0 -0.23711710165E+02 -0.94399284133E+01 -0.29327123376E+02  0.38877355581E+02  0.10566000000E+00 0.  1.
         23    2    1    0    0    0 -0.77979236210E+00  0.30272689336E+02  0.25096111840E+01  0.94703457846E+02  0.89696170397E+02 0.  0.
         13    1    3    3    0    0  0.22931917803E+02  0.39712617750E+02  0.31836734560E+02  0.55826102265E+02  0.10566000000E+00 0. -1.
         22    1    1    0    0    0  0.77979236210E+00 -0.30272689336E+02 -0.25096111840E+01  0.30386542154E+02  0.00000000000E+00 0. -1.
</event>
<event>
 5    1  0.2370309E-009  0.9118800E+02  0.7561462E-02  0.1125453E+00
         25   -1    0    0    0    0  0.00000000000E+00  0.00000000000E+00  0.99999998245E-14  0.12509000000E+03  0.12509000000E+03 0.  0.
        -13    1    3    3    0    0  0.24982201795E+02  0.12152774844E+02  0.28117074784E+02  0.39526970556E+02  0.10566000000E+00 0. -1.
         23    2    1    0    0    0  0.12205279958E+02 -0.23387900500E+02 -0.13272583750E+02  0.95558250509E+02  0.90880443508E+02 0.  0.
         13    1    3    3    0    0 -0.12776921838E+02 -0.35540675343E+02 -0.41389658533E+02  0.56031279952E+02  0.10566000000E+00 0.  1.
         22    1    1    0    0    0 -0.12205279958E+02  0.23387900500E+02  0.13272583750E+02  0.29531749491E+02  0.00000000000E+00 0.  1.
</event>
<event>
 5    1  0.2370309E-009  0.9118800E+02  0.7561462E-02  0.1125453E+00
         25   -1    0    0    0    0  0.00000000000E+00  0.00000000000E+00  0.99999998245E-14  0.12509000000E+03  0.12509000000E+03 0.  0.
        -13    1    3    3    0    0 -0.52377494911E+02 -0.82190725632E+01 -0.20099843959E+02  0.56700705623E+02  0.10566000000E+00 0. -1.
         23    2    1    0    0    0 -0.19230158670E+02 -0.20741941148E+02 -0.16567014983E+02  0.92310538282E+02  0.86294509486E+02 0.  0.
         13    1    3    3    0    0  0.33147336240E+02 -0.12522868584E+02  0.35328289755E+01  0.35609832659E+02  0.10566000000E+00 0.  1.
         22    1    1    0    0    0  0.19230158670E+02  0.20741941148E+02  0.16567014983E+02  0.32779461718E+02  0.00000000000E+00 0. -1.
</event>
<event>
 5    1  0.2370309E-009  0.9118800E+02  0.7561462E-02  0.1125453E+00
         25   -1    0    0    0    0  0.00000000000E+00  0.00000000000E+00  0.99999998245E-14  0.12509000000E+03  0.12509000000E+03 0.  0.
        -13    1    3    3    0    0  0.89252202508E+01  0.38954362864E+02  0.38069616047E+02  0.55194282066E+02  0.10566000000E+00 0.  1.
         23    2    1    0    0    0 -0.77181924367E+01  0.69369395787E+01  0.31567594807E+02  0.91860424813E+02  0.85639552660E+02 0.  0.
         13    1    3    3    0    0 -0.16643412687E+02 -0.32017423286E+02 -0.65020212405E+01  0.36666142748E+02  0.10566000000E+00 0. -1.
         22    1    1    0    0    0  0.77181924367E+01 -0.69369395787E+01 -0.31567594807E+02  0.33229575187E+02  0.00000000000E+00 0.  1.
</event>
<event>
 5    1  0.2370309E-009  0.9118800E+02  0.7561462E-02  0.1125453E+00
         25   -1    0    0    0    0  0.00000000000E+00  0.00000000000E+00  0.99999998245E-14  0.12509000000E+03  0.12509000000E+03 0.  0.
        -13    1    3    3    0    0 -0.87983710328E+01 -0.22920576168E+02 -0.25027195481E+02  0.35059033392E+02  0.10566000000E+00 0.  1.
         23    2    1    0    0    0  0.17506040296E+02  0.49381212522E+01  0.22532260401E+02  0.96132285188E+02  0.91667153378E+02 0.  0.
         13    1    3    3    0    0  0.26304411329E+02  0.27858697420E+02  0.47559455881E+02  0.61073251797E+02  0.10566000000E+00 0. -1.
         22    1    1    0    0    0 -0.17506040296E+02 -0.49381212522E+01 -0.22532260401E+02  0.28957714812E+02  0.00000000000E+00 0. -1.
</event>
<event>
 5    1  0.2370309E-009  0.9118800E+02  0.7561462E-02  0.1125453E+00
         25   -1    0    0    0    0  0.00000000000E+00  0.00000000000E+00  0.99999998245E-14  0.12509000000E+03  0.12509000000E+03 0.  0.
        -13    1    3    3    0    0 -0.32305778129E+02  0.29681888253E+02 -0.11722953664E+02  0.45410533992E+02  0.10566000000E+00 0.  1.
         23    2    1    0    0    0  0.14521261266E+01 -0.29021936969E+01 -0.29372529392E+02  0.95538741457E+02  0.90853586819E+02 0.  0.
         13    1    3    3    0    0  0.33757904256E+02 -0.32584081950E+02 -0.17649575728E+02  0.50128207465E+02  0.10566000000E+00 0. -1.
         22    1    1    0    0    0 -0.14521261266E+01  0.29021936969E+01  0.29372529392E+02  0.29551258543E+02  0.00000000000E+00 0. -1.
</event>
<event>
 5    1  0.2370309E-009  0.9118800E+02  0.7561462E-02  0.1125453E+00
         25   -1    0    0    0    0  0.00000000000E+00  0.00000000000E+00  0.99999998245E-14  0.12509000000E+03  0.12509000000E+03 0.  0.
        -13    1    3    3    0    0 -0.37900708634E+02  0.88671606008E+01 -0.17463185378E+02  0.42662211144E+02  0.10566000000E+00 0. -1.
         23    2    1    0    0    0  0.14121884566E+02  0.11994079289E+02 -0.23541323530E+02  0.95132038199E+02  0.90291888986E+02 0.  0.
         13    1    3    3    0    0  0.52022593201E+02  0.31269186879E+01 -0.60781381523E+01  0.52469827055E+02  0.10566000000E+00 0.  1.
         22    1    1    0    0    0 -0.14121884566E+02 -0.11994079289E+02  0.23541323530E+02  0.29957961801E+02  0.00000000000E+00 0. -1.
</event>
<event>
 5    1  0.2370309E-009  0.9118800E+02  0.7561462E-02  0.1125453E+00
         25   -1    0    0    0    0  0.00000000000E+00  0.00000000000E+00  0.99999998245E-14  0.12509000000E+03  0.12509000000E+03 0.  0.
        -13    1    3    3    0    0 -0.14572444462E+02 -0.26775583359E+01  0.32202171083E+02  0.35447375682E+02  0.10566000000E+00 0. -1.
         23    2    1    0    0    0  0.25136370553E+02 -0.10571074302E+02 -0.11920196221E+02  0.95329693980E+02  0.90565306491E+02 0.  0.
         13    1    3    3    0    0  0.39708815015E+02 -0.78935159664E+01 -0.44122367304E+02  0.59882318298E+02  0.10566000000E+00 0.  1.
         22    1    1    0    0    0 -0.25136370553E+02  0.10571074302E+02  0.11920196221E+02  0.29760306020E+02  0.00000000000E+00 0.  1.
</event>
<event>
 5    1  0.2370309E-009  0.9118800E+02  0.7561462E-02  0.1125453E+00
         25   -1    0    0    0    0  0.00000000000E+00  0.00000000000E+00  0.99999998245E-14  0.12509000000E+03  0.12509000000E+03 0.  0.
        -13    1    3    3    0    0 -0.22790737624E+02 -0.20152828162E+02  0.26987581734E+02  0.40668107114E+02  0.10566000000E+00 0. -1.
         23    2    1    0    0    0  0.19579684337E+02  0.82882383912E+01 -0.78157769488E+01  0.10243728926E+03  0.99901215849E+02 0.  0.
         13    1    3    3    0    0  0.42370421961E+02  0.28441066553E+02 -0.34803358683E+02  0.61769182150E+02  0.10566000000E+00 0.  1.
         22    1    1    0    0    0 -0.19579684337E+02 -0.82882383912E+01  0.78157769488E+01  0.22652710736E+02  0.00000000000E+00 0.  1.
</event>
<event>
 5    1  0.2370309E-009  0.9118800E+02  0.7561462E-02  0.1125453E+00
         25   -1    0    0    0    0  0.00000000000E+00  0.00000000000E+00  0.99999998245E-14  0.12509000000E+03  0.12509000000E+03 0.  0.
        -13    1    3    3    0    0  0.15598320126E+02 -0.34658830285E+02  0.10074351849E+02  0.39319789377E+02  0.10566000000E+00 0. -1.
         23    2    1    0    0    0 -0.28320915764E+02 -0.44292629844E+01 -0.75018458010E+01  0.95459435869E+02  0.90744330763E+02 0.  0.
         13    1    3    3    0    0 -0.43919235890E+02  0.30229567300E+02 -0.17576197650E+02  0.56139646492E+02  0.10566000000E+00 0.  1.
         22    1    1    0    0    0  0.28320915764E+02  0.44292629844E+01  0.75018458010E+01  0.29630564131E+02  0.00000000000E+00 0.  1.
</event>
<event>
 5    1  0.2370309E-009  0.9118800E+02  0.7561462E-02  0.1125453E+00
         25   -1    0    0    0    0  0.00000000000E+00  0.00000000000E+00  0.99999998245E-14  0.12509000000E+03  0.12509000000E+03 0.  0.
        -13    1    3    3    0    0 -0.43779455535E+02  0.11449975387E+02 -0.53829338022E+01  0.45571151002E+02  0.10566000000E+00 0.  1.
         23    2    1    0    0    0 -0.15142096914E+01  0.20388419195E+02  0.20668285275E+02  0.96018390405E+02  0.91511599327E+02 0.  0.
         13    1    3    3    0    0  0.42265245843E+02  0.89384438083E+01  0.26051219077E+02  0.50447239403E+02  0.10566000000E+00 0. -1.
         22    1    1    0    0    0  0.15142096914E+01 -0.20388419195E+02 -0.20668285275E+02  0.29071609595E+02  0.00000000000E+00 0.  1.
</event>
<event>
 5    1  0.2370309E-009  0.9118800E+02  0.7561462E-02  0.1125453E+00
         25   -1    0    0    0    0  0.00000000000E+00  0.00000000000E+00  0.99999998245E-14  0.12509000000E+03  0.12509000000E+03 0.  0.
        -13    1    3    3    0    0  0.63809147442E+01  0.31534818303E+01 -0.35309968085E+02  0.36020348843E+02  0.10566000000E+00 0.  1.
         23    2    1    0    0    0 -0.22099259193E+01 -0.23407271962E+02  0.17517632985E+02  0.95770183857E+02  0.91171686928E+02 0.  0.
         13    1    3    3    0    0 -0.85908406635E+01 -0.26560753792E+02  0.52827601070E+02  0.59749835013E+02  0.10566000000E+00 0. -1.
         22    1    1    0    0    0  0.22099259193E+01  0.23407271962E+02 -0.17517632985E+02  0.29319816143E+02  0.00000000000E+00 0. -1.
</event>
<event>
 5    1  0.2370309E-009  0.9118800E+02  0.7561462E-02  0.1125453E+00
         25   -1    0    0    0    0  0.00000000000E+00  0.00000000000E+00  0.99999998245E-14  0.12509000000E+03  0.12509000000E+03 0.  0.
        -13    1    3    3    0    0 -0.53867849622E+02 -0.17385541113E+02  0.28805623002E+01  0.56677253514E+02  0.10566000000E+00 0.  1.
         23    2    1    0    0    0 -0.15633001939E+02 -0.19110948821E+02  0.14222311104E+02  0.96596259502E+02  0.92298126211E+02 0.  0.
         13    1    3    3    0    0  0.38234847683E+02 -0.17254077075E+01  0.11341748804E+02  0.39919005988E+02  0.10566000000E+00 0. -1.
         22    1    1    0    0    0  0.15633001939E+02  0.19110948821E+02 -0.14222311104E+02  0.28493740498E+02  0.00000000000E+00 0.  1.
</event>
<event>
 5    1  0.2370309E-009  0.9118800E+02  0.7561462E-02  0.1125453E+00
         25   -1    0    0    0    0  0.00000000000E+00  0.00000000000E+00  0.99999998245E-14  0.12509000000E+03  0.12509000000E+03 0.  0.
        -13    1    3    3    0    0  0.39496428857E+02  0.93075465838E+00 -0.24193649318E+02  0.46326860762E+02  0.10566000000E+00 0.  1.
         23    2    1    0    0    0  0.32097043122E+02 -0.29509740455E+02 -0.15124708384E+02  0.78940224675E+02  0.64044963183E+02 0.  0.
         13    1    3    3    0    0 -0.73993857358E+01 -0.30440495113E+02  0.90689409340E+01  0.32613363913E+02  0.10566000000E+00 0. -1.
         22    1    1    0    0    0 -0.32097043122E+02  0.29509740455E+02  0.15124708384E+02  0.46149775325E+02  0.00000000000E+00 0.  1.
</event>
<event>
 5    1  0.2370309E-009  0.9118800E+02  0.7561462E-02  0.1125453E+00
         25   -1    0    0    0    0  0.00000000000E+00  0.00000000000E+00  0.99999998245E-14  0.12509000000E+03  0.12509000000E+03 0.  0.
        -13    1    3    3    0    0 -0.22303225290E+02 -0.17327985424E+02 -0.28682627490E+02  0.40254157809E+02  0.10566000000E+00 0. -1.
         23    2    1    0    0    0  0.27519237010E+02 -0.54280823055E+01 -0.53809419412E+01  0.96529064804E+02  0.92207013468E+02 0.  0.
         13    1    3    3    0    0  0.49822462300E+02  0.11899903118E+02  0.23301685549E+02  0.56274906995E+02  0.10566000000E+00 0.  1.
         22    1    1    0    0    0 -0.27519237010E+02  0.54280823055E+01  0.53809419412E+01  0.28560935196E+02  0.00000000000E+00 0.  1.
</event>
<event>
 5    1  0.2370309E-009  0.9118800E+02  0.7561462E-02  0.1125453E+00
         25   -1    0    0    0    0  0.00000000000E+00  0.00000000000E+00  0.99999998245E-14  0.12509000000E+03  0.12509000000E+03 0.  0.
        -13    1    3    3    0    0  0.16045300205E+02 -0.21458372270E+02 -0.49741792445E+02  0.56499296269E+02  0.10566000000E+00 0.  1.
         23    2    1    0    0    0 -0.65938000277E+01 -0.22281441940E+02 -0.17068151827E+02  0.96258373953E+02  0.91839054304E+02 0.  0.
         13    1    3    3    0    0 -0.22639100233E+02 -0.82306966984E+00  0.32673640618E+02  0.39759077684E+02  0.10566000000E+00 0. -1.
         22    1    1    0    0    0  0.65938000277E+01  0.22281441940E+02  0.17068151827E+02  0.28831626047E+02  0.00000000000E+00 0.  1.
</event>
<event>
 5    1  0.2370309E-009  0.9118800E+02  0.7561462E-02  0.1125453E+00
         25   -1    0    0    0    0  0.00000000000E+00  0.00000000000E+00  0.99999998245E-14  0.12509000000E+03  0.12509000000E+03 0.  0.
        -13    1    3    3    0    0  0.32126869986E+02 -0.26363213190E+02 -0.16798877790E+02  0.44825977333E+02  0.10566000000E+00 0.  1.
         23    2    1    0    0    0 -0.17655311712E+02 -0.22434311188E+02 -0.59222304463E+01  0.95933848615E+02  0.91395963514E+02 0.  0.
         13    1    3    3    0    0 -0.49782181698E+02  0.39289020025E+01  0.10876647344E+02  0.51107871282E+02  0.10566000000E+00 0. -1.
         22    1    1    0    0    0  0.17655311712E+02  0.22434311188E+02  0.59222304463E+01  0.29156151385E+02  0.00000000000E+00 0. -1.
</event>
<event>
 5    1  0.2370309E-009  0.9118800E+02  0.7561462E-02  0.1125453E+00
         25   -1    0    0    0    0  0.00000000000E+00  0.00000000000E+00  0.99999998245E-14  0.12509000000E+03  0.12509000000E+03 0.  0.
        -13    1    3    3    0    0  0.16947577770E+02 -0.22758110352E+02 -0.55007217177E+01  0.28903651716E+02  0.10566000000E+00 0.  1.
         23    2    1    0    0    0  0.17734098850E+02  0.32506594722E+02 -0.15278765210E+02  0.85032321226E+02  0.75005853267E+02 0.  0.
         13    1    3    3    0    0  0.78652107949E+00  0.55264705074E+02 -0.97780434919E+01  0.56128669510E+02  0.10566000000E+00 0. -1.
         22    1    1    0    0    0 -0.17734098850E+02 -0.32506594722E+02  0.15278765210E+02  0.40057678774E+02  0.00000000000E+00 0. -1.
</event>
<event>
 5    1  0.2370309E-009  0.9118800E+02  0.7561462E-02  0.1125453E+00
         25   -1    0    0    0    0  0.00000000000E+00  0.00000000000E+00  0.99999998245E-14  0.12509000000E+03  0.12509000000E+03 0.  0.
        -13    1    3    3    0    0 -0.14107216465E+02 -0.39470241252E+02  0.11404254033E+02  0.43439402331E+02  0.10566000000E+00 0.  1.
         23    2    1    0    0    0  0.26784687294E+02 -0.81090493069E+01  0.11127869216E+02  0.94973465880E+02  0.90071935662E+02 0.  0.
         13    1    3    3    0    0  0.40891903759E+02  0.31361191945E+02 -0.27638481693E+00  0.51534063549E+02  0.10566000000E+00 0. -1.
         22    1    1    0    0    0 -0.26784687294E+02  0.81090493069E+01 -0.11127869216E+02  0.30116534120E+02  0.00000000000E+00 0. -1.
</event>
<event>
 5    1  0.2370309E-009  0.9118800E+02  0.7561462E-02  0.1125453E+00
         25   -1    0    0    0    0  0.00000000000E+00  0.00000000000E+00  0.99999998245E-14  0.12509000000E+03  0.12509000000E+03 0.  0.
        -13    1    3    3    0    0 -0.19336670606E+02  0.34855454678E+02 -0.65364329959E+00  0.39865373001E+02  0.10566000000E+00 0.  1.
         23    2    1    0    0    0 -0.22334409027E+02 -0.19109501246E+02  0.80590202422E+01  0.94611373527E+02  0.89567657829E+02 0.  0.
         13    1    3    3    0    0 -0.29977384208E+01 -0.53964955924E+02  0.87126635418E+01  0.54746000525E+02  0.10566000000E+00 0. -1.
         22    1    1    0    0    0  0.22334409027E+02  0.19109501246E+02 -0.80590202422E+01  0.30478626473E+02  0.00000000000E+00 0. -1.
</event>
<event>
 5    1  0.2370309E-009  0.9118800E+02  0.7561462E-02  0.1125453E+00
         25   -1    0    0    0    0  0.00000000000E+00  0.00000000000E+00  0.99999998245E-14  0.12509000000E+03  0.12509000000E+03 0.  0.
        -13    1    3    3    0    0 -0.38297142824E+02 -0.26996640009E+02 -0.71496697423E+01  0.47398509066E+02  0.10566000000E+00 0. -1.
         23    2    1    0    0    0 -0.21454359970E+02  0.16972785180E+02 -0.12920740562E+02  0.94835900522E+02  0.89880684759E+02 0.  0.
         13    1    3    3    0    0  0.16842782854E+02  0.43969425189E+02 -0.57710708200E+01  0.47437391456E+02  0.10566000000E+00 0.  1.
         22    1    1    0    0    0  0.21454359970E+02 -0.16972785180E+02  0.12920740562E+02  0.30254099478E+02  0.00000000000E+00 0.  1.
</event>
<event>
 5    1  0.2370309E-009  0.9118800E+02  0.7561462E-02  0.1125453E+00
         25   -1    0    0    0    0  0.00000000000E+00  0.00000000000E+00  0.99999998245E-14  0.12509000000E+03  0.12509000000E+03 0.  0.
        -13    1    3    3    0    0  0.13436029710E+02  0.11755545346E+02 -0.45326191231E+02  0.48715444331E+02  0.10566000000E+00 0.  1.
         23    2    1    0    0    0  0.69215580240E+00  0.28445896553E+02 -0.23610734333E+01  0.96537893630E+02  0.92218990064E+02 0.  0.
         13    1    3    3    0    0 -0.12743873908E+02  0.16690351208E+02  0.42965117798E+02  0.47822449300E+02  0.10566000000E+00 0. -1.
         22    1    1    0    0    0 -0.69215580240E+00 -0.28445896553E+02  0.23610734333E+01  0.28552106370E+02  0.00000000000E+00 0. -1.
</event>
<event>
 5    1  0.2370309E-009  0.9118800E+02  0.7561462E-02  0.1125453E+00
         25   -1    0    0    0    0  0.00000000000E+00  0.00000000000E+00  0.99999998245E-14  0.12509000000E+03  0.12509000000E+03 0.  0.
        -13    1    3    3    0    0 -0.10164437528E+02 -0.42388949455E+02  0.43569581138E+02  0.61631634659E+02  0.10566000000E+00 0. -1.
         23    2    1    0    0    0  0.63993901007E+00 -0.15645153278E+02  0.23802500418E+02  0.96598959844E+02  0.92301785864E+02 0.  0.
         13    1    3    3    0    0  0.10804376538E+02  0.26743796177E+02 -0.19767080721E+02  0.34967325185E+02  0.10566000000E+00 0.  1.
         22    1    1    0    0    0 -0.63993901007E+00  0.15645153278E+02 -0.23802500418E+02  0.28491040156E+02  0.00000000000E+00 0. -1.
</event>
<event>
 5    1  0.2370309E-009  0.9118800E+02  0.7561462E-02  0.1125453E+00
         25   -1    0    0    0    0  0.00000000000E+00  0.00000000000E+00  0.99999998245E-14  0.12509000000E+03  0.12509000000E+03 0.  0.
        -13    1    3    3    0    0 -0.29766755180E+02  0.16651073494E+02  0.52001633406E+02  0.62189219350E+02  0.10566000000E+00 0.  1.
         23    2    1    0    0    0 -0.97815451026E+01  0.10591803339E+02  0.19094215914E+02  0.10116398897E+03  0.98293940098E+02 0.  0.
         13    1    3    3    0    0  0.19985210078E+02 -0.60592701548E+01 -0.32907417493E+02  0.38974769617E+02  0.10566000000E+00 0. -1.
         22    1    1    0    0    0  0.97815451026E+01 -0.10591803339E+02 -0.19094215914E+02  0.23926011032E+02  0.00000000000E+00 0.  1.
</event>
<event>
 5    1  0.2370309E-009  0.9118800E+02  0.7561462E-02  0.1125453E+00
         25   -1    0    0    0    0  0.00000000000E+00  0.00000000000E+00  0.99999998245E-14  0.12509000000E+03  0.12509000000E+03 0.  0.
        -13    1    3    3    0    0 -0.22244043504E+02  0.24621353969E+02 -0.10786364318E+02  0.34890763275E+02  0.10566000000E+00 0. -1.
         23    2    1    0    0    0  0.26409824887E+02 -0.11649522784E+02 -0.32800253781E+01  0.96039203141E+02  0.91540044472E+02 0.  0.
         13    1    3    3    0    0  0.48653868391E+02 -0.36270876753E+02  0.75063389398E+01  0.61148439867E+02  0.10566000000E+00 0.  1.
         22    1    1    0    0    0 -0.26409824887E+02  0.11649522784E+02  0.32800253781E+01  0.29050796859E+02  0.00000000000E+00 0.  1.
</event>
<event>
 5    1  0.2370309E-009  0.9118800E+02  0.7561462E-02  0.1125453E+00
         25   -1    0    0    0    0  0.00000000000E+00  0.00000000000E+00  0.99999998245E-14  0.12509000000E+03  0.12509000000E+03 0.  0.
        -13    1    3    3    0    0 -0.84996731519E+01  0.30461039258E+02 -0.19371502139E+02  0.37086191710E+02  0.10566000000E+00 0. -1.
         23    2    1    0    0    0 -0.87517708848E+01 -0.26977526686E+02 -0.77392591060E+01  0.95691418891E+02  0.91063555159E+02 0.  0.
         13    1    3    3    0    0 -0.25209773289E+00 -0.57438565944E+02  0.11632243033E+02  0.58605227181E+02  0.10566000000E+00 0.  1.
         22    1    1    0    0    0  0.87517708848E+01  0.26977526686E+02  0.77392591060E+01  0.29398581109E+02  0.00000000000E+00 0.  1.
</event>
<event>
 5    1  0.2370309E-009  0.9118800E+02  0.7561462E-02  0.1125453E+00
         25   -1    0    0    0    0  0.00000000000E+00  0.00000000000E+00  0.99999998245E-14  0.12509000000E+03  0.12509000000E+03 0.  0.
        -13    1    3    3    0    0 -0.19518661243E+02  0.20225005471E+02  0.32276080590E+02  0.42799363609E+02  0.10566000000E+00 0. -1.
         23    2    1    0    0    0 -0.26840181915E+02 -0.74241639825E+01 -0.11392910532E+02  0.95001597144E+02  0.90110995297E+02 0.  0.
         13    1    3    3    0    0 -0.73215206722E+01 -0.27649169453E+02 -0.43668991122E+02  0.52202233535E+02  0.10566000000E+00 0.  1.
         22    1    1    0    0    0  0.26840181915E+02  0.74241639825E+01  0.11392910532E+02  0.30088402856E+02  0.00000000000E+00 0.  1.
</event>
<event>
 5    1  0.2370309E-009  0.9118800E+02  0.7561462E-02  0.1125453E+00
         25   -1    0    0    0    0  0.00000000000E+00  0.00000000000E+00  0.99999998245E-14  0.12509000000E+03  0.12509000000E+03 0.  0.
        -13    1    3    3    0    0  0.11370846506E+02  0.39664834681E+02 -0.31889519127E+02  0.52149284317E+02  0.10566000000E+00 0.  1.
         23    2    1    0    0    0  0.27625115765E+02  0.95627361826E+01 -0.55271839715E+01  0.95338652014E+02  0.90577678602E+02 0.  0.
         13    1    3    3    0    0  0.16254269258E+02 -0.30102098499E+02  0.26362335156E+02  0.43189367697E+02  0.10566000000E+00 0. -1.
         22    1    1    0    0    0 -0.27625115765E+02 -0.95627361826E+01  0.55271839715E+01  0.29751347986E+02  0.00000000000E+00 0.  1.
</event>
<event>
 5    1  0.2370309E-009  0.9118800E+02  0.7561462E-02  0.1125453E+00
         25   -1    0    0    0    0  0.00000000000E+00  0.00000000000E+00  0.99999998245E-14  0.12509000000E+03  0.12509000000E+03 0.  0.
        -13    1    3    3    0    0  0.25791905973E+02 -0.19058325252E+02 -0.17670775846E+02  0.36615702344E+02  0.10566000000E+00 0.  1.
         23    2    1    0    0    0 -0.21499860432E+02 -0.83235344046E+01  0.17182962492E+02  0.96336227663E+02  0.91945034324E+02 0.  0.
         13    1    3    3    0    0 -0.47291766405E+02  0.10734790847E+02  0.34853738338E+02  0.59720525319E+02  0.10566000000E+00 0. -1.
         22    1    1    0    0    0  0.21499860432E+02  0.83235344046E+01 -0.17182962492E+02  0.28753772337E+02  0.00000000000E+00 0. -1.
</event>
<event>
 5    1  0.2370309E-009  0.9118800E+02  0.7561462E-02  0.1125453E+00
         25   -1    0    0    0    0  0.00000000000E+00  0.00000000000E+00  0.99999998245E-14  0.12509000000E+03  0.12509000000E+03 0.  0.
        -13    1    3    3    0    0  0.28836478419E+02 -0.63534210031E+01 -0.42678427556E+02  0.51897666506E+02  0.10566000000E+00 0.  1.
         23    2    1    0    0    0  0.17245474033E+02  0.20882737606E+02 -0.31523768573E+02  0.83529885833E+02  0.72456875020E+02 0.  0.
         13    1    3    3    0    0 -0.11591004386E+02  0.27236158609E+02  0.11154658983E+02  0.31632219327E+02  0.10566000000E+00 0. -1.
         22    1    1    0    0    0 -0.17245474033E+02 -0.20882737606E+02  0.31523768573E+02  0.41560114167E+02  0.00000000000E+00 0.  1.
</event>
<event>
 5    1  0.2370309E-009  0.9118800E+02  0.7561462E-02  0.1125453E+00
         25   -1    0    0    0    0  0.00000000000E+00  0.00000000000E+00  0.99999998245E-14  0.12509000000E+03  0.12509000000E+03 0.  0.
        -13    1    3    3    0    0 -0.28957343349E+02  0.30493687072E+02  0.12093776090E+02  0.43756865396E+02  0.10566000000E+00 0.  1.
         23    2    1    0    0    0  0.16304404208E+01  0.14902039550E+02 -0.26024130809E+02  0.95056943161E+02  0.90187792634E+02 0.  0.
         13    1    3    3    0    0  0.30587783770E+02 -0.15591647522E+02 -0.38117906899E+02  0.51300077766E+02  0.10566000000E+00 0. -1.
         22    1    1    0    0    0 -0.16304404208E+01 -0.14902039550E+02  0.26024130809E+02  0.30033056839E+02  0.00000000000E+00 0. -1.
</event>
<event>
 5    1  0.2370309E-009  0.9118800E+02  0.7561462E-02  0.1125453E+00
         25   -1    0    0    0    0  0.00000000000E+00  0.00000000000E+00  0.99999998245E-14  0.12509000000E+03  0.12509000000E+03 0.  0.
        -13    1    3    3    0    0  0.29293681078E+02  0.17967768315E+01  0.16380448718E+02  0.33610689108E+02  0.10566000000E+00 0.  1.
         23    2    1    0    0    0 -0.19133694629E+02 -0.19061397745E+02 -0.14211684637E+02  0.94571036480E+02  0.89511305467E+02 0.  0.
         13    1    3    3    0    0 -0.48427375706E+02 -0.20858174576E+02 -0.30592133355E+02  0.60960347372E+02  0.10566000000E+00 0. -1.
         22    1    1    0    0    0  0.19133694629E+02  0.19061397745E+02  0.14211684637E+02  0.30518963520E+02  0.00000000000E+00 0. -1.
</event>
<event>
 5    1  0.2370309E-009  0.9118800E+02  0.7561462E-02  0.1125453E+00
         25   -1    0    0    0    0  0.00000000000E+00  0.00000000000E+00  0.99999998245E-14  0.12509000000E+03  0.12509000000E+03 0.  0.
        -13    1    3    3    0    0  0.11709868242E+02  0.31060808826E+02 -0.30535116749E+01  0.33335115971E+02  0.10566000000E+00 0.  1.
         23    2    1    0    0    0 -0.11151067048E+02 -0.25905937436E+02  0.81503685575E+01  0.95731996008E+02  0.91119277111E+02 0.  0.
         13    1    3    3    0    0 -0.22860935291E+02 -0.56966746263E+02  0.11203880232E+02  0.62396880037E+02  0.10566000000E+00 0. -1.
         22    1    1    0    0    0  0.11151067048E+02  0.25905937436E+02 -0.81503685575E+01  0.29358003992E+02  0.00000000000E+00 0. -1.
</event>
<event>
 5    1  0.2370309E-009  0.9118800E+02  0.7561462E-02  0.1125453E+00
         25   -1    0    0    0    0  0.00000000000E+00  0.00000000000E+00  0.99999998245E-14  0.12509000000E+03  0.12509000000E+03 0.  0.
        -13    1    3    3    0    0 -0.33212944710E+02  0.20458250507E+02  0.38704788791E+02  0.54951902146E+02  0.10566000000E+00 0. -1.
         23    2    1    0    0    0  0.34458605237E+00  0.18870881404E+01  0.30948591494E+02  0.94082014631E+02  0.88825279737E+02 0.  0.
         13    1    3    3    0    0  0.33557530762E+02 -0.18571162367E+02 -0.77561972971E+01  0.39130112485E+02  0.10566000000E+00 0.  1.
         22    1    1    0    0    0 -0.34458605237E+00 -0.18870881404E+01 -0.30948591494E+02  0.31007985369E+02  0.00000000000E+00 0. -1.
</event>
<event>
 5    1  0.2370309E-009  0.9118800E+02  0.7561462E-02  0.1125453E+00
         25   -1    0    0    0    0  0.00000000000E+00  0.00000000000E+00  0.99999998245E-14  0.12509000000E+03  0.12509000000E+03 0.  0.
        -13    1    3    3    0    0 -0.26018169359E+01 -0.50496660487E+02  0.16936444862E+02  0.53324820678E+02  0.10566000000E+00 0.  1.
         23    2    1    0    0    0  0.19753020692E+02 -0.22327261388E+02 -0.41168040263E+01  0.94996204910E+02  0.90103509612E+02 0.  0.
         13    1    3    3    0    0  0.22354837628E+02  0.28169399100E+02 -0.21053248888E+02  0.41671384232E+02  0.10566000000E+00 0. -1.
         22    1    1    0    0    0 -0.19753020692E+02  0.22327261388E+02  0.41168040263E+01  0.30093795090E+02  0.00000000000E+00 0.  1.
</event>
<event>
 5    1  0.2370309E-009  0.9118800E+02  0.7561462E-02  0.1125453E+00
         25   -1    0    0    0    0  0.00000000000E+00  0.00000000000E+00  0.99999998245E-14  0.12509000000E+03  0.12509000000E+03 0.  0.
        -13    1    3    3    0    0 -0.20785518772E+02 -0.90287164429E+01 -0.28695600424E+02  0.36565067468E+02  0.10566000000E+00 0. -1.
         23    2    1    0    0    0  0.11107520349E+02  0.22990597430E+02  0.11536460976E+02  0.97071532691E+02  0.92940023395E+02 0.  0.
         13    1    3    3    0    0  0.31893039121E+02  0.32019313873E+02  0.40232061400E+02  0.60506465223E+02  0.10566000000E+00 0.  1.
         22    1    1    0    0    0 -0.11107520349E+02 -0.22990597430E+02 -0.11536460976E+02  0.28018467309E+02  0.00000000000E+00 0.  1.
</event>
<event>
 5    1  0.2370309E-009  0.9118800E+02  0.7561462E-02  0.1125453E+00
         25   -1    0    0    0    0  0.00000000000E+00  0.00000000000E+00  0.99999998245E-14  0.12509000000E+03  0.12509000000E+03 0.  0.
        -13    1    3    3    0    0  0.11198683171E+02  0.23444587017E+02 -0.10672650357E+02  0.28088712944E+02  0.10566000000E+00 0.  1.
         23    2    1    0    0    0  0.12369447054E+02  0.40446631886E+00  0.39706805806E+02  0.83499168791E+02  0.72403825507E+02 0.  0.
         13    1    3    3    0    0  0.11707638825E+01 -0.23040120698E+02  0.50379456162E+02  0.55410455846E+02  0.10566000000E+00 0. -1.
         22    1    1    0    0    0 -0.12369447054E+02 -0.40446631886E+00 -0.39706805806E+02  0.41590831209E+02  0.00000000000E+00 0. -1.
</event>
<event>
 5    1  0.2370309E-009  0.9118800E+02  0.7561462E-02  0.1125453E+00
         25   -1    0    0    0    0  0.00000000000E+00  0.00000000000E+00  0.99999998245E-14  0.12509000000E+03  0.12509000000E+03 0.  0.
        -13    1    3    3    0    0  0.98874050387E-01 -0.19275674758E+02 -0.38275658186E+02  0.42855554915E+02  0.10566000000E+00 0. -1.
         23    2    1    0    0    0  0.10469125508E+02  0.25030413818E+02 -0.11776646003E+02  0.95512752057E+02  0.90817796767E+02 0.  0.
         13    1    3    3    0    0  0.10370251458E+02  0.44306088576E+02  0.26499012183E+02  0.52657197142E+02  0.10566000000E+00 0.  1.
         22    1    1    0    0    0 -0.10469125508E+02 -0.25030413818E+02  0.11776646003E+02  0.29577247943E+02  0.00000000000E+00 0.  1.
</event>
<event>
 5    1  0.2370309E-009  0.9118800E+02  0.7561462E-02  0.1125453E+00
         25   -1    0    0    0    0  0.00000000000E+00  0.00000000000E+00  0.99999998245E-14  0.12509000000E+03  0.12509000000E+03 0.  0.
        -13    1    3    3    0    0  0.28328212565E+02  0.46103778051E+02  0.30652990084E+02  0.62190537406E+02  0.10566000000E+00 0.  1.
         23    2    1    0    0    0  0.16521843008E+02  0.17975002015E+02  0.14004896610E+02  0.96943790258E+02  0.92767932750E+02 0.  0.
         13    1    3    3    0    0 -0.11806369557E+02 -0.28128776036E+02 -0.16648093474E+02  0.34753252852E+02  0.10566000000E+00 0. -1.
         22    1    1    0    0    0 -0.16521843008E+02 -0.17975002015E+02 -0.14004896610E+02  0.28146209742E+02  0.00000000000E+00 0.  1.
</event>
<event>
 5    1  0.2370309E-009  0.9118800E+02  0.7561462E-02  0.1125453E+00
         25   -1    0    0    0    0  0.00000000000E+00  0.00000000000E+00  0.99999998245E-14  0.12509000000E+03  0.12509000000E+03 0.  0.
        -13    1    3    3    0    0  0.24683488023E+02 -0.18621985150E+02  0.15488394669E+02  0.34582574302E+02  0.10566000000E+00 0.  1.
         23    2    1    0    0    0 -0.77530820690E+01  0.17066822851E+02 -0.22377457794E+02  0.95898608441E+02  0.91347718964E+02 0.  0.
         13    1    3    3    0    0 -0.32436570092E+02  0.35688808001E+02 -0.37865852463E+02  0.61316034140E+02  0.10566000000E+00 0. -1.
         22    1    1    0    0    0  0.77530820690E+01 -0.17066822851E+02  0.22377457794E+02  0.29191391559E+02  0.00000000000E+00 0. -1.
</event>
<event>
 5    1  0.2370309E-009  0.9118800E+02  0.7561462E-02  0.1125453E+00
         25   -1    0    0    0    0  0.00000000000E+00  0.00000000000E+00  0.99999998245E-14  0.12509000000E+03  0.12509000000E+03 0.  0.
        -13    1    3    3    0    0  0.13127124624E+02  0.84774638606E+01 -0.32721288230E+02  0.36261310813E+02  0.10566000000E+00 0. -1.
         23    2    1    0    0    0  0.99054822552E+01 -0.16358987922E+02  0.21697983011E+02  0.96167041450E+02  0.91714569889E+02 0.  0.
         13    1    3    3    0    0 -0.32216423683E+01 -0.24836451782E+02  0.54419271241E+02  0.59905730637E+02  0.10566000000E+00 0.  1.
         22    1    1    0    0    0 -0.99054822552E+01  0.16358987922E+02 -0.21697983011E+02  0.28922958550E+02  0.00000000000E+00 0.  1.
</event>
<event>
 5    1  0.2370309E-009  0.9118800E+02  0.7561462E-02  0.1125453E+00
         25   -1    0    0    0    0  0.00000000000E+00  0.00000000000E+00  0.99999998245E-14  0.12509000000E+03  0.12509000000E+03 0.  0.
        -13    1    3    3    0    0  0.15718661220E+02 -0.41686255552E+02  0.27176378770E+02  0.52186079941E+02  0.10566000000E+00 0. -1.
         23    2    1    0    0    0  0.16568292574E+02  0.15010567541E+01  0.24514246184E+02  0.95463833252E+02  0.90750392302E+02 0.  0.
         13    1    3    3    0    0  0.84963135357E+00  0.43187312307E+02 -0.26621325852E+01  0.43277753311E+02  0.10566000000E+00 0.  1.
         22    1    1    0    0    0 -0.16568292574E+02 -0.15010567541E+01 -0.24514246184E+02  0.29626166748E+02  0.00000000000E+00 0. -1.
</event>
<event>
 5    1  0.2370309E-009  0.9118800E+02  0.7561462E-02  0.1125453E+00
         25   -1    0    0    0    0  0.00000000000E+00  0.00000000000E+00  0.99999998245E-14  0.12509000000E+03  0.12509000000E+03 0.  0.
        -13    1    3    3    0    0  0.20825257327E+02 -0.30990511258E+02 -0.14652568290E+01  0.37366579618E+02  0.10566000000E+00 0.  1.
         23    2    1    0    0    0 -0.26186293176E+02  0.62782233431E+01 -0.59015505456E+01  0.97522513037E+02  0.93545038412E+02 0.  0.
         13    1    3    3    0    0 -0.47011550503E+02  0.37268734601E+02 -0.44362937165E+01  0.60155933418E+02  0.10566000000E+00 0. -1.
         22    1    1    0    0    0  0.26186293176E+02 -0.62782233431E+01  0.59015505456E+01  0.27567486963E+02  0.00000000000E+00 0. -1.
</event>
<event>
 5    1  0.2370309E-009  0.9118800E+02  0.7561462E-02  0.1125453E+00
         25   -1    0    0    0    0  0.00000000000E+00  0.00000000000E+00  0.99999998245E-14  0.12509000000E+03  0.12509000000E+03 0.  0.
        -13    1    3    3    0    0 -0.18338818074E+02 -0.86946894430E+01 -0.28974484827E+02  0.35375723426E+02  0.10566000000E+00 0. -1.
         23    2    1    0    0    0  0.26443991168E+02 -0.21452622794E+02  0.14651336923E+01  0.91007067169E+02  0.84383884506E+02 0.  0.
         13    1    3    3    0    0  0.44782809243E+02 -0.12757933351E+02  0.30439618519E+02  0.55631343743E+02  0.10566000000E+00 0.  1.
         22    1    1    0    0    0 -0.26443991168E+02  0.21452622794E+02 -0.14651336923E+01  0.34082932831E+02  0.00000000000E+00 0.  1.
</event>
<event>
 5    1  0.2370309E-009  0.9118800E+02  0.7561462E-02  0.1125453E+00
         25   -1    0    0    0    0  0.00000000000E+00  0.00000000000E+00  0.99999998245E-14  0.12509000000E+03  0.12509000000E+03 0.  0.
        -13    1    3    3    0    0  0.35897792347E+02 -0.30700724134E+02  0.26631740100E+02  0.54225885908E+02  0.10566000000E+00 0.  1.
         23    2    1    0    0    0 -0.20781287684E+01 -0.27376292883E+02  0.92954625822E+01  0.96104043818E+02  0.91628606790E+02 0.  0.
         13    1    3    3    0    0 -0.37975921115E+02  0.33244312513E+01 -0.17336277518E+02  0.41878157910E+02  0.10566000000E+00 0. -1.
         22    1    1    0    0    0  0.20781287684E+01  0.27376292883E+02 -0.92954625822E+01  0.28985956182E+02  0.00000000000E+00 0. -1.
</event>
<event>
 5    1  0.2370309E-009  0.9118800E+02  0.7561462E-02  0.1125453E+00
         25   -1    0    0    0    0  0.00000000000E+00  0.00000000000E+00  0.99999998245E-14  0.12509000000E+03  0.12509000000E+03 0.  0.
        -13    1    3    3    0    0 -0.23577064330E+02  0.53579952613E+02 -0.19957418101E+02  0.61846576185E+02  0.10566000000E+00 0.  1.
         23    2    1    0    0    0 -0.18386552266E+02  0.26169068094E+02 -0.12741039154E+02  0.90662982879E+02  0.83872265718E+02 0.  0.
         13    1    3    3    0    0  0.51905120635E+01 -0.27410884520E+02  0.72163789479E+01  0.28816406695E+02  0.10566000000E+00 0. -1.
         22    1    1    0    0    0  0.18386552266E+02 -0.26169068094E+02  0.12741039154E+02  0.34427017121E+02  0.00000000000E+00 0.  1.
</event>
<event>
 5    1  0.2370309E-009  0.9118800E+02  0.7561462E-02  0.1125453E+00
         25   -1    0    0    0    0  0.00000000000E+00  0.00000000000E+00  0.99999998245E-14  0.12509000000E+03  0.12509000000E+03 0.  0.
        -13    1    3    3    0    0 -0.38260125337E+02 -0.48908923922E+00 -0.27809655097E+02  0.47301844359E+02  0.10566000000E+00 0. -1.
         23    2    1    0    0    0  0.10277099233E+02  0.15389853340E+02 -0.17940497276E+02  0.99315442836E+02  0.95912613293E+02 0.  0.
         13    1    3    3    0    0  0.48537224571E+02  0.15878942579E+02  0.98691578206E+01  0.52013598477E+02  0.10566000000E+00 0.  1.
         22    1    1    0    0    0 -0.10277099233E+02 -0.15389853340E+02  0.17940497276E+02  0.25774557164E+02  0.00000000000E+00 0.  1.
</event>
<event>
 5    1  0.2370309E-009  0.9118800E+02  0.7561462E-02  0.1125453E+00
         25   -1    0    0    0    0  0.00000000000E+00  0.00000000000E+00  0.99999998245E-14  0.12509000000E+03  0.12509000000E+03 0.  0.
        -13    1    3    3    0    0 -0.64307800316E+01 -0.49973753355E+02  0.20974433312E+02  0.54577183630E+02  0.10566000000E+00 0.  1.
         23    2    1    0    0    0  0.84511812185E+01 -0.13328827753E+02  0.26231542061E+02  0.94476703670E+02  0.89379380308E+02 0.  0.
         13    1    3    3    0    0  0.14881961250E+02  0.36644925602E+02  0.52571087494E+01  0.39899520040E+02  0.10566000000E+00 0. -1.
         22    1    1    0    0    0 -0.84511812185E+01  0.13328827753E+02 -0.26231542061E+02  0.30613296330E+02  0.00000000000E+00 0. -1.
</event>
<event>
 5    1  0.2370309E-009  0.9118800E+02  0.7561462E-02  0.1125453E+00
         25   -1    0    0    0    0  0.00000000000E+00  0.00000000000E+00  0.99999998245E-14  0.12509000000E+03  0.12509000000E+03 0.  0.
        -13    1    3    3    0    0  0.14580497807E+02 -0.12193351874E+02 -0.49021420416E+02  0.52577367468E+02  0.10566000000E+00 0.  1.
         23    2    1    0    0    0 -0.39787295397E+01 -0.25363214986E+02 -0.10430605605E+02  0.97378621534E+02  0.93352425975E+02 0.  0.
         13    1    3    3    0    0 -0.18559227347E+02 -0.13169863113E+02  0.38590814811E+02  0.44801254066E+02  0.10566000000E+00 0. -1.
         22    1    1    0    0    0  0.39787295397E+01  0.25363214986E+02  0.10430605605E+02  0.27711378466E+02  0.00000000000E+00 0. -1.
</event>
<event>
 5    1  0.2370309E-009  0.9118800E+02  0.7561462E-02  0.1125453E+00
         25   -1    0    0    0    0  0.00000000000E+00  0.00000000000E+00  0.99999998245E-14  0.12509000000E+03  0.12509000000E+03 0.  0.
        -13    1    3    3    0    0  0.93254890503E+01  0.25713352038E+02 -0.50983272535E+02  0.57857121096E+02  0.10566000000E+00 0.  1.
         23    2    1    0    0    0  0.12332565373E+02 -0.27735161208E+01 -0.27227716733E+02  0.95071120626E+02  0.90207454560E+02 0.  0.
         13    1    3    3    0    0  0.30070763225E+01 -0.28486868159E+02  0.23755555802E+02  0.37213999530E+02  0.10566000000E+00 0. -1.
         22    1    1    0    0    0 -0.12332565373E+02  0.27735161208E+01  0.27227716733E+02  0.30018879374E+02  0.00000000000E+00 0.  1.
</event>
<event>
 5    1  0.2370309E-009  0.9118800E+02  0.7561462E-02  0.1125453E+00
         25   -1    0    0    0    0  0.00000000000E+00  0.00000000000E+00  0.99999998245E-14  0.12509000000E+03  0.12509000000E+03 0.  0.
        -13    1    3    3    0    0 -0.54305772688E+02  0.13913636629E+02  0.25137256803E+02  0.61437765870E+02  0.10566000000E+00 0.  1.
         23    2    1    0    0    0 -0.27441937167E+02  0.86908468451E+01  0.39769174815E+01  0.96031324754E+02  0.91529277977E+02 0.  0.
         13    1    3    3    0    0  0.26863835521E+02 -0.52227897841E+01 -0.21160339321E+02  0.34593558884E+02  0.10566000000E+00 0. -1.
         22    1    1    0    0    0  0.27441937167E+02 -0.86908468451E+01 -0.39769174815E+01  0.29058675246E+02  0.00000000000E+00 0.  1.
</event>
<event>
 5    1  0.2370309E-009  0.9118800E+02  0.7561462E-02  0.1125453E+00
         25   -1    0    0    0    0  0.00000000000E+00  0.00000000000E+00  0.99999998245E-14  0.12509000000E+03  0.12509000000E+03 0.  0.
        -13    1    3    3    0    0  0.24132815357E+02  0.45579021485E+02 -0.33141476151E+02  0.61304229724E+02  0.10566000000E+00 0.  1.
         23    2    1    0    0    0  0.18306030955E+02  0.15877717167E+02 -0.14695237266E+02  0.96749875264E+02  0.92506084629E+02 0.  0.
         13    1    3    3    0    0 -0.58267844015E+01 -0.29701304318E+02  0.18446238885E+02  0.35445645539E+02  0.10566000000E+00 0. -1.
         22    1    1    0    0    0 -0.18306030955E+02 -0.15877717167E+02  0.14695237266E+02  0.28340124736E+02  0.00000000000E+00 0.  1.
</event>
<event>
 5    1  0.2370309E-009  0.9118800E+02  0.7561462E-02  0.1125453E+00
         25   -1    0    0    0    0  0.00000000000E+00  0.00000000000E+00  0.99999998245E-14  0.12509000000E+03  0.12509000000E+03 0.  0.
        -13    1    3    3    0    0 -0.24227355828E+01  0.28876655803E+02  0.49617676444E+02  0.57460037224E+02  0.10566000000E+00 0.  1.
         23    2    1    0    0    0 -0.58111897090E+01 -0.24255801513E+01  0.29730122423E+02  0.94700305297E+02  0.89691773754E+02 0.  0.
         13    1    3    3    0    0 -0.33884541262E+01 -0.31302235954E+02 -0.19887554022E+02  0.37240268072E+02  0.10566000000E+00 0. -1.
         22    1    1    0    0    0  0.58111897090E+01  0.24255801513E+01 -0.29730122423E+02  0.30389694703E+02  0.00000000000E+00 0.  1.
</event>
<event>
 5    1  0.2370309E-009  0.9118800E+02  0.7561462E-02  0.1125453E+00
         25   -1    0    0    0    0  0.00000000000E+00  0.00000000000E+00  0.99999998245E-14  0.12509000000E+03  0.12509000000E+03 0.  0.
        -13    1    3    3    0    0 -0.42217017573E+01 -0.50239706918E+02  0.18131560638E+02  0.53578125874E+02  0.10566000000E+00 0.  1.
         23    2    1    0    0    0 -0.22358491112E+02 -0.15825509608E+02 -0.24498146181E+01  0.97588173318E+02  0.93632799279E+02 0.  0.
         13    1    3    3    0    0 -0.18136789355E+02  0.34414197310E+02 -0.20581375256E+02  0.44010047445E+02  0.10566000000E+00 0. -1.
         22    1    1    0    0    0  0.22358491112E+02  0.15825509608E+02  0.24498146181E+01  0.27501826682E+02  0.00000000000E+00 0.  1.
</event>
<event>
 5    1  0.2370309E-009  0.9118800E+02  0.7561462E-02  0.1125453E+00
         25   -1    0    0    0    0  0.00000000000E+00  0.00000000000E+00  0.99999998245E-14  0.12509000000E+03  0.12509000000E+03 0.  0.
        -13    1    3    3    0    0 -0.16524338312E+02  0.49067004166E+02 -0.31704347517E+02  0.60710801922E+02  0.10566000000E+00 0.  1.
         23    2    1    0    0    0 -0.16740292552E+02  0.21258503307E+02 -0.91193058346E+01  0.96536136926E+02  0.92216607160E+02 0.  0.
         13    1    3    3    0    0 -0.21595424006E+00 -0.27808500859E+02  0.22585041682E+02  0.35825335004E+02  0.10566000000E+00 0. -1.
         22    1    1    0    0    0  0.16740292552E+02 -0.21258503307E+02  0.91193058346E+01  0.28553863074E+02  0.00000000000E+00 0.  1.
</event>
<event>
 5    1  0.2370309E-009  0.9118800E+02  0.7561462E-02  0.1125453E+00
         25   -1    0    0    0    0  0.00000000000E+00  0.00000000000E+00  0.99999998245E-14  0.12509000000E+03  0.12509000000E+03 0.  0.
        -13    1    3    3    0    0  0.13028752480E+01  0.55163154850E+02 -0.20891231431E+02  0.59001066530E+02  0.10566000000E+00 0. -1.
         23    2    1    0    0    0  0.30345875672E+01  0.28210389873E+02  0.48427452752E+01  0.96306549889E+02  0.91904649236E+02 0.  0.
         13    1    3    3    0    0  0.17317123192E+01 -0.26952764977E+02  0.25733976706E+02  0.37305483359E+02  0.10566000000E+00 0.  1.
         22    1    1    0    0    0 -0.30345875672E+01 -0.28210389873E+02 -0.48427452752E+01  0.28783450111E+02  0.00000000000E+00 0. -1.
</event>
<event>
 5    1  0.2370309E-009  0.9118800E+02  0.7561462E-02  0.1125453E+00
         25   -1    0    0    0    0  0.00000000000E+00  0.00000000000E+00  0.99999998245E-14  0.12509000000E+03  0.12509000000E+03 0.  0.
        -13    1    3    3    0    0  0.47317718921E+02  0.26465499560E+02 -0.31164662139E+02  0.62535082323E+02  0.10566000000E+00 0.  1.
         23    2    1    0    0    0  0.22039060784E+02  0.13204679839E+02 -0.14958903435E+02  0.95360342049E+02  0.90607628122E+02 0.  0.
         13    1    3    3    0    0 -0.25278658137E+02 -0.13260819721E+02  0.16205758705E+02  0.32825259726E+02  0.10566000000E+00 0. -1.
         22    1    1    0    0    0 -0.22039060784E+02 -0.13204679839E+02  0.14958903435E+02  0.29729657951E+02  0.00000000000E+00 0.  1.
</event>
<event>
 5    1  0.2370309E-009  0.9118800E+02  0.7561462E-02  0.1125453E+00
         25   -1    0    0    0    0  0.00000000000E+00  0.00000000000E+00  0.99999998245E-14  0.12509000000E+03  0.12509000000E+03 0.  0.
        -13    1    3    3    0    0  0.15279357160E+02  0.38694882922E+02  0.32940312468E+02  0.53064376649E+02  0.10566000000E+00 0.  1.
         23    2    1    0    0    0 -0.90910316283E+01  0.28197411169E+02 -0.12813162792E+00  0.95463031366E+02  0.90749286979E+02 0.  0.
         13    1    3    3    0    0 -0.24370388788E+02 -0.10497471753E+02 -0.33068444096E+02  0.42398654718E+02  0.10566000000E+00 0. -1.
         22    1    1    0    0    0  0.90910316283E+01 -0.28197411169E+02  0.12813162792E+00  0.29626968634E+02  0.00000000000E+00 0.  1.
</event>
<event>
 5    1  0.2370309E-009  0.9118800E+02  0.7561462E-02  0.1125453E+00
         25   -1    0    0    0    0  0.00000000000E+00  0.00000000000E+00  0.99999998245E-14  0.12509000000E+03  0.12509000000E+03 0.  0.
        -13    1    3    3    0    0 -0.18940252513E+02  0.25204337795E+02 -0.34323005487E+02  0.46605489791E+02  0.10566000000E+00 0.  1.
         23    2    1    0    0    0 -0.28039367054E+02  0.67241900917E+01  0.92549743578E+01  0.94806747408E+02  0.89840102219E+02 0.  0.
         13    1    3    3    0    0 -0.90991145409E+01 -0.18480147703E+02  0.43577979845E+02  0.48201257618E+02  0.10566000000E+00 0. -1.
         22    1    1    0    0    0  0.28039367054E+02 -0.67241900917E+01 -0.92549743578E+01  0.30283252592E+02  0.00000000000E+00 0. -1.
</event>
<event>
 5    1  0.2370309E-009  0.9118800E+02  0.7561462E-02  0.1125453E+00
         25   -1    0    0    0    0  0.00000000000E+00  0.00000000000E+00  0.99999998245E-14  0.12509000000E+03  0.12509000000E+03 0.  0.
        -13    1    3    3    0    0  0.53310278880E+01 -0.99181726599E+01  0.52364409601E+02  0.53561483961E+02  0.10566000000E+00 0.  1.
         23    2    1    0    0    0 -0.10544374969E+02 -0.23694159022E+02  0.19216511839E+02  0.92811968113E+02  0.87018331876E+02 0.  0.
         13    1    3    3    0    0 -0.15875402857E+02 -0.13775986362E+02 -0.33147897761E+02  0.39250484152E+02  0.10566000000E+00 0. -1.
         22    1    1    0    0    0  0.10544374969E+02  0.23694159022E+02 -0.19216511839E+02  0.32278031887E+02  0.00000000000E+00 0.  1.
</event>
<event>
 5    1  0.2370309E-009  0.9118800E+02  0.7561462E-02  0.1125453E+00
         25   -1    0    0    0    0  0.00000000000E+00  0.00000000000E+00  0.99999998245E-14  0.12509000000E+03  0.12509000000E+03 0.  0.
        -13    1    3    3    0    0  0.40609956055E+02  0.18202669860E+01 -0.32609089441E+02  0.52113777266E+02  0.10566000000E+00 0.  1.
         23    2    1    0    0    0  0.27183152358E+00  0.20414230447E+02 -0.14337214052E+02  0.10014264736E+03  0.96985459816E+02 0.  0.
         13    1    3    3    0    0 -0.40338124532E+02  0.18593963461E+02  0.18271875389E+02  0.48028870091E+02  0.10566000000E+00 0. -1.
         22    1    1    0    0    0 -0.27183152358E+00 -0.20414230447E+02  0.14337214052E+02  0.24947352643E+02  0.00000000000E+00 0.  1.
</event>
<event>
 5    1  0.2370309E-009  0.9118800E+02  0.7561462E-02  0.1125453E+00
         25   -1    0    0    0    0  0.00000000000E+00  0.00000000000E+00  0.99999998245E-14  0.12509000000E+03  0.12509000000E+03 0.  0.
        -13    1    3    3    0    0 -0.31988285289E+02 -0.21579630132E+02  0.34597281628E+01  0.38741601869E+02  0.10566000000E+00 0.  1.
         23    2    1    0    0    0 -0.24753964329E+01  0.23653979967E+02  0.18671637215E+02  0.94853128601E+02  0.89904658463E+02 0.  0.
         13    1    3    3    0    0  0.29512888856E+02  0.45233610098E+02  0.15211909052E+02  0.56111526732E+02  0.10566000000E+00 0. -1.
         22    1    1    0    0    0  0.24753964329E+01 -0.23653979967E+02 -0.18671637215E+02  0.30236871399E+02  0.00000000000E+00 0. -1.
</event>
<event>
 5    1  0.2370309E-009  0.9118800E+02  0.7561462E-02  0.1125453E+00
         25   -1    0    0    0    0  0.00000000000E+00  0.00000000000E+00  0.99999998245E-14  0.12509000000E+03  0.12509000000E+03 0.  0.
        -13    1    3    3    0    0  0.78288636690E+01  0.31896435142E+02 -0.35982700786E+01  0.33039860664E+02  0.10566000000E+00 0. -1.
         23    2    1    0    0    0  0.55250492928E+01 -0.76278255914E+01  0.35307450971E+02  0.88547887485E+02  0.80656074732E+02 0.  0.
         13    1    3    3    0    0 -0.23038143762E+01 -0.39524260733E+02  0.38905721050E+02  0.55508026822E+02  0.10566000000E+00 0.  1.
         22    1    1    0    0    0 -0.55250492928E+01  0.76278255914E+01 -0.35307450971E+02  0.36542112515E+02  0.00000000000E+00 0.  1.
</event>
<event>
 5    1  0.2370309E-009  0.9118800E+02  0.7561462E-02  0.1125453E+00
         25   -1    0    0    0    0  0.00000000000E+00  0.00000000000E+00  0.99999998245E-14  0.12509000000E+03  0.12509000000E+03 0.  0.
        -13    1    3    3    0    0 -0.26930462764E+01 -0.24797985984E+02  0.96553341237E+01  0.26747509196E+02  0.10566000000E+00 0.  1.
         23    2    1    0    0    0  0.37507657727E+02  0.15541515509E+02  0.79202041236E+01  0.83724643410E+02  0.72792329186E+02 0.  0.
         13    1    3    3    0    0  0.40200704003E+02  0.40339501493E+02 -0.17351300001E+01  0.56977134214E+02  0.10566000000E+00 0. -1.
         22    1    1    0    0    0 -0.37507657727E+02 -0.15541515509E+02 -0.79202041236E+01  0.41365356590E+02  0.00000000000E+00 0. -1.
</event>
<event>
 5    1  0.2370309E-009  0.9118800E+02  0.7561462E-02  0.1125453E+00
         25   -1    0    0    0    0  0.00000000000E+00  0.00000000000E+00  0.99999998245E-14  0.12509000000E+03  0.12509000000E+03 0.  0.
        -13    1    3    3    0    0 -0.23312109036E+02 -0.51296089147E+02 -0.14870768214E+02  0.58274300518E+02  0.10566000000E+00 0.  1.
         23    2    1    0    0    0 -0.60348866652E+01 -0.32104439711E+02 -0.22760724376E+02  0.85275863310E+02  0.75410923499E+02 0.  0.
         13    1    3    3    0    0  0.17277222371E+02  0.19191649436E+02 -0.78899561621E+01  0.27001562792E+02  0.10566000000E+00 0. -1.
         22    1    1    0    0    0  0.60348866652E+01  0.32104439711E+02  0.22760724376E+02  0.39814136690E+02  0.00000000000E+00 0.  1.
</event>
<event>
 5    1  0.2370309E-009  0.9118800E+02  0.7561462E-02  0.1125453E+00
         25   -1    0    0    0    0  0.00000000000E+00  0.00000000000E+00  0.99999998245E-14  0.12509000000E+03  0.12509000000E+03 0.  0.
        -13    1    3    3    0    0  0.39625787353E+02  0.23807154629E+02 -0.12147814245E+02  0.47797114869E+02  0.10566000000E+00 0. -1.
         23    2    1    0    0    0  0.21630869120E+02 -0.19673694459E+02 -0.35147790027E+01  0.95640001291E+02  0.90992897651E+02 0.  0.
         13    1    3    3    0    0 -0.17994918233E+02 -0.43480849088E+02  0.86330352419E+01  0.47842886421E+02  0.10566000000E+00 0.  1.
         22    1    1    0    0    0 -0.21630869120E+02  0.19673694459E+02  0.35147790027E+01  0.29449998709E+02  0.00000000000E+00 0. -1.
</event>
<event>
 5    1  0.2370309E-009  0.9118800E+02  0.7561462E-02  0.1125453E+00
         25   -1    0    0    0    0  0.00000000000E+00  0.00000000000E+00  0.99999998245E-14  0.12509000000E+03  0.12509000000E+03 0.  0.
        -13    1    3    3    0    0 -0.18403511521E+02 -0.32632192120E+02  0.41635404291E+02  0.56009528238E+02  0.10566000000E+00 0.  1.
         23    2    1    0    0    0  0.16314617370E+01 -0.13235515416E+01  0.30082880868E+02  0.94933853406E+02  0.90016905885E+02 0.  0.
         13    1    3    3    0    0  0.20034973258E+02  0.31308640579E+02 -0.11552523423E+02  0.38924325168E+02  0.10566000000E+00 0. -1.
         22    1    1    0    0    0 -0.16314617370E+01  0.13235515416E+01 -0.30082880868E+02  0.30156146594E+02  0.00000000000E+00 0.  1.
</event>
<event>
 5    1  0.2370309E-009  0.9118800E+02  0.7561462E-02  0.1125453E+00
         25   -1    0    0    0    0  0.00000000000E+00  0.00000000000E+00  0.99999998245E-14  0.12509000000E+03  0.12509000000E+03 0.  0.
        -13    1    3    3    0    0  0.25410879636E+02 -0.18770039129E+02  0.11451502164E+02  0.33603202803E+02  0.10566000000E+00 0. -1.
         23    2    1    0    0    0 -0.59813654324E+01  0.30228144165E+02 -0.45171661030E+01  0.93946425676E+02  0.88634128165E+02 0.  0.
         13    1    3    3    0    0 -0.31392245068E+02  0.48998183293E+02 -0.15968668266E+02  0.60343222873E+02  0.10566000000E+00 0.  1.
         22    1    1    0    0    0  0.59813654324E+01 -0.30228144165E+02  0.45171661030E+01  0.31143574324E+02  0.00000000000E+00 0.  1.
</event>
<event>
 5    1  0.2370309E-009  0.9118800E+02  0.7561462E-02  0.1125453E+00
         25   -1    0    0    0    0  0.00000000000E+00  0.00000000000E+00  0.99999998245E-14  0.12509000000E+03  0.12509000000E+03 0.  0.
        -13    1    3    3    0    0 -0.10916932725E+02 -0.30544888716E+00 -0.34161707731E+02  0.35865110599E+02  0.10566000000E+00 0.  1.
         23    2    1    0    0    0 -0.15903811770E+01 -0.24903563420E+02  0.18024379885E+02  0.94306968090E+02  0.89141512085E+02 0.  0.
         13    1    3    3    0    0  0.93265515484E+01 -0.24598114533E+02  0.52186087616E+02  0.58441857492E+02  0.10566000000E+00 0. -1.
         22    1    1    0    0    0  0.15903811770E+01  0.24903563420E+02 -0.18024379885E+02  0.30783031910E+02  0.00000000000E+00 0. -1.
</event>
<event>
 5    1  0.2370309E-009  0.9118800E+02  0.7561462E-02  0.1125453E+00
         25   -1    0    0    0    0  0.00000000000E+00  0.00000000000E+00  0.99999998245E-14  0.12509000000E+03  0.12509000000E+03 0.  0.
        -13    1    3    3    0    0  0.33532217618E+02  0.86058470414E+01  0.12687805854E+02  0.36870880151E+02  0.10566000000E+00 0.  1.
         23    2    1    0    0    0 -0.25646477351E+02  0.11296287950E+02  0.52916320588E+01  0.96570720699E+02  0.92263507437E+02 0.  0.
         13    1    3    3    0    0 -0.59178694970E+02  0.26904409084E+01 -0.73961737957E+01  0.59699840548E+02  0.10566000000E+00 0. -1.
         22    1    1    0    0    0  0.25646477351E+02 -0.11296287950E+02 -0.52916320588E+01  0.28519279301E+02  0.00000000000E+00 0. -1.
</event>
<event>
 5    1  0.2370309E-009  0.9118800E+02  0.7561462E-02  0.1125453E+00
         25   -1    0    0    0    0  0.00000000000E+00  0.00000000000E+00  0.99999998245E-14  0.12509000000E+03  0.12509000000E+03 0.  0.
        -13    1    3    3    0    0  0.36789737117E+02  0.28706609801E+01 -0.36031804472E+02  0.51575454910E+02  0.10566000000E+00 0.  1.
         23    2    1    0    0    0  0.14113531107E+02  0.26060408028E+02 -0.81335989601E+01  0.94357410475E+02  0.89212268509E+02 0.  0.
         13    1    3    3    0    0 -0.22676206009E+02  0.23189747047E+02  0.27898205512E+02  0.42781955565E+02  0.10566000000E+00 0. -1.
         22    1    1    0    0    0 -0.14113531107E+02 -0.26060408028E+02  0.81335989601E+01  0.30732589525E+02  0.00000000000E+00 0.  1.
</event>
<event>
 5    1  0.2370309E-009  0.9118800E+02  0.7561462E-02  0.1125453E+00
         25   -1    0    0    0    0  0.00000000000E+00  0.00000000000E+00  0.99999998245E-14  0.12509000000E+03  0.12509000000E+03 0.  0.
        -13    1    3    3    0    0  0.59454866408E+02  0.76481804165E+01 -0.16976822194E+02  0.62302483571E+02  0.10566000000E+00 0. -1.
         23    2    1    0    0    0  0.20784653083E+02  0.64215862972E+01 -0.57241622871E+01  0.10259545381E+03  0.10009906360E+03 0.  0.
         13    1    3    3    0    0 -0.38670213325E+02 -0.12265941193E+01  0.11252659907E+02  0.40292970240E+02  0.10566000000E+00 0.  1.
         22    1    1    0    0    0 -0.20784653083E+02 -0.64215862972E+01  0.57241622871E+01  0.22494546189E+02  0.00000000000E+00 0. -1.
</event>
<event>
 5    1  0.2370309E-009  0.9118800E+02  0.7561462E-02  0.1125453E+00
         25   -1    0    0    0    0  0.00000000000E+00  0.00000000000E+00  0.99999998245E-14  0.12509000000E+03  0.12509000000E+03 0.  0.
        -13    1    3    3    0    0  0.40699981564E+02  0.21977899813E+02  0.41584852574E+01  0.46441584202E+02  0.10566000000E+00 0.  1.
         23    2    1    0    0    0  0.19385727348E+02 -0.22207202109E+02  0.18786010469E+01  0.95551967022E+02  0.90871794356E+02 0.  0.
         13    1    3    3    0    0 -0.21314254216E+02 -0.44185101922E+02 -0.22798842106E+01  0.49110382820E+02  0.10566000000E+00 0. -1.
         22    1    1    0    0    0 -0.19385727348E+02  0.22207202109E+02 -0.18786010469E+01  0.29538032978E+02  0.00000000000E+00 0.  1.
</event>
<event>
 5    1  0.2370309E-009  0.9118800E+02  0.7561462E-02  0.1125453E+00
         25   -1    0    0    0    0  0.00000000000E+00  0.00000000000E+00  0.99999998245E-14  0.12509000000E+03  0.12509000000E+03 0.  0.
        -13    1    3    3    0    0 -0.33681036741E+01  0.80065041383E+01  0.30009252252E+02  0.31241232620E+02  0.10566000000E+00 0.  1.
         23    2    1    0    0    0  0.38515996319E+01  0.13263413716E+02 -0.30080073982E+02  0.91990697683E+02  0.85829625691E+02 0.  0.
         13    1    3    3    0    0  0.72197033059E+01  0.52569095776E+01 -0.60089326234E+02  0.60749465063E+02  0.10566000000E+00 0. -1.
         22    1    1    0    0    0 -0.38515996319E+01 -0.13263413716E+02  0.30080073982E+02  0.33099302317E+02  0.00000000000E+00 0. -1.
</event>
<event>
 5    1  0.2370309E-009  0.9118800E+02  0.7561462E-02  0.1125453E+00
         25   -1    0    0    0    0  0.00000000000E+00  0.00000000000E+00  0.99999998245E-14  0.12509000000E+03  0.12509000000E+03 0.  0.
        -13    1    3    3    0    0  0.30229907763E+02 -0.22240015908E+02  0.40355282174E+02  0.55109215149E+02  0.10566000000E+00 0.  1.
         23    2    1    0    0    0 -0.31731071097E+01 -0.23508070764E+02  0.15742536782E+02  0.96620271092E+02  0.92330662956E+02 0.  0.
         13    1    3    3    0    0 -0.33403014873E+02 -0.12680548555E+01 -0.24612745392E+02  0.41511055943E+02  0.10566000000E+00 0. -1.
         22    1    1    0    0    0  0.31731071097E+01  0.23508070764E+02 -0.15742536782E+02  0.28469728908E+02  0.00000000000E+00 0.  1.
</event>
<event>
 5    1  0.2370309E-009  0.9118800E+02  0.7561462E-02  0.1125453E+00
         25   -1    0    0    0    0  0.00000000000E+00  0.00000000000E+00  0.99999998245E-14  0.12509000000E+03  0.12509000000E+03 0.  0.
        -13    1    3    3    0    0  0.30467670569E+02  0.12670809548E+02  0.35963761803E+02  0.48808110920E+02  0.10566000000E+00 0.  1.
         23    2    1    0    0    0  0.27392236856E+02  0.51625908749E+01 -0.99950162524E+01  0.95477716495E+02  0.90769526894E+02 0.  0.
         13    1    3    3    0    0 -0.30754337128E+01 -0.75082186729E+01 -0.45958778055E+02  0.46669605575E+02  0.10566000000E+00 0. -1.
         22    1    1    0    0    0 -0.27392236856E+02 -0.51625908749E+01  0.99950162524E+01  0.29612283505E+02  0.00000000000E+00 0.  1.
</event>
<event>
 5    1  0.2370309E-009  0.9118800E+02  0.7561462E-02  0.1125453E+00
         25   -1    0    0    0    0  0.00000000000E+00  0.00000000000E+00  0.99999998245E-14  0.12509000000E+03  0.12509000000E+03 0.  0.
        -13    1    3    3    0    0  0.30473151134E+02 -0.15791157213E+02  0.12961056909E+02  0.36687514857E+02  0.10566000000E+00 0. -1.
         23    2    1    0    0    0 -0.17107180175E+02  0.18750523798E+02  0.15160601953E+02  0.95525128821E+02  0.90834842590E+02 0.  0.
         13    1    3    3    0    0 -0.47580331309E+02  0.34541681011E+02  0.21995450446E+01  0.58837613964E+02  0.10566000000E+00 0.  1.
         22    1    1    0    0    0  0.17107180175E+02 -0.18750523798E+02 -0.15160601953E+02  0.29564871179E+02  0.00000000000E+00 0.  1.
</event>
<event>
 5    1  0.2370309E-009  0.9118800E+02  0.7561462E-02  0.1125453E+00
         25   -1    0    0    0    0  0.00000000000E+00  0.00000000000E+00  0.99999998245E-14  0.12509000000E+03  0.12509000000E+03 0.  0.
        -13    1    3    3    0    0  0.37575283439E+02 -0.85207664317E+01 -0.39506433702E+02  0.55184009042E+02  0.10566000000E+00 0. -1.
         23    2    1    0    0    0  0.31533130236E+02 -0.96916870696E+00 -0.24891911674E+01  0.93443931316E+02  0.87922094133E+02 0.  0.
         13    1    3    3    0    0 -0.60421532027E+01  0.75515977247E+01  0.37017242534E+02  0.38259922274E+02  0.10566000000E+00 0.  1.
         22    1    1    0    0    0 -0.31533130236E+02  0.96916870696E+00  0.24891911674E+01  0.31646068684E+02  0.00000000000E+00 0. -1.
</event>
<event>
 5    1  0.2370309E-009  0.9118800E+02  0.7561462E-02  0.1125453E+00
         25   -1    0    0    0    0  0.00000000000E+00  0.00000000000E+00  0.99999998245E-14  0.12509000000E+03  0.12509000000E+03 0.  0.
        -13    1    3    3    0    0 -0.32015233577E+02 -0.43464442177E+02  0.22869232913E+02  0.58627177084E+02  0.10566000000E+00 0. -1.
         23    2    1    0    0    0 -0.22762194561E+02 -0.69576749057E+01  0.14539716679E+02  0.97198601640E+02  0.93110891191E+02 0.  0.
         13    1    3    3    0    0  0.92530390154E+01  0.36506767271E+02 -0.83295162337E+01  0.38571424557E+02  0.10566000000E+00 0.  1.
         22    1    1    0    0    0  0.22762194561E+02  0.69576749057E+01 -0.14539716679E+02  0.27891398360E+02  0.00000000000E+00 0. -1.
</event>
<event>
 5    1  0.2370309E-009  0.9118800E+02  0.7561462E-02  0.1125453E+00
         25   -1    0    0    0    0  0.00000000000E+00  0.00000000000E+00  0.99999998245E-14  0.12509000000E+03  0.12509000000E+03 0.  0.
        -13    1    3    3    0    0 -0.51670238930E+02  0.18857850133E+02 -0.20174526078E+02  0.58587155327E+02  0.10566000000E+00 0. -1.
         23    2    1    0    0    0 -0.22635220712E+02  0.90595622835E+01  0.71902057692E+01  0.99670953116E+02  0.96375157331E+02 0.  0.
         13    1    3    3    0    0  0.29035018218E+02 -0.97982878499E+01  0.27364731847E+02  0.41083797790E+02  0.10566000000E+00 0.  1.
         22    1    1    0    0    0  0.22635220712E+02 -0.90595622835E+01 -0.71902057692E+01  0.25419046884E+02  0.00000000000E+00 0. -1.
</event>
<event>
 5    1  0.2370309E-009  0.9118800E+02  0.7561462E-02  0.1125453E+00
         25   -1    0    0    0    0  0.00000000000E+00  0.00000000000E+00  0.99999998245E-14  0.12509000000E+03  0.12509000000E+03 0.  0.
        -13    1    3    3    0    0 -0.10329919960E+02 -0.27727575144E+02 -0.45696683740E+02  0.54440093117E+02  0.10566000000E+00 0. -1.
         23    2    1    0    0    0  0.14681322912E+02 -0.30999075463E+01 -0.26976391024E+02  0.94221304823E+02  0.89021221855E+02 0.  0.
         13    1    3    3    0    0  0.25011242873E+02  0.24627667598E+02  0.18720292716E+02  0.39781211705E+02  0.10566000000E+00 0.  1.
         22    1    1    0    0    0 -0.14681322912E+02  0.30999075463E+01  0.26976391024E+02  0.30868695177E+02  0.00000000000E+00 0. -1.
</event>
<event>
 5    1  0.2370309E-009  0.9118800E+02  0.7561462E-02  0.1125453E+00
         25   -1    0    0    0    0  0.00000000000E+00  0.00000000000E+00  0.99999998245E-14  0.12509000000E+03  0.12509000000E+03 0.  0.
        -13    1    3    3    0    0  0.30908103665E+02 -0.15390593945E+02  0.44837149584E+02  0.56591186602E+02  0.10566000000E+00 0.  1.
         23    2    1    0    0    0  0.26807916522E+02 -0.42433375777E+01  0.58802075295E+01  0.97318663291E+02  0.93272048772E+02 0.  0.
         13    1    3    3    0    0 -0.41001871434E+01  0.11147256368E+02 -0.38956942055E+02  0.40727476689E+02  0.10566000000E+00 0. -1.
         22    1    1    0    0    0 -0.26807916522E+02  0.42433375777E+01 -0.58802075295E+01  0.27771336709E+02  0.00000000000E+00 0.  1.
</event>
<event>
 5    1  0.2370309E-009  0.9118800E+02  0.7561462E-02  0.1125453E+00
         25   -1    0    0    0    0  0.00000000000E+00  0.00000000000E+00  0.99999998245E-14  0.12509000000E+03  0.12509000000E+03 0.  0.
        -13    1    3    3    0    0 -0.39482304055E+02 -0.35166144274E+02 -0.28776183941E+02  0.60196262034E+02  0.10566000000E+00 0. -1.
         23    2    1    0    0    0 -0.23939822772E+02 -0.14289073742E+02 -0.26340392464E+01  0.97085876991E+02  0.92959327695E+02 0.  0.
         13    1    3    3    0    0  0.15542481283E+02  0.20877070532E+02  0.26142144694E+02  0.36889614957E+02  0.10566000000E+00 0.  1.
         22    1    1    0    0    0  0.23939822772E+02  0.14289073742E+02  0.26340392464E+01  0.28004123009E+02  0.00000000000E+00 0. -1.
</event>
<event>
 5    1  0.2370309E-009  0.9118800E+02  0.7561462E-02  0.1125453E+00
         25   -1    0    0    0    0  0.00000000000E+00  0.00000000000E+00  0.99999998245E-14  0.12509000000E+03  0.12509000000E+03 0.  0.
        -13    1    3    3    0    0 -0.40506924837E+02  0.33706963896E+02 -0.26603617564E+02  0.59031635640E+02  0.10566000000E+00 0.  1.
         23    2    1    0    0    0 -0.97518626599E+01  0.13483154866E+02 -0.23937667770E+02  0.95936848734E+02  0.91400069563E+02 0.  0.
         13    1    3    3    0    0  0.30755062177E+02 -0.20223809029E+02  0.26659497942E+01  0.36905213094E+02  0.10566000000E+00 0. -1.
         22    1    1    0    0    0  0.97518626599E+01 -0.13483154866E+02  0.23937667770E+02  0.29153151266E+02  0.00000000000E+00 0.  1.
</event>
<event>
 5    1  0.2370309E-009  0.9118800E+02  0.7561462E-02  0.1125453E+00
         25   -1    0    0    0    0  0.00000000000E+00  0.00000000000E+00  0.99999998245E-14  0.12509000000E+03  0.12509000000E+03 0.  0.
        -13    1    3    3    0    0  0.26556614531E+02 -0.16745052064E+02  0.14284984369E+02  0.34492354028E+02  0.10566000000E+00 0. -1.
         23    2    1    0    0    0 -0.10247357453E+02  0.25542019392E+02 -0.10297780916E+02  0.95705524827E+02  0.91082929801E+02 0.  0.
         13    1    3    3    0    0 -0.36803971984E+02  0.42287071456E+02 -0.24582765285E+02  0.61213170798E+02  0.10566000000E+00 0.  1.
         22    1    1    0    0    0  0.10247357453E+02 -0.25542019392E+02  0.10297780916E+02  0.29384475173E+02  0.00000000000E+00 0.  1.
</event>
<event>
 5    1  0.2370309E-009  0.9118800E+02  0.7561462E-02  0.1125453E+00
         25   -1    0    0    0    0  0.00000000000E+00  0.00000000000E+00  0.99999998245E-14  0.12509000000E+03  0.12509000000E+03 0.  0.
        -13    1    3    3    0    0 -0.13222022750E+02 -0.37139280850E+02 -0.11948189480E+02  0.41193670188E+02  0.10566000000E+00 0. -1.
         23    2    1    0    0    0 -0.83348208230E+01 -0.13693566735E+01  0.28473260209E+02  0.95390321167E+02  0.90649006886E+02 0.  0.
         13    1    3    3    0    0  0.48872019266E+01  0.35769924177E+02  0.40421449690E+02  0.54196650979E+02  0.10566000000E+00 0.  1.
         22    1    1    0    0    0  0.83348208230E+01  0.13693566735E+01 -0.28473260209E+02  0.29699678833E+02  0.00000000000E+00 0. -1.
</event>
<event>
 5    1  0.2370309E-009  0.9118800E+02  0.7561462E-02  0.1125453E+00
         25   -1    0    0    0    0  0.00000000000E+00  0.00000000000E+00  0.99999998245E-14  0.12509000000E+03  0.12509000000E+03 0.  0.
        -13    1    3    3    0    0 -0.52313080428E+01 -0.38116969565E+02 -0.45107219164E+02  0.59286949132E+02  0.10566000000E+00 0.  1.
         23    2    1    0    0    0 -0.16144917110E+02 -0.13735140024E+02 -0.19953563849E+02  0.95978883047E+02  0.91457579570E+02 0.  0.
         13    1    3    3    0    0 -0.10913609068E+02  0.24381829542E+02  0.25153655315E+02  0.36691933915E+02  0.10566000000E+00 0. -1.
         22    1    1    0    0    0  0.16144917110E+02  0.13735140024E+02  0.19953563849E+02  0.29111116953E+02  0.00000000000E+00 0.  1.
</event>
<event>
 5    1  0.2370309E-009  0.9118800E+02  0.7561462E-02  0.1125453E+00
         25   -1    0    0    0    0  0.00000000000E+00  0.00000000000E+00  0.99999998245E-14  0.12509000000E+03  0.12509000000E+03 0.  0.
        -13    1    3    3    0    0  0.28928545823E+02  0.51741611275E+02  0.15416264513E+02  0.61251346730E+02  0.10566000000E+00 0.  1.
         23    2    1    0    0    0  0.86831182165E+01  0.27451111235E+02  0.30802465254E+00  0.96296686033E+02  0.91891222714E+02 0.  0.
         13    1    3    3    0    0 -0.20245427606E+02 -0.24290500040E+02 -0.15108239860E+02  0.35045339303E+02  0.10566000000E+00 0. -1.
         22    1    1    0    0    0 -0.86831182165E+01 -0.27451111235E+02 -0.30802465254E+00  0.28793313967E+02  0.00000000000E+00 0.  1.
</event>
<event>
 5    1  0.2370309E-009  0.9118800E+02  0.7561462E-02  0.1125453E+00
         25   -1    0    0    0    0  0.00000000000E+00  0.00000000000E+00  0.99999998245E-14  0.12509000000E+03  0.12509000000E+03 0.  0.
        -13    1    3    3    0    0 -0.21946943412E+02 -0.36308936665E+01 -0.28665571727E+02  0.36284678315E+02  0.10566000000E+00 0.  1.
         23    2    1    0    0    0  0.95862443140E+01 -0.32345397015E+02  0.54721158584E+01  0.90913036412E+02  0.84244378742E+02 0.  0.
         13    1    3    3    0    0  0.31533187726E+02 -0.28714503349E+02  0.34137687585E+02  0.54628358097E+02  0.10566000000E+00 0. -1.
         22    1    1    0    0    0 -0.95862443140E+01  0.32345397015E+02 -0.54721158584E+01  0.34176963588E+02  0.00000000000E+00 0. -1.
</event>
<event>
 5    1  0.2370309E-009  0.9118800E+02  0.7561462E-02  0.1125453E+00
         25   -1    0    0    0    0  0.00000000000E+00  0.00000000000E+00  0.99999998245E-14  0.12509000000E+03  0.12509000000E+03 0.  0.
        -13    1    3    3    0    0  0.45084907773E+02  0.27958133871E+02  0.15158547426E+02  0.55173353012E+02  0.10566000000E+00 0. -1.
         23    2    1    0    0    0  0.55064890657E+01  0.23099697052E+02  0.18208766096E+02  0.95165485159E+02  0.90338214378E+02 0.  0.
         13    1    3    3    0    0 -0.39578418708E+02 -0.48584368185E+01  0.30502186704E+01  0.39992132147E+02  0.10566000000E+00 0.  1.
         22    1    1    0    0    0 -0.55064890657E+01 -0.23099697052E+02 -0.18208766096E+02  0.29924514841E+02  0.00000000000E+00 0. -1.
</event>
<event>
 5    1  0.2370309E-009  0.9118800E+02  0.7561462E-02  0.1125453E+00
         25   -1    0    0    0    0  0.00000000000E+00  0.00000000000E+00  0.99999998245E-14  0.12509000000E+03  0.12509000000E+03 0.  0.
        -13    1    3    3    0    0 -0.24372857414E+02  0.16800070490E+02  0.43675315098E+02  0.52761945187E+02  0.10566000000E+00 0.  1.
         23    2    1    0    0    0 -0.21123681240E+01  0.25977198931E+02  0.46530274542E+01  0.98614962175E+02  0.94994647938E+02 0.  0.
         13    1    3    3    0    0  0.22260489290E+02  0.91771284407E+01 -0.39022287644E+02  0.45853016987E+02  0.10566000000E+00 0. -1.
         22    1    1    0    0    0  0.21123681240E+01 -0.25977198931E+02 -0.46530274542E+01  0.26475037825E+02  0.00000000000E+00 0.  1.
</event>
<event>
 5    1  0.2370309E-009  0.9118800E+02  0.7561462E-02  0.1125453E+00
         25   -1    0    0    0    0  0.00000000000E+00  0.00000000000E+00  0.99999998245E-14  0.12509000000E+03  0.12509000000E+03 0.  0.
        -13    1    3    3    0    0  0.37772874130E+02  0.19585878503E+02  0.39941400694E+02  0.58358575293E+02  0.10566000000E+00 0.  1.
         23    2    1    0    0    0  0.28506716621E+02  0.11073890023E+02  0.68658701731E+01  0.93746673661E+02  0.88351766913E+02 0.  0.
         13    1    3    3    0    0 -0.92661575089E+01 -0.85119884797E+01 -0.33075530521E+02  0.35388098369E+02  0.10566000000E+00 0. -1.
         22    1    1    0    0    0 -0.28506716621E+02 -0.11073890023E+02 -0.68658701731E+01  0.31343326339E+02  0.00000000000E+00 0.  1.
</event>
<event>
 5    1  0.2370309E-009  0.9118800E+02  0.7561462E-02  0.1125453E+00
         25   -1    0    0    0    0  0.00000000000E+00  0.00000000000E+00  0.99999998245E-14  0.12509000000E+03  0.12509000000E+03 0.  0.
        -13    1    3    3    0    0  0.49567264956E+02  0.12578293987E+02  0.15473811680E+02  0.53428243905E+02  0.10566000000E+00 0. -1.
         23    2    1    0    0    0  0.26140960408E+02 -0.16068219682E+02 -0.19762599813E+01  0.94341941552E+02  0.89190575946E+02 0.  0.
         13    1    3    3    0    0 -0.23426304548E+02 -0.28646513669E+02 -0.17450071661E+02  0.40913697647E+02  0.10566000000E+00 0.  1.
         22    1    1    0    0    0 -0.26140960408E+02  0.16068219682E+02  0.19762599813E+01  0.30748058448E+02  0.00000000000E+00 0.  1.
</event>
<event>
 5    1  0.2370309E-009  0.9118800E+02  0.7561462E-02  0.1125453E+00
         25   -1    0    0    0    0  0.00000000000E+00  0.00000000000E+00  0.99999998245E-14  0.12509000000E+03  0.12509000000E+03 0.  0.
        -13    1    3    3    0    0  0.27632409918E+02  0.27132863577E+02  0.42035571082E+02  0.57155426374E+02  0.10566000000E+00 0.  1.
         23    2    1    0    0    0  0.21042829738E+02 -0.27282514129E+01  0.25488882563E+02  0.91924850015E+02  0.85733604129E+02 0.  0.
         13    1    3    3    0    0 -0.65895801799E+01 -0.29861114990E+02 -0.16546688518E+02  0.34769423642E+02  0.10566000000E+00 0. -1.
         22    1    1    0    0    0 -0.21042829738E+02  0.27282514129E+01 -0.25488882563E+02  0.33165149985E+02  0.00000000000E+00 0.  1.
</event>
<event>
 5    1  0.2370309E-009  0.9118800E+02  0.7561462E-02  0.1125453E+00
         25   -1    0    0    0    0  0.00000000000E+00  0.00000000000E+00  0.99999998245E-14  0.12509000000E+03  0.12509000000E+03 0.  0.
        -13    1    3    3    0    0  0.39770556333E+02 -0.26460223632E+01  0.95111540168E+01  0.40977698815E+02  0.10566000000E+00 0.  1.
         23    2    1    0    0    0 -0.11961198796E+02 -0.11401699732E+02  0.24494324980E+02  0.95542732959E+02  0.90859082273E+02 0.  0.
         13    1    3    3    0    0 -0.51731755129E+02 -0.87556773685E+01  0.14983170963E+02  0.54565034144E+02  0.10566000000E+00 0. -1.
         22    1    1    0    0    0  0.11961198796E+02  0.11401699732E+02 -0.24494324980E+02  0.29547267041E+02  0.00000000000E+00 0. -1.
</event>
<event>
 5    1  0.2370309E-009  0.9118800E+02  0.7561462E-02  0.1125453E+00
         25   -1    0    0    0    0  0.00000000000E+00  0.00000000000E+00  0.99999998245E-14  0.12509000000E+03  0.12509000000E+03 0.  0.
        -13    1    3    3    0    0 -0.18347099869E+02 -0.30270967537E+02  0.11490191209E+01  0.35415800968E+02  0.10566000000E+00 0.  1.
         23    2    1    0    0    0  0.28082561294E+01  0.26834119043E+02  0.86095686043E+01  0.96768966847E+02  0.92531897343E+02 0.  0.
         13    1    3    3    0    0  0.21155355999E+02  0.57105086580E+02  0.74605494835E+01  0.61353165879E+02  0.10566000000E+00 0. -1.
         22    1    1    0    0    0 -0.28082561294E+01 -0.26834119043E+02 -0.86095686043E+01  0.28321033153E+02  0.00000000000E+00 0. -1.
</event>
<event>
 5    1  0.2370309E-009  0.9118800E+02  0.7561462E-02  0.1125453E+00
         25   -1    0    0    0    0  0.00000000000E+00  0.00000000000E+00  0.99999998245E-14  0.12509000000E+03  0.12509000000E+03 0.  0.
        -13    1    3    3    0    0 -0.16533613209E+02 -0.16929732068E+01  0.33423360554E+02  0.37327720514E+02  0.10566000000E+00 0.  1.
         23    2    1    0    0    0  0.75258602608E+01 -0.24977688404E+02 -0.14080742738E+02  0.95445594006E+02  0.90725247910E+02 0.  0.
         13    1    3    3    0    0  0.24059473470E+02 -0.23284715198E+02 -0.47504103293E+02  0.58117873491E+02  0.10566000000E+00 0. -1.
         22    1    1    0    0    0 -0.75258602608E+01  0.24977688404E+02  0.14080742738E+02  0.29644405994E+02  0.00000000000E+00 0. -1.
</event>
<event>
 5    1  0.2370309E-009  0.9118800E+02  0.7561462E-02  0.1125453E+00
         25   -1    0    0    0    0  0.00000000000E+00  0.00000000000E+00  0.99999998245E-14  0.12509000000E+03  0.12509000000E+03 0.  0.
        -13    1    3    3    0    0  0.52074324667E+02 -0.40374261857E+00  0.16746824612E+02  0.54702519103E+02  0.10566000000E+00 0.  1.
         23    2    1    0    0    0  0.21932103482E+02  0.76866666460E+01 -0.13541294098E+02  0.98192627394E+02  0.94436875326E+02 0.  0.
         13    1    3    3    0    0 -0.30142221185E+02  0.80904092645E+01 -0.30288118711E+02  0.43490108290E+02  0.10566000000E+00 0. -1.
         22    1    1    0    0    0 -0.21932103482E+02 -0.76866666460E+01  0.13541294098E+02  0.26897372606E+02  0.00000000000E+00 0.  1.
</event>
<event>
 5    1  0.2370309E-009  0.9118800E+02  0.7561462E-02  0.1125453E+00
         25   -1    0    0    0    0  0.00000000000E+00  0.00000000000E+00  0.99999998245E-14  0.12509000000E+03  0.12509000000E+03 0.  0.
        -13    1    3    3    0    0  0.39848664809E+01  0.35698742684E+02  0.27471086789E+02  0.45221136247E+02  0.10566000000E+00 0.  1.
         23    2    1    0    0    0 -0.18518318002E+02 -0.87888080320E+01  0.21420006552E+02  0.95442269414E+02  0.90720663920E+02 0.  0.
         13    1    3    3    0    0 -0.22503184482E+02 -0.44487550716E+02 -0.60510802372E+01  0.50221133167E+02  0.10566000000E+00 0. -1.
         22    1    1    0    0    0  0.18518318002E+02  0.87888080320E+01 -0.21420006552E+02  0.29647730586E+02  0.00000000000E+00 0. -1.
</event>
<event>
 5    1  0.2370309E-009  0.9118800E+02  0.7561462E-02  0.1125453E+00
         25   -1    0    0    0    0  0.00000000000E+00  0.00000000000E+00  0.99999998245E-14  0.12509000000E+03  0.12509000000E+03 0.  0.
        -13    1    3    3    0    0  0.18668640498E+02  0.89005930883E+01  0.20021694543E+02  0.28785727571E+02  0.10566000000E+00 0. -1.
         23    2    1    0    0    0  0.23777368770E+02 -0.10780148672E+02 -0.31501763391E+02  0.84176237429E+02  0.73564277880E+02 0.  0.
         13    1    3    3    0    0  0.51087282712E+01 -0.19680741760E+02 -0.51523457934E+02  0.55390509858E+02  0.10566000000E+00 0.  1.
         22    1    1    0    0    0 -0.23777368770E+02  0.10780148672E+02  0.31501763391E+02  0.40913762571E+02  0.00000000000E+00 0.  1.
</event>
<event>
 5    1  0.2370309E-009  0.9118800E+02  0.7561462E-02  0.1125453E+00
         25   -1    0    0    0    0  0.00000000000E+00  0.00000000000E+00  0.99999998245E-14  0.12509000000E+03  0.12509000000E+03 0.  0.
        -13    1    3    3    0    0 -0.48265565350E+02 -0.35161810265E+02 -0.97720135257E+01  0.60509677838E+02  0.10566000000E+00 0.  1.
         23    2    1    0    0    0 -0.19479967550E+02 -0.19483109845E+01 -0.10234368485E+00  0.10551257612E+03  0.10368041375E+03 0.  0.
         13    1    3    3    0    0  0.28785597801E+02  0.33213499280E+02  0.96696698409E+01  0.45002898285E+02  0.10566000000E+00 0. -1.
         22    1    1    0    0    0  0.19479967550E+02  0.19483109845E+01  0.10234368485E+00  0.19577423877E+02  0.00000000000E+00 0.  1.
</event>
<event>
 5    1  0.2370309E-009  0.9118800E+02  0.7561462E-02  0.1125453E+00
         25   -1    0    0    0    0  0.00000000000E+00  0.00000000000E+00  0.99999998245E-14  0.12509000000E+03  0.12509000000E+03 0.  0.
        -13    1    3    3    0    0 -0.68863398615E+01 -0.27494016266E+02  0.40483813894E+02  0.49419560485E+02  0.10566000000E+00 0.  1.
         23    2    1    0    0    0  0.20477847652E+02 -0.20976278622E+02  0.39770075811E+01  0.95506844344E+02  0.90809659276E+02 0.  0.
         13    1    3    3    0    0  0.27364187514E+02  0.65177376442E+01 -0.36506806313E+02  0.46087283859E+02  0.10566000000E+00 0. -1.
         22    1    1    0    0    0 -0.20477847652E+02  0.20976278622E+02 -0.39770075811E+01  0.29583155656E+02  0.00000000000E+00 0. -1.
</event>
<event>
 5    1  0.2370309E-009  0.9118800E+02  0.7561462E-02  0.1125453E+00
         25   -1    0    0    0    0  0.00000000000E+00  0.00000000000E+00  0.99999998245E-14  0.12509000000E+03  0.12509000000E+03 0.  0.
        -13    1    3    3    0    0 -0.22486679696E+02 -0.10083296853E+02 -0.15912024765E+02  0.29334746212E+02  0.10566000000E+00 0. -1.
         23    2    1    0    0    0  0.33607740586E+02 -0.17089433948E+02 -0.93507101685E+01  0.86244604383E+02  0.77001084567E+02 0.  0.
         13    1    3    3    0    0  0.56094420282E+02 -0.70061370959E+01  0.65613145960E+01  0.56909858171E+02  0.10566000000E+00 0.  1.
         22    1    1    0    0    0 -0.33607740586E+02  0.17089433948E+02  0.93507101685E+01  0.38845395617E+02  0.00000000000E+00 0.  1.
</event>
<event>
 5    1  0.2370309E-009  0.9118800E+02  0.7561462E-02  0.1125453E+00
         25   -1    0    0    0    0  0.00000000000E+00  0.00000000000E+00  0.99999998245E-14  0.12509000000E+03  0.12509000000E+03 0.  0.
        -13    1    3    3    0    0 -0.41367507585E+02 -0.34707526030E+02  0.21222520303E+02  0.58019734393E+02  0.10566000000E+00 0.  1.
         23    2    1    0    0    0 -0.18071383334E+02 -0.11854942400E+02  0.26302876249E+02  0.91046559312E+02  0.84442407052E+02 0.  0.
         13    1    3    3    0    0  0.23296124252E+02  0.22852583630E+02  0.50803559454E+01  0.33026824920E+02  0.10566000000E+00 0. -1.
         22    1    1    0    0    0  0.18071383334E+02  0.11854942400E+02 -0.26302876249E+02  0.34043440688E+02  0.00000000000E+00 0.  1.
</event>
<event>
 5    1  0.2370309E-009  0.9118800E+02  0.7561462E-02  0.1125453E+00
         25   -1    0    0    0    0  0.00000000000E+00  0.00000000000E+00  0.99999998245E-14  0.12509000000E+03  0.12509000000E+03 0.  0.
        -13    1    3    3    0    0 -0.10431047814E+01  0.40486184961E+02  0.45424271835E+02  0.60857167828E+02  0.10566000000E+00 0.  1.
         23    2    1    0    0    0  0.67795170916E+01  0.23300223935E+02  0.15324118966E+02  0.96389984155E+02  0.92018140255E+02 0.  0.
         13    1    3    3    0    0  0.78226218730E+01 -0.17185961026E+02 -0.30100152869E+02  0.35532816327E+02  0.10566000000E+00 0. -1.
         22    1    1    0    0    0 -0.67795170916E+01 -0.23300223935E+02 -0.15324118966E+02  0.28700015845E+02  0.00000000000E+00 0.  1.
</event>
<event>
 5    1  0.2370309E-009  0.9118800E+02  0.7561462E-02  0.1125453E+00
         25   -1    0    0    0    0  0.00000000000E+00  0.00000000000E+00  0.99999998245E-14  0.12509000000E+03  0.12509000000E+03 0.  0.
        -13    1    3    3    0    0 -0.19241576532E+02  0.40414306696E+02  0.46824551749E+01  0.45005455265E+02  0.10566000000E+00 0.  1.
         23    2    1    0    0    0 -0.25096539829E+02 -0.10726406124E+02 -0.48895468849E+01  0.97362761254E+02  0.93331171162E+02 0.  0.
         13    1    3    3    0    0 -0.58549632973E+01 -0.51140712820E+02 -0.95720020598E+01  0.52357305989E+02  0.10566000000E+00 0. -1.
         22    1    1    0    0    0  0.25096539829E+02  0.10726406124E+02  0.48895468849E+01  0.27727238746E+02  0.00000000000E+00 0. -1.
</event>
<event>
 5    1  0.2370309E-009  0.9118800E+02  0.7561462E-02  0.1125453E+00
         25   -1    0    0    0    0  0.00000000000E+00  0.00000000000E+00  0.99999998245E-14  0.12509000000E+03  0.12509000000E+03 0.  0.
        -13    1    3    3    0    0  0.42624409851E+02  0.30516313518E+02 -0.18894261035E+02  0.55723334161E+02  0.10566000000E+00 0. -1.
         23    2    1    0    0    0  0.31902238520E+02 -0.13557430512E+01 -0.27057540922E+01  0.93044532817E+02  0.87352006961E+02 0.  0.
         13    1    3    3    0    0 -0.10722171331E+02 -0.31872056570E+02  0.16188506943E+02  0.37321198656E+02  0.10566000000E+00 0.  1.
         22    1    1    0    0    0 -0.31902238520E+02  0.13557430512E+01  0.27057540922E+01  0.32045467183E+02  0.00000000000E+00 0. -1.
</event>
<event>
 5    1  0.2370309E-009  0.9118800E+02  0.7561462E-02  0.1125453E+00
         25   -1    0    0    0    0  0.00000000000E+00  0.00000000000E+00  0.99999998245E-14  0.12509000000E+03  0.12509000000E+03 0.  0.
        -13    1    3    3    0    0 -0.13606542919E+00  0.45827315093E+02 -0.67228330564E+01  0.46318127885E+02  0.10566000000E+00 0.  1.
         23    2    1    0    0    0  0.28397533533E+02  0.52746486815E+01 -0.32415362531E+01  0.96025427291E+02  0.91521217757E+02 0.  0.
         13    1    3    3    0    0  0.28533598962E+02 -0.40552666412E+02  0.34812968033E+01  0.49707299406E+02  0.10566000000E+00 0. -1.
         22    1    1    0    0    0 -0.28397533533E+02 -0.52746486815E+01  0.32415362531E+01  0.29064572709E+02  0.00000000000E+00 0. -1.
</event>
<event>
 5    1  0.2370309E-009  0.9118800E+02  0.7561462E-02  0.1125453E+00
         25   -1    0    0    0    0  0.00000000000E+00  0.00000000000E+00  0.99999998245E-14  0.12509000000E+03  0.12509000000E+03 0.  0.
        -13    1    3    3    0    0  0.80081125561E+01  0.32875142836E+02  0.81210896138E+01  0.34797530713E+02  0.10566000000E+00 0.  1.
         23    2    1    0    0    0 -0.16087466100E+02 -0.23049843553E+02  0.86018820273E+01  0.95694520284E+02  0.91067815306E+02 0.  0.
         13    1    3    3    0    0 -0.24095578656E+02 -0.55924986389E+02  0.48079241351E+00  0.60896989570E+02  0.10566000000E+00 0. -1.
         22    1    1    0    0    0  0.16087466100E+02  0.23049843553E+02 -0.86018820273E+01  0.29395479716E+02  0.00000000000E+00 0. -1.
</event>
<event>
 5    1  0.2370309E-009  0.9118800E+02  0.7561462E-02  0.1125453E+00
         25   -1    0    0    0    0  0.00000000000E+00  0.00000000000E+00  0.99999998245E-14  0.12509000000E+03  0.12509000000E+03 0.  0.
        -13    1    3    3    0    0  0.75996488944E+01  0.34339549113E+02 -0.22157031256E+00  0.35171288774E+02  0.10566000000E+00 0.  1.
         23    2    1    0    0    0 -0.19137350503E+02 -0.13009032364E+02  0.21287997419E+02  0.93647163909E+02  0.88210766728E+02 0.  0.
         13    1    3    3    0    0 -0.26736999398E+02 -0.47348581477E+02  0.21509567732E+02  0.58475875135E+02  0.10566000000E+00 0. -1.
         22    1    1    0    0    0  0.19137350503E+02  0.13009032364E+02 -0.21287997419E+02  0.31442836091E+02  0.00000000000E+00 0. -1.
</event>
<event>
 5    1  0.2370309E-009  0.9118800E+02  0.7561462E-02  0.1125453E+00
         25   -1    0    0    0    0  0.00000000000E+00  0.00000000000E+00  0.99999998245E-14  0.12509000000E+03  0.12509000000E+03 0.  0.
        -13    1    3    3    0    0  0.29778382687E+02  0.31535483691E+02  0.12324564967E+02  0.45090407768E+02  0.10566000000E+00 0.  1.
         23    2    1    0    0    0 -0.16874958532E+01  0.16266882715E+02 -0.24343088956E+02  0.95763474542E+02  0.91162481104E+02 0.  0.
         13    1    3    3    0    0 -0.31465878540E+02 -0.15268600975E+02 -0.36667653923E+02  0.50673066774E+02  0.10566000000E+00 0. -1.
         22    1    1    0    0    0  0.16874958532E+01 -0.16266882715E+02  0.24343088956E+02  0.29326525458E+02  0.00000000000E+00 0. -1.
</event>
<event>
 4    1  0.2370309E-009  0.9118800E+02  0.7561462E-02  0.1125453E+00
         25   -1    0    0    0    0  0.00000000000E+00  0.00000000000E+00  0.99999998245E-14  0.12509000000E+03  0.12509000000E+03 0.  0.
        -13    1    1    0    0    0  0.47974460818E+01  0.17128390714E+01 -0.99702560943E+01  0.11196717252E+02  0.10566000000E+00 0.  1.
         13    1    1    0    0    0  0.18213915271E+02 -0.20046227583E+01  0.57897057085E+02  0.60727634608E+02  0.10566000000E+00 0. -1.
         22    1    1    0    0    0 -0.23011361353E+02  0.29178368687E+00 -0.47926800991E+02  0.53165648141E+02  0.00000000000E+00 0. -1.
</event>
<event>
 5    1  0.2370309E-009  0.9118800E+02  0.7561462E-02  0.1125453E+00
         25   -1    0    0    0    0  0.00000000000E+00  0.00000000000E+00  0.99999998245E-14  0.12509000000E+03  0.12509000000E+03 0.  0.
        -13    1    3    3    0    0 -0.13466236179E+02  0.47713614353E+02 -0.35937223756E+02  0.61232538138E+02  0.10566000000E+00 0. -1.
         23    2    1    0    0    0 -0.12067284163E+02  0.26796113328E+02 -0.11245032777E+02  0.93624116909E+02  0.88178078162E+02 0.  0.
         13    1    3    3    0    0  0.13989520161E+01 -0.20917501025E+02  0.24692190979E+02  0.32391578771E+02  0.10566000000E+00 0.  1.
         22    1    1    0    0    0  0.12067284163E+02 -0.26796113328E+02  0.11245032777E+02  0.31465883091E+02  0.00000000000E+00 0. -1.
</event>
<event>
 5    1  0.2370309E-009  0.9118800E+02  0.7561462E-02  0.1125453E+00
         25   -1    0    0    0    0  0.00000000000E+00  0.00000000000E+00  0.99999998245E-14  0.12509000000E+03  0.12509000000E+03 0.  0.
        -13    1    3    3    0    0  0.25556444815E+02  0.33160843774E+02 -0.33169193098E+02  0.53413293908E+02  0.10566000000E+00 0.  1.
         23    2    1    0    0    0 -0.84104157356E+00  0.49984617643E+01 -0.32682953755E+02  0.92016333177E+02  0.85866979301E+02 0.  0.
         13    1    3    3    0    0 -0.26397486389E+02 -0.28162382009E+02  0.48623934256E+00  0.38603039269E+02  0.10566000000E+00 0. -1.
         22    1    1    0    0    0  0.84104157356E+00 -0.49984617643E+01  0.32682953755E+02  0.33073666823E+02  0.00000000000E+00 0.  1.
</event>
<event>
 5    1  0.2370309E-009  0.9118800E+02  0.7561462E-02  0.1125453E+00
         25   -1    0    0    0    0  0.00000000000E+00  0.00000000000E+00  0.99999998245E-14  0.12509000000E+03  0.12509000000E+03 0.  0.
        -13    1    3    3    0    0  0.13996344890E+02 -0.59136255006E+02  0.65810382331E+01  0.61125408421E+02  0.10566000000E+00 0. -1.
         23    2    1    0    0    0  0.14849946329E+02 -0.25378181609E+02 -0.73219088746E+00  0.95677262771E+02  0.91044107443E+02 0.  0.
         13    1    3    3    0    0  0.85360143974E+00  0.33758073396E+02 -0.73132291206E+01  0.34551854350E+02  0.10566000000E+00 0.  1.
         22    1    1    0    0    0 -0.14849946329E+02  0.25378181609E+02  0.73219088746E+00  0.29412737229E+02  0.00000000000E+00 0. -1.
</event>
<event>
 5    1  0.2370309E-009  0.9118800E+02  0.7561462E-02  0.1125453E+00
         25   -1    0    0    0    0  0.00000000000E+00  0.00000000000E+00  0.99999998245E-14  0.12509000000E+03  0.12509000000E+03 0.  0.
        -13    1    3    3    0    0 -0.17380470051E+02  0.29733610556E+02 -0.79838339242E+01  0.35354223284E+02  0.10566000000E+00 0. -1.
         23    2    1    0    0    0  0.35634223753E+01 -0.26989459032E+02 -0.10596180815E+02  0.95876853546E+02  0.91317923324E+02 0.  0.
         13    1    3    3    0    0  0.20943892426E+02 -0.56723069588E+02 -0.26123468913E+01  0.60522630261E+02  0.10566000000E+00 0.  1.
         22    1    1    0    0    0 -0.35634223753E+01  0.26989459032E+02  0.10596180815E+02  0.29213146454E+02  0.00000000000E+00 0.  1.
</event>
<event>
 5    1  0.2370309E-009  0.9118800E+02  0.7561462E-02  0.1125453E+00
         25   -1    0    0    0    0  0.00000000000E+00  0.00000000000E+00  0.99999998245E-14  0.12509000000E+03  0.12509000000E+03 0.  0.
        -13    1    3    3    0    0 -0.52997209287E+02 -0.59180184567E+01 -0.12788504260E+02  0.54838710232E+02  0.10566000000E+00 0. -1.
         23    2    1    0    0    0 -0.13545549187E+02 -0.14272444421E+02 -0.21340692422E+02  0.96062259379E+02  0.91571545533E+02 0.  0.
         13    1    3    3    0    0  0.39451660100E+02 -0.83544259641E+01 -0.85521881618E+01  0.41223549147E+02  0.10566000000E+00 0.  1.
         22    1    1    0    0    0  0.13545549187E+02  0.14272444421E+02  0.21340692422E+02  0.29027740621E+02  0.00000000000E+00 0. -1.
</event>
<event>
 5    1  0.2370309E-009  0.9118800E+02  0.7561462E-02  0.1125453E+00
         25   -1    0    0    0    0  0.00000000000E+00  0.00000000000E+00  0.99999998245E-14  0.12509000000E+03  0.12509000000E+03 0.  0.
        -13    1    3    3    0    0 -0.18342724877E+02  0.30283722359E+01 -0.29475358485E+02  0.34848737655E+02  0.10566000000E+00 0.  1.
         23    2    1    0    0    0  0.21350578003E+02 -0.18135022625E+02  0.10643717935E+02  0.95123102293E+02  0.90279508371E+02 0.  0.
         13    1    3    3    0    0  0.39693302881E+02 -0.21163394861E+02  0.40119076420E+02  0.60274364638E+02  0.10566000000E+00 0. -1.
         22    1    1    0    0    0 -0.21350578003E+02  0.18135022625E+02 -0.10643717935E+02  0.29966897707E+02  0.00000000000E+00 0. -1.
</event>
<event>
 5    1  0.2370309E-009  0.9118800E+02  0.7561462E-02  0.1125453E+00
         25   -1    0    0    0    0  0.00000000000E+00  0.00000000000E+00  0.99999998245E-14  0.12509000000E+03  0.12509000000E+03 0.  0.
        -13    1    3    3    0    0  0.27995383794E+01  0.52645884181E+02  0.26333675101E+02  0.58931317182E+02  0.10566000000E+00 0.  1.
         23    2    1    0    0    0  0.32489065670E+01  0.15709227050E+02  0.24358621280E+02  0.95923621427E+02  0.91381964898E+02 0.  0.
         13    1    3    3    0    0  0.44936818753E+00 -0.36936657131E+02 -0.19750538218E+01  0.36992304246E+02  0.10566000000E+00 0. -1.
         22    1    1    0    0    0 -0.32489065670E+01 -0.15709227050E+02 -0.24358621280E+02  0.29166378573E+02  0.00000000000E+00 0.  1.
</event>
<event>
 5    1  0.2370309E-009  0.9118800E+02  0.7561462E-02  0.1125453E+00
         25   -1    0    0    0    0  0.00000000000E+00  0.00000000000E+00  0.99999998245E-14  0.12509000000E+03  0.12509000000E+03 0.  0.
        -13    1    3    3    0    0  0.59784300891E+01  0.57898307972E+02  0.80800585132E+01  0.58764395700E+02  0.10566000000E+00 0.  1.
         23    2    1    0    0    0  0.16899753449E+02  0.23988495700E+02 -0.16670432439E+01  0.95699038367E+02  0.91074021096E+02 0.  0.
         13    1    3    3    0    0  0.10921323359E+02 -0.33909812272E+02 -0.97471017570E+01  0.36934642667E+02  0.10566000000E+00 0. -1.
         22    1    1    0    0    0 -0.16899753449E+02 -0.23988495700E+02  0.16670432439E+01  0.29390961633E+02  0.00000000000E+00 0.  1.
</event>
<event>
 5    1  0.2370309E-009  0.9118800E+02  0.7561462E-02  0.1125453E+00
         25   -1    0    0    0    0  0.00000000000E+00  0.00000000000E+00  0.99999998245E-14  0.12509000000E+03  0.12509000000E+03 0.  0.
        -13    1    3    3    0    0  0.33231890259E+02 -0.22037191889E+02  0.27383425398E+02  0.48372094301E+02  0.10566000000E+00 0. -1.
         23    2    1    0    0    0 -0.44570728586E+01  0.61836279862E+01  0.28620193268E+02  0.95472130120E+02  0.90761827953E+02 0.  0.
         13    1    3    3    0    0 -0.37688963117E+02  0.28220819875E+02  0.12367678707E+01  0.47100035819E+02  0.10566000000E+00 0.  1.
         22    1    1    0    0    0  0.44570728586E+01 -0.61836279862E+01 -0.28620193268E+02  0.29617869880E+02  0.00000000000E+00 0.  1.
</event>
<event>
 5    1  0.2370309E-009  0.9118800E+02  0.7561462E-02  0.1125453E+00
         25   -1    0    0    0    0  0.00000000000E+00  0.00000000000E+00  0.99999998245E-14  0.12509000000E+03  0.12509000000E+03 0.  0.
        -13    1    3    3    0    0  0.32865207252E+02  0.23831683658E+02  0.58137160748E+01  0.41010748009E+02  0.10566000000E+00 0.  1.
         23    2    1    0    0    0 -0.11744681252E+02  0.15683604516E+02 -0.23105484138E+02  0.94795175597E+02  0.89823988616E+02 0.  0.
         13    1    3    3    0    0 -0.44609888504E+02 -0.81480791416E+01 -0.28919200213E+02  0.53784427588E+02  0.10566000000E+00 0. -1.
         22    1    1    0    0    0  0.11744681252E+02 -0.15683604516E+02  0.23105484138E+02  0.30294824403E+02  0.00000000000E+00 0. -1.
</event>
<event>
 5    1  0.2370309E-009  0.9118800E+02  0.7561462E-02  0.1125453E+00
         25   -1    0    0    0    0  0.00000000000E+00  0.00000000000E+00  0.99999998245E-14  0.12509000000E+03  0.12509000000E+03 0.  0.
        -13    1    3    3    0    0  0.20750010475E+02  0.14687399396E+02  0.15322762873E+02  0.29683006281E+02  0.10566000000E+00 0.  1.
         23    2    1    0    0    0  0.25617067563E+02 -0.23711954027E+02 -0.22305240874E+02  0.83665192399E+02  0.72690093784E+02 0.  0.
         13    1    3    3    0    0  0.48670570880E+01 -0.38399353424E+02 -0.37628003747E+02  0.53982186118E+02  0.10566000000E+00 0. -1.
         22    1    1    0    0    0 -0.25617067563E+02  0.23711954027E+02  0.22305240874E+02  0.41424807601E+02  0.00000000000E+00 0. -1.
</event>
<event>
 5    1  0.2370309E-009  0.9118800E+02  0.7561462E-02  0.1125453E+00
         25   -1    0    0    0    0  0.00000000000E+00  0.00000000000E+00  0.99999998245E-14  0.12509000000E+03  0.12509000000E+03 0.  0.
        -13    1    3    3    0    0  0.27689266135E+02  0.32787001197E+02 -0.21915965030E+02  0.48187172503E+02  0.10566000000E+00 0.  1.
         23    2    1    0    0    0 -0.12448608018E+02  0.44236308773E+01 -0.24340727342E+02  0.97395102288E+02  0.93374507177E+02 0.  0.
         13    1    3    3    0    0 -0.40137874153E+02 -0.28363370320E+02 -0.24247623119E+01  0.49207929785E+02  0.10566000000E+00 0. -1.
         22    1    1    0    0    0  0.12448608018E+02 -0.44236308773E+01  0.24340727342E+02  0.27694897712E+02  0.00000000000E+00 0.  1.
</event>
<event>
 5    1  0.2370309E-009  0.9118800E+02  0.7561462E-02  0.1125453E+00
         25   -1    0    0    0    0  0.00000000000E+00  0.00000000000E+00  0.99999998245E-14  0.12509000000E+03  0.12509000000E+03 0.  0.
        -13    1    3    3    0    0 -0.99679426087E+01 -0.31752182536E+02  0.47493405554E+02  0.57993066058E+02  0.10566000000E+00 0.  1.
         23    2    1    0    0    0 -0.20390665845E+02 -0.11864141160E+02  0.16349599303E+02  0.96387273711E+02  0.92014455587E+02 0.  0.
         13    1    3    3    0    0 -0.10422723237E+02  0.19888041376E+02 -0.31143806251E+02  0.38394207653E+02  0.10566000000E+00 0. -1.
         22    1    1    0    0    0  0.20390665845E+02  0.11864141160E+02 -0.16349599303E+02  0.28702726289E+02  0.00000000000E+00 0.  1.
</event>
<event>
 5    1  0.2370309E-009  0.9118800E+02  0.7561462E-02  0.1125453E+00
         25   -1    0    0    0    0  0.00000000000E+00  0.00000000000E+00  0.99999998245E-14  0.12509000000E+03  0.12509000000E+03 0.  0.
        -13    1    3    3    0    0  0.15122147493E+02 -0.10693922027E+02 -0.57169940742E+02  0.60095362564E+02  0.10566000000E+00 0. -1.
         23    2    1    0    0    0  0.82565833860E+01  0.75073725175E+01 -0.25377957970E+02  0.97366858727E+02  0.93336662766E+02 0.  0.
         13    1    3    3    0    0 -0.68655641069E+01  0.18201294545E+02  0.31791982772E+02  0.37271496163E+02  0.10566000000E+00 0.  1.
         22    1    1    0    0    0 -0.82565833860E+01 -0.75073725175E+01  0.25377957970E+02  0.27723141273E+02  0.00000000000E+00 0. -1.
</event>
<event>
 5    1  0.2370309E-009  0.9118800E+02  0.7561462E-02  0.1125453E+00
         25   -1    0    0    0    0  0.00000000000E+00  0.00000000000E+00  0.99999998245E-14  0.12509000000E+03  0.12509000000E+03 0.  0.
        -13    1    3    3    0    0  0.19798419508E+02 -0.17883907458E+02  0.37088452837E+02  0.45687810835E+02  0.10566000000E+00 0. -1.
         23    2    1    0    0    0  0.23271848130E+02  0.17885968488E+02  0.23923753127E+01  0.95641566361E+02  0.90995049163E+02 0.  0.
         13    1    3    3    0    0  0.34734286216E+01  0.35769875947E+02 -0.34696077524E+02  0.49953755527E+02  0.10566000000E+00 0.  1.
         22    1    1    0    0    0 -0.23271848130E+02 -0.17885968488E+02 -0.23923753127E+01  0.29448433639E+02  0.00000000000E+00 0.  1.
</event>
<event>
 5    1  0.2370309E-009  0.9118800E+02  0.7561462E-02  0.1125453E+00
         25   -1    0    0    0    0  0.00000000000E+00  0.00000000000E+00  0.99999998245E-14  0.12509000000E+03  0.12509000000E+03 0.  0.
        -13    1    3    3    0    0  0.11216965478E+02 -0.66887034621E+01 -0.32813895470E+02  0.35317445668E+02  0.10566000000E+00 0.  1.
         23    2    1    0    0    0 -0.10314254677E+02 -0.16464420128E+02  0.22433671802E+02  0.95412894174E+02  0.90680150885E+02 0.  0.
         13    1    3    3    0    0 -0.21531220155E+02 -0.97757166654E+01  0.55247567272E+02  0.60095448506E+02  0.10566000000E+00 0. -1.
         22    1    1    0    0    0  0.10314254677E+02  0.16464420128E+02 -0.22433671802E+02  0.29677105826E+02  0.00000000000E+00 0. -1.
</event>
<event>
 5    1  0.2370309E-009  0.9118800E+02  0.7561462E-02  0.1125453E+00
         25   -1    0    0    0    0  0.00000000000E+00  0.00000000000E+00  0.99999998245E-14  0.12509000000E+03  0.12509000000E+03 0.  0.
        -13    1    3    3    0    0 -0.46609127476E+02 -0.34192872988E+02  0.87653315222E+01  0.58467132031E+02  0.10566000000E+00 0. -1.
         23    2    1    0    0    0 -0.14278347923E+02 -0.23675851144E+02 -0.79069074338E+01  0.96333499310E+02  0.91941322360E+02 0.  0.
         13    1    3    3    0    0  0.32330779553E+02  0.10517021844E+02 -0.16672238956E+02  0.37866367278E+02  0.10566000000E+00 0.  1.
         22    1    1    0    0    0  0.14278347923E+02  0.23675851144E+02  0.79069074338E+01  0.28756500690E+02  0.00000000000E+00 0. -1.
</event>
<event>
 5    1  0.2370309E-009  0.9118800E+02  0.7561462E-02  0.1125453E+00
         25   -1    0    0    0    0  0.00000000000E+00  0.00000000000E+00  0.99999998245E-14  0.12509000000E+03  0.12509000000E+03 0.  0.
        -13    1    3    3    0    0 -0.10674744628E+02 -0.28866587816E+02  0.36682552834E+02  0.47883722824E+02  0.10566000000E+00 0. -1.
         23    2    1    0    0    0  0.15007487158E+02 -0.25958348511E+02 -0.26935432460E+01  0.94984922298E+02  0.90087844688E+02 0.  0.
         13    1    3    3    0    0  0.25682231786E+02  0.29082393048E+01 -0.39376096080E+02  0.47101199474E+02  0.10566000000E+00 0.  1.
         22    1    1    0    0    0 -0.15007487158E+02  0.25958348511E+02  0.26935432460E+01  0.30105077702E+02  0.00000000000E+00 0. -1.
</event>
<event>
 5    1  0.2370309E-009  0.9118800E+02  0.7561462E-02  0.1125453E+00
         25   -1    0    0    0    0  0.00000000000E+00  0.00000000000E+00  0.99999998245E-14  0.12509000000E+03  0.12509000000E+03 0.  0.
        -13    1    3    3    0    0  0.15291860035E+02  0.28453260413E+02  0.18457756193E+02  0.37203883388E+02  0.10566000000E+00 0.  1.
         23    2    1    0    0    0 -0.27517254640E+02 -0.75170234608E-01 -0.97774714431E+01  0.95887193606E+02  0.91332086346E+02 0.  0.
         13    1    3    3    0    0 -0.42809114674E+02 -0.28528430647E+02 -0.28235227637E+02  0.58683310218E+02  0.10566000000E+00 0. -1.
         22    1    1    0    0    0  0.27517254640E+02  0.75170234608E-01  0.97774714431E+01  0.29202806394E+02  0.00000000000E+00 0. -1.
</event>
<event>
 5    1  0.2370309E-009  0.9118800E+02  0.7561462E-02  0.1125453E+00
         25   -1    0    0    0    0  0.00000000000E+00  0.00000000000E+00  0.99999998245E-14  0.12509000000E+03  0.12509000000E+03 0.  0.
        -13    1    3    3    0    0 -0.44847160511E+02  0.19399598376E+02 -0.16299218446E+02  0.51510075801E+02  0.10566000000E+00 0.  1.
         23    2    1    0    0    0 -0.25941192512E+02  0.12018757800E+02  0.17957738361E+02  0.91327944745E+02  0.84858217730E+02 0.  0.
         13    1    3    3    0    0  0.18905967999E+02 -0.73808405761E+01  0.34256956807E+02  0.39817868944E+02  0.10566000000E+00 0. -1.
         22    1    1    0    0    0  0.25941192512E+02 -0.12018757800E+02 -0.17957738361E+02  0.33762055255E+02  0.00000000000E+00 0.  1.
</event>
<event>
 5    1  0.2370309E-009  0.9118800E+02  0.7561462E-02  0.1125453E+00
         25   -1    0    0    0    0  0.00000000000E+00  0.00000000000E+00  0.99999998245E-14  0.12509000000E+03  0.12509000000E+03 0.  0.
        -13    1    3    3    0    0  0.28422320461E+02  0.12043537406E+02  0.52487784107E+02  0.60892148411E+02  0.10566000000E+00 0.  1.
         23    2    1    0    0    0  0.19811127181E+02 -0.24441382800E+01  0.25567334441E+02  0.92653243650E+02  0.86789863442E+02 0.  0.
         13    1    3    3    0    0 -0.86111932801E+01 -0.14487675686E+02 -0.26920449666E+02  0.31761095238E+02  0.10566000000E+00 0. -1.
         22    1    1    0    0    0 -0.19811127181E+02  0.24441382800E+01 -0.25567334441E+02  0.32436756350E+02  0.00000000000E+00 0.  1.
</event>
<event>
 5    1  0.2370309E-009  0.9118800E+02  0.7561462E-02  0.1125453E+00
         25   -1    0    0    0    0  0.00000000000E+00  0.00000000000E+00  0.99999998245E-14  0.12509000000E+03  0.12509000000E+03 0.  0.
        -13    1    3    3    0    0 -0.13938921401E+02  0.89292939764E+01 -0.33783171670E+02  0.37621000423E+02  0.10566000000E+00 0.  1.
         23    2    1    0    0    0 -0.19409286840E+02 -0.10537506222E+02  0.20133550409E+02  0.95204898275E+02  0.90392772667E+02 0.  0.
         13    1    3    3    0    0 -0.54703654398E+01 -0.19466800199E+02  0.53916722079E+02  0.57583897852E+02  0.10566000000E+00 0. -1.
         22    1    1    0    0    0  0.19409286840E+02  0.10537506222E+02 -0.20133550409E+02  0.29885101725E+02  0.00000000000E+00 0. -1.
</event>
<event>
 5    1  0.2370309E-009  0.9118800E+02  0.7561462E-02  0.1125453E+00
         25   -1    0    0    0    0  0.00000000000E+00  0.00000000000E+00  0.99999998245E-14  0.12509000000E+03  0.12509000000E+03 0.  0.
        -13    1    3    3    0    0  0.46761448474E+02 -0.18362207883E+02 -0.19827546386E+02  0.54008763191E+02  0.10566000000E+00 0. -1.
         23    2    1    0    0    0  0.63640421615E+01 -0.23756459467E+02 -0.17640606009E+02  0.94823494100E+02  0.89863416660E+02 0.  0.
         13    1    3    3    0    0 -0.40397406312E+02 -0.53942515840E+01  0.21869403765E+01  0.40814730909E+02  0.10566000000E+00 0.  1.
         22    1    1    0    0    0 -0.63640421615E+01  0.23756459467E+02  0.17640606009E+02  0.30266505900E+02  0.00000000000E+00 0. -1.
</event>
<event>
 5    1  0.2370309E-009  0.9118800E+02  0.7561462E-02  0.1125453E+00
         25   -1    0    0    0    0  0.00000000000E+00  0.00000000000E+00  0.99999998245E-14  0.12509000000E+03  0.12509000000E+03 0.  0.
        -13    1    3    3    0    0  0.38086804238E+02 -0.13557899535E+02  0.24979639846E+02  0.47522782618E+02  0.10566000000E+00 0.  1.
         23    2    1    0    0    0  0.23461960505E+02  0.14703880802E+02 -0.10767070473E+02  0.95381457324E+02  0.90636774509E+02 0.  0.
         13    1    3    3    0    0 -0.14624843734E+02  0.28261780336E+02 -0.35746710319E+02  0.47858674706E+02  0.10566000000E+00 0. -1.
         22    1    1    0    0    0 -0.23461960505E+02 -0.14703880802E+02  0.10767070473E+02  0.29708542676E+02  0.00000000000E+00 0.  1.
</event>
<event>
 5    1  0.2370309E-009  0.9118800E+02  0.7561462E-02  0.1125453E+00
         25   -1    0    0    0    0  0.00000000000E+00  0.00000000000E+00  0.99999998245E-14  0.12509000000E+03  0.12509000000E+03 0.  0.
        -13    1    3    3    0    0 -0.94267492616E+01 -0.52499287193E+02  0.29308871097E+02  0.60860987886E+02  0.10566000000E+00 0. -1.
         23    2    1    0    0    0  0.47406722220E+01 -0.25087854870E+02  0.18517710729E+02  0.93549866111E+02  0.88072682505E+02 0.  0.
         13    1    3    3    0    0  0.14167421484E+02  0.27411432323E+02 -0.10791160368E+02  0.32688878225E+02  0.10566000000E+00 0.  1.
         22    1    1    0    0    0 -0.47406722220E+01  0.25087854870E+02 -0.18517710729E+02  0.31540133889E+02  0.00000000000E+00 0. -1.
</event>
<event>
 5    1  0.2370309E-009  0.9118800E+02  0.7561462E-02  0.1125453E+00
         25   -1    0    0    0    0  0.00000000000E+00  0.00000000000E+00  0.99999998245E-14  0.12509000000E+03  0.12509000000E+03 0.  0.
        -13    1    3    3    0    0  0.89236140361E+01  0.15946245898E+02 -0.34361353954E+02  0.38918214955E+02  0.10566000000E+00 0. -1.
         23    2    1    0    0    0  0.14315487283E+02 -0.26348893689E+02  0.21140187099E+01  0.95028954611E+02  0.90148964302E+02 0.  0.
         13    1    3    3    0    0  0.53918732467E+01 -0.42295139586E+02  0.36475372664E+02  0.56110739656E+02  0.10566000000E+00 0.  1.
         22    1    1    0    0    0 -0.14315487283E+02  0.26348893689E+02 -0.21140187099E+01  0.30061045389E+02  0.00000000000E+00 0.  1.
</event>
<event>
 5    1  0.2370309E-009  0.9118800E+02  0.7561462E-02  0.1125453E+00
         25   -1    0    0    0    0  0.00000000000E+00  0.00000000000E+00  0.99999998245E-14  0.12509000000E+03  0.12509000000E+03 0.  0.
        -13    1    3    3    0    0 -0.95046817925E+00  0.31213595731E+02 -0.36184664466E+02  0.47796789168E+02  0.10566000000E+00 0. -1.
         23    2    1    0    0    0 -0.24070997441E+02 -0.55811138486E+01 -0.15468577284E+02  0.95938008082E+02  0.91401656232E+02 0.  0.
         13    1    3    3    0    0 -0.23120529262E+02 -0.36794709579E+02  0.20716087182E+02  0.48141218914E+02  0.10566000000E+00 0.  1.
         22    1    1    0    0    0  0.24070997441E+02  0.55811138486E+01  0.15468577284E+02  0.29151991918E+02  0.00000000000E+00 0.  1.
</event>
<event>
 5    1  0.2370309E-009  0.9118800E+02  0.7561462E-02  0.1125453E+00
         25   -1    0    0    0    0  0.00000000000E+00  0.00000000000E+00  0.99999998245E-14  0.12509000000E+03  0.12509000000E+03 0.  0.
        -13    1    3    3    0    0 -0.14491152902E+02 -0.48850002991E+02 -0.28287306366E+02  0.58279491849E+02  0.10566000000E+00 0.  1.
         23    2    1    0    0    0 -0.14284615100E+02 -0.10761099310E+02 -0.21758689213E+02  0.96924559418E+02  0.92741997904E+02 0.  0.
         13    1    3    3    0    0  0.20653780181E+00  0.38088903681E+02  0.65286171533E+01  0.38645067569E+02  0.10566000000E+00 0. -1.
         22    1    1    0    0    0  0.14284615100E+02  0.10761099310E+02  0.21758689213E+02  0.28165440582E+02  0.00000000000E+00 0.  1.
</event>
<event>
 5    1  0.2370309E-009  0.9118800E+02  0.7561462E-02  0.1125453E+00
         25   -1    0    0    0    0  0.00000000000E+00  0.00000000000E+00  0.99999998245E-14  0.12509000000E+03  0.12509000000E+03 0.  0.
        -13    1    3    3    0    0 -0.15521819785E+02 -0.45292072027E+02  0.33383748445E+00  0.47879236517E+02  0.10566000000E+00 0.  1.
         23    2    1    0    0    0  0.22776858523E+02 -0.15225918338E+02 -0.61819836065E+01  0.97003868284E+02  0.92848907734E+02 0.  0.
         13    1    3    3    0    0  0.38298678309E+02  0.30066153688E+02 -0.65158210910E+01  0.49124631768E+02  0.10566000000E+00 0. -1.
         22    1    1    0    0    0 -0.22776858523E+02  0.15225918338E+02  0.61819836065E+01  0.28086131716E+02  0.00000000000E+00 0. -1.
</event>
<event>
 5    1  0.2370309E-009  0.9118800E+02  0.7561462E-02  0.1125453E+00
         25   -1    0    0    0    0  0.00000000000E+00  0.00000000000E+00  0.99999998245E-14  0.12509000000E+03  0.12509000000E+03 0.  0.
        -13    1    3    3    0    0  0.19719165587E+02  0.84750002149E+00  0.48671891269E+02  0.52521689914E+02  0.10566000000E+00 0.  1.
         23    2    1    0    0    0 -0.13870488205E+01  0.23054842553E+02  0.23029565400E+02  0.92473891217E+02  0.86530977140E+02 0.  0.
         13    1    3    3    0    0 -0.21106214408E+02  0.22207342532E+02 -0.25642325869E+02  0.39952201303E+02  0.10566000000E+00 0. -1.
         22    1    1    0    0    0  0.13870488205E+01 -0.23054842553E+02 -0.23029565400E+02  0.32616108783E+02  0.00000000000E+00 0. -1.
</event>
<event>
 5    1  0.2370309E-009  0.9118800E+02  0.7561462E-02  0.1125453E+00
         25   -1    0    0    0    0  0.00000000000E+00  0.00000000000E+00  0.99999998245E-14  0.12509000000E+03  0.12509000000E+03 0.  0.
        -13    1    3    3    0    0 -0.12214630007E+02  0.40036516002E+02  0.31566415183E+02  0.52426801651E+02  0.10566000000E+00 0. -1.
         23    2    1    0    0    0 -0.24447850068E+02  0.16209887037E+02 -0.23717612069E+01  0.95660710815E+02  0.91021363051E+02 0.  0.
         13    1    3    3    0    0 -0.12233220062E+02 -0.23826628965E+02 -0.33938176390E+02  0.43233909164E+02  0.10566000000E+00 0.  1.
         22    1    1    0    0    0  0.24447850068E+02 -0.16209887037E+02  0.23717612069E+01  0.29429289185E+02  0.00000000000E+00 0. -1.
</event>
<event>
 5    1  0.2370309E-009  0.9118800E+02  0.7561462E-02  0.1125453E+00
         25   -1    0    0    0    0  0.00000000000E+00  0.00000000000E+00  0.99999998245E-14  0.12509000000E+03  0.12509000000E+03 0.  0.
        -13    1    3    3    0    0  0.35708804019E+02  0.91910076841E+01  0.46195970293E+01  0.37161070322E+02  0.10566000000E+00 0. -1.
         23    2    1    0    0    0 -0.19932989261E+02  0.22127294270E+01  0.21464389851E+02  0.95714155092E+02  0.91094781524E+02 0.  0.
         13    1    3    3    0    0 -0.55641793280E+02 -0.69782782571E+01  0.16844792822E+02  0.58553084770E+02  0.10566000000E+00 0.  1.
         22    1    1    0    0    0  0.19932989261E+02 -0.22127294270E+01 -0.21464389851E+02  0.29375844908E+02  0.00000000000E+00 0.  1.
</event>
<event>
 5    1  0.2370309E-009  0.9118800E+02  0.7561462E-02  0.1125453E+00
         25   -1    0    0    0    0  0.00000000000E+00  0.00000000000E+00  0.99999998245E-14  0.12509000000E+03  0.12509000000E+03 0.  0.
        -13    1    3    3    0    0 -0.43419926863E+02 -0.37704611250E+01  0.69885975961E+01  0.44140209405E+02  0.10566000000E+00 0.  1.
         23    2    1    0    0    0 -0.74990787134E+01  0.36657240087E+01 -0.28628541756E+02  0.95269417895E+02  0.90482014063E+02 0.  0.
         13    1    3    3    0    0  0.35920848150E+02  0.74361851337E+01 -0.35617139352E+02  0.51129208490E+02  0.10566000000E+00 0. -1.
         22    1    1    0    0    0  0.74990787134E+01 -0.36657240087E+01  0.28628541756E+02  0.29820582105E+02  0.00000000000E+00 0. -1.
</event>
<event>
 5    1  0.2370309E-009  0.9118800E+02  0.7561462E-02  0.1125453E+00
         25   -1    0    0    0    0  0.00000000000E+00  0.00000000000E+00  0.99999998245E-14  0.12509000000E+03  0.12509000000E+03 0.  0.
        -13    1    3    3    0    0  0.17430245311E+02  0.31384273370E+01 -0.36626991369E+02  0.40684282451E+02  0.10566000000E+00 0.  1.
         23    2    1    0    0    0 -0.21320941038E+02 -0.11463436199E+02  0.60373439017E+01  0.10014120409E+03  0.96983598294E+02 0.  0.
         13    1    3    3    0    0 -0.38751186348E+02 -0.14601863536E+02  0.42664335271E+02  0.59456921635E+02  0.10566000000E+00 0. -1.
         22    1    1    0    0    0  0.21320941038E+02  0.11463436199E+02 -0.60373439017E+01  0.24948795915E+02  0.00000000000E+00 0. -1.
</event>
<event>
 5    1  0.2370309E-009  0.9118800E+02  0.7561462E-02  0.1125453E+00
         25   -1    0    0    0    0  0.00000000000E+00  0.00000000000E+00  0.99999998245E-14  0.12509000000E+03  0.12509000000E+03 0.  0.
        -13    1    3    3    0    0 -0.23917810556E+02  0.53206282451E+02 -0.21714975699E+02  0.62245654368E+02  0.10566000000E+00 0. -1.
         23    2    1    0    0    0 -0.12962565881E+02  0.21991041161E+02 -0.12933863075E+02  0.96473242329E+02  0.92131252384E+02 0.  0.
         13    1    3    3    0    0  0.10955244675E+02 -0.31215241290E+02  0.87811126242E+01  0.34227587961E+02  0.10566000000E+00 0.  1.
         22    1    1    0    0    0  0.12962565881E+02 -0.21991041161E+02  0.12933863075E+02  0.28616757671E+02  0.00000000000E+00 0. -1.
</event>
<event>
 5    1  0.2370309E-009  0.9118800E+02  0.7561462E-02  0.1125453E+00
         25   -1    0    0    0    0  0.00000000000E+00  0.00000000000E+00  0.99999998245E-14  0.12509000000E+03  0.12509000000E+03 0.  0.
        -13    1    3    3    0    0 -0.23502336355E+02 -0.30879312678E+02  0.54663974796E+00  0.38809815056E+02  0.10566000000E+00 0. -1.
         23    2    1    0    0    0  0.25031457097E+02 -0.77192847205E+01 -0.15149081536E+02  0.94830193781E+02  0.89872742143E+02 0.  0.
         13    1    3    3    0    0  0.48533793452E+02  0.23160027958E+02 -0.15695721284E+02  0.56020378725E+02  0.10566000000E+00 0.  1.
         22    1    1    0    0    0 -0.25031457097E+02  0.77192847205E+01  0.15149081536E+02  0.30259806219E+02  0.00000000000E+00 0.  1.
</event>
<event>
 5    1  0.2370309E-009  0.9118800E+02  0.7561462E-02  0.1125453E+00
         25   -1    0    0    0    0  0.00000000000E+00  0.00000000000E+00  0.99999998245E-14  0.12509000000E+03  0.12509000000E+03 0.  0.
        -13    1    3    3    0    0  0.47918813893E+02  0.18696277443E+02 -0.68539019267E+01  0.51891720445E+02  0.10566000000E+00 0.  1.
         23    2    1    0    0    0  0.20049213963E+02  0.17807769088E+01  0.21888142321E+02  0.95353945769E+02  0.90598797192E+02 0.  0.
         13    1    3    3    0    0 -0.27869599930E+02 -0.16915500534E+02  0.28742044248E+02  0.43462225324E+02  0.10566000000E+00 0. -1.
         22    1    1    0    0    0 -0.20049213963E+02 -0.17807769088E+01 -0.21888142321E+02  0.29736054231E+02  0.00000000000E+00 0.  1.
</event>
<event>
 5    1  0.2370309E-009  0.9118800E+02  0.7561462E-02  0.1125453E+00
         25   -1    0    0    0    0  0.00000000000E+00  0.00000000000E+00  0.99999998245E-14  0.12509000000E+03  0.12509000000E+03 0.  0.
        -13    1    3    3    0    0 -0.36188053291E+02 -0.14205143269E+02  0.82595532431E+01  0.39744089876E+02  0.10566000000E+00 0. -1.
         23    2    1    0    0    0  0.81983282097E+01 -0.33501142215E+02 -0.57364962117E+01  0.90126497545E+02  0.83068279480E+02 0.  0.
         13    1    3    3    0    0  0.44386381501E+02 -0.19295998946E+02 -0.13996049455E+02  0.50382407668E+02  0.10566000000E+00 0.  1.
         22    1    1    0    0    0 -0.81983282097E+01  0.33501142215E+02  0.57364962117E+01  0.34963502455E+02  0.00000000000E+00 0. -1.
</event>
<event>
 5    1  0.2370309E-009  0.9118800E+02  0.7561462E-02  0.1125453E+00
         25   -1    0    0    0    0  0.00000000000E+00  0.00000000000E+00  0.99999998245E-14  0.12509000000E+03  0.12509000000E+03 0.  0.
        -13    1    3    3    0    0 -0.13826565389E+02  0.46355485905E+02  0.11553484762E+02  0.49734285540E+02  0.10566000000E+00 0.  1.
         23    2    1    0    0    0 -0.16215222448E+01  0.81566209774E+01  0.30060543023E+02  0.93900321467E+02  0.88569037053E+02 0.  0.
         13    1    3    3    0    0  0.12205043145E+02 -0.38198864928E+02  0.18507058261E+02  0.44166035927E+02  0.10566000000E+00 0. -1.
         22    1    1    0    0    0  0.16215222448E+01 -0.81566209774E+01 -0.30060543023E+02  0.31189678533E+02  0.00000000000E+00 0.  1.
</event>
<event>
 5    1  0.2370309E-009  0.9118800E+02  0.7561462E-02  0.1125453E+00
         25   -1    0    0    0    0  0.00000000000E+00  0.00000000000E+00  0.99999998245E-14  0.12509000000E+03  0.12509000000E+03 0.  0.
        -13    1    3    3    0    0  0.43324372810E+02  0.77594346135E+01  0.28667118591E+02  0.52526421516E+02  0.10566000000E+00 0. -1.
         23    2    1    0    0    0  0.22285628747E+02  0.14783381949E+02 -0.95325297219E+01  0.96698685247E+02  0.92436837760E+02 0.  0.
         13    1    3    3    0    0 -0.21038744063E+02  0.70239473356E+01 -0.38199648312E+02  0.44172263731E+02  0.10566000000E+00 0.  1.
         22    1    1    0    0    0 -0.22285628747E+02 -0.14783381949E+02  0.95325297219E+01  0.28391314753E+02  0.00000000000E+00 0.  1.
</event>
<event>
 5    1  0.2370309E-009  0.9118800E+02  0.7561462E-02  0.1125453E+00
         25   -1    0    0    0    0  0.00000000000E+00  0.00000000000E+00  0.99999998245E-14  0.12509000000E+03  0.12509000000E+03 0.  0.
        -13    1    3    3    0    0  0.41148186814E+02 -0.36555767671E+02  0.28349374229E+02  0.61912806521E+02  0.10566000000E+00 0.  1.
         23    2    1    0    0    0  0.14445301978E+02 -0.21112447056E+02  0.11812120054E+02  0.96913265801E+02  0.92726763872E+02 0.  0.
         13    1    3    3    0    0 -0.26702884836E+02  0.15443320615E+02 -0.16537254175E+02  0.35000459281E+02  0.10566000000E+00 0. -1.
         22    1    1    0    0    0 -0.14445301978E+02  0.21112447056E+02 -0.11812120054E+02  0.28176734199E+02  0.00000000000E+00 0.  1.
</event>
<event>
 5    1  0.2370309E-009  0.9118800E+02  0.7561462E-02  0.1125453E+00
         25   -1    0    0    0    0  0.00000000000E+00  0.00000000000E+00  0.99999998245E-14  0.12509000000E+03  0.12509000000E+03 0.  0.
        -13    1    3    3    0    0 -0.22330256091E+02 -0.32953023994E+02 -0.69779038483E+01  0.40413418979E+02  0.10566000000E+00 0.  1.
         23    2    1    0    0    0  0.42975412774E+01  0.18284797512E+02 -0.17857041357E+02  0.99173275533E+02  0.95727017988E+02 0.  0.
         13    1    3    3    0    0  0.26627797368E+02  0.51237821505E+02 -0.10879137509E+02  0.58759856554E+02  0.10566000000E+00 0. -1.
         22    1    1    0    0    0 -0.42975412774E+01 -0.18284797512E+02  0.17857041357E+02  0.25916724467E+02  0.00000000000E+00 0. -1.
</event>
<event>
 5    1  0.2370309E-009  0.9118800E+02  0.7561462E-02  0.1125453E+00
         25   -1    0    0    0    0  0.00000000000E+00  0.00000000000E+00  0.99999998245E-14  0.12509000000E+03  0.12509000000E+03 0.  0.
        -13    1    3    3    0    0 -0.88982428981E+01 -0.46091460325E+02 -0.85677045361E+01  0.47718111516E+02  0.10566000000E+00 0.  1.
         23    2    1    0    0    0  0.12307604585E+02 -0.63981803439E+01 -0.25711125731E+02  0.95875691371E+02  0.91316331327E+02 0.  0.
         13    1    3    3    0    0  0.21205847483E+02  0.39693279981E+02 -0.17143421195E+02  0.48157579855E+02  0.10566000000E+00 0. -1.
         22    1    1    0    0    0 -0.12307604585E+02  0.63981803439E+01  0.25711125731E+02  0.29214308629E+02  0.00000000000E+00 0. -1.
</event>
<event>
 5    1  0.2370309E-009  0.9118800E+02  0.7561462E-02  0.1125453E+00
         25   -1    0    0    0    0  0.00000000000E+00  0.00000000000E+00  0.99999998245E-14  0.12509000000E+03  0.12509000000E+03 0.  0.
        -13    1    3    3    0    0  0.29694935322E+02 -0.11154294079E+02  0.35775027542E+02  0.47812877134E+02  0.10566000000E+00 0.  1.
         23    2    1    0    0    0 -0.50016083826E+01 -0.28894322076E+02  0.18330873519E+02  0.90507940220E+02  0.83640710089E+02 0.  0.
         13    1    3    3    0    0 -0.34696543704E+02 -0.17740027997E+02 -0.17444154022E+02  0.42695063086E+02  0.10566000000E+00 0. -1.
         22    1    1    0    0    0  0.50016083826E+01  0.28894322076E+02 -0.18330873519E+02  0.34582059780E+02  0.00000000000E+00 0.  1.
</event>
<event>
 5    1  0.2370309E-009  0.9118800E+02  0.7561462E-02  0.1125453E+00
         25   -1    0    0    0    0  0.00000000000E+00  0.00000000000E+00  0.99999998245E-14  0.12509000000E+03  0.12509000000E+03 0.  0.
        -13    1    3    3    0    0  0.33160344213E+02 -0.11071068044E+02 -0.21759822921E+02  0.41178611360E+02  0.10566000000E+00 0.  1.
         23    2    1    0    0    0  0.92201365426E+01 -0.34820862697E+01  0.27175621317E+02  0.96182384453E+02  0.91735493908E+02 0.  0.
         13    1    3    3    0    0 -0.23940207671E+02  0.75889817743E+01  0.48935444238E+02  0.55003773093E+02  0.10566000000E+00 0. -1.
         22    1    1    0    0    0 -0.92201365426E+01  0.34820862697E+01 -0.27175621317E+02  0.28907615547E+02  0.00000000000E+00 0. -1.
</event>
<event>
 5    1  0.2370309E-009  0.9118800E+02  0.7561462E-02  0.1125453E+00
         25   -1    0    0    0    0  0.00000000000E+00  0.00000000000E+00  0.99999998245E-14  0.12509000000E+03  0.12509000000E+03 0.  0.
        -13    1    3    3    0    0  0.30135509084E+01  0.45554083703E+02 -0.32911223601E+02  0.56279799520E+02  0.10566000000E+00 0. -1.
         23    2    1    0    0    0  0.28755040628E+01  0.23341257982E+02  0.57602368081E+01  0.10087712789E+03  0.97928196936E+02 0.  0.
         13    1    3    3    0    0 -0.13804684562E+00 -0.22212825721E+02  0.38671460409E+02  0.44597328368E+02  0.10566000000E+00 0.  1.
         22    1    1    0    0    0 -0.28755040628E+01 -0.23341257982E+02 -0.57602368081E+01  0.24212872112E+02  0.00000000000E+00 0. -1.
</event>
<event>
 5    1  0.2370309E-009  0.9118800E+02  0.7561462E-02  0.1125453E+00
         25   -1    0    0    0    0  0.00000000000E+00  0.00000000000E+00  0.99999998245E-14  0.12509000000E+03  0.12509000000E+03 0.  0.
        -13    1    3    3    0    0  0.55439556452E+02 -0.23539833812E+01  0.28370326963E+02  0.62321523356E+02  0.10566000000E+00 0.  1.
         23    2    1    0    0    0  0.24361590490E+02  0.12059205765E+01  0.15766039606E+02  0.96046767733E+02  0.91550380947E+02 0.  0.
         13    1    3    3    0    0 -0.31077965962E+02  0.35599039576E+01 -0.12604287357E+02  0.33725244378E+02  0.10566000000E+00 0. -1.
         22    1    1    0    0    0 -0.24361590490E+02 -0.12059205765E+01 -0.15766039606E+02  0.29043232267E+02  0.00000000000E+00 0.  1.
</event>
<event>
 5    1  0.2370309E-009  0.9118800E+02  0.7561462E-02  0.1125453E+00
         25   -1    0    0    0    0  0.00000000000E+00  0.00000000000E+00  0.99999998245E-14  0.12509000000E+03  0.12509000000E+03 0.  0.
        -13    1    3    3    0    0  0.14021919104E+01 -0.33548915141E+02 -0.19453875165E+02  0.38806703960E+02  0.10566000000E+00 0.  1.
         23    2    1    0    0    0 -0.32985646324E+02 -0.38095917187E+01  0.66414903633E+01  0.91227406380E+02  0.84709883886E+02 0.  0.
         13    1    3    3    0    0 -0.34387838234E+02  0.29739323423E+02  0.26095365528E+02  0.52420702419E+02  0.10566000000E+00 0. -1.
         22    1    1    0    0    0  0.32985646324E+02  0.38095917187E+01 -0.66414903633E+01  0.33862593620E+02  0.00000000000E+00 0. -1.
</event>
<event>
 5    1  0.2370309E-009  0.9118800E+02  0.7561462E-02  0.1125453E+00
         25   -1    0    0    0    0  0.00000000000E+00  0.00000000000E+00  0.99999998245E-14  0.12509000000E+03  0.12509000000E+03 0.  0.
        -13    1    3    3    0    0  0.30003962875E+02 -0.31768385787E+02  0.12042635282E+02  0.45326640646E+02  0.10566000000E+00 0. -1.
         23    2    1    0    0    0  0.16710134590E+02  0.17959230532E+02  0.14013978842E+02  0.96838377705E+02  0.92625683448E+02 0.  0.
         13    1    3    3    0    0 -0.13293828285E+02  0.49727616319E+02  0.19713435607E+01  0.51511737058E+02  0.10566000000E+00 0.  1.
         22    1    1    0    0    0 -0.16710134590E+02 -0.17959230532E+02 -0.14013978842E+02  0.28251622295E+02  0.00000000000E+00 0.  1.
</event>
<event>
 5    1  0.2370309E-009  0.9118800E+02  0.7561462E-02  0.1125453E+00
         25   -1    0    0    0    0  0.00000000000E+00  0.00000000000E+00  0.99999998245E-14  0.12509000000E+03  0.12509000000E+03 0.  0.
        -13    1    3    3    0    0  0.30014030411E+02 -0.29976569110E+02 -0.33403100058E+02  0.53992730757E+02  0.10566000000E+00 0.  1.
         23    2    1    0    0    0 -0.71466097772E+01 -0.22004388424E+02 -0.20642023255E+02  0.94084189814E+02  0.88828342930E+02 0.  0.
         13    1    3    3    0    0 -0.37160640188E+02  0.79721806854E+01  0.12761076803E+02  0.40091459057E+02  0.10566000000E+00 0. -1.
         22    1    1    0    0    0  0.71466097772E+01  0.22004388424E+02  0.20642023255E+02  0.31005810186E+02  0.00000000000E+00 0. -1.
</event>
<event>
 5    1  0.2370309E-009  0.9118800E+02  0.7561462E-02  0.1125453E+00
         25   -1    0    0    0    0  0.00000000000E+00  0.00000000000E+00  0.99999998245E-14  0.12509000000E+03  0.12509000000E+03 0.  0.
        -13    1    3    3    0    0  0.39548898264E+01  0.30462050551E+02  0.34624227177E+02  0.46286347328E+02  0.10566000000E+00 0.  1.
         23    2    1    0    0    0 -0.25768963752E+01 -0.18101869207E+02  0.21202206972E+02  0.97092649336E+02  0.92968440403E+02 0.  0.
         13    1    3    3    0    0 -0.65317862016E+01 -0.48563919759E+02 -0.13422020205E+02  0.50806302008E+02  0.10566000000E+00 0. -1.
         22    1    1    0    0    0  0.25768963752E+01  0.18101869207E+02 -0.21202206972E+02  0.27997350664E+02  0.00000000000E+00 0.  1.
</event>
<event>
 5    1  0.2370309E-009  0.9118800E+02  0.7561462E-02  0.1125453E+00
         25   -1    0    0    0    0  0.00000000000E+00  0.00000000000E+00  0.99999998245E-14  0.12509000000E+03  0.12509000000E+03 0.  0.
        -13    1    3    3    0    0  0.33156767119E+02  0.35883530435E+02  0.13059142353E+02  0.50572238682E+02  0.10566000000E+00 0.  1.
         23    2    1    0    0    0  0.52766945297E+01  0.99133280350E-01  0.26645821912E+02  0.97926547386E+02  0.94083768659E+02 0.  0.
         13    1    3    3    0    0 -0.27880072590E+02 -0.35784397155E+02  0.13586679558E+02  0.47354308704E+02  0.10566000000E+00 0. -1.
         22    1    1    0    0    0 -0.52766945297E+01 -0.99133280350E-01 -0.26645821912E+02  0.27163452614E+02  0.00000000000E+00 0.  1.
</event>
<event>
 5    1  0.2370309E-009  0.9118800E+02  0.7561462E-02  0.1125453E+00
         25   -1    0    0    0    0  0.00000000000E+00  0.00000000000E+00  0.99999998245E-14  0.12509000000E+03  0.12509000000E+03 0.  0.
        -13    1    3    3    0    0  0.39762186152E+02 -0.61753759099E+01  0.38961465437E+02  0.56010478201E+02  0.10566000000E+00 0.  1.
         23    2    1    0    0    0  0.15030336773E+01 -0.42441155537E+01  0.29203110909E+02  0.95541847539E+02  0.90857863267E+02 0.  0.
         13    1    3    3    0    0 -0.38259152475E+02  0.19312603562E+01 -0.97583545278E+01  0.39531369339E+02  0.10566000000E+00 0. -1.
         22    1    1    0    0    0 -0.15030336773E+01  0.42441155537E+01 -0.29203110909E+02  0.29548152461E+02  0.00000000000E+00 0.  1.
</event>
<event>
 5    1  0.2370309E-009  0.9118800E+02  0.7561462E-02  0.1125453E+00
         25   -1    0    0    0    0  0.00000000000E+00  0.00000000000E+00  0.99999998245E-14  0.12509000000E+03  0.12509000000E+03 0.  0.
        -13    1    3    3    0    0  0.18189558334E+02  0.25135436753E+02  0.32102686011E+02  0.44645759332E+02  0.10566000000E+00 0. -1.
         23    2    1    0    0    0  0.23458654841E+02 -0.17421154793E+02  0.48082500254E+01  0.95477090829E+02  0.90768664657E+02 0.  0.
         13    1    3    3    0    0  0.52690965064E+01 -0.42556591546E+02 -0.27294435985E+02  0.50831331497E+02  0.10566000000E+00 0.  1.
         22    1    1    0    0    0 -0.23458654841E+02  0.17421154793E+02 -0.48082500254E+01  0.29612909171E+02  0.00000000000E+00 0. -1.
</event>
<event>
 5    1  0.2370309E-009  0.9118800E+02  0.7561462E-02  0.1125453E+00
         25   -1    0    0    0    0  0.00000000000E+00  0.00000000000E+00  0.99999998245E-14  0.12509000000E+03  0.12509000000E+03 0.  0.
        -13    1    3    3    0    0 -0.76307838132E+01  0.97727085299E+01 -0.42637205099E+02  0.44403570986E+02  0.10566000000E+00 0. -1.
         23    2    1    0    0    0 -0.14570775691E+02  0.27677638369E+02  0.27545534377E+01  0.93690211234E+02  0.88271790208E+02 0.  0.
         13    1    3    3    0    0 -0.69399918774E+01  0.17904929839E+02  0.45391758537E+02  0.49286640248E+02  0.10566000000E+00 0.  1.
         22    1    1    0    0    0  0.14570775691E+02 -0.27677638369E+02 -0.27545534377E+01  0.31399788766E+02  0.00000000000E+00 0.  1.
</event>
<event>
 5    1  0.2370309E-009  0.9118800E+02  0.7561462E-02  0.1125453E+00
         25   -1    0    0    0    0  0.00000000000E+00  0.00000000000E+00  0.99999998245E-14  0.12509000000E+03  0.12509000000E+03 0.  0.
        -13    1    3    3    0    0 -0.46212498915E+02 -0.35494102061E+02  0.13286821544E+02  0.59766019843E+02  0.10566000000E+00 0. -1.
         23    2    1    0    0    0 -0.76829203230E+01 -0.16353385368E+02  0.13072362797E+02  0.10278871872E+03  0.10034028876E+03 0.  0.
         13    1    3    3    0    0  0.38529578592E+02  0.19140716693E+02 -0.21445874696E+00  0.43022698876E+02  0.10566000000E+00 0.  1.
         22    1    1    0    0    0  0.76829203230E+01  0.16353385368E+02 -0.13072362797E+02  0.22301281282E+02  0.00000000000E+00 0. -1.
</event>
<event>
 5    1  0.2370309E-009  0.9118800E+02  0.7561462E-02  0.1125453E+00
         25   -1    0    0    0    0  0.00000000000E+00  0.00000000000E+00  0.99999998245E-14  0.12509000000E+03  0.12509000000E+03 0.  0.
        -13    1    3    3    0    0 -0.21662114069E+02 -0.24035347257E+01  0.49089545099E+02  0.53710508908E+02  0.10566000000E+00 0.  1.
         23    2    1    0    0    0  0.13646817117E+02 -0.43293662909E+01  0.24265948921E+02  0.96915271839E+02  0.92729470012E+02 0.  0.
         13    1    3    3    0    0  0.35308931186E+02 -0.19258315652E+01 -0.24823596178E+02  0.43204762931E+02  0.10566000000E+00 0. -1.
         22    1    1    0    0    0 -0.13646817117E+02  0.43293662909E+01 -0.24265948921E+02  0.28174728161E+02  0.00000000000E+00 0.  1.
</event>
<event>
 5    1  0.2370309E-009  0.9118800E+02  0.7561462E-02  0.1125453E+00
         25   -1    0    0    0    0  0.00000000000E+00  0.00000000000E+00  0.99999998245E-14  0.12509000000E+03  0.12509000000E+03 0.  0.
        -13    1    3    3    0    0 -0.31458702403E+02  0.39855495552E+01 -0.14765141144E+02  0.34979352755E+02  0.10566000000E+00 0.  1.
         23    2    1    0    0    0  0.26000352902E+02  0.43810698716E+01  0.90974418156E+01  0.97197786538E+02  0.93109796133E+02 0.  0.
         13    1    3    3    0    0  0.57459055305E+02  0.39552031646E+00  0.23862582959E+02  0.62218433783E+02  0.10566000000E+00 0. -1.
         22    1    1    0    0    0 -0.26000352902E+02 -0.43810698716E+01 -0.90974418156E+01  0.27892213462E+02  0.00000000000E+00 0. -1.
</event>
<event>
 5    1  0.2370309E-009  0.9118800E+02  0.7561462E-02  0.1125453E+00
         25   -1    0    0    0    0  0.00000000000E+00  0.00000000000E+00  0.99999998245E-14  0.12509000000E+03  0.12509000000E+03 0.  0.
        -13    1    3    3    0    0  0.13956676121E+02 -0.31550166470E+02  0.86473243292E+00  0.34510299026E+02  0.10566000000E+00 0. -1.
         23    2    1    0    0    0 -0.28726720517E+00  0.27687610407E+02 -0.84402836553E+01  0.96143071308E+02  0.91681871054E+02 0.  0.
         13    1    3    3    0    0 -0.14243943326E+02  0.59237776877E+02 -0.93050160882E+01  0.61632772283E+02  0.10566000000E+00 0.  1.
         22    1    1    0    0    0  0.28726720517E+00 -0.27687610407E+02  0.84402836553E+01  0.28946928692E+02  0.00000000000E+00 0.  1.
</event>
<event>
 5    1  0.2370309E-009  0.9118800E+02  0.7561462E-02  0.1125453E+00
         25   -1    0    0    0    0  0.00000000000E+00  0.00000000000E+00  0.99999998245E-14  0.12509000000E+03  0.12509000000E+03 0.  0.
        -13    1    3    3    0    0 -0.36656170976E+02  0.14714188590E+02  0.47829267028E+01  0.39787809293E+02  0.10566000000E+00 0. -1.
         23    2    1    0    0    0  0.17279424653E+02  0.19537201289E+02  0.15157080717E+02  0.94923497942E+02  0.90002514494E+02 0.  0.
         13    1    3    3    0    0  0.53935595629E+02  0.48230126995E+01  0.10374154014E+02  0.55135688649E+02  0.10566000000E+00 0.  1.
         22    1    1    0    0    0 -0.17279424653E+02 -0.19537201289E+02 -0.15157080717E+02  0.30166502058E+02  0.00000000000E+00 0.  1.
</event>
<event>
 5    1  0.2370309E-009  0.9118800E+02  0.7561462E-02  0.1125453E+00
         25   -1    0    0    0    0  0.00000000000E+00  0.00000000000E+00  0.99999998245E-14  0.12509000000E+03  0.12509000000E+03 0.  0.
        -13    1    3    3    0    0 -0.39767702114E+02 -0.41762818260E+02 -0.14571316903E+02  0.59480564564E+02  0.10566000000E+00 0.  1.
         23    2    1    0    0    0 -0.18316171707E+02 -0.36921818000E+02 -0.14271143758E+02  0.81473852364E+02  0.68815843267E+02 0.  0.
         13    1    3    3    0    0  0.21451530407E+02  0.48410002608E+01  0.30017314511E+00  0.21993287801E+02  0.10566000000E+00 0. -1.
         22    1    1    0    0    0  0.18316171707E+02  0.36921818000E+02  0.14271143758E+02  0.43616147636E+02  0.00000000000E+00 0.  1.
</event>
<event>
 5    1  0.2370309E-009  0.9118800E+02  0.7561462E-02  0.1125453E+00
         25   -1    0    0    0    0  0.00000000000E+00  0.00000000000E+00  0.99999998245E-14  0.12509000000E+03  0.12509000000E+03 0.  0.
        -13    1    3    3    0    0  0.57311224135E+02 -0.48861230560E+00 -0.22609614824E+02  0.61611857628E+02  0.10566000000E+00 0. -1.
         23    2    1    0    0    0  0.24250870457E+02  0.67922482981E+01 -0.12697978550E+02  0.96885780208E+02  0.92689677917E+02 0.  0.
         13    1    3    3    0    0 -0.33060353679E+02  0.72808606037E+01  0.99116362735E+01  0.35273922580E+02  0.10566000000E+00 0.  1.
         22    1    1    0    0    0 -0.24250870457E+02 -0.67922482981E+01  0.12697978550E+02  0.28204219792E+02  0.00000000000E+00 0. -1.
</event>
<event>
 5    1  0.2370309E-009  0.9118800E+02  0.7561462E-02  0.1125453E+00
         25   -1    0    0    0    0  0.00000000000E+00  0.00000000000E+00  0.99999998245E-14  0.12509000000E+03  0.12509000000E+03 0.  0.
        -13    1    3    3    0    0  0.22443215339E+02 -0.38916142577E+01  0.25699016740E+02  0.34340838686E+02  0.10566000000E+00 0. -1.
         23    2    1    0    0    0 -0.28337050264E+02  0.95295226929E+01 -0.43901245947E+01  0.94872895334E+02  0.89932156956E+02 0.  0.
         13    1    3    3    0    0 -0.50780265603E+02  0.13421136951E+02 -0.30089141334E+02  0.60532056648E+02  0.10566000000E+00 0.  1.
         22    1    1    0    0    0  0.28337050264E+02 -0.95295226929E+01  0.43901245947E+01  0.30217104666E+02  0.00000000000E+00 0.  1.
</event>
<event>
 5    1  0.2370309E-009  0.9118800E+02  0.7561462E-02  0.1125453E+00
         25   -1    0    0    0    0  0.00000000000E+00  0.00000000000E+00  0.99999998245E-14  0.12509000000E+03  0.12509000000E+03 0.  0.
        -13    1    3    3    0    0 -0.34935906867E+02  0.32666105309E+02  0.28160749271E+02  0.55503432220E+02  0.10566000000E+00 0. -1.
         23    2    1    0    0    0 -0.21724778795E+02  0.17756141877E+02 -0.72298447818E+01  0.96115576044E+02  0.91644349060E+02 0.  0.
         13    1    3    3    0    0  0.13211128072E+02 -0.14909963432E+02 -0.35390594053E+02  0.40612143824E+02  0.10566000000E+00 0.  1.
         22    1    1    0    0    0  0.21724778795E+02 -0.17756141877E+02  0.72298447818E+01  0.28974423956E+02  0.00000000000E+00 0. -1.
</event>
<event>
 5    1  0.2370309E-009  0.9118800E+02  0.7561462E-02  0.1125453E+00
         25   -1    0    0    0    0  0.00000000000E+00  0.00000000000E+00  0.99999998245E-14  0.12509000000E+03  0.12509000000E+03 0.  0.
        -13    1    3    3    0    0 -0.96283346771E+01  0.50536992194E+02  0.18280342378E+02  0.54597385379E+02  0.10566000000E+00 0. -1.
         23    2    1    0    0    0  0.13048555459E+02  0.26260043583E+02 -0.52408750343E+01  0.95302058486E+02  0.90527127934E+02 0.  0.
         13    1    3    3    0    0  0.22676890136E+02 -0.24276948612E+02 -0.23521217413E+02  0.40704673107E+02  0.10566000000E+00 0.  1.
         22    1    1    0    0    0 -0.13048555459E+02 -0.26260043583E+02  0.52408750343E+01  0.29787941514E+02  0.00000000000E+00 0. -1.
</event>
<event>
 5    1  0.2370309E-009  0.9118800E+02  0.7561462E-02  0.1125453E+00
         25   -1    0    0    0    0  0.00000000000E+00  0.00000000000E+00  0.99999998245E-14  0.12509000000E+03  0.12509000000E+03 0.  0.
        -13    1    3    3    0    0  0.37269200353E+02 -0.35789192833E+01 -0.18914711675E+02  0.41947341274E+02  0.10566000000E+00 0. -1.
         23    2    1    0    0    0 -0.15749480141E+02 -0.19709171224E+02 -0.93463961490E+01  0.98185489671E+02  0.94427420307E+02 0.  0.
         13    1    3    3    0    0 -0.53018680494E+02 -0.16130251941E+02  0.95683155261E+01  0.56238148397E+02  0.10566000000E+00 0.  1.
         22    1    1    0    0    0  0.15749480141E+02  0.19709171224E+02  0.93463961490E+01  0.26904510329E+02  0.00000000000E+00 0.  1.
</event>
<event>
 5    1  0.2370309E-009  0.9118800E+02  0.7561462E-02  0.1125453E+00
         25   -1    0    0    0    0  0.00000000000E+00  0.00000000000E+00  0.99999998245E-14  0.12509000000E+03  0.12509000000E+03 0.  0.
        -13    1    3    3    0    0 -0.13561874699E+02 -0.47802995913E+02  0.19349576879E+02  0.53324179816E+02  0.10566000000E+00 0. -1.
         23    2    1    0    0    0 -0.27245755038E+02 -0.13068422941E+02  0.11666664896E+01  0.94849696488E+02  0.89899883022E+02 0.  0.
         13    1    3    3    0    0 -0.13683880340E+02  0.34734572971E+02 -0.18182910390E+02  0.41525516673E+02  0.10566000000E+00 0.  1.
         22    1    1    0    0    0  0.27245755038E+02  0.13068422941E+02 -0.11666664896E+01  0.30240303512E+02  0.00000000000E+00 0.  1.
</event>
<event>
 5    1  0.2370309E-009  0.9118800E+02  0.7561462E-02  0.1125453E+00
         25   -1    0    0    0    0  0.00000000000E+00  0.00000000000E+00  0.99999998245E-14  0.12509000000E+03  0.12509000000E+03 0.  0.
        -13    1    3    3    0    0  0.63891870419E+01 -0.33062168641E+02  0.27134952775E+02  0.43246335480E+02  0.10566000000E+00 0.  1.
         23    2    1    0    0    0  0.28818765659E+02  0.74500115367E+01  0.38566023176E+01  0.95075048601E+02  0.90212901289E+02 0.  0.
         13    1    3    3    0    0  0.22429578618E+02  0.40512180178E+02 -0.23278350457E+02  0.51828713121E+02  0.10566000000E+00 0. -1.
         22    1    1    0    0    0 -0.28818765659E+02 -0.74500115367E+01 -0.38566023176E+01  0.30014951399E+02  0.00000000000E+00 0. -1.
</event>
<event>
 5    1  0.2370309E-009  0.9118800E+02  0.7561462E-02  0.1125453E+00
         25   -1    0    0    0    0  0.00000000000E+00  0.00000000000E+00  0.99999998245E-14  0.12509000000E+03  0.12509000000E+03 0.  0.
        -13    1    3    3    0    0  0.43859676836E+02 -0.40707774312E+02 -0.13363583195E+02  0.61313870058E+02  0.10566000000E+00 0. -1.
         23    2    1    0    0    0  0.25448149790E+02 -0.11903877309E+02 -0.44232266182E+01  0.96649262379E+02  0.92369932132E+02 0.  0.
         13    1    3    3    0    0 -0.18411527046E+02  0.28803897004E+02  0.89403565764E+01  0.35335392321E+02  0.10566000000E+00 0.  1.
         22    1    1    0    0    0 -0.25448149790E+02  0.11903877309E+02  0.44232266182E+01  0.28440737621E+02  0.00000000000E+00 0. -1.
</event>
<event>
 5    1  0.2370309E-009  0.9118800E+02  0.7561462E-02  0.1125453E+00
         25   -1    0    0    0    0  0.00000000000E+00  0.00000000000E+00  0.99999998245E-14  0.12509000000E+03  0.12509000000E+03 0.  0.
        -13    1    3    3    0    0 -0.33646064858E+02 -0.13623265135E+02  0.36872603544E+02  0.51742159691E+02  0.10566000000E+00 0.  1.
         23    2    1    0    0    0 -0.26516013845E+02  0.14537785427E+02  0.57635535363E+01  0.94305836137E+02  0.89139923630E+02 0.  0.
         13    1    3    3    0    0  0.71300510126E+01  0.28161050562E+02 -0.31109050008E+02  0.42563676446E+02  0.10566000000E+00 0. -1.
         22    1    1    0    0    0  0.26516013845E+02 -0.14537785427E+02 -0.57635535363E+01  0.30784163863E+02  0.00000000000E+00 0. -1.
</event>
<event>
 5    1  0.2370309E-009  0.9118800E+02  0.7561462E-02  0.1125453E+00
         25   -1    0    0    0    0  0.00000000000E+00  0.00000000000E+00  0.99999998245E-14  0.12509000000E+03  0.12509000000E+03 0.  0.
        -13    1    3    3    0    0 -0.43835630483E+02 -0.21472170231E+02 -0.23804291313E+02  0.54307200657E+02  0.10566000000E+00 0.  1.
         23    2    1    0    0    0 -0.30621270422E+02 -0.39556085571E+01  0.82304648977E+01  0.93136133352E+02  0.87483082605E+02 0.  0.
         13    1    3    3    0    0  0.13214360061E+02  0.17516561674E+02  0.32034756211E+02  0.38828932695E+02  0.10566000000E+00 0. -1.
         22    1    1    0    0    0  0.30621270422E+02  0.39556085571E+01 -0.82304648977E+01  0.31953866648E+02  0.00000000000E+00 0.  1.
</event>
<event>
 5    1  0.2370309E-009  0.9118800E+02  0.7561462E-02  0.1125453E+00
         25   -1    0    0    0    0  0.00000000000E+00  0.00000000000E+00  0.99999998245E-14  0.12509000000E+03  0.12509000000E+03 0.  0.
        -13    1    3    3    0    0  0.11501294037E+02  0.46728350288E+02  0.37300607692E+01  0.48267411393E+02  0.10566000000E+00 0. -1.
         23    2    1    0    0    0  0.17376613032E+02  0.62072778701E+01 -0.21807473778E+02  0.96523535543E+02  0.92199512049E+02 0.  0.
         13    1    3    3    0    0  0.58753189946E+01 -0.40521072418E+02 -0.25537534547E+02  0.48256124150E+02  0.10566000000E+00 0.  1.
         22    1    1    0    0    0 -0.17376613032E+02 -0.62072778701E+01  0.21807473778E+02  0.28566464457E+02  0.00000000000E+00 0.  1.
</event>
<event>
 5    1  0.2370309E-009  0.9118800E+02  0.7561462E-02  0.1125453E+00
         25   -1    0    0    0    0  0.00000000000E+00  0.00000000000E+00  0.99999998245E-14  0.12509000000E+03  0.12509000000E+03 0.  0.
        -13    1    3    3    0    0 -0.14069581137E+01  0.39152830455E+02  0.41032395787E+01  0.39392529785E+02  0.10566000000E+00 0.  1.
         23    2    1    0    0    0 -0.15135051400E+02 -0.13035434011E+02 -0.18467476779E+02  0.97886323423E+02  0.94030273285E+02 0.  0.
         13    1    3    3    0    0 -0.13728093286E+02 -0.52188264466E+02 -0.22570716357E+02  0.58493793638E+02  0.10566000000E+00 0. -1.
         22    1    1    0    0    0  0.15135051400E+02  0.13035434011E+02  0.18467476779E+02  0.27203676577E+02  0.00000000000E+00 0. -1.
</event>
<event>
 5    1  0.2370309E-009  0.9118800E+02  0.7561462E-02  0.1125453E+00
         25   -1    0    0    0    0  0.00000000000E+00  0.00000000000E+00  0.99999998245E-14  0.12509000000E+03  0.12509000000E+03 0.  0.
        -13    1    3    3    0    0 -0.58395458704E+02  0.96462095137E+00  0.21048990409E+02  0.62080844486E+02  0.10566000000E+00 0.  1.
         23    2    1    0    0    0 -0.26791472815E+02  0.57813632436E+01  0.10349645008E+02  0.95792861431E+02  0.91202795861E+02 0.  0.
         13    1    3    3    0    0  0.31603985890E+02  0.48167422922E+01 -0.10699345401E+02  0.33712016945E+02  0.10566000000E+00 0. -1.
         22    1    1    0    0    0  0.26791472815E+02 -0.57813632436E+01 -0.10349645008E+02  0.29297138569E+02  0.00000000000E+00 0.  1.
</event>
<event>
 5    1  0.2370309E-009  0.9118800E+02  0.7561462E-02  0.1125453E+00
         25   -1    0    0    0    0  0.00000000000E+00  0.00000000000E+00  0.99999998245E-14  0.12509000000E+03  0.12509000000E+03 0.  0.
        -13    1    3    3    0    0  0.48282744165E+02  0.24558069926E+02 -0.17524397171E+02  0.56933626643E+02  0.10566000000E+00 0.  1.
         23    2    1    0    0    0  0.19412968556E+02  0.23011376193E+02  0.62226494482E+01  0.94347388715E+02  0.89198215278E+02 0.  0.
         13    1    3    3    0    0 -0.28869775609E+02 -0.15466937326E+01  0.23747046619E+02  0.37413762072E+02  0.10566000000E+00 0. -1.
         22    1    1    0    0    0 -0.19412968556E+02 -0.23011376193E+02 -0.62226494482E+01  0.30742611285E+02  0.00000000000E+00 0.  1.
</event>
<event>
 5    1  0.2370309E-009  0.9118800E+02  0.7561462E-02  0.1125453E+00
         25   -1    0    0    0    0  0.00000000000E+00  0.00000000000E+00  0.99999998245E-14  0.12509000000E+03  0.12509000000E+03 0.  0.
        -13    1    3    3    0    0  0.71894345776E+01 -0.36940617935E+02 -0.36877844969E+02  0.52690452993E+02  0.10566000000E+00 0.  1.
         23    2    1    0    0    0  0.32291908796E+01 -0.30789185097E+02  0.36899688521E+01  0.93912805405E+02  0.88586666921E+02 0.  0.
         13    1    3    3    0    0 -0.39602436980E+01  0.61514328378E+01  0.40567813822E+02  0.41222352412E+02  0.10566000000E+00 0. -1.
         22    1    1    0    0    0 -0.32291908796E+01  0.30789185097E+02 -0.36899688521E+01  0.31177194595E+02  0.00000000000E+00 0.  1.
</event>
<event>
 5    1  0.2370309E-009  0.9118800E+02  0.7561462E-02  0.1125453E+00
         25   -1    0    0    0    0  0.00000000000E+00  0.00000000000E+00  0.99999998245E-14  0.12509000000E+03  0.12509000000E+03 0.  0.
        -13    1    3    3    0    0  0.93054966365E+01 -0.51311451901E+02 -0.13117029763E+02  0.53772902076E+02  0.10566000000E+00 0. -1.
         23    2    1    0    0    0  0.24643378969E+02 -0.13379757912E+02 -0.11679509472E+02  0.94713611302E+02  0.89710329258E+02 0.  0.
         13    1    3    3    0    0  0.15337882333E+02  0.37931693989E+02  0.14375202914E+01  0.40940709226E+02  0.10566000000E+00 0.  1.
         22    1    1    0    0    0 -0.24643378969E+02  0.13379757912E+02  0.11679509472E+02  0.30376388698E+02  0.00000000000E+00 0. -1.
</event>
<event>
 5    1  0.2370309E-009  0.9118800E+02  0.7561462E-02  0.1125453E+00
         25   -1    0    0    0    0  0.00000000000E+00  0.00000000000E+00  0.99999998245E-14  0.12509000000E+03  0.12509000000E+03 0.  0.
        -13    1    3    3    0    0 -0.25716207592E+02 -0.32004407002E+02  0.19115073989E+02  0.45287996402E+02  0.10566000000E+00 0.  1.
         23    2    1    0    0    0 -0.79753193030E+01 -0.10992215723E+02 -0.24632900124E+02  0.96961468346E+02  0.92791767150E+02 0.  0.
         13    1    3    3    0    0  0.17740888289E+02  0.21012191279E+02 -0.43747974113E+02  0.51673471944E+02  0.10566000000E+00 0. -1.
         22    1    1    0    0    0  0.79753193030E+01  0.10992215723E+02  0.24632900124E+02  0.28128531654E+02  0.00000000000E+00 0. -1.
</event>
<event>
 5    1  0.2370309E-009  0.9118800E+02  0.7561462E-02  0.1125453E+00
         25   -1    0    0    0    0  0.00000000000E+00  0.00000000000E+00  0.99999998245E-14  0.12509000000E+03  0.12509000000E+03 0.  0.
        -13    1    3    3    0    0 -0.32266743890E+02 -0.82414053281E+01  0.95061705115E+01  0.34632960671E+02  0.10566000000E+00 0.  1.
         23    2    1    0    0    0  0.45194245870E+01  0.12254343232E+02 -0.29997439932E+02  0.92372412542E+02  0.86384154043E+02 0.  0.
         13    1    3    3    0    0  0.36786168477E+02  0.20495748560E+02 -0.39503610443E+02  0.57739451870E+02  0.10566000000E+00 0. -1.
         22    1    1    0    0    0 -0.45194245870E+01 -0.12254343232E+02  0.29997439932E+02  0.32717587458E+02  0.00000000000E+00 0. -1.
</event>
<event>
 5    1  0.2370309E-009  0.9118800E+02  0.7561462E-02  0.1125453E+00
         25   -1    0    0    0    0  0.00000000000E+00  0.00000000000E+00  0.99999998245E-14  0.12509000000E+03  0.12509000000E+03 0.  0.
        -13    1    3    3    0    0  0.25858960543E+00 -0.36332442456E+02 -0.11551833209E+02  0.38125703376E+02  0.10566000000E+00 0. -1.
         23    2    1    0    0    0  0.32112954121E+01  0.20676308175E+02 -0.20369909822E+02  0.95888024653E+02  0.91333224556E+02 0.  0.
         13    1    3    3    0    0  0.29527058067E+01  0.57008750631E+02 -0.88180766129E+01  0.57762321277E+02  0.10566000000E+00 0.  1.
         22    1    1    0    0    0 -0.32112954121E+01 -0.20676308175E+02  0.20369909822E+02  0.29201975347E+02  0.00000000000E+00 0.  1.
</event>
<event>
 5    1  0.2370309E-009  0.9118800E+02  0.7561462E-02  0.1125453E+00
         25   -1    0    0    0    0  0.00000000000E+00  0.00000000000E+00  0.99999998245E-14  0.12509000000E+03  0.12509000000E+03 0.  0.
        -13    1    3    3    0    0  0.20669773694E+02 -0.41414186150E+02  0.35423246122E+02  0.58285434620E+02  0.10566000000E+00 0.  1.
         23    2    1    0    0    0  0.93607532813E+01 -0.84590181882E+01  0.28657702252E+02  0.93777980119E+02  0.88396080038E+02 0.  0.
         13    1    3    3    0    0 -0.11309020412E+02  0.32955167961E+02 -0.67655438704E+01  0.35492545498E+02  0.10566000000E+00 0. -1.
         22    1    1    0    0    0 -0.93607532813E+01  0.84590181882E+01 -0.28657702252E+02  0.31312019881E+02  0.00000000000E+00 0.  1.
</event>
<event>
 5    1  0.2370309E-009  0.9118800E+02  0.7561462E-02  0.1125453E+00
         25   -1    0    0    0    0  0.00000000000E+00  0.00000000000E+00  0.99999998245E-14  0.12509000000E+03  0.12509000000E+03 0.  0.
        -13    1    3    3    0    0 -0.61584445529E+01 -0.78969550710E+01  0.40561174425E+02  0.41779281629E+02  0.10566000000E+00 0. -1.
         23    2    1    0    0    0 -0.23806407975E+02  0.17694659305E+02 -0.29793698272E+01  0.95278547953E+02  0.90494635348E+02 0.  0.
         13    1    3    3    0    0 -0.17647963422E+02  0.25591614376E+02 -0.43540544252E+02  0.53499266323E+02  0.10566000000E+00 0.  1.
         22    1    1    0    0    0  0.23806407975E+02 -0.17694659305E+02  0.29793698272E+01  0.29811452047E+02  0.00000000000E+00 0.  1.
</event>
<event>
 5    1  0.2370309E-009  0.9118800E+02  0.7561462E-02  0.1125453E+00
         25   -1    0    0    0    0  0.00000000000E+00  0.00000000000E+00  0.99999998245E-14  0.12509000000E+03  0.12509000000E+03 0.  0.
        -13    1    3    3    0    0  0.12346650878E+02 -0.31382552494E+01 -0.33864453425E+02  0.36181498085E+02  0.10566000000E+00 0.  1.
         23    2    1    0    0    0  0.77985404805E+00 -0.16087919172E+02  0.23771210707E+02  0.96375895903E+02  0.91998986608E+02 0.  0.
         13    1    3    3    0    0 -0.11566796830E+02 -0.12949663923E+02  0.57635664132E+02  0.60194397817E+02  0.10566000000E+00 0. -1.
         22    1    1    0    0    0 -0.77985404805E+00  0.16087919172E+02 -0.23771210707E+02  0.28714104097E+02  0.00000000000E+00 0. -1.
</event>
<event>
 5    1  0.2370309E-009  0.9118800E+02  0.7561462E-02  0.1125453E+00
         25   -1    0    0    0    0  0.00000000000E+00  0.00000000000E+00  0.99999998245E-14  0.12509000000E+03  0.12509000000E+03 0.  0.
        -13    1    3    3    0    0 -0.13030866032E+02  0.13030732720E+02  0.30850634832E+02  0.35935724542E+02  0.10566000000E+00 0.  1.
         23    2    1    0    0    0 -0.80446065749E+01  0.12001912525E+01 -0.27877148929E+02  0.96050516768E+02  0.91555503302E+02 0.  0.
         13    1    3    3    0    0  0.49862594570E+01 -0.11830541468E+02 -0.58727783761E+02  0.60114792226E+02  0.10566000000E+00 0. -1.
         22    1    1    0    0    0  0.80446065749E+01 -0.12001912525E+01  0.27877148929E+02  0.29039483232E+02  0.00000000000E+00 0. -1.
</event>
<event>
 5    1  0.2370309E-009  0.9118800E+02  0.7561462E-02  0.1125453E+00
         25   -1    0    0    0    0  0.00000000000E+00  0.00000000000E+00  0.99999998245E-14  0.12509000000E+03  0.12509000000E+03 0.  0.
        -13    1    3    3    0    0  0.11424866200E+01  0.36398317255E+02  0.13398796159E+02  0.38803114272E+02  0.10566000000E+00 0. -1.
         23    2    1    0    0    0 -0.21983201332E+02 -0.52126554662E+01 -0.18316012795E+02  0.96005481050E+02  0.91493951435E+02 0.  0.
         13    1    3    3    0    0 -0.23125687952E+02 -0.41610972721E+02 -0.31714808954E+02  0.57202366778E+02  0.10566000000E+00 0.  1.
         22    1    1    0    0    0  0.21983201332E+02  0.52126554662E+01  0.18316012795E+02  0.29084518950E+02  0.00000000000E+00 0.  1.
</event>
<event>
 5    1  0.2370309E-009  0.9118800E+02  0.7561462E-02  0.1125453E+00
         25   -1    0    0    0    0  0.00000000000E+00  0.00000000000E+00  0.99999998245E-14  0.12509000000E+03  0.12509000000E+03 0.  0.
        -13    1    3    3    0    0  0.19046160815E+02 -0.13737652501E+01  0.24268115231E+02  0.30880350608E+02  0.10566000000E+00 0.  1.
         23    2    1    0    0    0  0.44399403726E+01 -0.12695496735E+02 -0.32145723272E+02  0.90244107380E+02  0.83245196163E+02 0.  0.
         13    1    3    3    0    0 -0.14606220442E+02 -0.11321731484E+02 -0.56413838503E+02  0.59363756772E+02  0.10566000000E+00 0. -1.
         22    1    1    0    0    0 -0.44399403726E+01  0.12695496735E+02  0.32145723272E+02  0.34845892620E+02  0.00000000000E+00 0. -1.
</event>
<event>
 5    1  0.2370309E-009  0.9118800E+02  0.7561462E-02  0.1125453E+00
         25   -1    0    0    0    0  0.00000000000E+00  0.00000000000E+00  0.99999998245E-14  0.12509000000E+03  0.12509000000E+03 0.  0.
        -13    1    3    3    0    0  0.34048956675E+02 -0.37701778459E+02 -0.59670635810E+01  0.51150489357E+02  0.10566000000E+00 0.  1.
         23    2    1    0    0    0  0.32156824209E+02 -0.44687795676E+00 -0.15109420456E+02  0.89557541182E+02  0.82207040775E+02 0.  0.
         13    1    3    3    0    0 -0.18921324657E+01  0.37254900502E+02 -0.91423568747E+01  0.38407051826E+02  0.10566000000E+00 0. -1.
         22    1    1    0    0    0 -0.32156824209E+02  0.44687795676E+00  0.15109420456E+02  0.35532458818E+02  0.00000000000E+00 0.  1.
</event>
<event>
 4    1  0.2370309E-009  0.9118800E+02  0.7561462E-02  0.1125453E+00
         25   -1    0    0    0    0  0.00000000000E+00  0.00000000000E+00  0.99999998245E-14  0.12509000000E+03  0.12509000000E+03 0.  0.
        -13    1    1    0    0    0  0.34328922211E+00 -0.64782728375E+01 -0.11527341530E+02  0.13227873345E+02  0.10566000000E+00 0. -1.
         13    1    1    0    0    0 -0.10343557305E+02 -0.16380352905E+02  0.56885844239E+02  0.60094222500E+02  0.10566000000E+00 0.  1.
         22    1    1    0    0    0  0.10000268083E+02  0.22858625742E+02 -0.45358502709E+02  0.51767904155E+02  0.00000000000E+00 0.  1.
</event>
<event>
 5    1  0.2370309E-009  0.9118800E+02  0.7561462E-02  0.1125453E+00
         25   -1    0    0    0    0  0.00000000000E+00  0.00000000000E+00  0.99999998245E-14  0.12509000000E+03  0.12509000000E+03 0.  0.
        -13    1    3    3    0    0  0.35115187867E+02  0.65418317964E+01 -0.31889088579E+01  0.35861571158E+02  0.10566000000E+00 0. -1.
         23    2    1    0    0    0 -0.24537531952E+02  0.11249165157E+02 -0.10462085127E+02  0.96140225973E+02  0.91677988819E+02 0.  0.
         13    1    3    3    0    0 -0.59652719819E+02  0.47073333603E+01 -0.72731762686E+01  0.60278654815E+02  0.10566000000E+00 0.  1.
         22    1    1    0    0    0  0.24537531952E+02 -0.11249165157E+02  0.10462085127E+02  0.28949774027E+02  0.00000000000E+00 0.  1.
</event>
<event>
 4    1  0.2370309E-009  0.9118800E+02  0.7561462E-02  0.1125453E+00
         25   -1    0    0    0    0  0.00000000000E+00  0.00000000000E+00  0.99999998245E-14  0.12509000000E+03  0.12509000000E+03 0.  0.
        -13    1    1    0    0    0  0.84688892125E+01 -0.26055135351E+01 -0.27306443402E+02  0.28708253179E+02  0.10566000000E+00 0. -1.
         13    1    1    0    0    0  0.31534858094E+02 -0.27850523692E+02  0.10420002200E+02  0.43343817953E+02  0.10566000000E+00 0.  1.
         22    1    1    0    0    0 -0.40003747306E+02  0.30456037227E+02  0.16886441202E+02  0.53037928868E+02  0.00000000000E+00 0.  1.
</event>
<event>
 5    1  0.2370309E-009  0.9118800E+02  0.7561462E-02  0.1125453E+00
         25   -1    0    0    0    0  0.00000000000E+00  0.00000000000E+00  0.99999998245E-14  0.12509000000E+03  0.12509000000E+03 0.  0.
        -13    1    3    3    0    0  0.16305742871E+02  0.40064382588E+02  0.32030468306E+02  0.53823731445E+02  0.10566000000E+00 0. -1.
         23    2    1    0    0    0  0.24225769194E+02  0.76288694708E+01  0.27726882409E+02  0.87488569834E+02  0.78996090416E+02 0.  0.
         13    1    3    3    0    0  0.79200263230E+01 -0.32435513117E+02 -0.43035858967E+01  0.33664838389E+02  0.10566000000E+00 0.  1.
         22    1    1    0    0    0 -0.24225769194E+02 -0.76288694708E+01 -0.27726882409E+02  0.37601430166E+02  0.00000000000E+00 0. -1.
</event>
<event>
 5    1  0.2370309E-009  0.9118800E+02  0.7561462E-02  0.1125453E+00
         25   -1    0    0    0    0  0.00000000000E+00  0.00000000000E+00  0.99999998245E-14  0.12509000000E+03  0.12509000000E+03 0.  0.
        -13    1    3    3    0    0  0.23700699810E+02 -0.13458801482E+02 -0.19965434218E+02  0.33785976919E+02  0.10566000000E+00 0. -1.
         23    2    1    0    0    0 -0.31388795843E+02 -0.94098803033E+01 -0.61539497356E+00  0.92315298433E+02  0.86301409386E+02 0.  0.
         13    1    3    3    0    0 -0.55089495654E+02  0.40489211785E+01  0.19350039244E+02  0.58529321514E+02  0.10566000000E+00 0.  1.
         22    1    1    0    0    0  0.31388795843E+02  0.94098803033E+01  0.61539497356E+00  0.32774701567E+02  0.00000000000E+00 0.  1.
</event>
<event>
 5    1  0.2370309E-009  0.9118800E+02  0.7561462E-02  0.1125453E+00
         25   -1    0    0    0    0  0.00000000000E+00  0.00000000000E+00  0.99999998245E-14  0.12509000000E+03  0.12509000000E+03 0.  0.
        -13    1    3    3    0    0 -0.35274396622E+02  0.46390386754E+02 -0.22297011020E+02  0.62398068117E+02  0.10566000000E+00 0.  1.
         23    2    1    0    0    0 -0.16440652920E+02  0.19215673452E+02 -0.12486910412E+02  0.96886097676E+02  0.92690106358E+02 0.  0.
         13    1    3    3    0    0  0.18833743702E+02 -0.27174713302E+02  0.98101006085E+01  0.34488029559E+02  0.10566000000E+00 0. -1.
         22    1    1    0    0    0  0.16440652920E+02 -0.19215673452E+02  0.12486910412E+02  0.28203902324E+02  0.00000000000E+00 0.  1.
</event>
<event>
 5    1  0.2370309E-009  0.9118800E+02  0.7561462E-02  0.1125453E+00
         25   -1    0    0    0    0  0.00000000000E+00  0.00000000000E+00  0.99999998245E-14  0.12509000000E+03  0.12509000000E+03 0.  0.
        -13    1    3    3    0    0 -0.39602397988E+02  0.29415435823E+02  0.36357231075E+00  0.49333164706E+02  0.10566000000E+00 0. -1.
         23    2    1    0    0    0 -0.53731279301E+01  0.14569171603E+02  0.26142690715E+02  0.94683231957E+02  0.89667958999E+02 0.  0.
         13    1    3    3    0    0  0.34229270058E+02 -0.14846264220E+02  0.25779118405E+02  0.45350067252E+02  0.10566000000E+00 0.  1.
         22    1    1    0    0    0  0.53731279301E+01 -0.14569171603E+02 -0.26142690715E+02  0.30406768043E+02  0.00000000000E+00 0. -1.
</event>
<event>
 5    1  0.2370309E-009  0.9118800E+02  0.7561462E-02  0.1125453E+00
         25   -1    0    0    0    0  0.00000000000E+00  0.00000000000E+00  0.99999998245E-14  0.12509000000E+03  0.12509000000E+03 0.  0.
        -13    1    3    3    0    0 -0.10913838972E+02 -0.15564861525E+02  0.27923144881E+02  0.33780023379E+02  0.10566000000E+00 0. -1.
         23    2    1    0    0    0  0.15588159128E+02 -0.42126128520E+01 -0.25743830379E+02  0.94701159702E+02  0.89692965355E+02 0.  0.
         13    1    3    3    0    0  0.26501998101E+02  0.11352248673E+02 -0.53666975260E+02  0.60921136323E+02  0.10566000000E+00 0.  1.
         22    1    1    0    0    0 -0.15588159128E+02  0.42126128520E+01  0.25743830379E+02  0.30388840298E+02  0.00000000000E+00 0.  1.
</event>
<event>
 5    1  0.2370309E-009  0.9118800E+02  0.7561462E-02  0.1125453E+00
         25   -1    0    0    0    0  0.00000000000E+00  0.00000000000E+00  0.99999998245E-14  0.12509000000E+03  0.12509000000E+03 0.  0.
        -13    1    3    3    0    0  0.21594923608E+02  0.48937887970E+02  0.10276319967E+02  0.54468995958E+02  0.10566000000E+00 0.  1.
         23    2    1    0    0    0 -0.97026570289E+01  0.27884646731E+02 -0.49635315177E+01  0.95151200394E+02  0.90318432308E+02 0.  0.
         13    1    3    3    0    0 -0.31297580637E+02 -0.21053241239E+02 -0.15239851485E+02  0.40682204435E+02  0.10566000000E+00 0. -1.
         22    1    1    0    0    0  0.97026570289E+01 -0.27884646731E+02  0.49635315177E+01  0.29938799606E+02  0.00000000000E+00 0.  1.
</event>
<event>
 5    1  0.2370309E-009  0.9118800E+02  0.7561462E-02  0.1125453E+00
         25   -1    0    0    0    0  0.00000000000E+00  0.00000000000E+00  0.99999998245E-14  0.12509000000E+03  0.12509000000E+03 0.  0.
        -13    1    3    3    0    0  0.53662458264E+02 -0.14667497201E+02  0.21184844904E+02  0.59528175839E+02  0.10566000000E+00 0. -1.
         23    2    1    0    0    0  0.30107098080E+02  0.23323552990E+01  0.10477350879E+01  0.94874524084E+02  0.89934422416E+02 0.  0.
         13    1    3    3    0    0 -0.23555360184E+02  0.16999852500E+02 -0.20137109816E+02  0.35346348245E+02  0.10566000000E+00 0.  1.
         22    1    1    0    0    0 -0.30107098080E+02 -0.23323552990E+01 -0.10477350879E+01  0.30215475916E+02  0.00000000000E+00 0. -1.
</event>
<event>
 5    1  0.2370309E-009  0.9118800E+02  0.7561462E-02  0.1125453E+00
         25   -1    0    0    0    0  0.00000000000E+00  0.00000000000E+00  0.99999998245E-14  0.12509000000E+03  0.12509000000E+03 0.  0.
        -13    1    3    3    0    0 -0.34953518793E+02  0.34927700552E+02 -0.18831484487E+02  0.52880324449E+02  0.10566000000E+00 0. -1.
         23    2    1    0    0    0 -0.23707505437E+02  0.83286267069E+01  0.13772674681E+02  0.96435185313E+02  0.92079566472E+02 0.  0.
         13    1    3    3    0    0  0.11246013356E+02 -0.26599073845E+02  0.32604159168E+02  0.43554860864E+02  0.10566000000E+00 0.  1.
         22    1    1    0    0    0  0.23707505437E+02 -0.83286267069E+01 -0.13772674681E+02  0.28654814687E+02  0.00000000000E+00 0. -1.
</event>
<event>
 5    1  0.2370309E-009  0.9118800E+02  0.7561462E-02  0.1125453E+00
         25   -1    0    0    0    0  0.00000000000E+00  0.00000000000E+00  0.99999998245E-14  0.12509000000E+03  0.12509000000E+03 0.  0.
        -13    1    3    3    0    0  0.96060114717E+01  0.51224052480E+02 -0.61702878207E+01  0.52481069203E+02  0.10566000000E+00 0. -1.
         23    2    1    0    0    0  0.15524494726E+01  0.13928453494E+02 -0.26053443644E+02  0.95506324742E+02  0.90808943524E+02 0.  0.
         13    1    3    3    0    0 -0.80535619991E+01 -0.37295598987E+02 -0.19883155823E+02  0.43025255539E+02  0.10566000000E+00 0.  1.
         22    1    1    0    0    0 -0.15524494726E+01 -0.13928453494E+02  0.26053443644E+02  0.29583675258E+02  0.00000000000E+00 0.  1.
</event>
<event>
 5    1  0.2370309E-009  0.9118800E+02  0.7561462E-02  0.1125453E+00
         25   -1    0    0    0    0  0.00000000000E+00  0.00000000000E+00  0.99999998245E-14  0.12509000000E+03  0.12509000000E+03 0.  0.
        -13    1    3    3    0    0 -0.57716253431E+02  0.68418951005E+01 -0.22770123409E+02  0.62421687920E+02  0.10566000000E+00 0. -1.
         23    2    1    0    0    0 -0.25119335028E+02  0.44230673552E+01 -0.12514296381E+02  0.96679577071E+02  0.92410976035E+02 0.  0.
         13    1    3    3    0    0  0.32596918403E+02 -0.24188277453E+01  0.10255827028E+02  0.34257889151E+02  0.10566000000E+00 0.  1.
         22    1    1    0    0    0  0.25119335028E+02 -0.44230673552E+01  0.12514296381E+02  0.28410422929E+02  0.00000000000E+00 0. -1.
</event>
<event>
 5    1  0.2370309E-009  0.9118800E+02  0.7561462E-02  0.1125453E+00
         25   -1    0    0    0    0  0.00000000000E+00  0.00000000000E+00  0.99999998245E-14  0.12509000000E+03  0.12509000000E+03 0.  0.
        -13    1    3    3    0    0 -0.16532156583E+02 -0.28896655073E+02  0.84338361438E+01  0.34343407400E+02  0.10566000000E+00 0.  1.
         23    2    1    0    0    0  0.49767191564E+01  0.27111312093E+02  0.13199076172E+02  0.94528478625E+02  0.89451812068E+02 0.  0.
         13    1    3    3    0    0  0.21508875739E+02  0.56007967167E+02  0.47652400285E+01  0.60185071224E+02  0.10566000000E+00 0. -1.
         22    1    1    0    0    0 -0.49767191564E+01 -0.27111312093E+02 -0.13199076172E+02  0.30561521375E+02  0.00000000000E+00 0. -1.
</event>
<event>
 5    1  0.2370309E-009  0.9118800E+02  0.7561462E-02  0.1125453E+00
         25   -1    0    0    0    0  0.00000000000E+00  0.00000000000E+00  0.99999998245E-14  0.12509000000E+03  0.12509000000E+03 0.  0.
        -13    1    3    3    0    0 -0.51118166247E+02  0.96757325320E+01 -0.27283425455E+02  0.58745920617E+02  0.10566000000E+00 0. -1.
         23    2    1    0    0    0 -0.24812440718E+02  0.71737114619E+01  0.31722572303E+01  0.99067268274E+02  0.95588394049E+02 0.  0.
         13    1    3    3    0    0  0.26305725529E+02 -0.25020210702E+01  0.30455682686E+02  0.40321347658E+02  0.10566000000E+00 0.  1.
         22    1    1    0    0    0  0.24812440718E+02 -0.71737114619E+01 -0.31722572303E+01  0.26022731726E+02  0.00000000000E+00 0. -1.
</event>
