<event>
 5    1  0.8943113E-005  0.9118800E+02  0.7818608E-02  0.1130116E+00
         25   -1    0    0    0    0  0.00000000000E+00  0.00000000000E+00  0.99999998245E-14  0.12500000000E+03  0.12500000000E+03 0.  0.
        -13    1    3    3    0    0  0.13586716858E+02 -0.53367537956E+02  0.27042078382E+02  0.61351268526E+02  0.10566000000E+00 0. -1.
         23    2    1    0    0    0  0.14051198537E+02 -0.23531091012E+02  0.16556750119E+02  0.92980093707E+02  0.87292745556E+02 0.  0.
         13    1    3    3    0    0  0.46448167858E+00  0.29836446944E+02 -0.10485328262E+02  0.31628825181E+02  0.10566000000E+00 0.  1.
         22    1    1    0    0    0 -0.14051198537E+02  0.23531091012E+02 -0.16556750119E+02  0.32019906293E+02  0.00000000000E+00 0. -1.
</event>
<event>
 5    1  0.8943113E-005  0.9118800E+02  0.7818608E-02  0.1130116E+00
         25   -1    0    0    0    0  0.00000000000E+00  0.00000000000E+00  0.99999998245E-14  0.12500000000E+03  0.12500000000E+03 0.  0.
        -13    1    3    3    0    0  0.27727140320E+02  0.18281616474E+02  0.25659596955E+01  0.33310765894E+02  0.10566000000E+00 0. -1.
         23    2    1    0    0    0  0.29722674411E+02  0.12808174917E+02 -0.38451840452E+02  0.74740366565E+02  0.55318095061E+02 0.  0.
         13    1    3    3    0    0  0.19955340912E+01 -0.54734415564E+01 -0.41017800148E+02  0.41429600671E+02  0.10566000000E+00 0.  1.
         22    1    1    0    0    0 -0.29722674411E+02 -0.12808174917E+02  0.38451840452E+02  0.50259633435E+02  0.00000000000E+00 0.  1.
</event>
<event>
 5    1  0.8943113E-005  0.9118800E+02  0.7818608E-02  0.1130116E+00
         25   -1    0    0    0    0  0.00000000000E+00  0.00000000000E+00  0.99999998245E-14  0.12500000000E+03  0.12500000000E+03 0.  0.
        -13    1    3    3    0    0  0.25405553408E+02 -0.12161633348E+01  0.41601855701E+02  0.48761119338E+02  0.10566000000E+00 0.  1.
         23    2    1    0    0    0 -0.15520085505E+02  0.11325911438E+02  0.21853239246E+02  0.95901660021E+02  0.91380605192E+02 0.  0.
         13    1    3    3    0    0 -0.40925638913E+02  0.12542074773E+02 -0.19748616455E+02  0.47140540684E+02  0.10566000000E+00 0. -1.
         22    1    1    0    0    0  0.15520085505E+02 -0.11325911438E+02 -0.21853239246E+02  0.29098339979E+02  0.00000000000E+00 0.  1.
</event>
<event>
 5    1  0.8943113E-005  0.9118800E+02  0.7818608E-02  0.1130116E+00
         25   -1    0    0    0    0  0.00000000000E+00  0.00000000000E+00  0.99999998245E-14  0.12500000000E+03  0.12500000000E+03 0.  0.
        -13    1    3    3    0    0 -0.11452444989E+02 -0.26450403060E+02 -0.48268392355E+02  0.56219491129E+02  0.10566000000E+00 0.  1.
         23    2    1    0    0    0  0.82861408344E+01 -0.24247676168E+02 -0.14070275988E+02  0.95766755297E+02  0.91195881619E+02 0.  0.
         13    1    3    3    0    0  0.19738585823E+02  0.22027268919E+01  0.34198116367E+02  0.39547264168E+02  0.10566000000E+00 0. -1.
         22    1    1    0    0    0 -0.82861408344E+01  0.24247676168E+02  0.14070275988E+02  0.29233244703E+02  0.00000000000E+00 0.  1.
</event>
<event>
 5    1  0.8943113E-005  0.9118800E+02  0.7818608E-02  0.1130116E+00
         25   -1    0    0    0    0  0.00000000000E+00  0.00000000000E+00  0.99999998245E-14  0.12500000000E+03  0.12500000000E+03 0.  0.
        -13    1    3    3    0    0  0.54963929834E+02  0.25315167583E+02  0.21744044075E+01  0.60552708371E+02  0.10566000000E+00 0.  1.
         23    2    1    0    0    0  0.20427582594E+02  0.21080797302E+02 -0.18917932976E+01  0.95584612405E+02  0.90945880067E+02 0.  0.
         13    1    3    3    0    0 -0.34536347240E+02 -0.42343702810E+01 -0.40661977051E+01  0.35031904033E+02  0.10566000000E+00 0. -1.
         22    1    1    0    0    0 -0.20427582594E+02 -0.21080797302E+02  0.18917932976E+01  0.29415387595E+02  0.00000000000E+00 0.  1.
</event>
<event>
 5    1  0.8943113E-005  0.9118800E+02  0.7818608E-02  0.1130116E+00
         25   -1    0    0    0    0  0.00000000000E+00  0.00000000000E+00  0.99999998245E-14  0.12500000000E+03  0.12500000000E+03 0.  0.
        -13    1    3    3    0    0 -0.82636506882E+01  0.38823900390E+02  0.39690536887E+02  0.56133172425E+02  0.10566000000E+00 0.  1.
         23    2    1    0    0    0  0.10867197591E+01  0.17677295559E+01  0.29147746010E+02  0.95778485236E+02  0.91211958147E+02 0.  0.
         13    1    3    3    0    0  0.93503704473E+01 -0.37056170834E+02 -0.10542790876E+02  0.39645312811E+02  0.10566000000E+00 0. -1.
         22    1    1    0    0    0 -0.10867197591E+01 -0.17677295559E+01 -0.29147746010E+02  0.29221514764E+02  0.00000000000E+00 0.  1.
</event>
<event>
 5    1  0.8943113E-005  0.9118800E+02  0.7818608E-02  0.1130116E+00
         25   -1    0    0    0    0  0.00000000000E+00  0.00000000000E+00  0.99999998245E-14  0.12500000000E+03  0.12500000000E+03 0.  0.
        -13    1    3    3    0    0 -0.12621993858E+02 -0.32583293505E+02 -0.24816164031E+02  0.42858358646E+02  0.10566000000E+00 0. -1.
         23    2    1    0    0    0  0.15415383555E+02 -0.19784012354E+02  0.16923201507E+02  0.94743827997E+02  0.89782832431E+02 0.  0.
         13    1    3    3    0    0  0.28037377413E+02  0.12799281151E+02  0.41739365539E+02  0.51885469351E+02  0.10566000000E+00 0.  1.
         22    1    1    0    0    0 -0.15415383555E+02  0.19784012354E+02 -0.16923201507E+02  0.30256172003E+02  0.00000000000E+00 0.  1.
</event>
<event>
 5    1  0.8943113E-005  0.9118800E+02  0.7818608E-02  0.1130116E+00
         25   -1    0    0    0    0  0.00000000000E+00  0.00000000000E+00  0.99999998245E-14  0.12500000000E+03  0.12500000000E+03 0.  0.
        -13    1    3    3    0    0 -0.35600532836E+02  0.85678498941E+01 -0.59847882174E+01  0.37103030120E+02  0.10566000000E+00 0.  1.
         23    2    1    0    0    0  0.70044255725E+01 -0.24473744753E+02  0.15560476893E+02  0.95164541214E+02  0.90366671420E+02 0.  0.
         13    1    3    3    0    0  0.42604958409E+02 -0.33041594647E+02  0.21545265110E+02  0.58061511094E+02  0.10566000000E+00 0. -1.
         22    1    1    0    0    0 -0.70044255725E+01  0.24473744753E+02 -0.15560476893E+02  0.29835458786E+02  0.00000000000E+00 0. -1.
</event>
<event>
 5    1  0.8943113E-005  0.9118800E+02  0.7818608E-02  0.1130116E+00
         25   -1    0    0    0    0  0.00000000000E+00  0.00000000000E+00  0.99999998245E-14  0.12500000000E+03  0.12500000000E+03 0.  0.
        -13    1    3    3    0    0  0.10743643100E+02 -0.16659089770E+02  0.37302685859E+02  0.42242782524E+02  0.10566000000E+00 0. -1.
         23    2    1    0    0    0  0.29056556807E+02  0.41072896575E+01 -0.73180341780E+01  0.94755877496E+02  0.89799606759E+02 0.  0.
         13    1    3    3    0    0  0.18312913707E+02  0.20766379427E+02 -0.44620720037E+02  0.52513094973E+02  0.10566000000E+00 0.  1.
         22    1    1    0    0    0 -0.29056556807E+02 -0.41072896575E+01  0.73180341780E+01  0.30244122504E+02  0.00000000000E+00 0.  1.
</event>
<event>
 5    1  0.8943113E-005  0.9118800E+02  0.7818608E-02  0.1130116E+00
         25   -1    0    0    0    0  0.00000000000E+00  0.00000000000E+00  0.99999998245E-14  0.12500000000E+03  0.12500000000E+03 0.  0.
        -13    1    3    3    0    0  0.23549794848E+02 -0.37310992752E+02 -0.14223533322E+01  0.44144504421E+02  0.10566000000E+00 0.  1.
         23    2    1    0    0    0 -0.14295240922E+02 -0.12903851576E+02  0.22700352062E+02  0.95231404429E+02  0.90459112903E+02 0.  0.
         13    1    3    3    0    0 -0.37845035771E+02  0.24407141176E+02  0.24122705394E+02  0.51086900008E+02  0.10566000000E+00 0. -1.
         22    1    1    0    0    0  0.14295240922E+02  0.12903851576E+02 -0.22700352062E+02  0.29768595571E+02  0.00000000000E+00 0. -1.
</event>
<event>
 5    1  0.8943113E-005  0.9118800E+02  0.7818608E-02  0.1130116E+00
         25   -1    0    0    0    0  0.00000000000E+00  0.00000000000E+00  0.99999998245E-14  0.12500000000E+03  0.12500000000E+03 0.  0.
        -13    1    3    3    0    0 -0.24194812927E+02 -0.52431446490E+02 -0.46725712604E+01  0.57933493247E+02  0.10566000000E+00 0.  1.
         23    2    1    0    0    0 -0.67595771330E+01 -0.22618684541E+02 -0.18370085233E+02  0.95087514231E+02  0.90260060702E+02 0.  0.
         13    1    3    3    0    0  0.17435235794E+02  0.29812761949E+02 -0.13697513973E+02  0.37154020984E+02  0.10566000000E+00 0. -1.
         22    1    1    0    0    0  0.67595771330E+01  0.22618684541E+02  0.18370085233E+02  0.29912485769E+02  0.00000000000E+00 0.  1.
</event>
<event>
 5    1  0.8943113E-005  0.9118800E+02  0.7818608E-02  0.1130116E+00
         25   -1    0    0    0    0  0.00000000000E+00  0.00000000000E+00  0.99999998245E-14  0.12500000000E+03  0.12500000000E+03 0.  0.
        -13    1    3    3    0    0  0.33725502264E+02 -0.40275832185E+02 -0.61089671584E+01  0.52885563294E+02  0.10566000000E+00 0.  1.
         23    2    1    0    0    0 -0.39757629587E+01 -0.22937831387E+02 -0.17451982158E+02  0.95904940607E+02  0.91385092613E+02 0.  0.
         13    1    3    3    0    0 -0.37701265223E+02  0.17338000799E+02 -0.11343014999E+02  0.43019377313E+02  0.10566000000E+00 0. -1.
         22    1    1    0    0    0  0.39757629587E+01  0.22937831387E+02  0.17451982158E+02  0.29095059393E+02  0.00000000000E+00 0.  1.
</event>
<event>
 5    1  0.8943113E-005  0.9118800E+02  0.7818608E-02  0.1130116E+00
         25   -1    0    0    0    0  0.00000000000E+00  0.00000000000E+00  0.99999998245E-14  0.12500000000E+03  0.12500000000E+03 0.  0.
        -13    1    3    3    0    0 -0.15988000589E+02 -0.47059484481E+02  0.13240724497E+02  0.51434805255E+02  0.10566000000E+00 0.  1.
         23    2    1    0    0    0 -0.25626708733E+02 -0.38106919058E+01 -0.36110152492E+01  0.98841081742E+02  0.95316684980E+02 0.  0.
         13    1    3    3    0    0 -0.96387081442E+01  0.43248792575E+02 -0.16851739747E+02  0.47406276487E+02  0.10566000000E+00 0. -1.
         22    1    1    0    0    0  0.25626708733E+02  0.38106919058E+01  0.36110152492E+01  0.26158918258E+02  0.00000000000E+00 0.  1.
</event>
<event>
 5    1  0.8943113E-005  0.9118800E+02  0.7818608E-02  0.1130116E+00
         25   -1    0    0    0    0  0.00000000000E+00  0.00000000000E+00  0.99999998245E-14  0.12500000000E+03  0.12500000000E+03 0.  0.
        -13    1    3    3    0    0 -0.43742225336E+02 -0.37568291354E+02 -0.21347049878E+02  0.61485498251E+02  0.10566000000E+00 0. -1.
         23    2    1    0    0    0 -0.22563404667E+02 -0.21884560946E+02 -0.33706186710E+01  0.93386675148E+02  0.87873026504E+02 0.  0.
         13    1    3    3    0    0  0.21178820669E+02  0.15683730408E+02  0.17976431207E+02  0.31901176897E+02  0.10566000000E+00 0.  1.
         22    1    1    0    0    0  0.22563404667E+02  0.21884560946E+02  0.33706186710E+01  0.31613324852E+02  0.00000000000E+00 0. -1.
</event>
<event>
 5    1  0.8943113E-005  0.9118800E+02  0.7818608E-02  0.1130116E+00
         25   -1    0    0    0    0  0.00000000000E+00  0.00000000000E+00  0.99999998245E-14  0.12500000000E+03  0.12500000000E+03 0.  0.
        -13    1    3    3    0    0  0.48039395566E+02  0.84771568770E+01  0.40272929490E+01  0.48947686030E+02  0.10566000000E+00 0.  1.
         23    2    1    0    0    0  0.13055112577E+02 -0.93037089154E+01  0.26394857979E+02  0.94118233669E+02  0.88907583575E+02 0.  0.
         13    1    3    3    0    0 -0.34984282989E+02 -0.17780865792E+02  0.22367565030E+02  0.45170547639E+02  0.10566000000E+00 0. -1.
         22    1    1    0    0    0 -0.13055112577E+02  0.93037089154E+01 -0.26394857979E+02  0.30881766331E+02  0.00000000000E+00 0.  1.
</event>
<event>
 5    1  0.8943113E-005  0.9118800E+02  0.7818608E-02  0.1130116E+00
         25   -1    0    0    0    0  0.00000000000E+00  0.00000000000E+00  0.99999998245E-14  0.12500000000E+03  0.12500000000E+03 0.  0.
        -13    1    3    3    0    0  0.21765921620E+02 -0.19182684122E+02  0.14128303855E+02  0.32269968205E+02  0.10566000000E+00 0.  1.
         23    2    1    0    0    0 -0.17398574080E+02 -0.41694447048E+02  0.14831149819E+02  0.77448971624E+02  0.61132993596E+02 0.  0.
         13    1    3    3    0    0 -0.39164495700E+02 -0.22511762926E+02  0.70284596359E+00  0.45179003419E+02  0.10566000000E+00 0. -1.
         22    1    1    0    0    0  0.17398574080E+02  0.41694447048E+02 -0.14831149819E+02  0.47551028376E+02  0.00000000000E+00 0. -1.
</event>
<event>
 5    1  0.8943113E-005  0.9118800E+02  0.7818608E-02  0.1130116E+00
         25   -1    0    0    0    0  0.00000000000E+00  0.00000000000E+00  0.99999998245E-14  0.12500000000E+03  0.12500000000E+03 0.  0.
        -13    1    3    3    0    0  0.34777949941E+02 -0.46915515780E+02  0.67962638977E+01  0.58794317667E+02  0.10566000000E+00 0. -1.
         23    2    1    0    0    0  0.54188122112E+01 -0.25944585704E+02  0.13123166348E+02  0.95424629366E+02  0.90725725908E+02 0.  0.
         13    1    3    3    0    0 -0.29359137730E+02  0.20970930075E+02  0.63269024506E+01  0.36630311699E+02  0.10566000000E+00 0.  1.
         22    1    1    0    0    0 -0.54188122112E+01  0.25944585704E+02 -0.13123166348E+02  0.29575370634E+02  0.00000000000E+00 0. -1.
</event>
<event>
 5    1  0.8943113E-005  0.9118800E+02  0.7818608E-02  0.1130116E+00
         25   -1    0    0    0    0  0.00000000000E+00  0.00000000000E+00  0.99999998245E-14  0.12500000000E+03  0.12500000000E+03 0.  0.
        -13    1    3    3    0    0  0.30731856333E+02  0.14526374371E+02  0.13922044289E+02  0.36732778648E+02  0.10566000000E+00 0.  1.
         23    2    1    0    0    0 -0.26407196047E+02  0.14214332511E+02  0.36469269031E+01  0.94789284556E+02  0.89846096961E+02 0.  0.
         13    1    3    3    0    0 -0.57139052379E+02 -0.31204185986E+00 -0.10275117386E+02  0.58056505908E+02  0.10566000000E+00 0. -1.
         22    1    1    0    0    0  0.26407196047E+02 -0.14214332511E+02 -0.36469269031E+01  0.30210715444E+02  0.00000000000E+00 0. -1.
</event>
<event>
 5    1  0.8943113E-005  0.9118800E+02  0.7818608E-02  0.1130116E+00
         25   -1    0    0    0    0  0.00000000000E+00  0.00000000000E+00  0.99999998245E-14  0.12500000000E+03  0.12500000000E+03 0.  0.
        -13    1    3    3    0    0 -0.61515480164E+02 -0.21782070685E+01 -0.17894607323E+01  0.61580128447E+02  0.10566000000E+00 0.  1.
         23    2    1    0    0    0 -0.28328764079E+02 -0.77479394607E+01 -0.42680323193E+01  0.95322305682E+02  0.90584636780E+02 0.  0.
         13    1    3    3    0    0  0.33186716085E+02 -0.55697323921E+01 -0.24785715870E+01  0.33742177235E+02  0.10566000000E+00 0. -1.
         22    1    1    0    0    0  0.28328764079E+02  0.77479394607E+01  0.42680323193E+01  0.29677694318E+02  0.00000000000E+00 0.  1.
</event>
<event>
 5    1  0.8943113E-005  0.9118800E+02  0.7818608E-02  0.1130116E+00
         25   -1    0    0    0    0  0.00000000000E+00  0.00000000000E+00  0.99999998245E-14  0.12500000000E+03  0.12500000000E+03 0.  0.
        -13    1    3    3    0    0  0.27750025106E+02 -0.38036784533E+02  0.76809681290E+01  0.47706072008E+02  0.10566000000E+00 0.  1.
         23    2    1    0    0    0 -0.41862454556E+01 -0.25177508389E+02 -0.20552525971E+02  0.92230533976E+02  0.86212722344E+02 0.  0.
         13    1    3    3    0    0 -0.31936270562E+02  0.12859276144E+02 -0.28233494100E+02  0.44524461968E+02  0.10566000000E+00 0. -1.
         22    1    1    0    0    0  0.41862454556E+01  0.25177508389E+02  0.20552525971E+02  0.32769466024E+02  0.00000000000E+00 0. -1.
</event>
<event>
 5    1  0.8943113E-005  0.9118800E+02  0.7818608E-02  0.1130116E+00
         25   -1    0    0    0    0  0.00000000000E+00  0.00000000000E+00  0.99999998245E-14  0.12500000000E+03  0.12500000000E+03 0.  0.
        -13    1    3    3    0    0  0.56648017288E+01 -0.31852398345E+02 -0.15200356480E+02  0.35745311023E+02  0.10566000000E+00 0. -1.
         23    2    1    0    0    0  0.97448364359E+01  0.26845422090E+02 -0.96864568255E+01  0.94842646499E+02  0.89920307077E+02 0.  0.
         13    1    3    3    0    0  0.40800347071E+01  0.58697820435E+02  0.55138996549E+01  0.59097335476E+02  0.10566000000E+00 0.  1.
         22    1    1    0    0    0 -0.97448364359E+01 -0.26845422090E+02  0.96864568255E+01  0.30157353501E+02  0.00000000000E+00 0.  1.
</event>
<event>
 5    1  0.8943113E-005  0.9118800E+02  0.7818608E-02  0.1130116E+00
         25   -1    0    0    0    0  0.00000000000E+00  0.00000000000E+00  0.99999998245E-14  0.12500000000E+03  0.12500000000E+03 0.  0.
        -13    1    3    3    0    0 -0.23498941851E+02  0.37208342289E+02 -0.78772885566E+01  0.44707089405E+02  0.10566000000E+00 0.  1.
         23    2    1    0    0    0 -0.22665495382E+02 -0.12615834711E+02 -0.14985142231E+02  0.95042722853E+02  0.90198008366E+02 0.  0.
         13    1    3    3    0    0  0.83344646861E+00 -0.49824177000E+02 -0.71078536742E+01  0.50335633448E+02  0.10566000000E+00 0. -1.
         22    1    1    0    0    0  0.22665495382E+02  0.12615834711E+02  0.14985142231E+02  0.29957277147E+02  0.00000000000E+00 0.  1.
</event>
<event>
 5    1  0.8943113E-005  0.9118800E+02  0.7818608E-02  0.1130116E+00
         25   -1    0    0    0    0  0.00000000000E+00  0.00000000000E+00  0.99999998245E-14  0.12500000000E+03  0.12500000000E+03 0.  0.
        -13    1    3    3    0    0  0.10148463036E+02 -0.22962295122E+02  0.20347311163E+02  0.32315360664E+02  0.10566000000E+00 0.  1.
         23    2    1    0    0    0 -0.32738107318E+02 -0.12532740360E+02 -0.12977585216E+02  0.87619912122E+02  0.79246312409E+02 0.  0.
         13    1    3    3    0    0 -0.42886570354E+02  0.10429554761E+02 -0.33324896379E+02  0.55304551458E+02  0.10566000000E+00 0. -1.
         22    1    1    0    0    0  0.32738107318E+02  0.12532740360E+02  0.12977585216E+02  0.37380087878E+02  0.00000000000E+00 0. -1.
</event>
<event>
 5    1  0.8943113E-005  0.9118800E+02  0.7818608E-02  0.1130116E+00
         25   -1    0    0    0    0  0.00000000000E+00  0.00000000000E+00  0.99999998245E-14  0.12500000000E+03  0.12500000000E+03 0.  0.
        -13    1    3    3    0    0  0.37423898292E+02 -0.33862893747E+02  0.56226059029E+01  0.50782561943E+02  0.10566000000E+00 0. -1.
         23    2    1    0    0    0  0.29991837862E+02  0.83274886334E+01  0.11992001939E+01  0.93850433608E+02  0.88530268282E+02 0.  0.
         13    1    3    3    0    0 -0.74320604301E+01  0.42190382381E+02 -0.44234057091E+01  0.43067871665E+02  0.10566000000E+00 0.  1.
         22    1    1    0    0    0 -0.29991837862E+02 -0.83274886334E+01 -0.11992001939E+01  0.31149566392E+02  0.00000000000E+00 0.  1.
</event>
<event>
 5    1  0.8943113E-005  0.9118800E+02  0.7818608E-02  0.1130116E+00
         25   -1    0    0    0    0  0.00000000000E+00  0.00000000000E+00  0.99999998245E-14  0.12500000000E+03  0.12500000000E+03 0.  0.
        -13    1    3    3    0    0  0.26763942373E+02 -0.46376948473E+02  0.99658223905E+01  0.54465206700E+02  0.10566000000E+00 0.  1.
         23    2    1    0    0    0  0.23402475699E+02 -0.49898853598E+01  0.15696996573E+02  0.96382338912E+02  0.92035779607E+02 0.  0.
         13    1    3    3    0    0 -0.33614666736E+01  0.41387063113E+02  0.57311741824E+01  0.41917132211E+02  0.10566000000E+00 0. -1.
         22    1    1    0    0    0 -0.23402475699E+02  0.49898853598E+01 -0.15696996573E+02  0.28617661088E+02  0.00000000000E+00 0.  1.
</event>
<event>
 5    1  0.8943113E-005  0.9118800E+02  0.7818608E-02  0.1130116E+00
         25   -1    0    0    0    0  0.00000000000E+00  0.00000000000E+00  0.99999998245E-14  0.12500000000E+03  0.12500000000E+03 0.  0.
        -13    1    3    3    0    0 -0.35435839853E+02  0.81925747151E+01  0.15197994688E+02  0.39418361624E+02  0.10566000000E+00 0.  1.
         23    2    1    0    0    0  0.51700879870E+00 -0.22703621621E+02 -0.16921244185E+02  0.96679508522E+02  0.92438504588E+02 0.  0.
         13    1    3    3    0    0  0.35952848652E+02 -0.30896196336E+02 -0.32119238873E+02  0.57261146898E+02  0.10566000000E+00 0. -1.
         22    1    1    0    0    0 -0.51700879870E+00  0.22703621621E+02  0.16921244185E+02  0.28320491478E+02  0.00000000000E+00 0. -1.
</event>
<event>
 5    1  0.8943113E-005  0.9118800E+02  0.7818608E-02  0.1130116E+00
         25   -1    0    0    0    0  0.00000000000E+00  0.00000000000E+00  0.99999998245E-14  0.12500000000E+03  0.12500000000E+03 0.  0.
        -13    1    3    3    0    0 -0.92403636271E+01 -0.32741018631E+02 -0.23211600352E+02  0.41184319539E+02  0.10566000000E+00 0. -1.
         23    2    1    0    0    0  0.24633348034E+02  0.94719477900E+01 -0.66877695560E+01  0.97774168664E+02  0.93907093268E+02 0.  0.
         13    1    3    3    0    0  0.33873711661E+02  0.42212966421E+02  0.16523830796E+02  0.56589849125E+02  0.10566000000E+00 0.  1.
         22    1    1    0    0    0 -0.24633348034E+02 -0.94719477900E+01  0.66877695560E+01  0.27225831336E+02  0.00000000000E+00 0.  1.
</event>
<event>
 5    1  0.8943113E-005  0.9118800E+02  0.7818608E-02  0.1130116E+00
         25   -1    0    0    0    0  0.00000000000E+00  0.00000000000E+00  0.99999998245E-14  0.12500000000E+03  0.12500000000E+03 0.  0.
        -13    1    3    3    0    0  0.19184377830E+02  0.29088799210E+02  0.19966451508E+02  0.40160539614E+02  0.10566000000E+00 0. -1.
         23    2    1    0    0    0  0.21042186856E+01 -0.23596595032E+02  0.17402590155E+02  0.95604810300E+02  0.90973636704E+02 0.  0.
         13    1    3    3    0    0 -0.17080159144E+02 -0.52685394243E+02 -0.25638613539E+01  0.55444270686E+02  0.10566000000E+00 0.  1.
         22    1    1    0    0    0 -0.21042186856E+01  0.23596595032E+02 -0.17402590155E+02  0.29395189700E+02  0.00000000000E+00 0.  1.
</event>
<event>
 5    1  0.8943113E-005  0.9118800E+02  0.7818608E-02  0.1130116E+00
         25   -1    0    0    0    0  0.00000000000E+00  0.00000000000E+00  0.99999998245E-14  0.12500000000E+03  0.12500000000E+03 0.  0.
        -13    1    3    3    0    0  0.58572938308E+02 -0.23775707118E+01  0.19392997045E+02  0.61745780770E+02  0.10566000000E+00 0.  1.
         23    2    1    0    0    0  0.27966213939E+02  0.45300697237E+01  0.51453470538E+01  0.96205812216E+02  0.91795713702E+02 0.  0.
         13    1    3    3    0    0 -0.30606724368E+02  0.69076404355E+01 -0.14247649992E+02  0.34460031446E+02  0.10566000000E+00 0. -1.
         22    1    1    0    0    0 -0.27966213939E+02 -0.45300697237E+01 -0.51453470538E+01  0.28794187784E+02  0.00000000000E+00 0.  1.
</event>
<event>
 5    1  0.8943113E-005  0.9118800E+02  0.7818608E-02  0.1130116E+00
         25   -1    0    0    0    0  0.00000000000E+00  0.00000000000E+00  0.99999998245E-14  0.12500000000E+03  0.12500000000E+03 0.  0.
        -13    1    3    3    0    0 -0.26399323497E+01  0.41210928801E+02 -0.12304748535E+02  0.43089765560E+02  0.10566000000E+00 0.  1.
         23    2    1    0    0    0 -0.16468899453E+02  0.15452576092E+02  0.25537059574E+02  0.90909705652E+02  0.84275894614E+02 0.  0.
         13    1    3    3    0    0 -0.13828967103E+02 -0.25758352709E+02  0.37841808109E+02  0.47819940092E+02  0.10566000000E+00 0. -1.
         22    1    1    0    0    0  0.16468899453E+02 -0.15452576092E+02 -0.25537059574E+02  0.34090294348E+02  0.00000000000E+00 0.  1.
</event>
<event>
 5    1  0.8943113E-005  0.9118800E+02  0.7818608E-02  0.1130116E+00
         25   -1    0    0    0    0  0.00000000000E+00  0.00000000000E+00  0.99999998245E-14  0.12500000000E+03  0.12500000000E+03 0.  0.
        -13    1    3    3    0    0 -0.40499275620E+02  0.15038850153E+02 -0.28277767875E+02  0.51633338646E+02  0.10566000000E+00 0.  1.
         23    2    1    0    0    0 -0.23236356856E+02  0.15857184077E+02  0.11194244434E+02  0.94723116488E+02  0.89753992234E+02 0.  0.
         13    1    3    3    0    0  0.17262918764E+02  0.81833392448E+00  0.39472012309E+02  0.43089777842E+02  0.10566000000E+00 0. -1.
         22    1    1    0    0    0  0.23236356856E+02 -0.15857184077E+02 -0.11194244434E+02  0.30276883512E+02  0.00000000000E+00 0.  1.
</event>
<event>
 5    1  0.8943113E-005  0.9118800E+02  0.7818608E-02  0.1130116E+00
         25   -1    0    0    0    0  0.00000000000E+00  0.00000000000E+00  0.99999998245E-14  0.12500000000E+03  0.12500000000E+03 0.  0.
        -13    1    3    3    0    0  0.32479770969E+02 -0.16637013019E+02  0.46733064335E+01  0.36790986416E+02  0.10566000000E+00 0.  1.
         23    2    1    0    0    0 -0.13942081193E+02  0.11930127899E+02  0.24146288297E+02  0.94672573169E+02  0.89683573145E+02 0.  0.
         13    1    3    3    0    0 -0.46421852162E+02  0.28567140918E+02  0.19472981864E+02  0.57881586753E+02  0.10566000000E+00 0. -1.
         22    1    1    0    0    0  0.13942081193E+02 -0.11930127899E+02 -0.24146288297E+02  0.30327426831E+02  0.00000000000E+00 0.  1.
</event>
<event>
 5    1  0.8943113E-005  0.9118800E+02  0.7818608E-02  0.1130116E+00
         25   -1    0    0    0    0  0.00000000000E+00  0.00000000000E+00  0.99999998245E-14  0.12500000000E+03  0.12500000000E+03 0.  0.
        -13    1    3    3    0    0  0.31184743365E+02 -0.20141843706E+01  0.51149407309E+02  0.59940121701E+02  0.10566000000E+00 0.  1.
         23    2    1    0    0    0  0.23362427433E+02  0.81422921878E+01  0.21575603874E+02  0.92173080861E+02  0.86129380674E+02 0.  0.
         13    1    3    3    0    0 -0.78223159325E+01  0.10156476558E+02 -0.29573803434E+02  0.32232959160E+02  0.10566000000E+00 0. -1.
         22    1    1    0    0    0 -0.23362427433E+02 -0.81422921878E+01 -0.21575603874E+02  0.32826919139E+02  0.00000000000E+00 0.  1.
</event>
<event>
 5    1  0.8943113E-005  0.9118800E+02  0.7818608E-02  0.1130116E+00
         25   -1    0    0    0    0  0.00000000000E+00  0.00000000000E+00  0.99999998245E-14  0.12500000000E+03  0.12500000000E+03 0.  0.
        -13    1    3    3    0    0 -0.29514204174E+02 -0.76516821861E+01  0.51915731276E+02  0.60207066083E+02  0.10566000000E+00 0. -1.
         23    2    1    0    0    0 -0.63392354953E+01 -0.12829863189E+02  0.25740689050E+02  0.95548779841E+02  0.90896616880E+02 0.  0.
         13    1    3    3    0    0  0.23174968679E+02 -0.51781810024E+01 -0.26175042227E+02  0.35341713758E+02  0.10566000000E+00 0.  1.
         22    1    1    0    0    0  0.63392354953E+01  0.12829863189E+02 -0.25740689050E+02  0.29451220159E+02  0.00000000000E+00 0. -1.
</event>
<event>
 5    1  0.8943113E-005  0.9118800E+02  0.7818608E-02  0.1130116E+00
         25   -1    0    0    0    0  0.00000000000E+00  0.00000000000E+00  0.99999998245E-14  0.12500000000E+03  0.12500000000E+03 0.  0.
        -13    1    3    3    0    0 -0.33346489430E+01  0.18327512131E+02  0.29562383551E+02  0.34942284838E+02  0.10566000000E+00 0.  1.
         23    2    1    0    0    0 -0.12015776980E+01 -0.26374328612E+02 -0.11982740419E+02  0.96006292637E+02  0.91523620772E+02 0.  0.
         13    1    3    3    0    0  0.21330712449E+01 -0.44701840743E+02 -0.41545123970E+02  0.61064007799E+02  0.10566000000E+00 0. -1.
         22    1    1    0    0    0  0.12015776980E+01  0.26374328612E+02  0.11982740419E+02  0.28993707363E+02  0.00000000000E+00 0. -1.
</event>
<event>
 5    1  0.8943113E-005  0.9118800E+02  0.7818608E-02  0.1130116E+00
         25   -1    0    0    0    0  0.00000000000E+00  0.00000000000E+00  0.99999998245E-14  0.12500000000E+03  0.12500000000E+03 0.  0.
        -13    1    3    3    0    0  0.46391802229E+02 -0.81005274160E+01 -0.70238895775E+01  0.47614746112E+02  0.10566000000E+00 0.  1.
         23    2    1    0    0    0  0.89049211999E+01  0.14237716190E+02 -0.25060358558E+02  0.94833267414E+02  0.89907268079E+02 0.  0.
         13    1    3    3    0    0 -0.37486881029E+02  0.22338243606E+02 -0.18036468980E+02  0.47218521302E+02  0.10566000000E+00 0. -1.
         22    1    1    0    0    0 -0.89049211999E+01 -0.14237716190E+02  0.25060358558E+02  0.30166732586E+02  0.00000000000E+00 0. -1.
</event>
<event>
 5    1  0.8943113E-005  0.9118800E+02  0.7818608E-02  0.1130116E+00
         25   -1    0    0    0    0  0.00000000000E+00  0.00000000000E+00  0.99999998245E-14  0.12500000000E+03  0.12500000000E+03 0.  0.
        -13    1    3    3    0    0 -0.23002165013E+01 -0.40952548028E+02 -0.54545930860E+01  0.41378326884E+02  0.10566000000E+00 0. -1.
         23    2    1    0    0    0 -0.12638836774E+02  0.93149088078E+01 -0.24317089589E+02  0.96054731523E+02  0.91589753143E+02 0.  0.
         13    1    3    3    0    0 -0.10338620273E+02  0.50267456836E+02 -0.18862496503E+02  0.54676404639E+02  0.10566000000E+00 0.  1.
         22    1    1    0    0    0  0.12638836774E+02 -0.93149088078E+01  0.24317089589E+02  0.28945268477E+02  0.00000000000E+00 0.  1.
</event>
<event>
 5    1  0.8943113E-005  0.9118800E+02  0.7818608E-02  0.1130116E+00
         25   -1    0    0    0    0  0.00000000000E+00  0.00000000000E+00  0.99999998245E-14  0.12500000000E+03  0.12500000000E+03 0.  0.
        -13    1    3    3    0    0  0.32805987615E+02 -0.28292557337E+02  0.88345647309E+01  0.44212694128E+02  0.10566000000E+00 0.  1.
         23    2    1    0    0    0  0.21068119412E+02  0.20885249335E+02  0.49841773058E+01  0.94918422270E+02  0.90025582850E+02 0.  0.
         13    1    3    3    0    0 -0.11737868203E+02  0.49177806672E+02 -0.38503874251E+01  0.50705728141E+02  0.10566000000E+00 0. -1.
         22    1    1    0    0    0 -0.21068119412E+02 -0.20885249335E+02 -0.49841773058E+01  0.30081577730E+02  0.00000000000E+00 0. -1.
</event>
<event>
 5    1  0.8943113E-005  0.9118800E+02  0.7818608E-02  0.1130116E+00
         25   -1    0    0    0    0  0.00000000000E+00  0.00000000000E+00  0.99999998245E-14  0.12500000000E+03  0.12500000000E+03 0.  0.
        -13    1    3    3    0    0  0.71101552423E+01 -0.51611144739E+02 -0.14419574537E+01  0.52118662436E+02  0.10566000000E+00 0.  1.
         23    2    1    0    0    0  0.76560849903E+01 -0.92829754370E+01 -0.22564450814E+02  0.99427676858E+02  0.96082876801E+02 0.  0.
         13    1    3    3    0    0  0.54592974804E+00  0.42328169302E+02 -0.21122493361E+02  0.47309014421E+02  0.10566000000E+00 0. -1.
         22    1    1    0    0    0 -0.76560849903E+01  0.92829754370E+01  0.22564450814E+02  0.25572323142E+02  0.00000000000E+00 0.  1.
</event>
<event>
 5    1  0.8943113E-005  0.9118800E+02  0.7818608E-02  0.1130116E+00
         25   -1    0    0    0    0  0.00000000000E+00  0.00000000000E+00  0.99999998245E-14  0.12500000000E+03  0.12500000000E+03 0.  0.
        -13    1    3    3    0    0 -0.25783052765E+02 -0.11233838514E+02  0.34648837448E+02  0.44626427576E+02  0.10566000000E+00 0. -1.
         23    2    1    0    0    0  0.21188674403E+02  0.23034074594E+01  0.20284300323E+02  0.95576906205E+02  0.90935287712E+02 0.  0.
         13    1    3    3    0    0  0.46971727168E+02  0.13537245974E+02 -0.14364537125E+02  0.50950478629E+02  0.10566000000E+00 0.  1.
         22    1    1    0    0    0 -0.21188674403E+02 -0.23034074594E+01 -0.20284300323E+02  0.29423093795E+02  0.00000000000E+00 0.  1.
</event>
<event>
 5    1  0.8943113E-005  0.9118800E+02  0.7818608E-02  0.1130116E+00
         25   -1    0    0    0    0  0.00000000000E+00  0.00000000000E+00  0.99999998245E-14  0.12500000000E+03  0.12500000000E+03 0.  0.
        -13    1    3    3    0    0 -0.23918591177E+02 -0.25111386226E+02  0.43586315080E+02  0.55699719464E+02  0.10566000000E+00 0.  1.
         23    2    1    0    0    0 -0.10968500778E+02  0.75584181556E+01  0.27693745091E+02  0.94269213945E+02  0.89119602144E+02 0.  0.
         13    1    3    3    0    0  0.12950090399E+02  0.32669804382E+02 -0.15892569988E+02  0.38569494481E+02  0.10566000000E+00 0. -1.
         22    1    1    0    0    0  0.10968500778E+02 -0.75584181556E+01 -0.27693745091E+02  0.30730786055E+02  0.00000000000E+00 0.  1.
</event>
<event>
 5    1  0.8943113E-005  0.9118800E+02  0.7818608E-02  0.1130116E+00
         25   -1    0    0    0    0  0.00000000000E+00  0.00000000000E+00  0.99999998245E-14  0.12500000000E+03  0.12500000000E+03 0.  0.
        -13    1    3    3    0    0 -0.12973834599E+01 -0.40854521456E+02  0.23163158677E+02  0.46982105223E+02  0.10566000000E+00 0. -1.
         23    2    1    0    0    0  0.73604600283E+00  0.80020276810E+01  0.27763468228E+02  0.96096983224E+02  0.91647399341E+02 0.  0.
         13    1    3    3    0    0  0.20334294627E+01  0.48856549137E+02  0.46003095504E+01  0.49114878000E+02  0.10566000000E+00 0.  1.
         22    1    1    0    0    0 -0.73604600283E+00 -0.80020276810E+01 -0.27763468228E+02  0.28903016776E+02  0.00000000000E+00 0.  1.
</event>
<event>
 5    1  0.8943113E-005  0.9118800E+02  0.7818608E-02  0.1130116E+00
         25   -1    0    0    0    0  0.00000000000E+00  0.00000000000E+00  0.99999998245E-14  0.12500000000E+03  0.12500000000E+03 0.  0.
        -13    1    3    3    0    0 -0.11060571087E+02  0.35314518895E+02 -0.22171956746E+02  0.43139985020E+02  0.10566000000E+00 0. -1.
         23    2    1    0    0    0  0.19050271180E+02 -0.81599152555E+01 -0.20198775457E+02  0.96060622347E+02  0.91597792477E+02 0.  0.
         13    1    3    3    0    0  0.30110842267E+02 -0.43474434150E+02  0.19731812888E+01  0.52920637327E+02  0.10566000000E+00 0.  1.
         22    1    1    0    0    0 -0.19050271180E+02  0.81599152555E+01  0.20198775457E+02  0.28939377653E+02  0.00000000000E+00 0. -1.
</event>
<event>
 5    1  0.8943113E-005  0.9118800E+02  0.7818608E-02  0.1130116E+00
         25   -1    0    0    0    0  0.00000000000E+00  0.00000000000E+00  0.99999998245E-14  0.12500000000E+03  0.12500000000E+03 0.  0.
        -13    1    3    3    0    0 -0.24514641862E+02 -0.97565418024E+01 -0.47482760082E+02  0.54321095742E+02  0.10566000000E+00 0. -1.
         23    2    1    0    0    0  0.91497539079E+01 -0.12006044170E+02 -0.27756871975E+02  0.93404002864E+02  0.87897671847E+02 0.  0.
         13    1    3    3    0    0  0.33664395770E+02 -0.22495023674E+01  0.19725888108E+02  0.39082907122E+02  0.10566000000E+00 0.  1.
         22    1    1    0    0    0 -0.91497539079E+01  0.12006044170E+02  0.27756871975E+02  0.31595997136E+02  0.00000000000E+00 0. -1.
</event>
<event>
 5    1  0.8943113E-005  0.9118800E+02  0.7818608E-02  0.1130116E+00
         25   -1    0    0    0    0  0.00000000000E+00  0.00000000000E+00  0.99999998245E-14  0.12500000000E+03  0.12500000000E+03 0.  0.
        -13    1    3    3    0    0 -0.25222906731E+02  0.39106384126E+02  0.22597811292E+02  0.51731774980E+02  0.10566000000E+00 0. -1.
         23    2    1    0    0    0  0.13232456847E+02  0.20279499612E+02 -0.12704805828E+01  0.10075190441E+03  0.97790470410E+02 0.  0.
         13    1    3    3    0    0  0.38455363579E+02 -0.18826884514E+02 -0.23868291875E+02  0.49020129432E+02  0.10566000000E+00 0.  1.
         22    1    1    0    0    0 -0.13232456847E+02 -0.20279499612E+02  0.12704805828E+01  0.24248095588E+02  0.00000000000E+00 0.  1.
</event>
<event>
 5    1  0.8943113E-005  0.9118800E+02  0.7818608E-02  0.1130116E+00
         25   -1    0    0    0    0  0.00000000000E+00  0.00000000000E+00  0.99999998245E-14  0.12500000000E+03  0.12500000000E+03 0.  0.
        -13    1    3    3    0    0 -0.30247654927E+02 -0.46027217819E+02 -0.10614002959E+02  0.56090049310E+02  0.10566000000E+00 0. -1.
         23    2    1    0    0    0  0.33238231876E+01 -0.29525366405E+02  0.10354447078E+01  0.95270095734E+02  0.90512562297E+02 0.  0.
         13    1    3    3    0    0  0.33571478114E+02  0.16501851414E+02  0.11649447667E+02  0.39180046425E+02  0.10566000000E+00 0.  1.
         22    1    1    0    0    0 -0.33238231876E+01  0.29525366405E+02 -0.10354447078E+01  0.29729904266E+02  0.00000000000E+00 0. -1.
</event>
<event>
 5    1  0.8943113E-005  0.9118800E+02  0.7818608E-02  0.1130116E+00
         25   -1    0    0    0    0  0.00000000000E+00  0.00000000000E+00  0.99999998245E-14  0.12500000000E+03  0.12500000000E+03 0.  0.
        -13    1    3    3    0    0 -0.25253250435E-01 -0.39454680329E+02 -0.12411725707E+02  0.41361026785E+02  0.10566000000E+00 0.  1.
         23    2    1    0    0    0  0.32211536360E+02 -0.13373894058E+01 -0.17534572707E+00  0.92760235249E+02  0.86977346547E+02 0.  0.
         13    1    3    3    0    0  0.32236789610E+02  0.38117290924E+02  0.12236379980E+02  0.51399208464E+02  0.10566000000E+00 0. -1.
         22    1    1    0    0    0 -0.32211536360E+02  0.13373894058E+01  0.17534572707E+00  0.32239764751E+02  0.00000000000E+00 0. -1.
</event>
<event>
 5    1  0.8943113E-005  0.9118800E+02  0.7818608E-02  0.1130116E+00
         25   -1    0    0    0    0  0.00000000000E+00  0.00000000000E+00  0.99999998245E-14  0.12500000000E+03  0.12500000000E+03 0.  0.
        -13    1    3    3    0    0 -0.56478923739E+01  0.11461398408E+02  0.38080717313E+02  0.40167331711E+02  0.10566000000E+00 0. -1.
         23    2    1    0    0    0 -0.61688939257E+01  0.22837789752E+02 -0.16650863587E+02  0.96071274636E+02  0.91612328094E+02 0.  0.
         13    1    3    3    0    0 -0.52100155183E+00  0.11376391344E+02 -0.54731580900E+02  0.55903942924E+02  0.10566000000E+00 0.  1.
         22    1    1    0    0    0  0.61688939257E+01 -0.22837789752E+02  0.16650863587E+02  0.28928725364E+02  0.00000000000E+00 0.  1.
</event>
<event>
 5    1  0.8943113E-005  0.9118800E+02  0.7818608E-02  0.1130116E+00
         25   -1    0    0    0    0  0.00000000000E+00  0.00000000000E+00  0.99999998245E-14  0.12500000000E+03  0.12500000000E+03 0.  0.
        -13    1    3    3    0    0 -0.98491814665E+01 -0.26776305465E+02 -0.19920902037E+02  0.34796988547E+02  0.10566000000E+00 0.  1.
         23    2    1    0    0    0  0.16663987221E+02  0.19834875687E+02  0.11176844660E+02  0.96785949951E+02  0.92582328161E+02 0.  0.
         13    1    3    3    0    0  0.26513168688E+02  0.46611181152E+02  0.31097746697E+02  0.61988961404E+02  0.10566000000E+00 0. -1.
         22    1    1    0    0    0 -0.16663987221E+02 -0.19834875687E+02 -0.11176844660E+02  0.28214050049E+02  0.00000000000E+00 0. -1.
</event>
<event>
 5    1  0.8943113E-005  0.9118800E+02  0.7818608E-02  0.1130116E+00
         25   -1    0    0    0    0  0.00000000000E+00  0.00000000000E+00  0.99999998245E-14  0.12500000000E+03  0.12500000000E+03 0.  0.
        -13    1    3    3    0    0 -0.37870879296E+02  0.21263660582E+02  0.44211720186E+02  0.61976077045E+02  0.10566000000E+00 0.  1.
         23    2    1    0    0    0 -0.23494916330E+02  0.93345251787E+01  0.18900641172E+02  0.93434533263E+02  0.87941078659E+02 0.  0.
         13    1    3    3    0    0  0.14375962967E+02 -0.11929135403E+02 -0.25311079015E+02  0.31458456218E+02  0.10566000000E+00 0. -1.
         22    1    1    0    0    0  0.23494916330E+02 -0.93345251787E+01 -0.18900641172E+02  0.31565466737E+02  0.00000000000E+00 0.  1.
</event>
<event>
 5    1  0.8943113E-005  0.9118800E+02  0.7818608E-02  0.1130116E+00
         25   -1    0    0    0    0  0.00000000000E+00  0.00000000000E+00  0.99999998245E-14  0.12500000000E+03  0.12500000000E+03 0.  0.
        -13    1    3    3    0    0 -0.19724372353E+02  0.11386364443E+02 -0.57976841392E+02  0.62289850391E+02  0.10566000000E+00 0. -1.
         23    2    1    0    0    0 -0.63263785617E+01  0.48468745252E+01 -0.29611906645E+02  0.94334379616E+02  0.89210957309E+02 0.  0.
         13    1    3    3    0    0  0.13397993792E+02 -0.65394899180E+01  0.28364934746E+02  0.32044529225E+02  0.10566000000E+00 0.  1.
         22    1    1    0    0    0  0.63263785617E+01 -0.48468745252E+01  0.29611906645E+02  0.30665620384E+02  0.00000000000E+00 0. -1.
</event>
<event>
 5    1  0.8943113E-005  0.9118800E+02  0.7818608E-02  0.1130116E+00
         25   -1    0    0    0    0  0.00000000000E+00  0.00000000000E+00  0.99999998245E-14  0.12500000000E+03  0.12500000000E+03 0.  0.
        -13    1    3    3    0    0 -0.37814487512E+01  0.39811403050E+02  0.47132225978E+02  0.61811852076E+02  0.10566000000E+00 0.  1.
         23    2    1    0    0    0 -0.59166797762E+00  0.23479494428E+02  0.17821130511E+02  0.95517303002E+02  0.90853319975E+02 0.  0.
         13    1    3    3    0    0  0.31897807736E+01 -0.16331908622E+02 -0.29311095467E+02  0.33705450926E+02  0.10566000000E+00 0. -1.
         22    1    1    0    0    0  0.59166797762E+00 -0.23479494428E+02 -0.17821130511E+02  0.29482696998E+02  0.00000000000E+00 0.  1.
</event>
<event>
 5    1  0.8943113E-005  0.9118800E+02  0.7818608E-02  0.1130116E+00
         25   -1    0    0    0    0  0.00000000000E+00  0.00000000000E+00  0.99999998245E-14  0.12500000000E+03  0.12500000000E+03 0.  0.
        -13    1    3    3    0    0  0.48109103150E+02  0.38755565301E+02 -0.68353757201E+01  0.62154751814E+02  0.10566000000E+00 0. -1.
         23    2    1    0    0    0  0.23070852438E+02  0.19972043106E+02  0.11690965979E+01  0.94462915579E+02  0.89390877022E+02 0.  0.
         13    1    3    3    0    0 -0.25038250712E+02 -0.18783522195E+02  0.80044723180E+01  0.32308163766E+02  0.10566000000E+00 0.  1.
         22    1    1    0    0    0 -0.23070852438E+02 -0.19972043106E+02 -0.11690965979E+01  0.30537084421E+02  0.00000000000E+00 0. -1.
</event>
<event>
 5    1  0.8943113E-005  0.9118800E+02  0.7818608E-02  0.1130116E+00
         25   -1    0    0    0    0  0.00000000000E+00  0.00000000000E+00  0.99999998245E-14  0.12500000000E+03  0.12500000000E+03 0.  0.
        -13    1    3    3    0    0  0.26354951980E+02  0.23270635358E+02 -0.12797797277E+01  0.35181741913E+02  0.10566000000E+00 0.  1.
         23    2    1    0    0    0 -0.18039596873E+01 -0.28546837470E+02  0.89326246167E+01  0.95033886094E+02  0.90185761201E+02 0.  0.
         13    1    3    3    0    0 -0.28158911667E+02 -0.51817472828E+02  0.10212404344E+02  0.59852144181E+02  0.10566000000E+00 0. -1.
         22    1    1    0    0    0  0.18039596873E+01  0.28546837470E+02 -0.89326246167E+01  0.29966113906E+02  0.00000000000E+00 0. -1.
</event>
<event>
 5    1  0.8943113E-005  0.9118800E+02  0.7818608E-02  0.1130116E+00
         25   -1    0    0    0    0  0.00000000000E+00  0.00000000000E+00  0.99999998245E-14  0.12500000000E+03  0.12500000000E+03 0.  0.
        -13    1    3    3    0    0  0.36418124611E+02 -0.16072570611E+02 -0.18794368720E+01  0.39851609418E+02  0.10566000000E+00 0.  1.
         23    2    1    0    0    0 -0.10656277805E+02  0.85076307861E+01 -0.24013401591E+02  0.97385158081E+02  0.93387844606E+02 0.  0.
         13    1    3    3    0    0 -0.47074402416E+02  0.24580201397E+02 -0.22133964719E+02  0.57533548663E+02  0.10566000000E+00 0. -1.
         22    1    1    0    0    0  0.10656277805E+02 -0.85076307861E+01  0.24013401591E+02  0.27614841919E+02  0.00000000000E+00 0. -1.
</event>
<event>
 5    1  0.8943113E-005  0.9118800E+02  0.7818608E-02  0.1130116E+00
         25   -1    0    0    0    0  0.00000000000E+00  0.00000000000E+00  0.99999998245E-14  0.12500000000E+03  0.12500000000E+03 0.  0.
        -13    1    3    3    0    0  0.33919197329E+02 -0.25530408189E+02  0.28807428160E+02  0.51304900068E+02  0.10566000000E+00 0. -1.
         23    2    1    0    0    0 -0.71677716278E+01 -0.10030268746E+02  0.27072398266E+02  0.95252765018E+02  0.90488625000E+02 0.  0.
         13    1    3    3    0    0 -0.41086968957E+02  0.15500139443E+02 -0.17350298937E+01  0.43947864949E+02  0.10566000000E+00 0.  1.
         22    1    1    0    0    0  0.71677716278E+01  0.10030268746E+02 -0.27072398266E+02  0.29747234982E+02  0.00000000000E+00 0. -1.
</event>
<event>
 5    1  0.8943113E-005  0.9118800E+02  0.7818608E-02  0.1130116E+00
         25   -1    0    0    0    0  0.00000000000E+00  0.00000000000E+00  0.99999998245E-14  0.12500000000E+03  0.12500000000E+03 0.  0.
        -13    1    3    3    0    0 -0.12271311033E+02  0.85746725990E+01 -0.40521172402E+02  0.43198225212E+02  0.10566000000E+00 0.  1.
         23    2    1    0    0    0  0.77578500524E+01  0.16265305091E+02  0.14252716395E+02  0.10202426689E+03  0.99403554883E+02 0.  0.
         13    1    3    3    0    0  0.20029161086E+02  0.76906324924E+01  0.54773888797E+02  0.58826041681E+02  0.10566000000E+00 0. -1.
         22    1    1    0    0    0 -0.77578500524E+01 -0.16265305091E+02 -0.14252716395E+02  0.22975733106E+02  0.00000000000E+00 0. -1.
</event>
<event>
 5    1  0.8943113E-005  0.9118800E+02  0.7818608E-02  0.1130116E+00
         25   -1    0    0    0    0  0.00000000000E+00  0.00000000000E+00  0.99999998245E-14  0.12500000000E+03  0.12500000000E+03 0.  0.
        -13    1    3    3    0    0  0.78568577711E+01 -0.40980288765E+02 -0.38788445791E+01  0.41906692551E+02  0.10566000000E+00 0.  1.
         23    2    1    0    0    0  0.23059838013E+02  0.93501012465E+01 -0.15408067734E+02  0.95732456990E+02  0.91148857632E+02 0.  0.
         13    1    3    3    0    0  0.15202980242E+02  0.50330390011E+02 -0.11529223155E+02  0.53825764440E+02  0.10566000000E+00 0. -1.
         22    1    1    0    0    0 -0.23059838013E+02 -0.93501012465E+01  0.15408067734E+02  0.29267543010E+02  0.00000000000E+00 0. -1.
</event>
<event>
 5    1  0.8943113E-005  0.9118800E+02  0.7818608E-02  0.1130116E+00
         25   -1    0    0    0    0  0.00000000000E+00  0.00000000000E+00  0.99999998245E-14  0.12500000000E+03  0.12500000000E+03 0.  0.
        -13    1    3    3    0    0  0.19332247051E+02 -0.27493074029E+02  0.12831303624E+02  0.35975803151E+02  0.10566000000E+00 0. -1.
         23    2    1    0    0    0 -0.16406310305E+02  0.21739618190E+02  0.30443132259E+01  0.97594784075E+02  0.93668009580E+02 0.  0.
         13    1    3    3    0    0 -0.35738557356E+02  0.49232692219E+02 -0.97869903983E+01  0.61618980924E+02  0.10566000000E+00 0.  1.
         22    1    1    0    0    0  0.16406310305E+02 -0.21739618190E+02 -0.30443132259E+01  0.27405215925E+02  0.00000000000E+00 0.  1.
</event>
<event>
 5    1  0.8943113E-005  0.9118800E+02  0.7818608E-02  0.1130116E+00
         25   -1    0    0    0    0  0.00000000000E+00  0.00000000000E+00  0.99999998245E-14  0.12500000000E+03  0.12500000000E+03 0.  0.
        -13    1    3    3    0    0  0.56849794328E+01  0.42687398900E+02  0.21809110500E+02  0.48271953357E+02  0.10566000000E+00 0.  1.
         23    2    1    0    0    0  0.32809388718E+01 -0.36724624467E+01  0.29295033786E+02  0.95293930842E+02  0.90545473164E+02 0.  0.
         13    1    3    3    0    0 -0.24040405610E+01 -0.46359861347E+02  0.74859232856E+01  0.47021977485E+02  0.10566000000E+00 0. -1.
         22    1    1    0    0    0 -0.32809388718E+01  0.36724624467E+01 -0.29295033786E+02  0.29706069158E+02  0.00000000000E+00 0. -1.
</event>
<event>
 5    1  0.8943113E-005  0.9118800E+02  0.7818608E-02  0.1130116E+00
         25   -1    0    0    0    0  0.00000000000E+00  0.00000000000E+00  0.99999998245E-14  0.12500000000E+03  0.12500000000E+03 0.  0.
        -13    1    3    3    0    0  0.68172540362E+01  0.37293961598E+02  0.56791624527E+01  0.38335082816E+02  0.10566000000E+00 0. -1.
         23    2    1    0    0    0  0.22686453401E+02 -0.17867664542E+02 -0.88774271887E+00  0.96108536014E+02  0.91663155104E+02 0.  0.
         13    1    3    3    0    0  0.15869199365E+02 -0.55161626140E+02 -0.65669051716E+01  0.57773453199E+02  0.10566000000E+00 0.  1.
         22    1    1    0    0    0 -0.22686453401E+02  0.17867664542E+02  0.88774271887E+00  0.28891463986E+02  0.00000000000E+00 0.  1.
</event>
<event>
 5    1  0.8943113E-005  0.9118800E+02  0.7818608E-02  0.1130116E+00
         25   -1    0    0    0    0  0.00000000000E+00  0.00000000000E+00  0.99999998245E-14  0.12500000000E+03  0.12500000000E+03 0.  0.
        -13    1    3    3    0    0 -0.30176517878E+02  0.25881694261E+02  0.40481722542E+02  0.56738570241E+02  0.10566000000E+00 0.  1.
         23    2    1    0    0    0 -0.73071435474E+01  0.31169919602E+00  0.32133197990E+02  0.92044971306E+02  0.85943253525E+02 0.  0.
         13    1    3    3    0    0  0.22869374330E+02 -0.25569995065E+02 -0.83485245526E+01  0.35306401064E+02  0.10566000000E+00 0. -1.
         22    1    1    0    0    0  0.73071435474E+01 -0.31169919602E+00 -0.32133197990E+02  0.32955028694E+02  0.00000000000E+00 0.  1.
</event>
<event>
 5    1  0.8943113E-005  0.9118800E+02  0.7818608E-02  0.1130116E+00
         25   -1    0    0    0    0  0.00000000000E+00  0.00000000000E+00  0.99999998245E-14  0.12500000000E+03  0.12500000000E+03 0.  0.
        -13    1    3    3    0    0 -0.38385866778E+02  0.14420528156E+02  0.19229649065E+02  0.45290362858E+02  0.10566000000E+00 0. -1.
         23    2    1    0    0    0  0.12573115775E+02  0.22432250755E+02  0.78144695065E+01  0.98123336370E+02  0.94370726884E+02 0.  0.
         13    1    3    3    0    0  0.50958982553E+02  0.80117225984E+01 -0.11415179558E+02  0.52832973513E+02  0.10566000000E+00 0.  1.
         22    1    1    0    0    0 -0.12573115775E+02 -0.22432250755E+02 -0.78144695065E+01  0.26876663630E+02  0.00000000000E+00 0. -1.
</event>
<event>
 5    1  0.8943113E-005  0.9118800E+02  0.7818608E-02  0.1130116E+00
         25   -1    0    0    0    0  0.00000000000E+00  0.00000000000E+00  0.99999998245E-14  0.12500000000E+03  0.12500000000E+03 0.  0.
        -13    1    3    3    0    0  0.37573491710E+02  0.86841921950E+01 -0.41971648272E+02  0.56998358713E+02  0.10566000000E+00 0. -1.
         23    2    1    0    0    0  0.16811657637E+02  0.20907289162E+02 -0.11585043515E+02  0.95777409324E+02  0.91210483668E+02 0.  0.
         13    1    3    3    0    0 -0.20761834073E+02  0.12223096967E+02  0.30386604756E+02  0.38779050610E+02  0.10566000000E+00 0.  1.
         22    1    1    0    0    0 -0.16811657637E+02 -0.20907289162E+02  0.11585043515E+02  0.29222590676E+02  0.00000000000E+00 0. -1.
</event>
<event>
 5    1  0.8943113E-005  0.9118800E+02  0.7818608E-02  0.1130116E+00
         25   -1    0    0    0    0  0.00000000000E+00  0.00000000000E+00  0.99999998245E-14  0.12500000000E+03  0.12500000000E+03 0.  0.
        -13    1    3    3    0    0  0.65718303110E+01 -0.26837942788E+02 -0.12851899803E+02  0.30473703734E+02  0.10566000000E+00 0. -1.
         23    2    1    0    0    0 -0.35988188993E+02  0.65118659307E+01  0.64053647966E+01  0.87870727948E+02  0.79640956719E+02 0.  0.
         13    1    3    3    0    0 -0.42560019304E+02  0.33349808718E+02  0.19257264600E+02  0.57397024214E+02  0.10566000000E+00 0.  1.
         22    1    1    0    0    0  0.35988188993E+02 -0.65118659307E+01 -0.64053647966E+01  0.37129272052E+02  0.00000000000E+00 0.  1.
</event>
<event>
 5    1  0.8943113E-005  0.9118800E+02  0.7818608E-02  0.1130116E+00
         25   -1    0    0    0    0  0.00000000000E+00  0.00000000000E+00  0.99999998245E-14  0.12500000000E+03  0.12500000000E+03 0.  0.
        -13    1    3    3    0    0 -0.35281947305E+02  0.12894078417E+02 -0.81981433288E+01  0.38448586215E+02  0.10566000000E+00 0. -1.
         23    2    1    0    0    0  0.20352572759E+02 -0.13662105166E+02 -0.25770833526E+01  0.10035204483E+03  0.97278009886E+02 0.  0.
         13    1    3    3    0    0  0.55634520064E+02 -0.26556183582E+02  0.56210599762E+01  0.61903458615E+02  0.10566000000E+00 0.  1.
         22    1    1    0    0    0 -0.20352572759E+02  0.13662105166E+02  0.25770833526E+01  0.24647955170E+02  0.00000000000E+00 0.  1.
</event>
<event>
 5    1  0.8943113E-005  0.9118800E+02  0.7818608E-02  0.1130116E+00
         25   -1    0    0    0    0  0.00000000000E+00  0.00000000000E+00  0.99999998245E-14  0.12500000000E+03  0.12500000000E+03 0.  0.
        -13    1    3    3    0    0  0.10749613912E+02 -0.51139550279E+02 -0.94576694117E+01  0.53106181153E+02  0.10566000000E+00 0. -1.
         23    2    1    0    0    0 -0.14825999469E+02 -0.17775436061E+02 -0.17594130167E+02  0.95925444049E+02  0.91413133697E+02 0.  0.
         13    1    3    3    0    0 -0.25575613380E+02  0.33364114218E+02 -0.81364607551E+01  0.42819262896E+02  0.10566000000E+00 0.  1.
         22    1    1    0    0    0  0.14825999469E+02  0.17775436061E+02  0.17594130167E+02  0.29074555951E+02  0.00000000000E+00 0. -1.
</event>
<event>
 5    1  0.8943113E-005  0.9118800E+02  0.7818608E-02  0.1130116E+00
         25   -1    0    0    0    0  0.00000000000E+00  0.00000000000E+00  0.99999998245E-14  0.12500000000E+03  0.12500000000E+03 0.  0.
        -13    1    3    3    0    0 -0.24354236374E+02  0.31670213061E+01 -0.30522568425E+02  0.39176487854E+02  0.10566000000E+00 0. -1.
         23    2    1    0    0    0  0.19463379311E+02  0.21845149710E+02 -0.13821436228E-01  0.95741943142E+02  0.91161865851E+02 0.  0.
         13    1    3    3    0    0  0.43817615685E+02  0.18678128404E+02  0.30508746989E+02  0.56565455288E+02  0.10566000000E+00 0.  1.
         22    1    1    0    0    0 -0.19463379311E+02 -0.21845149710E+02  0.13821436228E-01  0.29258056858E+02  0.00000000000E+00 0.  1.
</event>
<event>
 5    1  0.8943113E-005  0.9118800E+02  0.7818608E-02  0.1130116E+00
         25   -1    0    0    0    0  0.00000000000E+00  0.00000000000E+00  0.99999998245E-14  0.12500000000E+03  0.12500000000E+03 0.  0.
        -13    1    3    3    0    0 -0.96905026140E+01  0.35352304734E+02 -0.44665252307E+02  0.57781374322E+02  0.10566000000E+00 0.  1.
         23    2    1    0    0    0 -0.66951821386E+01  0.29206784728E+02 -0.95581121866E+01  0.93548143988E+02  0.88102417657E+02 0.  0.
         13    1    3    3    0    0  0.29953204754E+01 -0.61455200056E+01  0.35107140120E+02  0.35766769666E+02  0.10566000000E+00 0. -1.
         22    1    1    0    0    0  0.66951821386E+01 -0.29206784728E+02  0.95581121866E+01  0.31451856012E+02  0.00000000000E+00 0.  1.
</event>
<event>
 5    1  0.8943113E-005  0.9118800E+02  0.7818608E-02  0.1130116E+00
         25   -1    0    0    0    0  0.00000000000E+00  0.00000000000E+00  0.99999998245E-14  0.12500000000E+03  0.12500000000E+03 0.  0.
        -13    1    3    3    0    0  0.10049287861E+02 -0.49833206734E+02 -0.17505904559E+02  0.53766202566E+02  0.10566000000E+00 0.  1.
         23    2    1    0    0    0 -0.27980643823E+01 -0.25147505501E+02  0.14225947243E+02  0.95972361925E+02  0.91477267566E+02 0.  0.
         13    1    3    3    0    0 -0.12847352243E+02  0.24685701233E+02  0.31731851802E+02  0.42206159359E+02  0.10566000000E+00 0. -1.
         22    1    1    0    0    0  0.27980643823E+01  0.25147505501E+02 -0.14225947243E+02  0.29027638075E+02  0.00000000000E+00 0.  1.
</event>
<event>
 5    1  0.8943113E-005  0.9118800E+02  0.7818608E-02  0.1130116E+00
         25   -1    0    0    0    0  0.00000000000E+00  0.00000000000E+00  0.99999998245E-14  0.12500000000E+03  0.12500000000E+03 0.  0.
        -13    1    3    3    0    0  0.36577011009E+02 -0.13562657301E+01 -0.76051672329E+01  0.37384046380E+02  0.10566000000E+00 0.  1.
         23    2    1    0    0    0 -0.11316610247E+02 -0.66044673553E+01  0.25835061496E+02  0.96032172000E+02  0.91558959147E+02 0.  0.
         13    1    3    3    0    0 -0.47893621256E+02 -0.52482016252E+01  0.33440228729E+02  0.58648125620E+02  0.10566000000E+00 0. -1.
         22    1    1    0    0    0  0.11316610247E+02  0.66044673553E+01 -0.25835061496E+02  0.28967828000E+02  0.00000000000E+00 0. -1.
</event>
<event>
 5    1  0.8943113E-005  0.9118800E+02  0.7818608E-02  0.1130116E+00
         25   -1    0    0    0    0  0.00000000000E+00  0.00000000000E+00  0.99999998245E-14  0.12500000000E+03  0.12500000000E+03 0.  0.
        -13    1    3    3    0    0  0.57136258691E+02  0.16242703639E+02 -0.84154629365E+01  0.59993405130E+02  0.10566000000E+00 0.  1.
         23    2    1    0    0    0  0.20427039549E+02  0.13866885796E+02 -0.13056261870E+02  0.97071153972E+02  0.92966598803E+02 0.  0.
         13    1    3    3    0    0 -0.36709219142E+02 -0.23758178427E+01 -0.46407989336E+01  0.37077748842E+02  0.10566000000E+00 0. -1.
         22    1    1    0    0    0 -0.20427039549E+02 -0.13866885796E+02  0.13056261870E+02  0.27928846028E+02  0.00000000000E+00 0.  1.
</event>
<event>
 5    1  0.8943113E-005  0.9118800E+02  0.7818608E-02  0.1130116E+00
         25   -1    0    0    0    0  0.00000000000E+00  0.00000000000E+00  0.99999998245E-14  0.12500000000E+03  0.12500000000E+03 0.  0.
        -13    1    3    3    0    0 -0.54660179273E+02  0.15453772678E+02  0.84788079150E+00  0.56809192514E+02  0.10566000000E+00 0. -1.
         23    2    1    0    0    0 -0.26590570117E+02 -0.11616006272E+02 -0.20354699318E+01  0.95911631901E+02  0.91394244760E+02 0.  0.
         13    1    3    3    0    0  0.28069609157E+02 -0.27069778950E+02 -0.28833507233E+01  0.39102439387E+02  0.10566000000E+00 0.  1.
         22    1    1    0    0    0  0.26590570117E+02  0.11616006272E+02  0.20354699318E+01  0.29088368099E+02  0.00000000000E+00 0. -1.
</event>
<event>
 5    1  0.8943113E-005  0.9118800E+02  0.7818608E-02  0.1130116E+00
         25   -1    0    0    0    0  0.00000000000E+00  0.00000000000E+00  0.99999998245E-14  0.12500000000E+03  0.12500000000E+03 0.  0.
        -13    1    3    3    0    0  0.28448212039E+02  0.28841562026E+02  0.43200281599E+02  0.59223407218E+02  0.10566000000E+00 0. -1.
         23    2    1    0    0    0  0.18878693493E+01  0.21887157770E+02  0.16459820884E+02  0.97549363769E+02  0.93607376538E+02 0.  0.
         13    1    3    3    0    0 -0.26560342689E+02 -0.69544042554E+01 -0.26740460714E+02  0.38325956551E+02  0.10566000000E+00 0.  1.
         22    1    1    0    0    0 -0.18878693493E+01 -0.21887157770E+02 -0.16459820884E+02  0.27450636231E+02  0.00000000000E+00 0. -1.
</event>
<event>
 5    1  0.8943113E-005  0.9118800E+02  0.7818608E-02  0.1130116E+00
         25   -1    0    0    0    0  0.00000000000E+00  0.00000000000E+00  0.99999998245E-14  0.12500000000E+03  0.12500000000E+03 0.  0.
        -13    1    3    3    0    0  0.23442018134E+01  0.42497504789E+02 -0.39738212343E+01  0.42747346288E+02  0.10566000000E+00 0. -1.
         23    2    1    0    0    0 -0.28474069202E+02 -0.20044417501E+00 -0.75942813728E+01  0.95529915094E+02  0.90870670590E+02 0.  0.
         13    1    3    3    0    0 -0.30818271015E+02 -0.42697948964E+02 -0.36204601385E+01  0.52782568806E+02  0.10566000000E+00 0.  1.
         22    1    1    0    0    0  0.28474069202E+02  0.20044417501E+00  0.75942813728E+01  0.29470084906E+02  0.00000000000E+00 0.  1.
</event>
<event>
 5    1  0.8943113E-005  0.9118800E+02  0.7818608E-02  0.1130116E+00
         25   -1    0    0    0    0  0.00000000000E+00  0.00000000000E+00  0.99999998245E-14  0.12500000000E+03  0.12500000000E+03 0.  0.
        -13    1    3    3    0    0 -0.42030912383E+02 -0.37333142894E+02 -0.79212518194E+01  0.56772515784E+02  0.10566000000E+00 0. -1.
         23    2    1    0    0    0 -0.20285745392E+02 -0.62392773586E+01 -0.19224882243E+02  0.96363726756E+02  0.92010497710E+02 0.  0.
         13    1    3    3    0    0  0.21745166991E+02  0.31093865535E+02 -0.11303630424E+02  0.39591210971E+02  0.10566000000E+00 0.  1.
         22    1    1    0    0    0  0.20285745392E+02  0.62392773586E+01  0.19224882243E+02  0.28636273244E+02  0.00000000000E+00 0. -1.
</event>
<event>
 5    1  0.8943113E-005  0.9118800E+02  0.7818608E-02  0.1130116E+00
         25   -1    0    0    0    0  0.00000000000E+00  0.00000000000E+00  0.99999998245E-14  0.12500000000E+03  0.12500000000E+03 0.  0.
        -13    1    3    3    0    0 -0.49905931854E+02  0.15709703353E+02 -0.63312491753E+01  0.52701923056E+02  0.10566000000E+00 0.  1.
         23    2    1    0    0    0 -0.87358625292E+01  0.21230256403E+02 -0.17976306304E+02  0.95842039348E+02  0.91299013341E+02 0.  0.
         13    1    3    3    0    0  0.41170069324E+02  0.55205530497E+01 -0.11645057128E+02  0.43140116292E+02  0.10566000000E+00 0. -1.
         22    1    1    0    0    0  0.87358625292E+01 -0.21230256403E+02  0.17976306304E+02  0.29157960652E+02  0.00000000000E+00 0.  1.
</event>
<event>
 5    1  0.8943113E-005  0.9118800E+02  0.7818608E-02  0.1130116E+00
         25   -1    0    0    0    0  0.00000000000E+00  0.00000000000E+00  0.99999998245E-14  0.12500000000E+03  0.12500000000E+03 0.  0.
        -13    1    3    3    0    0 -0.40145357595E+02  0.16408934663E+02 -0.10906703710E+02  0.44719908576E+02  0.10566000000E+00 0. -1.
         23    2    1    0    0    0 -0.54527446436E-01 -0.22802163881E+02 -0.78600375167E+01  0.10088108956E+03  0.97955461261E+02 0.  0.
         13    1    3    3    0    0  0.40090830148E+02 -0.39211098543E+02  0.30466661931E+01  0.56161180987E+02  0.10566000000E+00 0.  1.
         22    1    1    0    0    0  0.54527446436E-01  0.22802163881E+02  0.78600375167E+01  0.24118910437E+02  0.00000000000E+00 0. -1.
</event>
<event>
 5    1  0.8943113E-005  0.9118800E+02  0.7818608E-02  0.1130116E+00
         25   -1    0    0    0    0  0.00000000000E+00  0.00000000000E+00  0.99999998245E-14  0.12500000000E+03  0.12500000000E+03 0.  0.
        -13    1    3    3    0    0  0.37293019044E+02 -0.40382978348E+01 -0.12734421456E+01  0.37532784838E+02  0.10566000000E+00 0.  1.
         23    2    1    0    0    0 -0.21699938623E+02 -0.88899975450E+01 -0.13452601913E+02  0.97964987686E+02  0.94160750430E+02 0.  0.
         13    1    3    3    0    0 -0.58992957667E+02 -0.48516997102E+01 -0.12179159768E+02  0.60432202848E+02  0.10566000000E+00 0. -1.
         22    1    1    0    0    0  0.21699938623E+02  0.88899975450E+01  0.13452601913E+02  0.27035012314E+02  0.00000000000E+00 0. -1.
</event>
<event>
 5    1  0.8943113E-005  0.9118800E+02  0.7818608E-02  0.1130116E+00
         25   -1    0    0    0    0  0.00000000000E+00  0.00000000000E+00  0.99999998245E-14  0.12500000000E+03  0.12500000000E+03 0.  0.
        -13    1    3    3    0    0 -0.13824481563E+02  0.50285808760E+02  0.26505749012E+02  0.58500809805E+02  0.10566000000E+00 0.  1.
         23    2    1    0    0    0 -0.66634851436E+01  0.31285579285E+02 -0.13646818971E+01  0.92983568872E+02  0.87297721723E+02 0.  0.
         13    1    3    3    0    0  0.71609964189E+01 -0.19000229475E+02 -0.27870430909E+02  0.34482759067E+02  0.10566000000E+00 0. -1.
         22    1    1    0    0    0  0.66634851436E+01 -0.31285579285E+02  0.13646818971E+01  0.32016431128E+02  0.00000000000E+00 0.  1.
</event>
<event>
 5    1  0.8943113E-005  0.9118800E+02  0.7818608E-02  0.1130116E+00
         25   -1    0    0    0    0  0.00000000000E+00  0.00000000000E+00  0.99999998245E-14  0.12500000000E+03  0.12500000000E+03 0.  0.
        -13    1    3    3    0    0 -0.32219684846E+02 -0.16522326525E+02  0.50456422956E+02  0.62104405214E+02  0.10566000000E+00 0.  1.
         23    2    1    0    0    0 -0.11351331281E+02 -0.50914859734E+01  0.25730782857E+02  0.96419427267E+02  0.92086138028E+02 0.  0.
         13    1    3    3    0    0  0.20868353565E+02  0.11430840552E+02 -0.24725640098E+02  0.34315022054E+02  0.10566000000E+00 0. -1.
         22    1    1    0    0    0  0.11351331281E+02  0.50914859734E+01 -0.25730782857E+02  0.28580572733E+02  0.00000000000E+00 0.  1.
</event>
<event>
 5    1  0.8943113E-005  0.9118800E+02  0.7818608E-02  0.1130116E+00
         25   -1    0    0    0    0  0.00000000000E+00  0.00000000000E+00  0.99999998245E-14  0.12500000000E+03  0.12500000000E+03 0.  0.
        -13    1    3    3    0    0  0.30078852881E+02  0.30477045576E+02 -0.28014550173E+01  0.42912084684E+02  0.10566000000E+00 0.  1.
         23    2    1    0    0    0 -0.58401086116E+01  0.17676643990E+02  0.27619747311E+02  0.91692027188E+02  0.85428372319E+02 0.  0.
         13    1    3    3    0    0 -0.35918961493E+02 -0.12800401587E+02  0.30421202328E+02  0.48779942503E+02  0.10566000000E+00 0. -1.
         22    1    1    0    0    0  0.58401086116E+01 -0.17676643990E+02 -0.27619747311E+02  0.33307972812E+02  0.00000000000E+00 0.  1.
</event>
<event>
 5    1  0.8943113E-005  0.9118800E+02  0.7818608E-02  0.1130116E+00
         25   -1    0    0    0    0  0.00000000000E+00  0.00000000000E+00  0.99999998245E-14  0.12500000000E+03  0.12500000000E+03 0.  0.
        -13    1    3    3    0    0  0.17735784740E+02 -0.12312880740E+02  0.54451090814E+02  0.58575571251E+02  0.10566000000E+00 0.  1.
         23    2    1    0    0    0  0.26556792711E+02 -0.61348791768E+01  0.39917730162E+02  0.76664452388E+02  0.59507252475E+02 0.  0.
         13    1    3    3    0    0  0.88210079709E+01  0.61780015636E+01 -0.14533360652E+02  0.18088881138E+02  0.10566000000E+00 0. -1.
         22    1    1    0    0    0 -0.26556792711E+02  0.61348791768E+01 -0.39917730162E+02  0.48335547612E+02  0.00000000000E+00 0.  1.
</event>
<event>
 5    1  0.8943113E-005  0.9118800E+02  0.7818608E-02  0.1130116E+00
         25   -1    0    0    0    0  0.00000000000E+00  0.00000000000E+00  0.99999998245E-14  0.12500000000E+03  0.12500000000E+03 0.  0.
        -13    1    3    3    0    0 -0.10033416892E+02  0.64286390604E+01  0.42553022534E+02  0.44190131766E+02  0.10566000000E+00 0.  1.
         23    2    1    0    0    0 -0.12627589206E+02 -0.26153074521E+02  0.25527819721E+01  0.95845994926E+02  0.91304428872E+02 0.  0.
         13    1    3    3    0    0 -0.25941723135E+01 -0.32581713581E+02 -0.40000240561E+02  0.51655863161E+02  0.10566000000E+00 0. -1.
         22    1    1    0    0    0  0.12627589206E+02  0.26153074521E+02 -0.25527819721E+01  0.29154005074E+02  0.00000000000E+00 0. -1.
</event>
<event>
 5    1  0.8943113E-005  0.9118800E+02  0.7818608E-02  0.1130116E+00
         25   -1    0    0    0    0  0.00000000000E+00  0.00000000000E+00  0.99999998245E-14  0.12500000000E+03  0.12500000000E+03 0.  0.
        -13    1    3    3    0    0  0.24436366306E+02 -0.40859827722E+01 -0.40162025529E+02  0.47189307179E+02  0.10566000000E+00 0. -1.
         23    2    1    0    0    0  0.83493692700E+01  0.28787224952E+02 -0.19893502406E+02  0.89025457257E+02  0.81433189267E+02 0.  0.
         13    1    3    3    0    0 -0.16086997036E+02  0.32873207724E+02  0.20268523123E+02  0.41836150078E+02  0.10566000000E+00 0.  1.
         22    1    1    0    0    0 -0.83493692700E+01 -0.28787224952E+02  0.19893502406E+02  0.35974542743E+02  0.00000000000E+00 0. -1.
</event>
<event>
 5    1  0.8943113E-005  0.9118800E+02  0.7818608E-02  0.1130116E+00
         25   -1    0    0    0    0  0.00000000000E+00  0.00000000000E+00  0.99999998245E-14  0.12500000000E+03  0.12500000000E+03 0.  0.
        -13    1    3    3    0    0  0.50933517711E+02 -0.29295552999E+02 -0.10136376410E+02  0.59625581277E+02  0.10566000000E+00 0.  1.
         23    2    1    0    0    0  0.24580365013E+02 -0.76983429082E+01 -0.16669579637E+02  0.94318837816E+02  0.89189177897E+02 0.  0.
         13    1    3    3    0    0 -0.26353152698E+02  0.21597210091E+02 -0.65332032266E+01  0.34693256539E+02  0.10566000000E+00 0. -1.
         22    1    1    0    0    0 -0.24580365013E+02  0.76983429082E+01  0.16669579637E+02  0.30681162184E+02  0.00000000000E+00 0. -1.
</event>
<event>
 5    1  0.8943113E-005  0.9118800E+02  0.7818608E-02  0.1130116E+00
         25   -1    0    0    0    0  0.00000000000E+00  0.00000000000E+00  0.99999998245E-14  0.12500000000E+03  0.12500000000E+03 0.  0.
        -13    1    3    3    0    0 -0.30217781345E+02 -0.20466331125E+02 -0.17969556193E+02  0.40680476066E+02  0.10566000000E+00 0.  1.
         23    2    1    0    0    0 -0.14260159167E+02  0.20719175542E+01  0.27542560904E+02  0.93915636681E+02  0.88622283711E+02 0.  0.
         13    1    3    3    0    0  0.15957622178E+02  0.22538248679E+02  0.45512117096E+02  0.53235160615E+02  0.10566000000E+00 0. -1.
         22    1    1    0    0    0  0.14260159167E+02 -0.20719175542E+01 -0.27542560904E+02  0.31084363319E+02  0.00000000000E+00 0. -1.
</event>
<event>
 5    1  0.8943113E-005  0.9118800E+02  0.7818608E-02  0.1130116E+00
         25   -1    0    0    0    0  0.00000000000E+00  0.00000000000E+00  0.99999998245E-14  0.12500000000E+03  0.12500000000E+03 0.  0.
        -13    1    3    3    0    0  0.31533471260E+02 -0.23261820047E+02 -0.11355156445E+01  0.39201691819E+02  0.10566000000E+00 0. -1.
         23    2    1    0    0    0 -0.19341276068E+02 -0.86676302292E+01 -0.20455349742E+02  0.95544370542E+02  0.90890553059E+02 0.  0.
         13    1    3    3    0    0 -0.50874747328E+02  0.14594189818E+02 -0.19319834098E+02  0.56342678723E+02  0.10566000000E+00 0.  1.
         22    1    1    0    0    0  0.19341276068E+02  0.86676302292E+01  0.20455349742E+02  0.29455629458E+02  0.00000000000E+00 0.  1.
</event>
<event>
 5    1  0.8943113E-005  0.9118800E+02  0.7818608E-02  0.1130116E+00
         25   -1    0    0    0    0  0.00000000000E+00  0.00000000000E+00  0.99999998245E-14  0.12500000000E+03  0.12500000000E+03 0.  0.
        -13    1    3    3    0    0  0.97843560195E+01 -0.22515120182E+02 -0.31669269738E+02  0.40070164328E+02  0.10566000000E+00 0. -1.
         23    2    1    0    0    0 -0.22530438451E+02  0.16115311440E+02 -0.57649336254E+01  0.96705859630E+02  0.92474131018E+02 0.  0.
         13    1    3    3    0    0 -0.32314794470E+02  0.38630431621E+02  0.25904336112E+02  0.56635695302E+02  0.10566000000E+00 0.  1.
         22    1    1    0    0    0  0.22530438451E+02 -0.16115311440E+02  0.57649336254E+01  0.28294140370E+02  0.00000000000E+00 0. -1.
</event>
<event>
 5    1  0.8943113E-005  0.9118800E+02  0.7818608E-02  0.1130116E+00
         25   -1    0    0    0    0  0.00000000000E+00  0.00000000000E+00  0.99999998245E-14  0.12500000000E+03  0.12500000000E+03 0.  0.
        -13    1    3    3    0    0 -0.23964877951E+01 -0.27132638803E+02 -0.42341983269E+02  0.50346578368E+02  0.10566000000E+00 0.  1.
         23    2    1    0    0    0  0.19347842205E+02  0.55981296490E+01 -0.23871754090E+02  0.93766385145E+02  0.88411516706E+02 0.  0.
         13    1    3    3    0    0  0.21744330000E+02  0.32730768452E+02  0.18470229178E+02  0.43419806777E+02  0.10566000000E+00 0. -1.
         22    1    1    0    0    0 -0.19347842205E+02 -0.55981296490E+01  0.23871754090E+02  0.31233614855E+02  0.00000000000E+00 0.  1.
</event>
<event>
 5    1  0.8943113E-005  0.9118800E+02  0.7818608E-02  0.1130116E+00
         25   -1    0    0    0    0  0.00000000000E+00  0.00000000000E+00  0.99999998245E-14  0.12500000000E+03  0.12500000000E+03 0.  0.
        -13    1    3    3    0    0 -0.35167194254E+02  0.20665031099E+02  0.16084926310E+02  0.43846448892E+02  0.10566000000E+00 0. -1.
         23    2    1    0    0    0  0.32057283303E+00  0.15146524575E+02 -0.23338079209E+02  0.97175803429E+02  0.93107200888E+02 0.  0.
         13    1    3    3    0    0  0.35487767087E+02 -0.55185065239E+01 -0.39423005520E+02  0.53329354537E+02  0.10566000000E+00 0.  1.
         22    1    1    0    0    0 -0.32057283303E+00 -0.15146524575E+02  0.23338079209E+02  0.27824196571E+02  0.00000000000E+00 0.  1.
</event>
<event>
 5    1  0.8943113E-005  0.9118800E+02  0.7818608E-02  0.1130116E+00
         25   -1    0    0    0    0  0.00000000000E+00  0.00000000000E+00  0.99999998245E-14  0.12500000000E+03  0.12500000000E+03 0.  0.
        -13    1    3    3    0    0  0.36193677475E+01  0.22602579126E+02 -0.30619419214E+02  0.38230045816E+02  0.10566000000E+00 0.  1.
         23    2    1    0    0    0  0.17193432572E+02  0.10217572352E+02  0.22770173804E+02  0.94693338629E+02  0.89712511153E+02 0.  0.
         13    1    3    3    0    0  0.13574064825E+02 -0.12385006774E+02  0.53389593018E+02  0.56463292813E+02  0.10566000000E+00 0. -1.
         22    1    1    0    0    0 -0.17193432572E+02 -0.10217572352E+02 -0.22770173804E+02  0.30306661371E+02  0.00000000000E+00 0. -1.
</event>
<event>
 5    1  0.8943113E-005  0.9118800E+02  0.7818608E-02  0.1130116E+00
         25   -1    0    0    0    0  0.00000000000E+00  0.00000000000E+00  0.99999998245E-14  0.12500000000E+03  0.12500000000E+03 0.  0.
        -13    1    3    3    0    0 -0.21000537257E+02 -0.21915010510E+02 -0.41669737839E+02  0.51552579629E+02  0.10566000000E+00 0.  1.
         23    2    1    0    0    0 -0.18046795452E+02  0.14988058477E+02 -0.16479974678E+02  0.96330882672E+02  0.91965866864E+02 0.  0.
         13    1    3    3    0    0  0.29537418052E+01  0.36903068986E+02  0.25189763162E+02  0.44778303043E+02  0.10566000000E+00 0. -1.
         22    1    1    0    0    0  0.18046795452E+02 -0.14988058477E+02  0.16479974678E+02  0.28669117328E+02  0.00000000000E+00 0.  1.
</event>
<event>
 5    1  0.8943113E-005  0.9118800E+02  0.7818608E-02  0.1130116E+00
         25   -1    0    0    0    0  0.00000000000E+00  0.00000000000E+00  0.99999998245E-14  0.12500000000E+03  0.12500000000E+03 0.  0.
        -13    1    3    3    0    0 -0.91309239677E+01 -0.29116384298E+02 -0.47435656669E+02  0.56402928069E+02  0.10566000000E+00 0.  1.
         23    2    1    0    0    0 -0.63867062893E+01  0.52385700773E+01 -0.27648819641E+02  0.96143633957E+02  0.91711005279E+02 0.  0.
         13    1    3    3    0    0  0.27442176784E+01  0.34354954376E+02  0.19786837029E+02  0.39740705888E+02  0.10566000000E+00 0. -1.
         22    1    1    0    0    0  0.63867062893E+01 -0.52385700773E+01  0.27648819641E+02  0.28856366043E+02  0.00000000000E+00 0.  1.
</event>
<event>
 5    1  0.8943113E-005  0.9118800E+02  0.7818608E-02  0.1130116E+00
         25   -1    0    0    0    0  0.00000000000E+00  0.00000000000E+00  0.99999998245E-14  0.12500000000E+03  0.12500000000E+03 0.  0.
        -13    1    3    3    0    0 -0.19444005921E+02  0.11241540849E+02 -0.33602447702E+02  0.40417536571E+02  0.10566000000E+00 0.  1.
         23    2    1    0    0    0  0.25767943467E+02  0.12979177764E+02 -0.11004438325E+01  0.96126882009E+02  0.91688169914E+02 0.  0.
         13    1    3    3    0    0  0.45211949388E+02  0.17376369146E+01  0.32502003869E+02  0.55709345437E+02  0.10566000000E+00 0. -1.
         22    1    1    0    0    0 -0.25767943467E+02 -0.12979177764E+02  0.11004438325E+01  0.28873117991E+02  0.00000000000E+00 0. -1.
</event>
<event>
 5    1  0.8943113E-005  0.9118800E+02  0.7818608E-02  0.1130116E+00
         25   -1    0    0    0    0  0.00000000000E+00  0.00000000000E+00  0.99999998245E-14  0.12500000000E+03  0.12500000000E+03 0.  0.
        -13    1    3    3    0    0 -0.49804004972E+01  0.31743491749E+02  0.40969069022E+02  0.52066586580E+02  0.10566000000E+00 0.  1.
         23    2    1    0    0    0  0.16007454476E+02  0.24668234659E+02  0.37804084112E+01  0.95351190787E+02  0.90624487291E+02 0.  0.
         13    1    3    3    0    0  0.20987854973E+02 -0.70752570899E+01 -0.37188660611E+02  0.43284604207E+02  0.10566000000E+00 0. -1.
         22    1    1    0    0    0 -0.16007454476E+02 -0.24668234659E+02 -0.37804084112E+01  0.29648809213E+02  0.00000000000E+00 0.  1.
</event>
<event>
 5    1  0.8943113E-005  0.9118800E+02  0.7818608E-02  0.1130116E+00
         25   -1    0    0    0    0  0.00000000000E+00  0.00000000000E+00  0.99999998245E-14  0.12500000000E+03  0.12500000000E+03 0.  0.
        -13    1    3    3    0    0  0.51591313593E+02  0.22503396164E+02 -0.80718817995E+01  0.56861524048E+02  0.10566000000E+00 0.  1.
         23    2    1    0    0    0  0.26551096811E+02 -0.77691313513E+01 -0.81909060926E+01  0.96148464747E+02  0.91717589299E+02 0.  0.
         13    1    3    3    0    0 -0.25040216782E+02 -0.30272527516E+02 -0.11902429309E+00  0.39286940699E+02  0.10566000000E+00 0. -1.
         22    1    1    0    0    0 -0.26551096811E+02  0.77691313513E+01  0.81909060926E+01  0.28851535253E+02  0.00000000000E+00 0.  1.
</event>
<event>
 5    1  0.8943113E-005  0.9118800E+02  0.7818608E-02  0.1130116E+00
         25   -1    0    0    0    0  0.00000000000E+00  0.00000000000E+00  0.99999998245E-14  0.12500000000E+03  0.12500000000E+03 0.  0.
        -13    1    3    3    0    0  0.24753839133E+02 -0.18824380174E+02  0.20068127419E+02  0.37011494740E+02  0.10566000000E+00 0.  1.
         23    2    1    0    0    0  0.22132213724E+02  0.20799847253E+02 -0.16012174742E+02  0.90665494469E+02  0.83912893034E+02 0.  0.
         13    1    3    3    0    0 -0.26216254092E+01  0.39624227427E+02 -0.36080302160E+02  0.53653999730E+02  0.10566000000E+00 0. -1.
         22    1    1    0    0    0 -0.22132213724E+02 -0.20799847253E+02  0.16012174742E+02  0.34334505531E+02  0.00000000000E+00 0.  1.
</event>
<event>
 5    1  0.8943113E-005  0.9118800E+02  0.7818608E-02  0.1130116E+00
         25   -1    0    0    0    0  0.00000000000E+00  0.00000000000E+00  0.99999998245E-14  0.12500000000E+03  0.12500000000E+03 0.  0.
        -13    1    3    3    0    0  0.11294332847E+02 -0.48690578600E+02  0.32614834968E+02  0.59683105004E+02  0.10566000000E+00 0.  1.
         23    2    1    0    0    0 -0.65103201834E+01 -0.27269469306E+02  0.21482569352E+02  0.89679906411E+02  0.82431648066E+02 0.  0.
         13    1    3    3    0    0 -0.17804653030E+02  0.21421109294E+02 -0.11132265615E+02  0.29996801407E+02  0.10566000000E+00 0. -1.
         22    1    1    0    0    0  0.65103201834E+01  0.27269469306E+02 -0.21482569352E+02  0.35320093589E+02  0.00000000000E+00 0.  1.
</event>
<event>
 5    1  0.8943113E-005  0.9118800E+02  0.7818608E-02  0.1130116E+00
         25   -1    0    0    0    0  0.00000000000E+00  0.00000000000E+00  0.99999998245E-14  0.12500000000E+03  0.12500000000E+03 0.  0.
        -13    1    3    3    0    0  0.36312246433E+02 -0.15690181883E+02  0.37124739592E+02  0.54249594490E+02  0.10566000000E+00 0. -1.
         23    2    1    0    0    0  0.17937205268E+02 -0.24880252167E+02  0.28690038002E+01  0.94194132644E+02  0.89014230104E+02 0.  0.
         13    1    3    3    0    0 -0.18375041166E+02 -0.91900702841E+01 -0.34255735792E+02  0.39944538154E+02  0.10566000000E+00 0.  1.
         22    1    1    0    0    0 -0.17937205268E+02  0.24880252167E+02 -0.28690038002E+01  0.30805867356E+02  0.00000000000E+00 0.  1.
</event>
<event>
 5    1  0.8943113E-005  0.9118800E+02  0.7818608E-02  0.1130116E+00
         25   -1    0    0    0    0  0.00000000000E+00  0.00000000000E+00  0.99999998245E-14  0.12500000000E+03  0.12500000000E+03 0.  0.
        -13    1    3    3    0    0 -0.26675398464E+02 -0.37777977620E+02 -0.12956250266E+02  0.48027367836E+02  0.10566000000E+00 0.  1.
         23    2    1    0    0    0 -0.19550996210E+02 -0.48324660986E+01  0.21021467299E+02  0.95888210828E+02  0.91362206119E+02 0.  0.
         13    1    3    3    0    0  0.71244022541E+01  0.32945511521E+02  0.33977717565E+02  0.47860842992E+02  0.10566000000E+00 0. -1.
         22    1    1    0    0    0  0.19550996210E+02  0.48324660986E+01 -0.21021467299E+02  0.29111789172E+02  0.00000000000E+00 0. -1.
</event>
<event>
 5    1  0.8943113E-005  0.9118800E+02  0.7818608E-02  0.1130116E+00
         25   -1    0    0    0    0  0.00000000000E+00  0.00000000000E+00  0.99999998245E-14  0.12500000000E+03  0.12500000000E+03 0.  0.
        -13    1    3    3    0    0  0.13646516751E+02 -0.45489741129E+02  0.37644100318E+01  0.47641640550E+02  0.10566000000E+00 0.  1.
         23    2    1    0    0    0  0.25709829887E+02 -0.34537313624E+01 -0.14780381395E+02  0.95143957273E+02  0.90338194128E+02 0.  0.
         13    1    3    3    0    0  0.12063313136E+02  0.42036009767E+02 -0.18544791427E+02  0.47502316723E+02  0.10566000000E+00 0. -1.
         22    1    1    0    0    0 -0.25709829887E+02  0.34537313624E+01  0.14780381395E+02  0.29856042727E+02  0.00000000000E+00 0.  1.
</event>
<event>
 5    1  0.8943113E-005  0.9118800E+02  0.7818608E-02  0.1130116E+00
         25   -1    0    0    0    0  0.00000000000E+00  0.00000000000E+00  0.99999998245E-14  0.12500000000E+03  0.12500000000E+03 0.  0.
        -13    1    3    3    0    0 -0.83973623561E+01  0.21496451416E+02  0.32883189319E+02  0.40173728005E+02  0.10566000000E+00 0. -1.
         23    2    1    0    0    0 -0.24648173132E+02 -0.18623217420E+02  0.72371060150E+00  0.94098860493E+02  0.88880341602E+02 0.  0.
         13    1    3    3    0    0 -0.16250810776E+02 -0.40119668836E+02 -0.32159478718E+02  0.53925132487E+02  0.10566000000E+00 0.  1.
         22    1    1    0    0    0  0.24648173132E+02  0.18623217420E+02 -0.72371060150E+00  0.30901139507E+02  0.00000000000E+00 0. -1.
</event>
<event>
 5    1  0.8943113E-005  0.9118800E+02  0.7818608E-02  0.1130116E+00
         25   -1    0    0    0    0  0.00000000000E+00  0.00000000000E+00  0.99999998245E-14  0.12500000000E+03  0.12500000000E+03 0.  0.
        -13    1    3    3    0    0 -0.30192487731E+02 -0.21483675281E+02 -0.13757018433E+02  0.39527222761E+02  0.10566000000E+00 0.  1.
         23    2    1    0    0    0  0.90938717174E+01  0.18821357852E+02 -0.19891616445E+02  0.96144871877E+02  0.91712692519E+02 0.  0.
         13    1    3    3    0    0  0.39286359448E+02  0.40305033134E+02 -0.61345980123E+01  0.56617649116E+02  0.10566000000E+00 0. -1.
         22    1    1    0    0    0 -0.90938717174E+01 -0.18821357852E+02  0.19891616445E+02  0.28855128123E+02  0.00000000000E+00 0. -1.
</event>
<event>
 5    1  0.8943113E-005  0.9118800E+02  0.7818608E-02  0.1130116E+00
         25   -1    0    0    0    0  0.00000000000E+00  0.00000000000E+00  0.99999998245E-14  0.12500000000E+03  0.12500000000E+03 0.  0.
        -13    1    3    3    0    0  0.49713315672E+02 -0.26987086345E+01 -0.24737590463E+02  0.55593671666E+02  0.10566000000E+00 0.  1.
         23    2    1    0    0    0  0.13218481138E+02  0.15059163757E+02 -0.20390598411E+02  0.96411835312E+02  0.92075831943E+02 0.  0.
         13    1    3    3    0    0 -0.36494834534E+02  0.17757872391E+02  0.43469920513E+01  0.40818163646E+02  0.10566000000E+00 0. -1.
         22    1    1    0    0    0 -0.13218481138E+02 -0.15059163757E+02  0.20390598411E+02  0.28588164688E+02  0.00000000000E+00 0.  1.
</event>
<event>
 5    1  0.8943113E-005  0.9118800E+02  0.7818608E-02  0.1130116E+00
         25   -1    0    0    0    0  0.00000000000E+00  0.00000000000E+00  0.99999998245E-14  0.12500000000E+03  0.12500000000E+03 0.  0.
        -13    1    3    3    0    0 -0.45667868745E+01 -0.20704875346E+02  0.23246081179E+02  0.31463293846E+02  0.10566000000E+00 0.  1.
         23    2    1    0    0    0 -0.50260223523E+01  0.29134095112E+02 -0.12606514078E+02  0.92859984508E+02  0.87120583830E+02 0.  0.
         13    1    3    3    0    0 -0.45923547780E+00  0.49838970458E+02 -0.35852595257E+02  0.61396690661E+02  0.10566000000E+00 0. -1.
         22    1    1    0    0    0  0.50260223523E+01 -0.29134095112E+02  0.12606514078E+02  0.32140015492E+02  0.00000000000E+00 0. -1.
</event>
<event>
 5    1  0.8943113E-005  0.9118800E+02  0.7818608E-02  0.1130116E+00
         25   -1    0    0    0    0  0.00000000000E+00  0.00000000000E+00  0.99999998245E-14  0.12500000000E+03  0.12500000000E+03 0.  0.
        -13    1    3    3    0    0 -0.36320404132E+01  0.27928749214E+02  0.28297657534E+02  0.39924620677E+02  0.10566000000E+00 0.  1.
         23    2    1    0    0    0  0.50674641145E+01  0.10112394202E+02 -0.25415943313E+02  0.97180764146E+02  0.93113860603E+02 0.  0.
         13    1    3    3    0    0  0.86995045277E+01 -0.17816355012E+02 -0.53713600847E+02  0.57256143469E+02  0.10566000000E+00 0. -1.
         22    1    1    0    0    0 -0.50674641145E+01 -0.10112394202E+02  0.25415943313E+02  0.27819235854E+02  0.00000000000E+00 0. -1.
</event>
<event>
 5    1  0.8943113E-005  0.9118800E+02  0.7818608E-02  0.1130116E+00
         25   -1    0    0    0    0  0.00000000000E+00  0.00000000000E+00  0.99999998245E-14  0.12500000000E+03  0.12500000000E+03 0.  0.
        -13    1    3    3    0    0  0.26805130008E+02  0.20842686177E+02  0.23321860045E+01  0.34035023393E+02  0.10566000000E+00 0. -1.
         23    2    1    0    0    0 -0.24419885666E+02 -0.11636749044E+02 -0.10413774225E+02  0.96013944078E+02  0.91534070267E+02 0.  0.
         13    1    3    3    0    0 -0.51225015674E+02 -0.32479435221E+02 -0.12745960229E+02  0.61978920685E+02  0.10566000000E+00 0.  1.
         22    1    1    0    0    0  0.24419885666E+02  0.11636749044E+02  0.10413774225E+02  0.28986055922E+02  0.00000000000E+00 0.  1.
</event>
<event>
 5    1  0.8943113E-005  0.9118800E+02  0.7818608E-02  0.1130116E+00
         25   -1    0    0    0    0  0.00000000000E+00  0.00000000000E+00  0.99999998245E-14  0.12500000000E+03  0.12500000000E+03 0.  0.
        -13    1    3    3    0    0  0.55620096733E+02  0.44494599207E+01 -0.16291232697E+02  0.58127517416E+02  0.10566000000E+00 0.  1.
         23    2    1    0    0    0  0.23018206324E+02  0.16877504291E+02 -0.43027730331E+00  0.96454017585E+02  0.92133079815E+02 0.  0.
         13    1    3    3    0    0 -0.32601890409E+02  0.12428044371E+02  0.15860955394E+02  0.38326500168E+02  0.10566000000E+00 0. -1.
         22    1    1    0    0    0 -0.23018206324E+02 -0.16877504291E+02  0.43027730331E+00  0.28545982415E+02  0.00000000000E+00 0.  1.
</event>
<event>
 5    1  0.8943113E-005  0.9118800E+02  0.7818608E-02  0.1130116E+00
         25   -1    0    0    0    0  0.00000000000E+00  0.00000000000E+00  0.99999998245E-14  0.12500000000E+03  0.12500000000E+03 0.  0.
        -13    1    3    3    0    0  0.37256484177E+02  0.76436625200E+01 -0.27024462678E+02  0.46656231492E+02  0.10566000000E+00 0.  1.
         23    2    1    0    0    0  0.27326248144E+02  0.28970545737E+01  0.17433886733E+02  0.92456841434E+02  0.86540223934E+02 0.  0.
         13    1    3    3    0    0 -0.99302360335E+01 -0.47466079462E+01  0.44458349411E+02  0.45800609942E+02  0.10566000000E+00 0. -1.
         22    1    1    0    0    0 -0.27326248144E+02 -0.28970545737E+01 -0.17433886733E+02  0.32543158566E+02  0.00000000000E+00 0. -1.
</event>
<event>
 5    1  0.8943113E-005  0.9118800E+02  0.7818608E-02  0.1130116E+00
         25   -1    0    0    0    0  0.00000000000E+00  0.00000000000E+00  0.99999998245E-14  0.12500000000E+03  0.12500000000E+03 0.  0.
        -13    1    3    3    0    0 -0.31888627754E+02 -0.51847036846E+02  0.21582942904E+01  0.60907053845E+02  0.10566000000E+00 0.  1.
         23    2    1    0    0    0 -0.14860147213E+02 -0.24223922987E+02 -0.89490160214E+01  0.95205582607E+02  0.90423424242E+02 0.  0.
         13    1    3    3    0    0  0.17028480541E+02  0.27623113860E+02 -0.11107310312E+02  0.34298528762E+02  0.10566000000E+00 0. -1.
         22    1    1    0    0    0  0.14860147213E+02  0.24223922987E+02  0.89490160214E+01  0.29794417393E+02  0.00000000000E+00 0.  1.
</event>
<event>
 5    1  0.8943113E-005  0.9118800E+02  0.7818608E-02  0.1130116E+00
         25   -1    0    0    0    0  0.00000000000E+00  0.00000000000E+00  0.99999998245E-14  0.12500000000E+03  0.12500000000E+03 0.  0.
        -13    1    3    3    0    0 -0.11980454163E+02  0.33434388081E+01 -0.38418402299E+02  0.40381860584E+02  0.10566000000E+00 0. -1.
         23    2    1    0    0    0 -0.23259014017E+02 -0.12139326283E+02  0.13336978019E+02  0.95568385054E+02  0.90923573750E+02 0.  0.
         13    1    3    3    0    0 -0.11278559854E+02 -0.15482765091E+02  0.51755380317E+02  0.55186524470E+02  0.10566000000E+00 0.  1.
         22    1    1    0    0    0  0.23259014017E+02  0.12139326283E+02 -0.13336978019E+02  0.29431614946E+02  0.00000000000E+00 0.  1.
</event>
<event>
 5    1  0.8943113E-005  0.9118800E+02  0.7818608E-02  0.1130116E+00
         25   -1    0    0    0    0  0.00000000000E+00  0.00000000000E+00  0.99999998245E-14  0.12500000000E+03  0.12500000000E+03 0.  0.
        -13    1    3    3    0    0 -0.15955429443E+02 -0.13363892953E+02 -0.35352070463E+02  0.41023766448E+02  0.10566000000E+00 0.  1.
         23    2    1    0    0    0  0.27627571248E+02 -0.18910508805E+01 -0.17257220200E+01  0.97254065470E+02  0.93212211471E+02 0.  0.
         13    1    3    3    0    0  0.43583000690E+02  0.11472842073E+02  0.33626348443E+02  0.56230299021E+02  0.10566000000E+00 0. -1.
         22    1    1    0    0    0 -0.27627571248E+02  0.18910508805E+01  0.17257220200E+01  0.27745934530E+02  0.00000000000E+00 0. -1.
</event>
<event>
 5    1  0.8943113E-005  0.9118800E+02  0.7818608E-02  0.1130116E+00
         25   -1    0    0    0    0  0.00000000000E+00  0.00000000000E+00  0.99999998245E-14  0.12500000000E+03  0.12500000000E+03 0.  0.
        -13    1    3    3    0    0 -0.44408753924E+01  0.33530975880E+02  0.28898054830E+01  0.33947162731E+02  0.10566000000E+00 0.  1.
         23    2    1    0    0    0  0.52820263636E+01 -0.24598483962E+02 -0.15209536436E+02  0.95600761670E+02  0.90968073617E+02 0.  0.
         13    1    3    3    0    0  0.97229017560E+01 -0.58129459843E+02 -0.18099341919E+02  0.61653598939E+02  0.10566000000E+00 0. -1.
         22    1    1    0    0    0 -0.52820263636E+01  0.24598483962E+02  0.15209536436E+02  0.29399238330E+02  0.00000000000E+00 0. -1.
</event>
<event>
 5    1  0.8943113E-005  0.9118800E+02  0.7818608E-02  0.1130116E+00
         25   -1    0    0    0    0  0.00000000000E+00  0.00000000000E+00  0.99999998245E-14  0.12500000000E+03  0.12500000000E+03 0.  0.
        -13    1    3    3    0    0  0.43247479460E+01  0.16122862286E+02  0.47549366557E+02  0.50394479431E+02  0.10566000000E+00 0. -1.
         23    2    1    0    0    0 -0.56844642044E+01  0.28971246071E+02  0.62049819489E+01  0.94831340215E+02  0.89904588614E+02 0.  0.
         13    1    3    3    0    0 -0.10009212150E+02  0.12848383785E+02 -0.41344384608E+02  0.44436860785E+02  0.10566000000E+00 0.  1.
         22    1    1    0    0    0  0.56844642044E+01 -0.28971246071E+02 -0.62049819489E+01  0.30168659785E+02  0.00000000000E+00 0. -1.
</event>
<event>
 5    1  0.8943113E-005  0.9118800E+02  0.7818608E-02  0.1130116E+00
         25   -1    0    0    0    0  0.00000000000E+00  0.00000000000E+00  0.99999998245E-14  0.12500000000E+03  0.12500000000E+03 0.  0.
        -13    1    3    3    0    0  0.26219637147E+02 -0.44466204473E+02  0.23776481883E+02  0.56833484559E+02  0.10566000000E+00 0. -1.
         23    2    1    0    0    0  0.14900936638E+01 -0.13578087527E+02  0.25100140901E+02  0.96423752638E+02  0.92092009206E+02 0.  0.
         13    1    3    3    0    0 -0.24729543483E+02  0.30888116946E+02  0.13236590178E+01  0.39590268079E+02  0.10566000000E+00 0.  1.
         22    1    1    0    0    0 -0.14900936638E+01  0.13578087527E+02 -0.25100140901E+02  0.28576247362E+02  0.00000000000E+00 0. -1.
</event>
<event>
 5    1  0.8943113E-005  0.9118800E+02  0.7818608E-02  0.1130116E+00
         25   -1    0    0    0    0  0.00000000000E+00  0.00000000000E+00  0.99999998245E-14  0.12500000000E+03  0.12500000000E+03 0.  0.
        -13    1    3    3    0    0  0.17410459920E+02 -0.31067553433E+02  0.52832090869E+01  0.36003339473E+02  0.10566000000E+00 0.  1.
         23    2    1    0    0    0 -0.28756453565E+02  0.52864431979E+01 -0.39825649326E+01  0.95491680381E+02  0.90818060402E+02 0.  0.
         13    1    3    3    0    0 -0.46166913485E+02  0.36353996631E+02 -0.92657740195E+01  0.59488340908E+02  0.10566000000E+00 0. -1.
         22    1    1    0    0    0  0.28756453565E+02 -0.52864431979E+01  0.39825649326E+01  0.29508319619E+02  0.00000000000E+00 0. -1.
</event>
<event>
 5    1  0.8943113E-005  0.9118800E+02  0.7818608E-02  0.1130116E+00
         25   -1    0    0    0    0  0.00000000000E+00  0.00000000000E+00  0.99999998245E-14  0.12500000000E+03  0.12500000000E+03 0.  0.
        -13    1    3    3    0    0 -0.29445761632E+02  0.36451881087E+01  0.18690584982E+02  0.35066927517E+02  0.10566000000E+00 0.  1.
         23    2    1    0    0    0  0.16103447755E+02  0.16810326205E+02 -0.18450604464E+02  0.95295911026E+02  0.90548206809E+02 0.  0.
         13    1    3    3    0    0  0.45549209387E+02  0.13165138096E+02 -0.37141189447E+02  0.60228983508E+02  0.10566000000E+00 0. -1.
         22    1    1    0    0    0 -0.16103447755E+02 -0.16810326205E+02  0.18450604464E+02  0.29704088974E+02  0.00000000000E+00 0. -1.
</event>
<event>
 5    1  0.8943113E-005  0.9118800E+02  0.7818608E-02  0.1130116E+00
         25   -1    0    0    0    0  0.00000000000E+00  0.00000000000E+00  0.99999998245E-14  0.12500000000E+03  0.12500000000E+03 0.  0.
        -13    1    3    3    0    0  0.41782691190E+02  0.40899347692E+02 -0.21988268058E+02  0.62466351110E+02  0.10566000000E+00 0. -1.
         23    2    1    0    0    0  0.19262997463E+02  0.19865722880E+02 -0.90643278489E+01  0.95881757330E+02  0.91353376142E+02 0.  0.
         13    1    3    3    0    0 -0.22519693727E+02 -0.21033624813E+02  0.12923940209E+02  0.33415406220E+02  0.10566000000E+00 0.  1.
         22    1    1    0    0    0 -0.19262997463E+02 -0.19865722880E+02  0.90643278489E+01  0.29118242670E+02  0.00000000000E+00 0. -1.
</event>
<event>
 5    1  0.8943113E-005  0.9118800E+02  0.7818608E-02  0.1130116E+00
         25   -1    0    0    0    0  0.00000000000E+00  0.00000000000E+00  0.99999998245E-14  0.12500000000E+03  0.12500000000E+03 0.  0.
        -13    1    3    3    0    0 -0.42356346314E+02  0.32544951406E+01 -0.23331117838E+02  0.48466524894E+02  0.10566000000E+00 0. -1.
         23    2    1    0    0    0 -0.10177343263E+02  0.27654353704E+02  0.81981459539E+00  0.95520961844E+02  0.90858353831E+02 0.  0.
         13    1    3    3    0    0  0.32179003051E+02  0.24399858563E+02  0.24150932433E+02  0.47054436950E+02  0.10566000000E+00 0.  1.
         22    1    1    0    0    0  0.10177343263E+02 -0.27654353704E+02 -0.81981459539E+00  0.29479038156E+02  0.00000000000E+00 0. -1.
</event>
<event>
 5    1  0.8943113E-005  0.9118800E+02  0.7818608E-02  0.1130116E+00
         25   -1    0    0    0    0  0.00000000000E+00  0.00000000000E+00  0.99999998245E-14  0.12500000000E+03  0.12500000000E+03 0.  0.
        -13    1    3    3    0    0 -0.13238909912E+02 -0.95270629454E+01 -0.59160700793E+02  0.61368015662E+02  0.10566000000E+00 0. -1.
         23    2    1    0    0    0 -0.92051170409E+01 -0.11766865695E+02 -0.24722369918E+02  0.96114209681E+02  0.91670891892E+02 0.  0.
         13    1    3    3    0    0  0.40337928711E+01 -0.22398027496E+01  0.34438330875E+02  0.34746194019E+02  0.10566000000E+00 0.  1.
         22    1    1    0    0    0  0.92051170409E+01  0.11766865695E+02  0.24722369918E+02  0.28885790319E+02  0.00000000000E+00 0. -1.
</event>
<event>
 5    1  0.8943113E-005  0.9118800E+02  0.7818608E-02  0.1130116E+00
         25   -1    0    0    0    0  0.00000000000E+00  0.00000000000E+00  0.99999998245E-14  0.12500000000E+03  0.12500000000E+03 0.  0.
        -13    1    3    3    0    0 -0.10661328450E+02 -0.47045296730E+02 -0.37440101440E+02  0.61063051256E+02  0.10566000000E+00 0.  1.
         23    2    1    0    0    0  0.11750245261E+01 -0.18707747950E+02 -0.23900794014E+02  0.94625529296E+02  0.89617979915E+02 0.  0.
         13    1    3    3    0    0  0.11836352976E+02  0.28337548780E+02  0.13539307426E+02  0.33562478041E+02  0.10566000000E+00 0. -1.
         22    1    1    0    0    0 -0.11750245261E+01  0.18707747950E+02  0.23900794014E+02  0.30374470704E+02  0.00000000000E+00 0.  1.
</event>
<event>
 5    1  0.8943113E-005  0.9118800E+02  0.7818608E-02  0.1130116E+00
         25   -1    0    0    0    0  0.00000000000E+00  0.00000000000E+00  0.99999998245E-14  0.12500000000E+03  0.12500000000E+03 0.  0.
        -13    1    3    3    0    0  0.51089120656E+01 -0.30542344538E+02  0.30759503325E+02  0.43647382524E+02  0.10566000000E+00 0.  1.
         23    2    1    0    0    0 -0.14512692539E+02 -0.19782103139E+02 -0.16153836017E+02  0.95624903959E+02  0.91001241693E+02 0.  0.
         13    1    3    3    0    0 -0.19621604605E+02  0.10760241399E+02 -0.46913339342E+02  0.51977521435E+02  0.10566000000E+00 0. -1.
         22    1    1    0    0    0  0.14512692539E+02  0.19782103139E+02  0.16153836017E+02  0.29375096041E+02  0.00000000000E+00 0.  1.
</event>
<event>
 5    1  0.8943113E-005  0.9118800E+02  0.7818608E-02  0.1130116E+00
         25   -1    0    0    0    0  0.00000000000E+00  0.00000000000E+00  0.99999998245E-14  0.12500000000E+03  0.12500000000E+03 0.  0.
        -13    1    3    3    0    0 -0.27294123648E+02  0.55750329043E+02 -0.27951276907E+01  0.62136078706E+02  0.10566000000E+00 0. -1.
         23    2    1    0    0    0 -0.92035941934E+01  0.26566945206E+02 -0.45571973897E+01  0.96517079298E+02  0.92218598041E+02 0.  0.
         13    1    3    3    0    0  0.18090529454E+02 -0.29183383837E+02 -0.17620696990E+01  0.34381000593E+02  0.10566000000E+00 0.  1.
         22    1    1    0    0    0  0.92035941934E+01 -0.26566945206E+02  0.45571973897E+01  0.28482920702E+02  0.00000000000E+00 0. -1.
</event>
<event>
 5    1  0.8943113E-005  0.9118800E+02  0.7818608E-02  0.1130116E+00
         25   -1    0    0    0    0  0.00000000000E+00  0.00000000000E+00  0.99999998245E-14  0.12500000000E+03  0.12500000000E+03 0.  0.
        -13    1    3    3    0    0  0.34952786747E+02  0.36985507219E+02 -0.23338917228E+02  0.55985187925E+02  0.10566000000E+00 0. -1.
         23    2    1    0    0    0  0.13577474237E+01  0.29646143412E+02 -0.51757604529E+01  0.94874831228E+02  0.89965036581E+02 0.  0.
         13    1    3    3    0    0 -0.33595039323E+02 -0.73393638069E+01  0.18163156775E+02  0.38889643303E+02  0.10566000000E+00 0.  1.
         22    1    1    0    0    0 -0.13577474237E+01 -0.29646143412E+02  0.51757604529E+01  0.30125168772E+02  0.00000000000E+00 0. -1.
</event>
<event>
 5    1  0.8943113E-005  0.9118800E+02  0.7818608E-02  0.1130116E+00
         25   -1    0    0    0    0  0.00000000000E+00  0.00000000000E+00  0.99999998245E-14  0.12500000000E+03  0.12500000000E+03 0.  0.
        -13    1    3    3    0    0 -0.13005341567E+02 -0.32762932660E+02  0.11072556819E+02  0.36948089860E+02  0.10566000000E+00 0. -1.
         23    2    1    0    0    0  0.27252301867E+02  0.89927868914E+01  0.87557258206E+01  0.94996318429E+02  0.90133676322E+02 0.  0.
         13    1    3    3    0    0  0.40257643434E+02  0.41755719551E+02 -0.23168309987E+01  0.58048228569E+02  0.10566000000E+00 0.  1.
         22    1    1    0    0    0 -0.27252301867E+02 -0.89927868914E+01 -0.87557258206E+01  0.30003681571E+02  0.00000000000E+00 0.  1.
</event>
<event>
 5    1  0.8943113E-005  0.9118800E+02  0.7818608E-02  0.1130116E+00
         25   -1    0    0    0    0  0.00000000000E+00  0.00000000000E+00  0.99999998245E-14  0.12500000000E+03  0.12500000000E+03 0.  0.
        -13    1    3    3    0    0  0.61630788525E+01  0.55168780897E+00  0.58483977306E+02  0.58810497923E+02  0.10566000000E+00 0. -1.
         23    2    1    0    0    0 -0.12317365202E+02 -0.35330105346E+00  0.26829157063E+02  0.95476348873E+02  0.90796955997E+02 0.  0.
         13    1    3    3    0    0 -0.18480444054E+02 -0.90498886243E+00 -0.31654820243E+02  0.36665850951E+02  0.10566000000E+00 0.  1.
         22    1    1    0    0    0  0.12317365202E+02  0.35330105346E+00 -0.26829157063E+02  0.29523651127E+02  0.00000000000E+00 0. -1.
</event>
<event>
 5    1  0.8943113E-005  0.9118800E+02  0.7818608E-02  0.1130116E+00
         25   -1    0    0    0    0  0.00000000000E+00  0.00000000000E+00  0.99999998245E-14  0.12500000000E+03  0.12500000000E+03 0.  0.
        -13    1    3    3    0    0  0.19149816548E+02  0.27336974217E+01 -0.46854431304E+02  0.50690605365E+02  0.10566000000E+00 0.  1.
         23    2    1    0    0    0 -0.18508051312E+01  0.25918893674E+02 -0.16892887417E+02  0.94006707594E+02  0.88750644496E+02 0.  0.
         13    1    3    3    0    0 -0.21000621679E+02  0.23185196252E+02  0.29961543887E+02  0.43316102229E+02  0.10566000000E+00 0. -1.
         22    1    1    0    0    0  0.18508051312E+01 -0.25918893674E+02  0.16892887417E+02  0.30993292406E+02  0.00000000000E+00 0. -1.
</event>
<event>
 5    1  0.8943113E-005  0.9118800E+02  0.7818608E-02  0.1130116E+00
         25   -1    0    0    0    0  0.00000000000E+00  0.00000000000E+00  0.99999998245E-14  0.12500000000E+03  0.12500000000E+03 0.  0.
        -13    1    3    3    0    0  0.27340293716E+02 -0.66352798449E+01 -0.23810335832E+02  0.36857317531E+02  0.10566000000E+00 0.  1.
         23    2    1    0    0    0 -0.53905945222E+01  0.25785111637E+02  0.12809511954E+02  0.95708122492E+02  0.91115479602E+02 0.  0.
         13    1    3    3    0    0 -0.32730888238E+02  0.32420391482E+02  0.36619847786E+02  0.58850804961E+02  0.10566000000E+00 0. -1.
         22    1    1    0    0    0  0.53905945222E+01 -0.25785111637E+02 -0.12809511954E+02  0.29291877508E+02  0.00000000000E+00 0. -1.
</event>
<event>
 5    1  0.8943113E-005  0.9118800E+02  0.7818608E-02  0.1130116E+00
         25   -1    0    0    0    0  0.00000000000E+00  0.00000000000E+00  0.99999998245E-14  0.12500000000E+03  0.12500000000E+03 0.  0.
        -13    1    3    3    0    0 -0.41555312020E+02  0.96016671826E+01 -0.15317080520E+02  0.45317326592E+02  0.10566000000E+00 0.  1.
         23    2    1    0    0    0  0.74946097512E+01  0.22441218399E+02 -0.16702314910E+02  0.96038909173E+02  0.91568156546E+02 0.  0.
         13    1    3    3    0    0  0.49049921771E+02  0.12839551216E+02 -0.13852343898E+01  0.50721582581E+02  0.10566000000E+00 0. -1.
         22    1    1    0    0    0 -0.74946097512E+01 -0.22441218399E+02  0.16702314910E+02  0.28961090827E+02  0.00000000000E+00 0. -1.
</event>
<event>
 5    1  0.8943113E-005  0.9118800E+02  0.7818608E-02  0.1130116E+00
         25   -1    0    0    0    0  0.00000000000E+00  0.00000000000E+00  0.99999998245E-14  0.12500000000E+03  0.12500000000E+03 0.  0.
        -13    1    3    3    0    0  0.27977366793E+02 -0.77400826032E+01  0.21218331168E+02  0.35956510857E+02  0.10566000000E+00 0.  1.
         23    2    1    0    0    0 -0.15813948402E+02  0.12224381480E+01 -0.21831242986E+02  0.98015217447E+02  0.94227407700E+02 0.  0.
         13    1    3    3    0    0 -0.43791315195E+02  0.89625207511E+01 -0.43049574155E+02  0.62058706591E+02  0.10566000000E+00 0. -1.
         22    1    1    0    0    0  0.15813948402E+02 -0.12224381480E+01  0.21831242986E+02  0.26984782553E+02  0.00000000000E+00 0. -1.
</event>
<event>
 5    1  0.8943113E-005  0.9118800E+02  0.7818608E-02  0.1130116E+00
         25   -1    0    0    0    0  0.00000000000E+00  0.00000000000E+00  0.99999998245E-14  0.12500000000E+03  0.12500000000E+03 0.  0.
        -13    1    3    3    0    0 -0.25453215852E+02  0.27583796373E+02 -0.13268032398E+02  0.39809343969E+02  0.10566000000E+00 0.  1.
         23    2    1    0    0    0 -0.92050050587E+01 -0.26254057139E+02 -0.62881906451E+01  0.96477220051E+02  0.92164553994E+02 0.  0.
         13    1    3    3    0    0  0.16248210793E+02 -0.53837853512E+02  0.69798417527E+01  0.56667876082E+02  0.10566000000E+00 0. -1.
         22    1    1    0    0    0  0.92050050587E+01  0.26254057139E+02  0.62881906451E+01  0.28522779949E+02  0.00000000000E+00 0. -1.
</event>
<event>
 5    1  0.8943113E-005  0.9118800E+02  0.7818608E-02  0.1130116E+00
         25   -1    0    0    0    0  0.00000000000E+00  0.00000000000E+00  0.99999998245E-14  0.12500000000E+03  0.12500000000E+03 0.  0.
        -13    1    3    3    0    0  0.48768242761E+02 -0.27334550001E+02 -0.12740378434E+02  0.57339755252E+02  0.10566000000E+00 0. -1.
         23    2    1    0    0    0  0.22279708507E+02 -0.13070851796E+02  0.12213852100E+02  0.96427097436E+02  0.92096549115E+02 0.  0.
         13    1    3    3    0    0 -0.26488534254E+02  0.14263698204E+02  0.24954230534E+02  0.39087342184E+02  0.10566000000E+00 0.  1.
         22    1    1    0    0    0 -0.22279708507E+02  0.13070851796E+02 -0.12213852100E+02  0.28572902564E+02  0.00000000000E+00 0.  1.
</event>
<event>
 5    1  0.8943113E-005  0.9118800E+02  0.7818608E-02  0.1130116E+00
         25   -1    0    0    0    0  0.00000000000E+00  0.00000000000E+00  0.99999998245E-14  0.12500000000E+03  0.12500000000E+03 0.  0.
        -13    1    3    3    0    0 -0.17778471174E+02 -0.10988408967E+02  0.30375898598E+02  0.36871744582E+02  0.10566000000E+00 0.  1.
         23    2    1    0    0    0  0.93884585667E+01 -0.18264518763E+02 -0.21116491719E+02  0.95544236177E+02  0.90890368269E+02 0.  0.
         13    1    3    3    0    0  0.27166929740E+02 -0.72761097953E+01 -0.51492390317E+02  0.58672491594E+02  0.10566000000E+00 0. -1.
         22    1    1    0    0    0 -0.93884585667E+01  0.18264518763E+02  0.21116491719E+02  0.29455763823E+02  0.00000000000E+00 0. -1.
</event>
<event>
 5    1  0.8943113E-005  0.9118800E+02  0.7818608E-02  0.1130116E+00
         25   -1    0    0    0    0  0.00000000000E+00  0.00000000000E+00  0.99999998245E-14  0.12500000000E+03  0.12500000000E+03 0.  0.
        -13    1    3    3    0    0 -0.19628032475E+02  0.40655108222E+02 -0.25420143346E+02  0.51810156680E+02  0.10566000000E+00 0. -1.
         23    2    1    0    0    0  0.16777263467E+02  0.17899762422E+02 -0.15838187916E+02  0.95798522971E+02  0.91239414415E+02 0.  0.
         13    1    3    3    0    0  0.36405295942E+02 -0.22755345800E+02  0.95819554302E+01  0.43988366292E+02  0.10566000000E+00 0.  1.
         22    1    1    0    0    0 -0.16777263467E+02 -0.17899762422E+02  0.15838187916E+02  0.29201477029E+02  0.00000000000E+00 0. -1.
</event>
<event>
 5    1  0.8943113E-005  0.9118800E+02  0.7818608E-02  0.1130116E+00
         25   -1    0    0    0    0  0.00000000000E+00  0.00000000000E+00  0.99999998245E-14  0.12500000000E+03  0.12500000000E+03 0.  0.
        -13    1    3    3    0    0  0.17767490354E+02  0.29339382160E+02  0.80394442452E+01  0.35229630807E+02  0.10566000000E+00 0.  1.
         23    2    1    0    0    0  0.60781652394E+01 -0.27188676803E+02 -0.95088287116E+01  0.95562166139E+02  0.90915023702E+02 0.  0.
         13    1    3    3    0    0 -0.11689325115E+02 -0.56528058963E+02 -0.17548272957E+02  0.60332535332E+02  0.10566000000E+00 0. -1.
         22    1    1    0    0    0 -0.60781652394E+01  0.27188676803E+02  0.95088287116E+01  0.29437833861E+02  0.00000000000E+00 0. -1.
</event>
<event>
 5    1  0.8943113E-005  0.9118800E+02  0.7818608E-02  0.1130116E+00
         25   -1    0    0    0    0  0.00000000000E+00  0.00000000000E+00  0.99999998245E-14  0.12500000000E+03  0.12500000000E+03 0.  0.
        -13    1    3    3    0    0 -0.57208073550E+01 -0.59040260719E+02  0.17474925219E+02  0.61837401288E+02  0.10566000000E+00 0. -1.
         23    2    1    0    0    0  0.16477291612E+01 -0.26239596773E+02  0.12730227038E+02  0.95788869747E+02  0.91226188327E+02 0.  0.
         13    1    3    3    0    0  0.73685365162E+01  0.32800663946E+02 -0.47446981808E+01  0.33951468459E+02  0.10566000000E+00 0.  1.
         22    1    1    0    0    0 -0.16477291612E+01  0.26239596773E+02 -0.12730227038E+02  0.29211130253E+02  0.00000000000E+00 0. -1.
</event>
<event>
 5    1  0.8943113E-005  0.9118800E+02  0.7818608E-02  0.1130116E+00
         25   -1    0    0    0    0  0.00000000000E+00  0.00000000000E+00  0.99999998245E-14  0.12500000000E+03  0.12500000000E+03 0.  0.
        -13    1    3    3    0    0 -0.70455967971E+01  0.29602227837E+02  0.12815406614E+02  0.33017845748E+02  0.10566000000E+00 0.  1.
         23    2    1    0    0    0  0.12256137202E+02 -0.22101234272E+02 -0.15811234359E+02  0.95189388007E+02  0.90401034296E+02 0.  0.
         13    1    3    3    0    0  0.19301733999E+02 -0.51703462109E+02 -0.28626640973E+02  0.62171542259E+02  0.10566000000E+00 0. -1.
         22    1    1    0    0    0 -0.12256137202E+02  0.22101234272E+02  0.15811234359E+02  0.29810611993E+02  0.00000000000E+00 0. -1.
</event>
<event>
 5    1  0.8943113E-005  0.9118800E+02  0.7818608E-02  0.1130116E+00
         25   -1    0    0    0    0  0.00000000000E+00  0.00000000000E+00  0.99999998245E-14  0.12500000000E+03  0.12500000000E+03 0.  0.
        -13    1    3    3    0    0  0.12466591021E+02  0.19736004509E+02  0.32331728204E+02  0.39878284546E+02  0.10566000000E+00 0. -1.
         23    2    1    0    0    0  0.13835488934E+02 -0.21893881234E+02 -0.80363747683E+01  0.97882734118E+02  0.94051494031E+02 0.  0.
         13    1    3    3    0    0  0.13688979124E+01 -0.41629885743E+02 -0.40368102972E+02  0.58004449571E+02  0.10566000000E+00 0.  1.
         22    1    1    0    0    0 -0.13835488934E+02  0.21893881234E+02  0.80363747683E+01  0.27117265882E+02  0.00000000000E+00 0.  1.
</event>
<event>
 5    1  0.8943113E-005  0.9118800E+02  0.7818608E-02  0.1130116E+00
         25   -1    0    0    0    0  0.00000000000E+00  0.00000000000E+00  0.99999998245E-14  0.12500000000E+03  0.12500000000E+03 0.  0.
        -13    1    3    3    0    0  0.19478309460E+02  0.11844209949E+02  0.43760488078E+02  0.49342490103E+02  0.10566000000E+00 0. -1.
         23    2    1    0    0    0 -0.93923482304E+01 -0.16679025438E+02  0.23461968773E+02  0.94720137491E+02  0.89749843302E+02 0.  0.
         13    1    3    3    0    0 -0.28870657691E+02 -0.28523235387E+02 -0.20298519305E+02  0.45377647387E+02  0.10566000000E+00 0.  1.
         22    1    1    0    0    0  0.93923482304E+01  0.16679025438E+02 -0.23461968773E+02  0.30279862509E+02  0.00000000000E+00 0. -1.
</event>
<event>
 5    1  0.8943113E-005  0.9118800E+02  0.7818608E-02  0.1130116E+00
         25   -1    0    0    0    0  0.00000000000E+00  0.00000000000E+00  0.99999998245E-14  0.12500000000E+03  0.12500000000E+03 0.  0.
        -13    1    3    3    0    0 -0.93954131823E+01 -0.25174819948E+02  0.52089715771E+02  0.58612242760E+02  0.10566000000E+00 0. -1.
         23    2    1    0    0    0 -0.59440285710E+01  0.25645553855E+01  0.30192786874E+02  0.94120997439E+02  0.88911469224E+02 0.  0.
         13    1    3    3    0    0  0.34513846113E+01  0.27739375334E+02 -0.21896928897E+02  0.35508754678E+02  0.10566000000E+00 0.  1.
         22    1    1    0    0    0  0.59440285710E+01 -0.25645553855E+01 -0.30192786874E+02  0.30879002561E+02  0.00000000000E+00 0. -1.
</event>
<event>
 5    1  0.8943113E-005  0.9118800E+02  0.7818608E-02  0.1130116E+00
         25   -1    0    0    0    0  0.00000000000E+00  0.00000000000E+00  0.99999998245E-14  0.12500000000E+03  0.12500000000E+03 0.  0.
        -13    1    3    3    0    0 -0.80854999558E+01  0.97320799017E+01 -0.41576337602E+02  0.43459080767E+02  0.10566000000E+00 0. -1.
         23    2    1    0    0    0  0.15468409994E+02  0.25100911791E+02  0.21368342706E+01  0.95438309568E+02  0.90744572246E+02 0.  0.
         13    1    3    3    0    0  0.23553909950E+02  0.15368831889E+02  0.43713171872E+02  0.51979228801E+02  0.10566000000E+00 0.  1.
         22    1    1    0    0    0 -0.15468409994E+02 -0.25100911791E+02 -0.21368342706E+01  0.29561690432E+02  0.00000000000E+00 0.  1.
</event>
<event>
 5    1  0.8943113E-005  0.9118800E+02  0.7818608E-02  0.1130116E+00
         25   -1    0    0    0    0  0.00000000000E+00  0.00000000000E+00  0.99999998245E-14  0.12500000000E+03  0.12500000000E+03 0.  0.
        -13    1    3    3    0    0 -0.76454372812E+01  0.45443879223E+02 -0.31853797901E+02  0.56020304130E+02  0.10566000000E+00 0.  1.
         23    2    1    0    0    0 -0.12923368933E+02  0.81689404827E+01 -0.26990644913E+02  0.93980006995E+02  0.88713030321E+02 0.  0.
         13    1    3    3    0    0 -0.52779316521E+01 -0.37274938740E+02  0.48631529877E+01  0.37959702865E+02  0.10566000000E+00 0. -1.
         22    1    1    0    0    0  0.12923368933E+02 -0.81689404827E+01  0.26990644913E+02  0.31019993005E+02  0.00000000000E+00 0.  1.
</event>
<event>
 5    1  0.8943113E-005  0.9118800E+02  0.7818608E-02  0.1130116E+00
         25   -1    0    0    0    0  0.00000000000E+00  0.00000000000E+00  0.99999998245E-14  0.12500000000E+03  0.12500000000E+03 0.  0.
        -13    1    3    3    0    0 -0.22200940118E+02  0.26983355797E+02  0.12506620926E+02  0.37113474146E+02  0.10566000000E+00 0. -1.
         23    2    1    0    0    0  0.15752841464E+02  0.94166292437E+01 -0.25470945504E+02  0.93605828799E+02  0.88184223077E+02 0.  0.
         13    1    3    3    0    0  0.37953781582E+02 -0.17566726553E+02 -0.37977566431E+02  0.56492354653E+02  0.10566000000E+00 0.  1.
         22    1    1    0    0    0 -0.15752841464E+02 -0.94166292437E+01  0.25470945504E+02  0.31394171201E+02  0.00000000000E+00 0.  1.
</event>
<event>
 5    1  0.8943113E-005  0.9118800E+02  0.7818608E-02  0.1130116E+00
         25   -1    0    0    0    0  0.00000000000E+00  0.00000000000E+00  0.99999998245E-14  0.12500000000E+03  0.12500000000E+03 0.  0.
        -13    1    3    3    0    0  0.95790613816E+01  0.33048623948E+02 -0.12367799105E+01  0.34431246716E+02  0.10566000000E+00 0. -1.
         23    2    1    0    0    0  0.74566845403E+00 -0.26530702339E+02 -0.12428613777E+02  0.95692925283E+02  0.91094628385E+02 0.  0.
         13    1    3    3    0    0 -0.88333929276E+01 -0.59579326288E+02 -0.11191833867E+02  0.61261678567E+02  0.10566000000E+00 0.  1.
         22    1    1    0    0    0 -0.74566845403E+00  0.26530702339E+02  0.12428613777E+02  0.29307074717E+02  0.00000000000E+00 0.  1.
</event>
<event>
 5    1  0.8943113E-005  0.9118800E+02  0.7818608E-02  0.1130116E+00
         25   -1    0    0    0    0  0.00000000000E+00  0.00000000000E+00  0.99999998245E-14  0.12500000000E+03  0.12500000000E+03 0.  0.
        -13    1    3    3    0    0 -0.58743908773E+02 -0.18626226664E+02 -0.49984985769E+01  0.61828628400E+02  0.10566000000E+00 0.  1.
         23    2    1    0    0    0 -0.25021642594E+02 -0.14452901441E+02 -0.54397175446E+00  0.96099050822E+02  0.91650219342E+02 0.  0.
         13    1    3    3    0    0  0.33722266180E+02  0.41733252238E+01  0.44545268225E+01  0.34270422422E+02  0.10566000000E+00 0. -1.
         22    1    1    0    0    0  0.25021642594E+02  0.14452901441E+02  0.54397175446E+00  0.28900949178E+02  0.00000000000E+00 0.  1.
</event>
<event>
 5    1  0.8943113E-005  0.9118800E+02  0.7818608E-02  0.1130116E+00
         25   -1    0    0    0    0  0.00000000000E+00  0.00000000000E+00  0.99999998245E-14  0.12500000000E+03  0.12500000000E+03 0.  0.
        -13    1    3    3    0    0  0.79736445099E+00  0.29540072464E+02  0.46578468235E+02  0.55161730742E+02  0.10566000000E+00 0. -1.
         23    2    1    0    0    0 -0.97404930012E+01  0.26264450178E+02  0.71724519420E+01  0.96083869313E+02  0.91629511230E+02 0.  0.
         13    1    3    3    0    0 -0.10537857452E+02 -0.32756222863E+01 -0.39406016293E+02  0.40922138571E+02  0.10566000000E+00 0.  1.
         22    1    1    0    0    0  0.97404930012E+01 -0.26264450178E+02 -0.71724519420E+01  0.28916130687E+02  0.00000000000E+00 0. -1.
</event>
<event>
 5    1  0.8943113E-005  0.9118800E+02  0.7818608E-02  0.1130116E+00
         25   -1    0    0    0    0  0.00000000000E+00  0.00000000000E+00  0.99999998245E-14  0.12500000000E+03  0.12500000000E+03 0.  0.
        -13    1    3    3    0    0  0.21815017029E+02 -0.39943860662E+01  0.46218637739E+02  0.51264253887E+02  0.10566000000E+00 0.  1.
         23    2    1    0    0    0  0.18480271154E+02 -0.21536251379E+02  0.49998867547E+01  0.96184562940E+02  0.91766773590E+02 0.  0.
         13    1    3    3    0    0 -0.33347458755E+01 -0.17541865313E+02 -0.41218750985E+02  0.44920309054E+02  0.10566000000E+00 0. -1.
         22    1    1    0    0    0 -0.18480271154E+02  0.21536251379E+02 -0.49998867547E+01  0.28815437060E+02  0.00000000000E+00 0.  1.
</event>
<event>
 5    1  0.8943113E-005  0.9118800E+02  0.7818608E-02  0.1130116E+00
         25   -1    0    0    0    0  0.00000000000E+00  0.00000000000E+00  0.99999998245E-14  0.12500000000E+03  0.12500000000E+03 0.  0.
        -13    1    3    3    0    0 -0.29767943999E+01  0.51672134068E+02  0.86897107676E+01  0.52482311128E+02  0.10566000000E+00 0.  1.
         23    2    1    0    0    0  0.17805210062E+02  0.14065387335E+02  0.17501988158E+02  0.96343757823E+02  0.91983365103E+02 0.  0.
         13    1    3    3    0    0  0.20782004462E+02 -0.37606746733E+02  0.88122773907E+01  0.43861446694E+02  0.10566000000E+00 0. -1.
         22    1    1    0    0    0 -0.17805210062E+02 -0.14065387335E+02 -0.17501988158E+02  0.28656242177E+02  0.00000000000E+00 0. -1.
</event>
<event>
 5    1  0.8943113E-005  0.9118800E+02  0.7818608E-02  0.1130116E+00
         25   -1    0    0    0    0  0.00000000000E+00  0.00000000000E+00  0.99999998245E-14  0.12500000000E+03  0.12500000000E+03 0.  0.
        -13    1    3    3    0    0  0.28160180982E+02 -0.24394006397E+02  0.80117648527E+01  0.38108567031E+02  0.10566000000E+00 0. -1.
         23    2    1    0    0    0 -0.21980820901E+02 -0.87866315122E+01  0.22243807729E+02  0.92516952682E+02  0.86627006011E+02 0.  0.
         13    1    3    3    0    0 -0.50141001883E+02  0.15607374885E+02  0.14232042877E+02  0.54408385651E+02  0.10566000000E+00 0.  1.
         22    1    1    0    0    0  0.21980820901E+02  0.87866315122E+01 -0.22243807729E+02  0.32483047318E+02  0.00000000000E+00 0.  1.
</event>
<event>
 5    1  0.8943113E-005  0.9118800E+02  0.7818608E-02  0.1130116E+00
         25   -1    0    0    0    0  0.00000000000E+00  0.00000000000E+00  0.99999998245E-14  0.12500000000E+03  0.12500000000E+03 0.  0.
        -13    1    3    3    0    0  0.14746307945E+02  0.33177767981E+02 -0.34137786018E+02  0.49835905574E+02  0.10566000000E+00 0.  1.
         23    2    1    0    0    0  0.28222177460E+02  0.69634617111E+00 -0.33570503521E+01  0.96570332650E+02  0.92290753396E+02 0.  0.
         13    1    3    3    0    0  0.13475869515E+02 -0.32481421810E+02  0.30780735665E+02  0.46734427076E+02  0.10566000000E+00 0. -1.
         22    1    1    0    0    0 -0.28222177460E+02 -0.69634617111E+00  0.33570503521E+01  0.28429667350E+02  0.00000000000E+00 0. -1.
</event>
<event>
 5    1  0.8943113E-005  0.9118800E+02  0.7818608E-02  0.1130116E+00
         25   -1    0    0    0    0  0.00000000000E+00  0.00000000000E+00  0.99999998245E-14  0.12500000000E+03  0.12500000000E+03 0.  0.
        -13    1    3    3    0    0  0.49172131933E+02  0.53909683204E+01 -0.25455616023E+02  0.55632370517E+02  0.10566000000E+00 0.  1.
         23    2    1    0    0    0  0.20369014639E+02  0.22288456045E+02 -0.62136886065E+01  0.94173356389E+02  0.88985049852E+02 0.  0.
         13    1    3    3    0    0 -0.28803117293E+02  0.16897487724E+02  0.19241927416E+02  0.38540985871E+02  0.10566000000E+00 0. -1.
         22    1    1    0    0    0 -0.20369014639E+02 -0.22288456045E+02  0.62136886065E+01  0.30826643611E+02  0.00000000000E+00 0.  1.
</event>
<event>
 5    1  0.8943113E-005  0.9118800E+02  0.7818608E-02  0.1130116E+00
         25   -1    0    0    0    0  0.00000000000E+00  0.00000000000E+00  0.99999998245E-14  0.12500000000E+03  0.12500000000E+03 0.  0.
        -13    1    3    3    0    0 -0.13936349364E+01 -0.30348444375E+02 -0.38369509062E+02  0.48940787530E+02  0.10566000000E+00 0. -1.
         23    2    1    0    0    0  0.26508153530E+02 -0.42161433843E+01 -0.10829300626E+02  0.96056402770E+02  0.91592034001E+02 0.  0.
         13    1    3    3    0    0  0.27901788466E+02  0.26132300991E+02  0.27540208436E+02  0.47115615240E+02  0.10566000000E+00 0.  1.
         22    1    1    0    0    0 -0.26508153530E+02  0.42161433843E+01  0.10829300626E+02  0.28943597230E+02  0.00000000000E+00 0.  1.
</event>
<event>
 5    1  0.8943113E-005  0.9118800E+02  0.7818608E-02  0.1130116E+00
         25   -1    0    0    0    0  0.00000000000E+00  0.00000000000E+00  0.99999998245E-14  0.12500000000E+03  0.12500000000E+03 0.  0.
        -13    1    3    3    0    0  0.23540125178E+02  0.48069531153E+02  0.25960188991E+02  0.59487476792E+02  0.10566000000E+00 0. -1.
         23    2    1    0    0    0  0.77709830459E+01  0.15357687423E+02  0.23480823432E+02  0.95886501249E+02  0.91359867077E+02 0.  0.
         13    1    3    3    0    0 -0.15769142132E+02 -0.32711843730E+02 -0.24793655592E+01  0.36399024457E+02  0.10566000000E+00 0.  1.
         22    1    1    0    0    0 -0.77709830459E+01 -0.15357687423E+02 -0.23480823432E+02  0.29113498751E+02  0.00000000000E+00 0. -1.
</event>
<event>
 5    1  0.8943113E-005  0.9118800E+02  0.7818608E-02  0.1130116E+00
         25   -1    0    0    0    0  0.00000000000E+00  0.00000000000E+00  0.99999998245E-14  0.12500000000E+03  0.12500000000E+03 0.  0.
        -13    1    3    3    0    0 -0.28244429985E+02 -0.63287108349E+01 -0.55026994316E+02  0.62175410521E+02  0.10566000000E+00 0.  1.
         23    2    1    0    0    0 -0.12457510277E+02  0.71338691452E+00 -0.29107917794E+02  0.93330308472E+02  0.87792807894E+02 0.  0.
         13    1    3    3    0    0  0.15786919708E+02  0.70420977494E+01  0.25919076521E+02  0.31154897951E+02  0.10566000000E+00 0. -1.
         22    1    1    0    0    0  0.12457510277E+02 -0.71338691452E+00  0.29107917794E+02  0.31669691528E+02  0.00000000000E+00 0.  1.
</event>
<event>
 5    1  0.8943113E-005  0.9118800E+02  0.7818608E-02  0.1130116E+00
         25   -1    0    0    0    0  0.00000000000E+00  0.00000000000E+00  0.99999998245E-14  0.12500000000E+03  0.12500000000E+03 0.  0.
        -13    1    3    3    0    0  0.36248126306E+01 -0.20581879693E+02  0.27388554810E+02  0.34451373513E+02  0.10566000000E+00 0.  1.
         23    2    1    0    0    0  0.12251172870E+02  0.17896365060E+02 -0.19581603854E+02  0.95779967000E+02  0.91213988785E+02 0.  0.
         13    1    3    3    0    0  0.86263602397E+01  0.38478244753E+02 -0.46970158663E+02  0.61328593487E+02  0.10566000000E+00 0. -1.
         22    1    1    0    0    0 -0.12251172870E+02 -0.17896365060E+02  0.19581603854E+02  0.29220033000E+02  0.00000000000E+00 0. -1.
</event>
<event>
 5    1  0.8943113E-005  0.9118800E+02  0.7818608E-02  0.1130116E+00
         25   -1    0    0    0    0  0.00000000000E+00  0.00000000000E+00  0.99999998245E-14  0.12500000000E+03  0.12500000000E+03 0.  0.
        -13    1    3    3    0    0 -0.14458231351E+02 -0.32946812654E+02  0.22987238263E+02  0.42696102924E+02  0.10566000000E+00 0. -1.
         23    2    1    0    0    0  0.27047035996E+02 -0.18004920523E+01  0.89592930806E+01  0.96450869360E+02  0.92128808416E+02 0.  0.
         13    1    3    3    0    0  0.41505267346E+02  0.31146320602E+02 -0.14027945183E+02  0.53754766436E+02  0.10566000000E+00 0.  1.
         22    1    1    0    0    0 -0.27047035996E+02  0.18004920523E+01 -0.89592930806E+01  0.28549130640E+02  0.00000000000E+00 0.  1.
</event>
<event>
 5    1  0.8943113E-005  0.9118800E+02  0.7818608E-02  0.1130116E+00
         25   -1    0    0    0    0  0.00000000000E+00  0.00000000000E+00  0.99999998245E-14  0.12500000000E+03  0.12500000000E+03 0.  0.
        -13    1    3    3    0    0 -0.30860428740E+02 -0.11755854486E+02 -0.97331269381E+01  0.34428347343E+02  0.10566000000E+00 0.  1.
         23    2    1    0    0    0  0.15131164682E+02  0.76964715741E+00  0.26616498800E+02  0.94373499877E+02  0.89265754740E+02 0.  0.
         13    1    3    3    0    0  0.45991593423E+02  0.12525501643E+02  0.36349625739E+02  0.59945152534E+02  0.10566000000E+00 0. -1.
         22    1    1    0    0    0 -0.15131164682E+02 -0.76964715741E+00 -0.26616498800E+02  0.30626500123E+02  0.00000000000E+00 0. -1.
</event>
<event>
 5    1  0.8943113E-005  0.9118800E+02  0.7818608E-02  0.1130116E+00
         25   -1    0    0    0    0  0.00000000000E+00  0.00000000000E+00  0.99999998245E-14  0.12500000000E+03  0.12500000000E+03 0.  0.
        -13    1    3    3    0    0  0.24919052945E+02  0.24234446750E+02  0.13926619549E+02  0.37446355030E+02  0.10566000000E+00 0.  1.
         23    2    1    0    0    0 -0.27891008550E+02 -0.10012915098E+01  0.44881571319E+01  0.96732447982E+02  0.92510064293E+02 0.  0.
         13    1    3    3    0    0 -0.52810061495E+02 -0.25235738260E+02 -0.94384624176E+01  0.59286092952E+02  0.10566000000E+00 0. -1.
         22    1    1    0    0    0  0.27891008550E+02  0.10012915098E+01 -0.44881571319E+01  0.28267552018E+02  0.00000000000E+00 0. -1.
</event>
<event>
 5    1  0.8943113E-005  0.9118800E+02  0.7818608E-02  0.1130116E+00
         25   -1    0    0    0    0  0.00000000000E+00  0.00000000000E+00  0.99999998245E-14  0.12500000000E+03  0.12500000000E+03 0.  0.
        -13    1    3    3    0    0  0.28771562635E+02  0.24688869533E+02  0.44002210376E+02  0.58082258714E+02  0.10566000000E+00 0. -1.
         23    2    1    0    0    0 -0.21951552143E+01  0.16690686499E+02  0.23572540739E+02  0.96033426176E+02  0.91560671383E+02 0.  0.
         13    1    3    3    0    0 -0.30966717849E+02 -0.79981830348E+01 -0.20429669638E+02  0.37951167462E+02  0.10566000000E+00 0.  1.
         22    1    1    0    0    0  0.21951552143E+01 -0.16690686499E+02 -0.23572540739E+02  0.28966573824E+02  0.00000000000E+00 0. -1.
</event>
<event>
 5    1  0.8943113E-005  0.9118800E+02  0.7818608E-02  0.1130116E+00
         25   -1    0    0    0    0  0.00000000000E+00  0.00000000000E+00  0.99999998245E-14  0.12500000000E+03  0.12500000000E+03 0.  0.
        -13    1    3    3    0    0  0.22525463497E+01  0.28863291765E+02  0.27245896757E+02  0.39755674195E+02  0.10566000000E+00 0.  1.
         23    2    1    0    0    0 -0.26328698896E+02  0.35377200026E+01 -0.13161718876E+02  0.95352964867E+02  0.90626934279E+02 0.  0.
         13    1    3    3    0    0 -0.28581245246E+02 -0.25325571762E+02 -0.40407615634E+02  0.55597290672E+02  0.10566000000E+00 0. -1.
         22    1    1    0    0    0  0.26328698896E+02 -0.35377200026E+01  0.13161718876E+02  0.29647035133E+02  0.00000000000E+00 0. -1.
</event>
<event>
 5    1  0.8943113E-005  0.9118800E+02  0.7818608E-02  0.1130116E+00
         25   -1    0    0    0    0  0.00000000000E+00  0.00000000000E+00  0.99999998245E-14  0.12500000000E+03  0.12500000000E+03 0.  0.
        -13    1    3    3    0    0 -0.27606482927E+02 -0.42306651475E+02  0.72769201770E+01  0.51038567671E+02  0.10566000000E+00 0. -1.
         23    2    1    0    0    0 -0.24897710632E+02 -0.31217671387E+00 -0.12039955890E+02  0.97342198445E+02  0.93330325250E+02 0.  0.
         13    1    3    3    0    0  0.27087722954E+01  0.41994474761E+02 -0.19316876067E+02  0.46303630774E+02  0.10566000000E+00 0.  1.
         22    1    1    0    0    0  0.24897710632E+02  0.31217671387E+00  0.12039955890E+02  0.27657801555E+02  0.00000000000E+00 0.  1.
</event>
<event>
 5    1  0.8943113E-005  0.9118800E+02  0.7818608E-02  0.1130116E+00
         25   -1    0    0    0    0  0.00000000000E+00  0.00000000000E+00  0.99999998245E-14  0.12500000000E+03  0.12500000000E+03 0.  0.
        -13    1    3    3    0    0 -0.14710494914E+02 -0.44993370337E+02  0.47490762861E+01  0.47574856011E+02  0.10566000000E+00 0.  1.
         23    2    1    0    0    0 -0.19025877295E+02  0.82430648248E+00  0.21251012750E+02  0.96464600389E+02  0.92147436738E+02 0.  0.
         13    1    3    3    0    0 -0.43153823808E+01  0.45817676819E+02  0.16501936464E+02  0.48889744378E+02  0.10566000000E+00 0. -1.
         22    1    1    0    0    0  0.19025877295E+02 -0.82430648248E+00 -0.21251012750E+02  0.28535399611E+02  0.00000000000E+00 0.  1.
</event>
<event>
 5    1  0.8943113E-005  0.9118800E+02  0.7818608E-02  0.1130116E+00
         25   -1    0    0    0    0  0.00000000000E+00  0.00000000000E+00  0.99999998245E-14  0.12500000000E+03  0.12500000000E+03 0.  0.
        -13    1    3    3    0    0  0.33270836985E+01 -0.30667269340E+02 -0.28633530477E+02  0.42088491614E+02  0.10566000000E+00 0. -1.
         23    2    1    0    0    0 -0.18800196333E+02  0.16378723149E+02 -0.15244992681E+02  0.95774672696E+02  0.91206733162E+02 0.  0.
         13    1    3    3    0    0 -0.22127280031E+02  0.47045992490E+02  0.13388537796E+02  0.53686181083E+02  0.10566000000E+00 0.  1.
         22    1    1    0    0    0  0.18800196333E+02 -0.16378723149E+02  0.15244992681E+02  0.29225327304E+02  0.00000000000E+00 0.  1.
</event>
<event>
 5    1  0.8943113E-005  0.9118800E+02  0.7818608E-02  0.1130116E+00
         25   -1    0    0    0    0  0.00000000000E+00  0.00000000000E+00  0.99999998245E-14  0.12500000000E+03  0.12500000000E+03 0.  0.
        -13    1    3    3    0    0  0.20932683341E+02  0.43095258443E+02 -0.25349277889E+02  0.54203095721E+02  0.10566000000E+00 0. -1.
         23    2    1    0    0    0 -0.11835124919E+02  0.26599259125E+02 -0.78622724250E+01  0.94843639219E+02  0.89921687066E+02 0.  0.
         13    1    3    3    0    0 -0.32767808261E+02 -0.16495999318E+02  0.17487005464E+02  0.40640543498E+02  0.10566000000E+00 0.  1.
         22    1    1    0    0    0  0.11835124919E+02 -0.26599259125E+02  0.78622724250E+01  0.30156360781E+02  0.00000000000E+00 0. -1.
</event>
<event>
 5    1  0.8943113E-005  0.9118800E+02  0.7818608E-02  0.1130116E+00
         25   -1    0    0    0    0  0.00000000000E+00  0.00000000000E+00  0.99999998245E-14  0.12500000000E+03  0.12500000000E+03 0.  0.
        -13    1    3    3    0    0 -0.44355166668E+02  0.20762045160E+02  0.40046631993E+01  0.49137478779E+02  0.10566000000E+00 0.  1.
         23    2    1    0    0    0 -0.75552548898E+01  0.18382109908E+02 -0.22820124016E+02  0.94738772312E+02  0.89775793385E+02 0.  0.
         13    1    3    3    0    0  0.36799911778E+02 -0.23799352520E+01 -0.26824787215E+02  0.45601293533E+02  0.10566000000E+00 0. -1.
         22    1    1    0    0    0  0.75552548898E+01 -0.18382109908E+02  0.22820124016E+02  0.30261227688E+02  0.00000000000E+00 0. -1.
</event>
<event>
 5    1  0.8943113E-005  0.9118800E+02  0.7818608E-02  0.1130116E+00
         25   -1    0    0    0    0  0.00000000000E+00  0.00000000000E+00  0.99999998245E-14  0.12500000000E+03  0.12500000000E+03 0.  0.
        -13    1    3    3    0    0  0.18920661814E+02 -0.20069461255E+02 -0.22163160598E+02  0.35383492907E+02  0.10566000000E+00 0. -1.
         23    2    1    0    0    0  0.14160697228E+02 -0.34540486154E+01  0.30708081930E+02  0.91008205495E+02  0.84421865496E+02 0.  0.
         13    1    3    3    0    0 -0.47599645861E+01  0.16615412639E+02  0.52871242528E+02  0.55624712589E+02  0.10566000000E+00 0.  1.
         22    1    1    0    0    0 -0.14160697228E+02  0.34540486154E+01 -0.30708081930E+02  0.33991794505E+02  0.00000000000E+00 0.  1.
</event>
<event>
 5    1  0.8943113E-005  0.9118800E+02  0.7818608E-02  0.1130116E+00
         25   -1    0    0    0    0  0.00000000000E+00  0.00000000000E+00  0.99999998245E-14  0.12500000000E+03  0.12500000000E+03 0.  0.
        -13    1    3    3    0    0  0.31069766009E+02  0.36237154628E+02  0.27970429461E+02  0.55324658369E+02  0.10566000000E+00 0.  1.
         23    2    1    0    0    0  0.46689350886E+01  0.33618914672E+02  0.44725913093E+01  0.90765011295E+02  0.84061006560E+02 0.  0.
         13    1    3    3    0    0 -0.26400830920E+02 -0.26182399553E+01 -0.23497838151E+02  0.35440352927E+02  0.10566000000E+00 0. -1.
         22    1    1    0    0    0 -0.46689350886E+01 -0.33618914672E+02 -0.44725913093E+01  0.34234988705E+02  0.00000000000E+00 0.  1.
</event>
<event>
 5    1  0.8943113E-005  0.9118800E+02  0.7818608E-02  0.1130116E+00
         25   -1    0    0    0    0  0.00000000000E+00  0.00000000000E+00  0.99999998245E-14  0.12500000000E+03  0.12500000000E+03 0.  0.
        -13    1    3    3    0    0  0.26455133951E+01  0.21196801042E+02 -0.44453774574E+02  0.49319898150E+02  0.10566000000E+00 0.  1.
         23    2    1    0    0    0 -0.22626321128E+02 -0.66962332865E+01 -0.17882903504E+02  0.95392768016E+02  0.90681817384E+02 0.  0.
         13    1    3    3    0    0 -0.25271834523E+02 -0.27893034329E+02  0.26570871071E+02  0.46072869866E+02  0.10566000000E+00 0. -1.
         22    1    1    0    0    0  0.22626321128E+02  0.66962332865E+01  0.17882903504E+02  0.29607231984E+02  0.00000000000E+00 0.  1.
</event>
<event>
 5    1  0.8943113E-005  0.9118800E+02  0.7818608E-02  0.1130116E+00
         25   -1    0    0    0    0  0.00000000000E+00  0.00000000000E+00  0.99999998245E-14  0.12500000000E+03  0.12500000000E+03 0.  0.
        -13    1    3    3    0    0  0.20282940852E+02  0.27015836825E+02  0.33006216231E+02  0.47230018027E+02  0.10566000000E+00 0. -1.
         23    2    1    0    0    0  0.40561759271E+00  0.27554672263E+02 -0.10849711470E+02  0.95383438280E+02  0.90668955933E+02 0.  0.
         13    1    3    3    0    0 -0.19877323259E+02  0.53883543760E+00 -0.43855927700E+02  0.48153420253E+02  0.10566000000E+00 0.  1.
         22    1    1    0    0    0 -0.40561759271E+00 -0.27554672263E+02  0.10849711470E+02  0.29616561720E+02  0.00000000000E+00 0. -1.
</event>
<event>
 5    1  0.8943113E-005  0.9118800E+02  0.7818608E-02  0.1130116E+00
         25   -1    0    0    0    0  0.00000000000E+00  0.00000000000E+00  0.99999998245E-14  0.12500000000E+03  0.12500000000E+03 0.  0.
        -13    1    3    3    0    0 -0.16645031682E+02  0.45288587586E+02 -0.30884444768E+02  0.57288509649E+02  0.10566000000E+00 0.  1.
         23    2    1    0    0    0 -0.20300901829E+02  0.18509311196E+02 -0.11033574663E+01  0.97505662152E+02  0.93549000732E+02 0.  0.
         13    1    3    3    0    0 -0.36558701468E+01 -0.26779276390E+02  0.29781087301E+02  0.40217152502E+02  0.10566000000E+00 0. -1.
         22    1    1    0    0    0  0.20300901829E+02 -0.18509311196E+02  0.11033574663E+01  0.27494337848E+02  0.00000000000E+00 0.  1.
</event>
<event>
 5    1  0.8943113E-005  0.9118800E+02  0.7818608E-02  0.1130116E+00
         25   -1    0    0    0    0  0.00000000000E+00  0.00000000000E+00  0.99999998245E-14  0.12500000000E+03  0.12500000000E+03 0.  0.
        -13    1    3    3    0    0 -0.19060360251E+02 -0.52599564845E+02  0.15224845116E+02  0.57981192016E+02  0.10566000000E+00 0.  1.
         23    2    1    0    0    0 -0.33073111403E+01 -0.36040091509E+02  0.22994419868E+02  0.82121452356E+02  0.70038297303E+02 0.  0.
         13    1    3    3    0    0  0.15753049111E+02  0.16559473336E+02  0.77695747523E+01  0.24140260340E+02  0.10566000000E+00 0. -1.
         22    1    1    0    0    0  0.33073111403E+01  0.36040091509E+02 -0.22994419868E+02  0.42878547644E+02  0.00000000000E+00 0.  1.
</event>
<event>
 5    1  0.8943113E-005  0.9118800E+02  0.7818608E-02  0.1130116E+00
         25   -1    0    0    0    0  0.00000000000E+00  0.00000000000E+00  0.99999998245E-14  0.12500000000E+03  0.12500000000E+03 0.  0.
        -13    1    3    3    0    0  0.40238069437E+01  0.45989449979E+02  0.39158171180E+02  0.60535890725E+02  0.10566000000E+00 0.  1.
         23    2    1    0    0    0  0.82819413901E+01  0.15314681565E+02  0.24868059376E+02  0.94642951366E+02  0.89642277088E+02 0.  0.
         13    1    3    3    0    0  0.42581344464E+01 -0.30674768414E+02 -0.14290111804E+02  0.34107060641E+02  0.10566000000E+00 0. -1.
         22    1    1    0    0    0 -0.82819413901E+01 -0.15314681565E+02 -0.24868059376E+02  0.30357048634E+02  0.00000000000E+00 0.  1.
</event>
<event>
 5    1  0.8943113E-005  0.9118800E+02  0.7818608E-02  0.1130116E+00
         25   -1    0    0    0    0  0.00000000000E+00  0.00000000000E+00  0.99999998245E-14  0.12500000000E+03  0.12500000000E+03 0.  0.
        -13    1    3    3    0    0  0.14837637902E+01 -0.36401086685E+02  0.41203874025E+02  0.55000100596E+02  0.10566000000E+00 0.  1.
         23    2    1    0    0    0  0.15405930322E+02 -0.17972987144E+01  0.24803771582E+02  0.95745939488E+02  0.91167345426E+02 0.  0.
         13    1    3    3    0    0  0.13922166532E+02  0.34603787970E+02 -0.16400102443E+02  0.40745838892E+02  0.10566000000E+00 0. -1.
         22    1    1    0    0    0 -0.15405930322E+02  0.17972987144E+01 -0.24803771582E+02  0.29254060512E+02  0.00000000000E+00 0.  1.
</event>
<event>
 5    1  0.8943113E-005  0.9118800E+02  0.7818608E-02  0.1130116E+00
         25   -1    0    0    0    0  0.00000000000E+00  0.00000000000E+00  0.99999998245E-14  0.12500000000E+03  0.12500000000E+03 0.  0.
        -13    1    3    3    0    0  0.46917396482E+02 -0.49528687192E+00 -0.10696487490E+02  0.48123938019E+02  0.10566000000E+00 0. -1.
         23    2    1    0    0    0  0.52640054894E+01  0.15174162671E+02 -0.25360823469E+02  0.94981067081E+02  0.90112522827E+02 0.  0.
         13    1    3    3    0    0 -0.41653390993E+02  0.15669449543E+02 -0.14664335979E+02  0.46857129062E+02  0.10566000000E+00 0.  1.
         22    1    1    0    0    0 -0.52640054894E+01 -0.15174162671E+02  0.25360823469E+02  0.30018932919E+02  0.00000000000E+00 0.  1.
</event>
<event>
 5    1  0.8943113E-005  0.9118800E+02  0.7818608E-02  0.1130116E+00
         25   -1    0    0    0    0  0.00000000000E+00  0.00000000000E+00  0.99999998245E-14  0.12500000000E+03  0.12500000000E+03 0.  0.
        -13    1    3    3    0    0  0.48310928122E+02 -0.16821736669E+02  0.11362370554E+02  0.52402588001E+02  0.10566000000E+00 0. -1.
         23    2    1    0    0    0  0.26611847926E+02 -0.19682471266E+02 -0.16647441028E+02  0.87949663727E+02  0.79764753694E+02 0.  0.
         13    1    3    3    0    0 -0.21699080197E+02 -0.28607345971E+01 -0.28009811581E+02  0.35547075726E+02  0.10566000000E+00 0.  1.
         22    1    1    0    0    0 -0.26611847926E+02  0.19682471266E+02  0.16647441028E+02  0.37050336273E+02  0.00000000000E+00 0. -1.
</event>
<event>
 5    1  0.8943113E-005  0.9118800E+02  0.7818608E-02  0.1130116E+00
         25   -1    0    0    0    0  0.00000000000E+00  0.00000000000E+00  0.99999998245E-14  0.12500000000E+03  0.12500000000E+03 0.  0.
        -13    1    3    3    0    0 -0.16509254628E+02  0.21159284628E+02  0.29986110085E+02  0.40242375382E+02  0.10566000000E+00 0.  1.
         23    2    1    0    0    0 -0.26588535916E+02 -0.10763007251E+02 -0.11971209599E+02  0.93917811748E+02  0.88625351548E+02 0.  0.
         13    1    3    3    0    0 -0.10079281288E+02 -0.31922291879E+02 -0.41957319683E+02  0.53675436366E+02  0.10566000000E+00 0. -1.
         22    1    1    0    0    0  0.26588535916E+02  0.10763007251E+02  0.11971209599E+02  0.31082188252E+02  0.00000000000E+00 0. -1.
</event>
<event>
 5    1  0.8943113E-005  0.9118800E+02  0.7818608E-02  0.1130116E+00
         25   -1    0    0    0    0  0.00000000000E+00  0.00000000000E+00  0.99999998245E-14  0.12500000000E+03  0.12500000000E+03 0.  0.
        -13    1    3    3    0    0  0.13053626536E+02  0.35896029578E+02  0.12621917565E+02  0.40227429352E+02  0.10566000000E+00 0.  1.
         23    2    1    0    0    0  0.16979142510E+02 -0.81428765902E+00 -0.26178846872E+02  0.93786439352E+02  0.88439865661E+02 0.  0.
         13    1    3    3    0    0  0.39255159747E+01 -0.36710317237E+02 -0.38800764437E+02  0.53559010000E+02  0.10566000000E+00 0. -1.
         22    1    1    0    0    0 -0.16979142510E+02  0.81428765902E+00  0.26178846872E+02  0.31213560648E+02  0.00000000000E+00 0.  1.
</event>
<event>
 5    1  0.8943113E-005  0.9118800E+02  0.7818608E-02  0.1130116E+00
         25   -1    0    0    0    0  0.00000000000E+00  0.00000000000E+00  0.99999998245E-14  0.12500000000E+03  0.12500000000E+03 0.  0.
        -13    1    3    3    0    0 -0.27528052602E+02 -0.74002729394E+00 -0.50235183273E+02  0.57288097568E+02  0.10566000000E+00 0. -1.
         23    2    1    0    0    0 -0.94382296629E+01  0.16764429720E+02 -0.28879730948E+02  0.90298917270E+02  0.83365036541E+02 0.  0.
         13    1    3    3    0    0  0.18089822939E+02  0.17504457014E+02  0.21355452325E+02  0.33010819701E+02  0.10566000000E+00 0.  1.
         22    1    1    0    0    0  0.94382296629E+01 -0.16764429720E+02  0.28879730948E+02  0.34701082730E+02  0.00000000000E+00 0. -1.
</event>
<event>
 5    1  0.8943113E-005  0.9118800E+02  0.7818608E-02  0.1130116E+00
         25   -1    0    0    0    0  0.00000000000E+00  0.00000000000E+00  0.99999998245E-14  0.12500000000E+03  0.12500000000E+03 0.  0.
        -13    1    3    3    0    0  0.38280105133E+02  0.15856453477E+02  0.10556414559E+02  0.42757953860E+02  0.10566000000E+00 0. -1.
         23    2    1    0    0    0  0.87722438236E+01 -0.26935822726E+02  0.10644514537E+02  0.94737870244E+02  0.89774537376E+02 0.  0.
         13    1    3    3    0    0 -0.29507861310E+02 -0.42792276203E+02  0.88099977764E-01  0.51979916384E+02  0.10566000000E+00 0.  1.
         22    1    1    0    0    0 -0.87722438236E+01  0.26935822726E+02 -0.10644514537E+02  0.30262129756E+02  0.00000000000E+00 0.  1.
</event>
<event>
 5    1  0.8943113E-005  0.9118800E+02  0.7818608E-02  0.1130116E+00
         25   -1    0    0    0    0  0.00000000000E+00  0.00000000000E+00  0.99999998245E-14  0.12500000000E+03  0.12500000000E+03 0.  0.
        -13    1    3    3    0    0  0.24524911645E+02 -0.15223954154E+02  0.51104493219E+02  0.58693444800E+02  0.10566000000E+00 0. -1.
         23    2    1    0    0    0  0.10823787187E+02  0.89761311706E+01  0.13133598660E+02  0.10575898356E+03  0.10399397045E+03 0.  0.
         13    1    3    3    0    0 -0.13701124457E+02  0.24200085325E+02 -0.37970894560E+02  0.47065538761E+02  0.10566000000E+00 0.  1.
         22    1    1    0    0    0 -0.10823787187E+02 -0.89761311706E+01 -0.13133598660E+02  0.19241016439E+02  0.00000000000E+00 0. -1.
</event>
<event>
 5    1  0.8943113E-005  0.9118800E+02  0.7818608E-02  0.1130116E+00
         25   -1    0    0    0    0  0.00000000000E+00  0.00000000000E+00  0.99999998245E-14  0.12500000000E+03  0.12500000000E+03 0.  0.
        -13    1    3    3    0    0  0.23395657152E+02  0.17154238117E+02  0.19196723472E+02  0.34787210509E+02  0.10566000000E+00 0. -1.
         23    2    1    0    0    0 -0.85140540943E+01 -0.22328334701E+01 -0.28391891463E+02  0.95275024588E+02  0.90519368905E+02 0.  0.
         13    1    3    3    0    0 -0.31909711247E+02 -0.19387071587E+02 -0.47588614934E+02  0.60487814078E+02  0.10566000000E+00 0.  1.
         22    1    1    0    0    0  0.85140540943E+01  0.22328334701E+01  0.28391891463E+02  0.29724975412E+02  0.00000000000E+00 0.  1.
</event>
<event>
 5    1  0.8943113E-005  0.9118800E+02  0.7818608E-02  0.1130116E+00
         25   -1    0    0    0    0  0.00000000000E+00  0.00000000000E+00  0.99999998245E-14  0.12500000000E+03  0.12500000000E+03 0.  0.
        -13    1    3    3    0    0  0.18528422382E+02  0.52515375532E+02 -0.13566126379E+02  0.57316821721E+02  0.10566000000E+00 0.  1.
         23    2    1    0    0    0  0.25146384322E+02  0.24675743439E+02  0.16573464856E+01  0.89729902805E+02  0.82507428159E+02 0.  0.
         13    1    3    3    0    0  0.66179619405E+01 -0.27839632093E+02  0.15223472865E+02  0.32413081085E+02  0.10566000000E+00 0. -1.
         22    1    1    0    0    0 -0.25146384322E+02 -0.24675743439E+02 -0.16573464856E+01  0.35270097195E+02  0.00000000000E+00 0.  1.
</event>
<event>
 5    1  0.8943113E-005  0.9118800E+02  0.7818608E-02  0.1130116E+00
         25   -1    0    0    0    0  0.00000000000E+00  0.00000000000E+00  0.99999998245E-14  0.12500000000E+03  0.12500000000E+03 0.  0.
        -13    1    3    3    0    0  0.26871677183E+02  0.31141889124E+02 -0.81496268677E+00  0.41140972534E+02  0.10566000000E+00 0. -1.
         23    2    1    0    0    0 -0.18594112699E+02  0.28606179407E+02 -0.13336617727E+02  0.88367775119E+02  0.80417310200E+02 0.  0.
         13    1    3    3    0    0 -0.45465789882E+02 -0.25357097170E+01 -0.12521655040E+02  0.47226802585E+02  0.10566000000E+00 0.  1.
         22    1    1    0    0    0  0.18594112699E+02 -0.28606179407E+02  0.13336617727E+02  0.36632224881E+02  0.00000000000E+00 0.  1.
</event>
<event>
 5    1  0.8943113E-005  0.9118800E+02  0.7818608E-02  0.1130116E+00
         25   -1    0    0    0    0  0.00000000000E+00  0.00000000000E+00  0.99999998245E-14  0.12500000000E+03  0.12500000000E+03 0.  0.
        -13    1    3    3    0    0 -0.19385096468E+02  0.40987615353E+02  0.30006816224E+02  0.54370826381E+02  0.10566000000E+00 0.  1.
         23    2    1    0    0    0  0.24065441890E+01  0.66877575754E+01  0.29128031066E+02  0.95017342511E+02  0.90162828414E+02 0.  0.
         13    1    3    3    0    0  0.21791640657E+02 -0.34299857778E+02 -0.87878515764E+00  0.40646516130E+02  0.10566000000E+00 0. -1.
         22    1    1    0    0    0 -0.24065441890E+01 -0.66877575754E+01 -0.29128031066E+02  0.29982657489E+02  0.00000000000E+00 0.  1.
</event>
<event>
 5    1  0.8943113E-005  0.9118800E+02  0.7818608E-02  0.1130116E+00
         25   -1    0    0    0    0  0.00000000000E+00  0.00000000000E+00  0.99999998245E-14  0.12500000000E+03  0.12500000000E+03 0.  0.
        -13    1    3    3    0    0 -0.30576348372E+02 -0.34504849466E+01  0.20199392096E+02  0.36808226407E+02  0.10566000000E+00 0.  1.
         23    2    1    0    0    0  0.27505205543E+02 -0.36497060435E+01  0.56614232345E+01  0.96682012798E+02  0.92441890934E+02 0.  0.
         13    1    3    3    0    0  0.58081553914E+02 -0.19922109696E+00 -0.14537968861E+02  0.59873786391E+02  0.10566000000E+00 0. -1.
         22    1    1    0    0    0 -0.27505205543E+02  0.36497060435E+01 -0.56614232345E+01  0.28317987202E+02  0.00000000000E+00 0. -1.
</event>
<event>
 5    1  0.8943113E-005  0.9118800E+02  0.7818608E-02  0.1130116E+00
         25   -1    0    0    0    0  0.00000000000E+00  0.00000000000E+00  0.99999998245E-14  0.12500000000E+03  0.12500000000E+03 0.  0.
        -13    1    3    3    0    0  0.17001074157E+02  0.12065479702E+02 -0.50409167007E+02  0.54550046795E+02  0.10566000000E+00 0. -1.
         23    2    1    0    0    0 -0.12333748416E+02  0.15354160337E+02 -0.19884947329E+02  0.97012811504E+02  0.92888120209E+02 0.  0.
         13    1    3    3    0    0 -0.29334822573E+02  0.32886806355E+01  0.30524219678E+02  0.42462764709E+02  0.10566000000E+00 0.  1.
         22    1    1    0    0    0  0.12333748416E+02 -0.15354160337E+02  0.19884947329E+02  0.27987188496E+02  0.00000000000E+00 0. -1.
</event>
<event>
 5    1  0.8943113E-005  0.9118800E+02  0.7818608E-02  0.1130116E+00
         25   -1    0    0    0    0  0.00000000000E+00  0.00000000000E+00  0.99999998245E-14  0.12500000000E+03  0.12500000000E+03 0.  0.
        -13    1    3    3    0    0  0.20229949685E+02 -0.25341880863E+02 -0.46888589334E+02  0.57008883200E+02  0.10566000000E+00 0. -1.
         23    2    1    0    0    0  0.80907766683E+01  0.35413276500E+01 -0.32197978379E+02  0.91612704807E+02  0.85312227738E+02 0.  0.
         13    1    3    3    0    0 -0.12139173017E+02  0.28883208513E+02  0.14690610955E+02  0.34603821607E+02  0.10566000000E+00 0.  1.
         22    1    1    0    0    0 -0.80907766683E+01 -0.35413276500E+01  0.32197978379E+02  0.33387295193E+02  0.00000000000E+00 0. -1.
</event>
<event>
 5    1  0.8943113E-005  0.9118800E+02  0.7818608E-02  0.1130116E+00
         25   -1    0    0    0    0  0.00000000000E+00  0.00000000000E+00  0.99999998245E-14  0.12500000000E+03  0.12500000000E+03 0.  0.
        -13    1    3    3    0    0  0.29128884397E+02  0.20429662027E+02 -0.13321925264E+02  0.37991418156E+02  0.10566000000E+00 0.  1.
         23    2    1    0    0    0  0.37484033798E+01 -0.12189098363E+02  0.26629637595E+02  0.95474379850E+02  0.90794245205E+02 0.  0.
         13    1    3    3    0    0 -0.25380481017E+02 -0.32618760390E+02  0.39951562860E+02  0.57482961693E+02  0.10566000000E+00 0. -1.
         22    1    1    0    0    0 -0.37484033798E+01  0.12189098363E+02 -0.26629637595E+02  0.29525620150E+02  0.00000000000E+00 0. -1.
</event>
<event>
 4    1  0.8943113E-005  0.9118800E+02  0.7818608E-02  0.1130116E+00
         25   -1    0    0    0    0  0.00000000000E+00  0.00000000000E+00  0.99999998245E-14  0.12500000000E+03  0.12500000000E+03 0.  0.
        -13    1    1    0    0    0 -0.15297272556E+01 -0.39760187459E+02  0.23824123272E+02  0.46376853989E+02  0.10566000000E+00 0.  1.
         13    1    1    0    0    0  0.68986760832E+01 -0.12249102727E+02 -0.22243220554E+02  0.26313575849E+02  0.10566000000E+00 0. -1.
         22    1    1    0    0    0 -0.53689488276E+01  0.52009290186E+02 -0.15809027177E+01  0.52309570162E+02  0.00000000000E+00 0.  1.
</event>
<event>
 5    1  0.8943113E-005  0.9118800E+02  0.7818608E-02  0.1130116E+00
         25   -1    0    0    0    0  0.00000000000E+00  0.00000000000E+00  0.99999998245E-14  0.12500000000E+03  0.12500000000E+03 0.  0.
        -13    1    3    3    0    0  0.29540962739E+02  0.39701151250E+02  0.30698644368E+02  0.58234592986E+02  0.10566000000E+00 0. -1.
         23    2    1    0    0    0  0.17624653583E+01  0.15537008562E+02  0.25031171666E+02  0.95486198581E+02  0.90810515059E+02 0.  0.
         13    1    3    3    0    0 -0.27778497381E+02 -0.24164142689E+02 -0.56674727016E+01  0.37251605596E+02  0.10566000000E+00 0.  1.
         22    1    1    0    0    0 -0.17624653583E+01 -0.15537008562E+02 -0.25031171666E+02  0.29513801419E+02  0.00000000000E+00 0. -1.
</event>
<event>
 5    1  0.8943113E-005  0.9118800E+02  0.7818608E-02  0.1130116E+00
         25   -1    0    0    0    0  0.00000000000E+00  0.00000000000E+00  0.99999998245E-14  0.12500000000E+03  0.12500000000E+03 0.  0.
        -13    1    3    3    0    0 -0.10434061003E+02  0.35362068297E+02 -0.56129074957E+01  0.37294254221E+02  0.10566000000E+00 0.  1.
         23    2    1    0    0    0  0.55163849846E+01 -0.18937980778E+02 -0.21247028433E+02  0.96008383341E+02  0.91526476144E+02 0.  0.
         13    1    3    3    0    0  0.15950445987E+02 -0.54300049076E+02 -0.15634120938E+02  0.58714129120E+02  0.10566000000E+00 0. -1.
         22    1    1    0    0    0 -0.55163849846E+01  0.18937980778E+02  0.21247028433E+02  0.28991616659E+02  0.00000000000E+00 0. -1.
</event>
<event>
 5    1  0.8943113E-005  0.9118800E+02  0.7818608E-02  0.1130116E+00
         25   -1    0    0    0    0  0.00000000000E+00  0.00000000000E+00  0.99999998245E-14  0.12500000000E+03  0.12500000000E+03 0.  0.
        -13    1    3    3    0    0  0.86891395654E+01  0.18577347545E+02  0.18297807206E+02  0.27485266977E+02  0.10566000000E+00 0.  1.
         23    2    1    0    0    0 -0.86863786491E+01  0.15671868901E+02 -0.36117918669E+02  0.84681707652E+02  0.74467623253E+02 0.  0.
         13    1    3    3    0    0 -0.17375518215E+02 -0.29054786439E+01 -0.54415725875E+02  0.57196440675E+02  0.10566000000E+00 0. -1.
         22    1    1    0    0    0  0.86863786491E+01 -0.15671868901E+02  0.36117918669E+02  0.40318292348E+02  0.00000000000E+00 0. -1.
</event>
<event>
 5    1  0.8943113E-005  0.9118800E+02  0.7818608E-02  0.1130116E+00
         25   -1    0    0    0    0  0.00000000000E+00  0.00000000000E+00  0.99999998245E-14  0.12500000000E+03  0.12500000000E+03 0.  0.
        -13    1    3    3    0    0 -0.22323302509E+02 -0.13410787984E+02  0.38849467492E+02  0.46770411134E+02  0.10566000000E+00 0.  1.
         23    2    1    0    0    0 -0.12914814460E+02  0.24517020093E+02  0.92720157514E+01  0.95779339794E+02  0.91213129255E+02 0.  0.
         13    1    3    3    0    0  0.94084880484E+01  0.37927808077E+02 -0.29577451740E+02  0.49008928660E+02  0.10566000000E+00 0. -1.
         22    1    1    0    0    0  0.12914814460E+02 -0.24517020093E+02 -0.92720157514E+01  0.29220660206E+02  0.00000000000E+00 0.  1.
</event>
<event>
 5    1  0.8943113E-005  0.9118800E+02  0.7818608E-02  0.1130116E+00
         25   -1    0    0    0    0  0.00000000000E+00  0.00000000000E+00  0.99999998245E-14  0.12500000000E+03  0.12500000000E+03 0.  0.
        -13    1    3    3    0    0 -0.13369112044E+02 -0.37811917931E+02 -0.45272445876E+02  0.60482061920E+02  0.10566000000E+00 0.  1.
         23    2    1    0    0    0 -0.13943205073E+02 -0.25578850653E+02 -0.17055143286E+02  0.91242504818E+02  0.84768073026E+02 0.  0.
         13    1    3    3    0    0 -0.57409302967E+00  0.12233067277E+02  0.28217302590E+02  0.30760442898E+02  0.10566000000E+00 0. -1.
         22    1    1    0    0    0  0.13943205073E+02  0.25578850653E+02  0.17055143286E+02  0.33757495182E+02  0.00000000000E+00 0.  1.
</event>
<event>
 5    1  0.8943113E-005  0.9118800E+02  0.7818608E-02  0.1130116E+00
         25   -1    0    0    0    0  0.00000000000E+00  0.00000000000E+00  0.99999998245E-14  0.12500000000E+03  0.12500000000E+03 0.  0.
        -13    1    3    3    0    0  0.29210724765E+02  0.45643553066E+02 -0.29225117717E+02  0.61568815543E+02  0.10566000000E+00 0.  1.
         23    2    1    0    0    0  0.62954269802E+01  0.23283025021E+02 -0.14941195007E+02  0.96627989792E+02  0.92368812096E+02 0.  0.
         13    1    3    3    0    0 -0.22915297785E+02 -0.22360528045E+02  0.14283922710E+02  0.35059174249E+02  0.10566000000E+00 0. -1.
         22    1    1    0    0    0 -0.62954269802E+01 -0.23283025021E+02  0.14941195007E+02  0.28372010208E+02  0.00000000000E+00 0.  1.
</event>
<event>
 5    1  0.8943113E-005  0.9118800E+02  0.7818608E-02  0.1130116E+00
         25   -1    0    0    0    0  0.00000000000E+00  0.00000000000E+00  0.99999998245E-14  0.12500000000E+03  0.12500000000E+03 0.  0.
        -13    1    3    3    0    0  0.33577884882E+02  0.33728865251E+01 -0.39917136396E+02  0.52270829903E+02  0.10566000000E+00 0.  1.
         23    2    1    0    0    0  0.22473889739E+02  0.20000501255E+02 -0.23550133058E+01  0.94823156923E+02  0.89893210148E+02 0.  0.
         13    1    3    3    0    0 -0.11103995143E+02  0.16627614730E+02  0.37562123090E+02  0.42552327020E+02  0.10566000000E+00 0. -1.
         22    1    1    0    0    0 -0.22473889739E+02 -0.20000501255E+02  0.23550133058E+01  0.30176843077E+02  0.00000000000E+00 0.  1.
</event>
<event>
 5    1  0.8943113E-005  0.9118800E+02  0.7818608E-02  0.1130116E+00
         25   -1    0    0    0    0  0.00000000000E+00  0.00000000000E+00  0.99999998245E-14  0.12500000000E+03  0.12500000000E+03 0.  0.
        -13    1    3    3    0    0 -0.39303466046E+02 -0.91401735668E+01 -0.44837814262E+02  0.60322018931E+02  0.10566000000E+00 0. -1.
         23    2    1    0    0    0 -0.12241338277E+02  0.39371764486E+01 -0.26537066155E+02  0.95511568347E+02  0.90845429642E+02 0.  0.
         13    1    3    3    0    0  0.27062127769E+02  0.13077350015E+02  0.18300748107E+02  0.35189549416E+02  0.10566000000E+00 0.  1.
         22    1    1    0    0    0  0.12241338277E+02 -0.39371764486E+01  0.26537066155E+02  0.29488431653E+02  0.00000000000E+00 0. -1.
</event>
<event>
 5    1  0.8943113E-005  0.9118800E+02  0.7818608E-02  0.1130116E+00
         25   -1    0    0    0    0  0.00000000000E+00  0.00000000000E+00  0.99999998245E-14  0.12500000000E+03  0.12500000000E+03 0.  0.
        -13    1    3    3    0    0 -0.72099233464E+01 -0.95786314734E+01 -0.33195293293E+02  0.35294076506E+02  0.10566000000E+00 0.  1.
         23    2    1    0    0    0  0.22628992366E+02 -0.36295748301E+01  0.18679562561E+02  0.95433614248E+02  0.90738104245E+02 0.  0.
         13    1    3    3    0    0  0.29838915713E+02  0.59490566434E+01  0.51874855854E+02  0.60139537742E+02  0.10566000000E+00 0. -1.
         22    1    1    0    0    0 -0.22628992366E+02  0.36295748301E+01 -0.18679562561E+02  0.29566385752E+02  0.00000000000E+00 0. -1.
</event>
<event>
 5    1  0.8943113E-005  0.9118800E+02  0.7818608E-02  0.1130116E+00
         25   -1    0    0    0    0  0.00000000000E+00  0.00000000000E+00  0.99999998245E-14  0.12500000000E+03  0.12500000000E+03 0.  0.
        -13    1    3    3    0    0 -0.25615663518E+02 -0.28592411749E+02 -0.79125628797E+01  0.39195765619E+02  0.10566000000E+00 0. -1.
         23    2    1    0    0    0  0.25008699315E+02 -0.10902979388E+02  0.10312229456E+02  0.95834059636E+02  0.91288087443E+02 0.  0.
         13    1    3    3    0    0  0.50624362833E+02  0.17689432361E+02  0.18224792336E+02  0.56638294017E+02  0.10566000000E+00 0.  1.
         22    1    1    0    0    0 -0.25008699315E+02  0.10902979388E+02 -0.10312229456E+02  0.29165940364E+02  0.00000000000E+00 0.  1.
</event>
<event>
 5    1  0.8943113E-005  0.9118800E+02  0.7818608E-02  0.1130116E+00
         25   -1    0    0    0    0  0.00000000000E+00  0.00000000000E+00  0.99999998245E-14  0.12500000000E+03  0.12500000000E+03 0.  0.
        -13    1    3    3    0    0  0.12260676724E+02 -0.21461154291E+02 -0.22565660428E+02  0.33468276499E+02  0.10566000000E+00 0.  1.
         23    2    1    0    0    0 -0.14067437488E+02  0.85547915013E+01  0.24684316294E+02  0.95328587394E+02  0.90593304657E+02 0.  0.
         13    1    3    3    0    0 -0.26328114213E+02  0.30015945792E+02  0.47249976722E+02  0.61860310895E+02  0.10566000000E+00 0. -1.
         22    1    1    0    0    0  0.14067437488E+02 -0.85547915013E+01 -0.24684316294E+02  0.29671412606E+02  0.00000000000E+00 0. -1.
</event>
<event>
 5    1  0.8943113E-005  0.9118800E+02  0.7818608E-02  0.1130116E+00
         25   -1    0    0    0    0  0.00000000000E+00  0.00000000000E+00  0.99999998245E-14  0.12500000000E+03  0.12500000000E+03 0.  0.
        -13    1    3    3    0    0  0.25225967952E+02  0.10128866980E+02 -0.34642506673E+02  0.44034734450E+02  0.10566000000E+00 0.  1.
         23    2    1    0    0    0  0.23892599601E+02 -0.11510765982E+02  0.12317689704E+02  0.95758257083E+02  0.91184232578E+02 0.  0.
         13    1    3    3    0    0 -0.13333683516E+01 -0.21639632962E+02  0.46960196377E+02  0.51723522634E+02  0.10566000000E+00 0. -1.
         22    1    1    0    0    0 -0.23892599601E+02  0.11510765982E+02 -0.12317689704E+02  0.29241742917E+02  0.00000000000E+00 0. -1.
</event>
<event>
 5    1  0.8943113E-005  0.9118800E+02  0.7818608E-02  0.1130116E+00
         25   -1    0    0    0    0  0.00000000000E+00  0.00000000000E+00  0.99999998245E-14  0.12500000000E+03  0.12500000000E+03 0.  0.
        -13    1    3    3    0    0 -0.28817847264E+02 -0.26526475124E+02  0.13659369903E+02  0.41481462771E+02  0.10566000000E+00 0. -1.
         23    2    1    0    0    0 -0.54479919008E+01  0.21819760351E+01 -0.27524396708E+02  0.96856900502E+02  0.92678072518E+02 0.  0.
         13    1    3    3    0    0  0.23369855364E+02  0.28708451159E+02 -0.41183766611E+02  0.55375437732E+02  0.10566000000E+00 0.  1.
         22    1    1    0    0    0  0.54479919008E+01 -0.21819760351E+01  0.27524396708E+02  0.28143099498E+02  0.00000000000E+00 0.  1.
</event>
<event>
 5    1  0.8943113E-005  0.9118800E+02  0.7818608E-02  0.1130116E+00
         25   -1    0    0    0    0  0.00000000000E+00  0.00000000000E+00  0.99999998245E-14  0.12500000000E+03  0.12500000000E+03 0.  0.
        -13    1    3    3    0    0  0.93289094087E+01 -0.40594568446E+02 -0.79417400906E+01  0.42403183109E+02  0.10566000000E+00 0.  1.
         23    2    1    0    0    0 -0.28376825017E+02 -0.24712386798E+01 -0.47893959126E+01  0.96115929444E+02  0.91673236886E+02 0.  0.
         13    1    3    3    0    0 -0.37705734426E+02  0.38123329766E+02  0.31523441780E+01  0.53712746335E+02  0.10566000000E+00 0. -1.
         22    1    1    0    0    0  0.28376825017E+02  0.24712386798E+01  0.47893959126E+01  0.28884070556E+02  0.00000000000E+00 0. -1.
</event>
<event>
 5    1  0.8943113E-005  0.9118800E+02  0.7818608E-02  0.1130116E+00
         25   -1    0    0    0    0  0.00000000000E+00  0.00000000000E+00  0.99999998245E-14  0.12500000000E+03  0.12500000000E+03 0.  0.
        -13    1    3    3    0    0  0.23500355544E+02  0.82621116691E-01  0.45186551922E+02  0.50932398094E+02  0.10566000000E+00 0. -1.
         23    2    1    0    0    0  0.61007222764E+01  0.25680052911E+02  0.13031239831E+02  0.95563676498E+02  0.90917100286E+02 0.  0.
         13    1    3    3    0    0 -0.17399633268E+02  0.25597431794E+02 -0.32155312090E+02  0.44631278404E+02  0.10566000000E+00 0.  1.
         22    1    1    0    0    0 -0.61007222764E+01 -0.25680052911E+02 -0.13031239831E+02  0.29436323502E+02  0.00000000000E+00 0. -1.
</event>
<event>
 5    1  0.8943113E-005  0.9118800E+02  0.7818608E-02  0.1130116E+00
         25   -1    0    0    0    0  0.00000000000E+00  0.00000000000E+00  0.99999998245E-14  0.12500000000E+03  0.12500000000E+03 0.  0.
        -13    1    3    3    0    0 -0.16514235255E+02 -0.59243109136E+02  0.11040167563E+02  0.62484897455E+02  0.10566000000E+00 0.  1.
         23    2    1    0    0    0 -0.81747178625E+01 -0.27431295496E+02  0.59743841668E+01  0.95759698174E+02  0.91186208077E+02 0.  0.
         13    1    3    3    0    0  0.83395173925E+01  0.31811813640E+02 -0.50657833957E+01  0.33274800719E+02  0.10566000000E+00 0. -1.
         22    1    1    0    0    0  0.81747178625E+01  0.27431295496E+02 -0.59743841668E+01  0.29240301826E+02  0.00000000000E+00 0.  1.
</event>
<event>
 5    1  0.8943113E-005  0.9118800E+02  0.7818608E-02  0.1130116E+00
         25   -1    0    0    0    0  0.00000000000E+00  0.00000000000E+00  0.99999998245E-14  0.12500000000E+03  0.12500000000E+03 0.  0.
        -13    1    3    3    0    0 -0.27431738125E+02  0.14817184175E+02 -0.19915308134E+02  0.36995673606E+02  0.10566000000E+00 0.  1.
         23    2    1    0    0    0  0.28437791257E+02  0.28138567621E+01 -0.67104236022E+01  0.95646030143E+02  0.91030256156E+02 0.  0.
         13    1    3    3    0    0  0.55869529382E+02 -0.12003327413E+02  0.13204884532E+02  0.58650356537E+02  0.10566000000E+00 0. -1.
         22    1    1    0    0    0 -0.28437791257E+02 -0.28138567621E+01  0.67104236022E+01  0.29353969857E+02  0.00000000000E+00 0. -1.
</event>
<event>
 5    1  0.8943113E-005  0.9118800E+02  0.7818608E-02  0.1130116E+00
         25   -1    0    0    0    0  0.00000000000E+00  0.00000000000E+00  0.99999998245E-14  0.12500000000E+03  0.12500000000E+03 0.  0.
        -13    1    3    3    0    0  0.11804642183E+02  0.38634060169E+02 -0.18540743394E+02  0.44448965251E+02  0.10566000000E+00 0.  1.
         23    2    1    0    0    0  0.22877203092E+02  0.37900217179E+01  0.17623288312E+02  0.95874221438E+02  0.91343064102E+02 0.  0.
         13    1    3    3    0    0  0.11072560909E+02 -0.34844038451E+02  0.36164031706E+02  0.51425256187E+02  0.10566000000E+00 0. -1.
         22    1    1    0    0    0 -0.22877203092E+02 -0.37900217179E+01 -0.17623288312E+02  0.29125778562E+02  0.00000000000E+00 0. -1.
</event>
<event>
 5    1  0.8943113E-005  0.9118800E+02  0.7818608E-02  0.1130116E+00
         25   -1    0    0    0    0  0.00000000000E+00  0.00000000000E+00  0.99999998245E-14  0.12500000000E+03  0.12500000000E+03 0.  0.
        -13    1    3    3    0    0 -0.28666096540E+02 -0.35725703697E+01 -0.15812376499E+02  0.32932518343E+02  0.10566000000E+00 0. -1.
         23    2    1    0    0    0  0.21188643561E+02 -0.20362003608E+02  0.12948326450E+02  0.92887246073E+02  0.87159689755E+02 0.  0.
         13    1    3    3    0    0  0.49854740101E+02 -0.16789433239E+02  0.28760702949E+02  0.59954727730E+02  0.10566000000E+00 0.  1.
         22    1    1    0    0    0 -0.21188643561E+02  0.20362003608E+02 -0.12948326450E+02  0.32112753927E+02  0.00000000000E+00 0.  1.
</event>
<event>
 5    1  0.8943113E-005  0.9118800E+02  0.7818608E-02  0.1130116E+00
         25   -1    0    0    0    0  0.00000000000E+00  0.00000000000E+00  0.99999998245E-14  0.12500000000E+03  0.12500000000E+03 0.  0.
        -13    1    3    3    0    0 -0.20789235876E+02  0.18096983838E+02 -0.53249469621E+02  0.59960072810E+02  0.10566000000E+00 0. -1.
         23    2    1    0    0    0 -0.34064214121E-01  0.16362261355E+02 -0.20512124786E+02  0.98761249644E+02  0.95211934183E+02 0.  0.
         13    1    3    3    0    0  0.20755171662E+02 -0.17347224831E+01  0.32737344835E+02  0.38801176834E+02  0.10566000000E+00 0.  1.
         22    1    1    0    0    0  0.34064214121E-01 -0.16362261355E+02  0.20512124786E+02  0.26238750356E+02  0.00000000000E+00 0. -1.
</event>
<event>
 5    1  0.8943113E-005  0.9118800E+02  0.7818608E-02  0.1130116E+00
         25   -1    0    0    0    0  0.00000000000E+00  0.00000000000E+00  0.99999998245E-14  0.12500000000E+03  0.12500000000E+03 0.  0.
        -13    1    3    3    0    0  0.50814799764E+02  0.12185512822E+02  0.30827796024E+02  0.60671202143E+02  0.10566000000E+00 0.  1.
         23    2    1    0    0    0  0.29397055820E+02  0.40062140223E+01  0.55156502823E+01  0.94822872242E+02  0.89892814288E+02 0.  0.
         13    1    3    3    0    0 -0.21417743944E+02 -0.81792988002E+01 -0.25312145741E+02  0.34151670099E+02  0.10566000000E+00 0. -1.
         22    1    1    0    0    0 -0.29397055820E+02 -0.40062140223E+01 -0.55156502823E+01  0.30177127758E+02  0.00000000000E+00 0.  1.
</event>
<event>
 5    1  0.8943113E-005  0.9118800E+02  0.7818608E-02  0.1130116E+00
         25   -1    0    0    0    0  0.00000000000E+00  0.00000000000E+00  0.99999998245E-14  0.12500000000E+03  0.12500000000E+03 0.  0.
        -13    1    3    3    0    0 -0.14477767416E+02 -0.28626465642E+02  0.49101329055E+02  0.58651785681E+02  0.10566000000E+00 0.  1.
         23    2    1    0    0    0  0.24718401534E+01 -0.30926952837E+01  0.29946511948E+02  0.94792909181E+02  0.89851139644E+02 0.  0.
         13    1    3    3    0    0  0.16949607570E+02  0.25533770358E+02 -0.19154817107E+02  0.36141123501E+02  0.10566000000E+00 0. -1.
         22    1    1    0    0    0 -0.24718401534E+01  0.30926952837E+01 -0.29946511948E+02  0.30207090819E+02  0.00000000000E+00 0.  1.
</event>
<event>
 5    1  0.8943113E-005  0.9118800E+02  0.7818608E-02  0.1130116E+00
         25   -1    0    0    0    0  0.00000000000E+00  0.00000000000E+00  0.99999998245E-14  0.12500000000E+03  0.12500000000E+03 0.  0.
        -13    1    3    3    0    0 -0.24398793634E+02 -0.33287900743E+02  0.25210646970E+02  0.48362933651E+02  0.10566000000E+00 0. -1.
         23    2    1    0    0    0 -0.22711753233E+02  0.12608124240E+02  0.13334458622E+02  0.95800747980E+02  0.91242462675E+02 0.  0.
         13    1    3    3    0    0  0.16870404006E+01  0.45896024983E+02 -0.11876188348E+02  0.47437814329E+02  0.10566000000E+00 0.  1.
         22    1    1    0    0    0  0.22711753233E+02 -0.12608124240E+02 -0.13334458622E+02  0.29199252020E+02  0.00000000000E+00 0. -1.
</event>
<event>
 5    1  0.8943113E-005  0.9118800E+02  0.7818608E-02  0.1130116E+00
         25   -1    0    0    0    0  0.00000000000E+00  0.00000000000E+00  0.99999998245E-14  0.12500000000E+03  0.12500000000E+03 0.  0.
        -13    1    3    3    0    0  0.18650201787E+02 -0.42449352140E+02 -0.25066596895E+02  0.52707902327E+02  0.10566000000E+00 0.  1.
         23    2    1    0    0    0  0.21920248315E+02 -0.10227799339E+01 -0.21274560507E+02  0.94436127703E+02  0.89353410264E+02 0.  0.
         13    1    3    3    0    0  0.32700465282E+01  0.41426572206E+02  0.37920363876E+01  0.41728225376E+02  0.10566000000E+00 0. -1.
         22    1    1    0    0    0 -0.21920248315E+02  0.10227799339E+01  0.21274560507E+02  0.30563872297E+02  0.00000000000E+00 0.  1.
</event>
<event>
 5    1  0.8943113E-005  0.9118800E+02  0.7818608E-02  0.1130116E+00
         25   -1    0    0    0    0  0.00000000000E+00  0.00000000000E+00  0.99999998245E-14  0.12500000000E+03  0.12500000000E+03 0.  0.
        -13    1    3    3    0    0 -0.24530047319E+02  0.27702392790E+02  0.30095372044E+01  0.37124308289E+02  0.10566000000E+00 0. -1.
         23    2    1    0    0    0  0.26046817120E+02  0.26616049719E+01  0.15006709925E+02  0.94821826332E+02  0.89891359891E+02 0.  0.
         13    1    3    3    0    0  0.50576864439E+02 -0.25040787818E+02  0.11997172721E+02  0.57697518043E+02  0.10566000000E+00 0.  1.
         22    1    1    0    0    0 -0.26046817120E+02 -0.26616049719E+01 -0.15006709925E+02  0.30178173668E+02  0.00000000000E+00 0.  1.
</event>
<event>
 5    1  0.8943113E-005  0.9118800E+02  0.7818608E-02  0.1130116E+00
         25   -1    0    0    0    0  0.00000000000E+00  0.00000000000E+00  0.99999998245E-14  0.12500000000E+03  0.12500000000E+03 0.  0.
        -13    1    3    3    0    0  0.10962609537E+02  0.13388396749E+02 -0.40338212403E+02  0.43893171671E+02  0.10566000000E+00 0. -1.
         23    2    1    0    0    0  0.12348811345E+02  0.23780977543E+02  0.10810449834E+02  0.96105470066E+02  0.91658974009E+02 0.  0.
         13    1    3    3    0    0  0.13862018080E+01  0.10392580793E+02  0.51148662237E+02  0.52212298395E+02  0.10566000000E+00 0.  1.
         22    1    1    0    0    0 -0.12348811345E+02 -0.23780977543E+02 -0.10810449834E+02  0.28894529934E+02  0.00000000000E+00 0.  1.
</event>
<event>
 5    1  0.8943113E-005  0.9118800E+02  0.7818608E-02  0.1130116E+00
         25   -1    0    0    0    0  0.00000000000E+00  0.00000000000E+00  0.99999998245E-14  0.12500000000E+03  0.12500000000E+03 0.  0.
        -13    1    3    3    0    0 -0.12428956173E+02 -0.33685178069E+02  0.25631665074E+02  0.44115344174E+02  0.10566000000E+00 0. -1.
         23    2    1    0    0    0  0.90334522383E+01  0.83239049345E+01 -0.14461591328E+02  0.10602558890E+03  0.10431393591E+03 0.  0.
         13    1    3    3    0    0  0.21462408412E+02  0.42009083003E+02 -0.40093256402E+02  0.61910244730E+02  0.10566000000E+00 0.  1.
         22    1    1    0    0    0 -0.90334522383E+01 -0.83239049345E+01  0.14461591328E+02  0.18974411096E+02  0.00000000000E+00 0.  1.
</event>
<event>
 5    1  0.8943113E-005  0.9118800E+02  0.7818608E-02  0.1130116E+00
         25   -1    0    0    0    0  0.00000000000E+00  0.00000000000E+00  0.99999998245E-14  0.12500000000E+03  0.12500000000E+03 0.  0.
        -13    1    3    3    0    0  0.12423588782E+02  0.44175787954E+02 -0.27313380024E+02  0.53402974561E+02  0.10566000000E+00 0. -1.
         23    2    1    0    0    0  0.18145989307E+02  0.20979000138E+02  0.80829282022E+01  0.96108321215E+02  0.91662862184E+02 0.  0.
         13    1    3    3    0    0  0.57224005245E+01 -0.23196787817E+02  0.35396308226E+02  0.42705346654E+02  0.10566000000E+00 0.  1.
         22    1    1    0    0    0 -0.18145989307E+02 -0.20979000138E+02 -0.80829282022E+01  0.28891678785E+02  0.00000000000E+00 0.  1.
</event>
<event>
 5    1  0.8943113E-005  0.9118800E+02  0.7818608E-02  0.1130116E+00
         25   -1    0    0    0    0  0.00000000000E+00  0.00000000000E+00  0.99999998245E-14  0.12500000000E+03  0.12500000000E+03 0.  0.
        -13    1    3    3    0    0  0.37369587020E+02 -0.12810911172E+02  0.31198078217E+02  0.50338223326E+02  0.10566000000E+00 0. -1.
         23    2    1    0    0    0  0.11606033257E+01 -0.27551002356E+02  0.62171458603E+01  0.96732392504E+02  0.92509989331E+02 0.  0.
         13    1    3    3    0    0 -0.36208983694E+02 -0.14740091183E+02 -0.24980932357E+02  0.46394169178E+02  0.10566000000E+00 0.  1.
         22    1    1    0    0    0 -0.11606033257E+01  0.27551002356E+02 -0.62171458603E+01  0.28267607496E+02  0.00000000000E+00 0.  1.
</event>
<event>
 5    1  0.8943113E-005  0.9118800E+02  0.7818608E-02  0.1130116E+00
         25   -1    0    0    0    0  0.00000000000E+00  0.00000000000E+00  0.99999998245E-14  0.12500000000E+03  0.12500000000E+03 0.  0.
        -13    1    3    3    0    0 -0.12583882551E+02  0.40692931997E+02  0.41424564758E+02  0.59416113505E+02  0.10566000000E+00 0. -1.
         23    2    1    0    0    0 -0.11308751046E+02  0.77820824484E+01  0.25589765372E+02  0.95960634490E+02  0.91461241094E+02 0.  0.
         13    1    3    3    0    0  0.12751315048E+01 -0.32910849549E+02 -0.15834799387E+02  0.36544520985E+02  0.10566000000E+00 0.  1.
         22    1    1    0    0    0  0.11308751046E+02 -0.77820824484E+01 -0.25589765372E+02  0.29039365510E+02  0.00000000000E+00 0. -1.
</event>
<event>
 5    1  0.8943113E-005  0.9118800E+02  0.7818608E-02  0.1130116E+00
         25   -1    0    0    0    0  0.00000000000E+00  0.00000000000E+00  0.99999998245E-14  0.12500000000E+03  0.12500000000E+03 0.  0.
        -13    1    3    3    0    0 -0.35897815873E+02 -0.94223618089E+01  0.40027501559E+00  0.37116107967E+02  0.10566000000E+00 0.  1.
         23    2    1    0    0    0  0.15476964112E+02  0.21336386796E+02  0.79487994828E+01  0.97468904256E+02  0.93499872000E+02 0.  0.
         13    1    3    3    0    0  0.51374779985E+02  0.30758748605E+02  0.75485244672E+01  0.60352796289E+02  0.10566000000E+00 0. -1.
         22    1    1    0    0    0 -0.15476964112E+02 -0.21336386796E+02 -0.79487994828E+01  0.27531095744E+02  0.00000000000E+00 0. -1.
</event>
<event>
 5    1  0.8943113E-005  0.9118800E+02  0.7818608E-02  0.1130116E+00
         25   -1    0    0    0    0  0.00000000000E+00  0.00000000000E+00  0.99999998245E-14  0.12500000000E+03  0.12500000000E+03 0.  0.
        -13    1    3    3    0    0  0.16388367187E+02 -0.28622704131E+02  0.24964055354E+02  0.41364876339E+02  0.10566000000E+00 0.  1.
         23    2    1    0    0    0 -0.19895880950E+01  0.22718153382E+02  0.17177993766E+02  0.96449055643E+02  0.92126347538E+02 0.  0.
         13    1    3    3    0    0 -0.18377955282E+02  0.51340857513E+02 -0.77860615878E+01  0.55084179304E+02  0.10566000000E+00 0. -1.
         22    1    1    0    0    0  0.19895880950E+01 -0.22718153382E+02 -0.17177993766E+02  0.28550944357E+02  0.00000000000E+00 0. -1.
</event>
<event>
 5    1  0.8943113E-005  0.9118800E+02  0.7818608E-02  0.1130116E+00
         25   -1    0    0    0    0  0.00000000000E+00  0.00000000000E+00  0.99999998245E-14  0.12500000000E+03  0.12500000000E+03 0.  0.
        -13    1    3    3    0    0 -0.35711023539E+02  0.31885966618E+02  0.10704624783E+02  0.49057030333E+02  0.10566000000E+00 0. -1.
         23    2    1    0    0    0  0.90462591158E+01  0.28737512037E+02  0.16670137484E+01  0.94826197839E+02  0.89897438560E+02 0.  0.
         13    1    3    3    0    0  0.44757282655E+02 -0.31484545815E+01 -0.90376110344E+01  0.45769167505E+02  0.10566000000E+00 0.  1.
         22    1    1    0    0    0 -0.90462591158E+01 -0.28737512037E+02 -0.16670137484E+01  0.30173802161E+02  0.00000000000E+00 0.  1.
</event>
<event>
 5    1  0.8943113E-005  0.9118800E+02  0.7818608E-02  0.1130116E+00
         25   -1    0    0    0    0  0.00000000000E+00  0.00000000000E+00  0.99999998245E-14  0.12500000000E+03  0.12500000000E+03 0.  0.
        -13    1    3    3    0    0  0.14259587294E+02 -0.27356898675E+02 -0.32228051278E+02  0.44613834044E+02  0.10566000000E+00 0. -1.
         23    2    1    0    0    0  0.62605542933E+01  0.21409727783E+02 -0.18809936320E+02  0.95821502983E+02  0.91270892105E+02 0.  0.
         13    1    3    3    0    0 -0.79990330003E+01  0.48766626458E+02  0.13418114958E+02  0.51207668938E+02  0.10566000000E+00 0.  1.
         22    1    1    0    0    0 -0.62605542933E+01 -0.21409727783E+02  0.18809936320E+02  0.29178497017E+02  0.00000000000E+00 0.  1.
</event>
<event>
 5    1  0.8943113E-005  0.9118800E+02  0.7818608E-02  0.1130116E+00
         25   -1    0    0    0    0  0.00000000000E+00  0.00000000000E+00  0.99999998245E-14  0.12500000000E+03  0.12500000000E+03 0.  0.
        -13    1    3    3    0    0  0.18693720235E+02 -0.52201448349E+02 -0.25717123258E+02  0.61121419966E+02  0.10566000000E+00 0.  1.
         23    2    1    0    0    0  0.56263861064E-01 -0.27020971627E+02 -0.13990169695E+02  0.94572037180E+02  0.89543337524E+02 0.  0.
         13    1    3    3    0    0 -0.18637456374E+02  0.25180476722E+02  0.11726953563E+02  0.33450617213E+02  0.10566000000E+00 0. -1.
         22    1    1    0    0    0 -0.56263861064E-01  0.27020971627E+02  0.13990169695E+02  0.30427962820E+02  0.00000000000E+00 0.  1.
</event>
<event>
 5    1  0.8943113E-005  0.9118800E+02  0.7818608E-02  0.1130116E+00
         25   -1    0    0    0    0  0.00000000000E+00  0.00000000000E+00  0.99999998245E-14  0.12500000000E+03  0.12500000000E+03 0.  0.
        -13    1    3    3    0    0  0.45703572467E+02  0.51040177940E+01 -0.21513155650E+02  0.50771001211E+02  0.10566000000E+00 0.  1.
         23    2    1    0    0    0  0.26247938862E+01 -0.17668703754E+01 -0.29679602368E+02  0.95152216656E+02  0.90349621825E+02 0.  0.
         13    1    3    3    0    0 -0.43078778581E+02 -0.68708881694E+01 -0.81664467180E+01  0.44381215444E+02  0.10566000000E+00 0. -1.
         22    1    1    0    0    0 -0.26247938862E+01  0.17668703754E+01  0.29679602368E+02  0.29847783344E+02  0.00000000000E+00 0. -1.
</event>
<event>
 5    1  0.8943113E-005  0.9118800E+02  0.7818608E-02  0.1130116E+00
         25   -1    0    0    0    0  0.00000000000E+00  0.00000000000E+00  0.99999998245E-14  0.12500000000E+03  0.12500000000E+03 0.  0.
        -13    1    3    3    0    0 -0.67899596388E+01 -0.43977828039E+02 -0.78464173056E+00  0.44505951710E+02  0.10566000000E+00 0.  1.
         23    2    1    0    0    0  0.23417404677E+02 -0.53536433917E+01  0.15776304710E+02  0.96261034645E+02  0.91870880377E+02 0.  0.
         13    1    3    3    0    0  0.30207364316E+02  0.38624184647E+02  0.16560946440E+02  0.51755082935E+02  0.10566000000E+00 0. -1.
         22    1    1    0    0    0 -0.23417404677E+02  0.53536433917E+01 -0.15776304710E+02  0.28738965355E+02  0.00000000000E+00 0. -1.
</event>
<event>
 5    1  0.8943113E-005  0.9118800E+02  0.7818608E-02  0.1130116E+00
         25   -1    0    0    0    0  0.00000000000E+00  0.00000000000E+00  0.99999998245E-14  0.12500000000E+03  0.12500000000E+03 0.  0.
        -13    1    3    3    0    0  0.47660958506E+02 -0.30836626343E+02  0.18085910149E+02  0.59578316525E+02  0.10566000000E+00 0. -1.
         23    2    1    0    0    0  0.25356987163E+02 -0.96289687741E+00  0.46811343804E+01  0.99196570238E+02  0.95781744396E+02 0.  0.
         13    1    3    3    0    0 -0.22303971343E+02  0.29873729466E+02 -0.13404775769E+02  0.39618253714E+02  0.10566000000E+00 0.  1.
         22    1    1    0    0    0 -0.25356987163E+02  0.96289687741E+00 -0.46811343804E+01  0.25803429762E+02  0.00000000000E+00 0. -1.
</event>
<event>
 5    1  0.8943113E-005  0.9118800E+02  0.7818608E-02  0.1130116E+00
         25   -1    0    0    0    0  0.00000000000E+00  0.00000000000E+00  0.99999998245E-14  0.12500000000E+03  0.12500000000E+03 0.  0.
        -13    1    3    3    0    0 -0.19670346665E+02 -0.68119593310E+01 -0.36699642589E+02  0.42192419438E+02  0.10566000000E+00 0. -1.
         23    2    1    0    0    0  0.29941625183E+01  0.26315537974E+02  0.26255118446E+01  0.98384856557E+02  0.94716493492E+02 0.  0.
         13    1    3    3    0    0  0.22664509183E+02  0.33127497304E+02  0.39325154434E+02  0.56192437119E+02  0.10566000000E+00 0.  1.
         22    1    1    0    0    0 -0.29941625183E+01 -0.26315537974E+02 -0.26255118446E+01  0.26615143443E+02  0.00000000000E+00 0.  1.
</event>
<event>
 5    1  0.8943113E-005  0.9118800E+02  0.7818608E-02  0.1130116E+00
         25   -1    0    0    0    0  0.00000000000E+00  0.00000000000E+00  0.99999998245E-14  0.12500000000E+03  0.12500000000E+03 0.  0.
        -13    1    3    3    0    0 -0.55427979215E+02  0.19094175798E+02  0.26520998116E+01  0.58684693292E+02  0.10566000000E+00 0.  1.
         23    2    1    0    0    0 -0.21597764642E+02  0.17905641884E+02  0.12996199332E+02  0.94081127998E+02  0.88855399383E+02 0.  0.
         13    1    3    3    0    0  0.33830214574E+02 -0.11885339140E+01  0.10344099521E+02  0.35396434706E+02  0.10566000000E+00 0. -1.
         22    1    1    0    0    0  0.21597764642E+02 -0.17905641884E+02 -0.12996199332E+02  0.30918872002E+02  0.00000000000E+00 0.  1.
</event>
<event>
 5    1  0.8943113E-005  0.9118800E+02  0.7818608E-02  0.1130116E+00
         25   -1    0    0    0    0  0.00000000000E+00  0.00000000000E+00  0.99999998245E-14  0.12500000000E+03  0.12500000000E+03 0.  0.
        -13    1    3    3    0    0 -0.92410117501E+01 -0.43980390412E+02  0.21883029797E+02  0.49985489856E+02  0.10566000000E+00 0. -1.
         23    2    1    0    0    0 -0.23699218558E+02 -0.94724741647E+01 -0.84119672347E+01  0.98127301590E+02  0.94375978923E+02 0.  0.
         13    1    3    3    0    0 -0.14458206808E+02  0.34507916248E+02 -0.30294997032E+02  0.48141811734E+02  0.10566000000E+00 0.  1.
         22    1    1    0    0    0  0.23699218558E+02  0.94724741647E+01  0.84119672347E+01  0.26872698410E+02  0.00000000000E+00 0. -1.
</event>
<event>
 5    1  0.8943113E-005  0.9118800E+02  0.7818608E-02  0.1130116E+00
         25   -1    0    0    0    0  0.00000000000E+00  0.00000000000E+00  0.99999998245E-14  0.12500000000E+03  0.12500000000E+03 0.  0.
        -13    1    3    3    0    0 -0.96301367705E+01  0.48461373713E+02  0.44079729785E+00  0.49411028553E+02  0.10566000000E+00 0. -1.
         23    2    1    0    0    0 -0.24889617956E+02  0.10510464116E+02  0.16486134356E+02  0.93349477667E+02  0.87820096885E+02 0.  0.
         13    1    3    3    0    0 -0.15259481185E+02 -0.37950909596E+02  0.16045337058E+02  0.43938449114E+02  0.10566000000E+00 0.  1.
         22    1    1    0    0    0  0.24889617956E+02 -0.10510464116E+02 -0.16486134356E+02  0.31650522333E+02  0.00000000000E+00 0.  1.
</event>
<event>
 5    1  0.8943113E-005  0.9118800E+02  0.7818608E-02  0.1130116E+00
         25   -1    0    0    0    0  0.00000000000E+00  0.00000000000E+00  0.99999998245E-14  0.12500000000E+03  0.12500000000E+03 0.  0.
        -13    1    3    3    0    0 -0.40351487403E+02 -0.34594598124E+02 -0.28234332162E+02  0.60184860486E+02  0.10566000000E+00 0.  1.
         23    2    1    0    0    0 -0.11642116532E+02 -0.24839766193E+02 -0.88411011413E+01  0.96177822232E+02  0.91757591283E+02 0.  0.
         13    1    3    3    0    0  0.28709370871E+02  0.97548319307E+01  0.19393231021E+02  0.35992961746E+02  0.10566000000E+00 0. -1.
         22    1    1    0    0    0  0.11642116532E+02  0.24839766193E+02  0.88411011413E+01  0.28822177768E+02  0.00000000000E+00 0.  1.
</event>
<event>
 5    1  0.8943113E-005  0.9118800E+02  0.7818608E-02  0.1130116E+00
         25   -1    0    0    0    0  0.00000000000E+00  0.00000000000E+00  0.99999998245E-14  0.12500000000E+03  0.12500000000E+03 0.  0.
        -13    1    3    3    0    0 -0.20666370608E+01  0.12581791197E+02  0.40489715247E+02  0.42449978366E+02  0.10566000000E+00 0. -1.
         23    2    1    0    0    0  0.26138141664E+02  0.13086967020E+02 -0.43716773977E+01  0.95443567220E+02  0.90751814334E+02 0.  0.
         13    1    3    3    0    0  0.28204778724E+02  0.50517582330E+00 -0.44861392645E+02  0.52993588854E+02  0.10566000000E+00 0.  1.
         22    1    1    0    0    0 -0.26138141664E+02 -0.13086967020E+02  0.43716773977E+01  0.29556432780E+02  0.00000000000E+00 0.  1.
</event>
<event>
 5    1  0.8943113E-005  0.9118800E+02  0.7818608E-02  0.1130116E+00
         25   -1    0    0    0    0  0.00000000000E+00  0.00000000000E+00  0.99999998245E-14  0.12500000000E+03  0.12500000000E+03 0.  0.
        -13    1    3    3    0    0  0.25233240685E+02  0.18885756456E+02  0.22869399670E+02  0.38941094460E+02  0.10566000000E+00 0.  1.
         23    2    1    0    0    0  0.71963497189E+01 -0.40742886913E+01 -0.27018022615E+02  0.96744720429E+02  0.92526645390E+02 0.  0.
         13    1    3    3    0    0 -0.18036890966E+02 -0.22960045148E+02 -0.49887422285E+02  0.57803625969E+02  0.10566000000E+00 0. -1.
         22    1    1    0    0    0 -0.71963497189E+01  0.40742886913E+01  0.27018022615E+02  0.28255279571E+02  0.00000000000E+00 0. -1.
</event>
<event>
 5    1  0.8943113E-005  0.9118800E+02  0.7818608E-02  0.1130116E+00
         25   -1    0    0    0    0  0.00000000000E+00  0.00000000000E+00  0.99999998245E-14  0.12500000000E+03  0.12500000000E+03 0.  0.
        -13    1    3    3    0    0  0.12211076961E+02 -0.21458137412E+02  0.28093082461E+02  0.37400461333E+02  0.10566000000E+00 0. -1.
         23    2    1    0    0    0  0.24488708080E+02  0.98535325543E+01 -0.16961159366E+02  0.93623737408E+02  0.88209604647E+02 0.  0.
         13    1    3    3    0    0  0.12277631119E+02  0.31311669966E+02 -0.45054241827E+02  0.56223276075E+02  0.10566000000E+00 0.  1.
         22    1    1    0    0    0 -0.24488708080E+02 -0.98535325543E+01  0.16961159366E+02  0.31376262592E+02  0.00000000000E+00 0.  1.
</event>
<event>
 5    1  0.8943113E-005  0.9118800E+02  0.7818608E-02  0.1130116E+00
         25   -1    0    0    0    0  0.00000000000E+00  0.00000000000E+00  0.99999998245E-14  0.12500000000E+03  0.12500000000E+03 0.  0.
        -13    1    3    3    0    0  0.43813581477E+02 -0.14523867593E+02 -0.26789106985E+02  0.53368905449E+02  0.10566000000E+00 0.  1.
         23    2    1    0    0    0  0.66161756696E+01 -0.26226043307E+02 -0.71853442632E+01  0.97014141068E+02  0.92889909392E+02 0.  0.
         13    1    3    3    0    0 -0.37197405808E+02 -0.11702175713E+02  0.19603762722E+02  0.43645235618E+02  0.10566000000E+00 0. -1.
         22    1    1    0    0    0 -0.66161756696E+01  0.26226043307E+02  0.71853442632E+01  0.27985858932E+02  0.00000000000E+00 0.  1.
</event>
<event>
 5    1  0.8943113E-005  0.9118800E+02  0.7818608E-02  0.1130116E+00
         25   -1    0    0    0    0  0.00000000000E+00  0.00000000000E+00  0.99999998245E-14  0.12500000000E+03  0.12500000000E+03 0.  0.
        -13    1    3    3    0    0 -0.31914553565E+02  0.80267917601E+01 -0.21846579969E+02  0.39500029565E+02  0.10566000000E+00 0.  1.
         23    2    1    0    0    0  0.56852751561E+01  0.23548146934E+02  0.16729040745E+02  0.95560258461E+02  0.90912400778E+02 0.  0.
         13    1    3    3    0    0  0.37599828721E+02  0.15521355174E+02  0.38575620715E+02  0.56060228896E+02  0.10566000000E+00 0. -1.
         22    1    1    0    0    0 -0.56852751561E+01 -0.23548146934E+02 -0.16729040745E+02  0.29439741539E+02  0.00000000000E+00 0. -1.
</event>
<event>
 5    1  0.8943113E-005  0.9118800E+02  0.7818608E-02  0.1130116E+00
         25   -1    0    0    0    0  0.00000000000E+00  0.00000000000E+00  0.99999998245E-14  0.12500000000E+03  0.12500000000E+03 0.  0.
        -13    1    3    3    0    0 -0.14316473558E+02 -0.62578297182E+01  0.55117191759E+02  0.57289072600E+02  0.10566000000E+00 0.  1.
         23    2    1    0    0    0 -0.23056500444E+02  0.15821019278E+00  0.18618410026E+02  0.95364338457E+02  0.90642620297E+02 0.  0.
         13    1    3    3    0    0 -0.87400268859E+01  0.64160399110E+01 -0.36498781733E+02  0.38075265857E+02  0.10566000000E+00 0. -1.
         22    1    1    0    0    0  0.23056500444E+02 -0.15821019278E+00 -0.18618410026E+02  0.29635661543E+02  0.00000000000E+00 0.  1.
</event>
<event>
 5    1  0.8943113E-005  0.9118800E+02  0.7818608E-02  0.1130116E+00
         25   -1    0    0    0    0  0.00000000000E+00  0.00000000000E+00  0.99999998245E-14  0.12500000000E+03  0.12500000000E+03 0.  0.
        -13    1    3    3    0    0 -0.10496388505E+02 -0.13555168548E+02 -0.38361645420E+02  0.42018374187E+02  0.10566000000E+00 0.  1.
         23    2    1    0    0    0  0.28359481888E+02 -0.44948202461E+01 -0.16460040816E+01  0.96239385413E+02  0.91841419595E+02 0.  0.
         13    1    3    3    0    0  0.38855870394E+02  0.90603483016E+01  0.36715641338E+02  0.54221011225E+02  0.10566000000E+00 0. -1.
         22    1    1    0    0    0 -0.28359481888E+02  0.44948202461E+01  0.16460040816E+01  0.28760614587E+02  0.00000000000E+00 0.  1.
</event>
<event>
 5    1  0.8943113E-005  0.9118800E+02  0.7818608E-02  0.1130116E+00
         25   -1    0    0    0    0  0.00000000000E+00  0.00000000000E+00  0.99999998245E-14  0.12500000000E+03  0.12500000000E+03 0.  0.
        -13    1    3    3    0    0  0.97179856472E+01  0.54337367843E+02  0.15110545775E+02  0.57230486166E+02  0.10566000000E+00 0.  1.
         23    2    1    0    0    0  0.21362094102E+02  0.18094392165E+02  0.65004773659E+01  0.96259744291E+02  0.91869124698E+02 0.  0.
         13    1    3    3    0    0  0.11644108455E+02 -0.36242975678E+02 -0.86100684091E+01  0.39029258125E+02  0.10566000000E+00 0. -1.
         22    1    1    0    0    0 -0.21362094102E+02 -0.18094392165E+02 -0.65004773659E+01  0.28740255709E+02  0.00000000000E+00 0.  1.
</event>
<event>
 5    1  0.8943113E-005  0.9118800E+02  0.7818608E-02  0.1130116E+00
         25   -1    0    0    0    0  0.00000000000E+00  0.00000000000E+00  0.99999998245E-14  0.12500000000E+03  0.12500000000E+03 0.  0.
        -13    1    3    3    0    0 -0.50123722446E+02 -0.11104565459E+02  0.31905211905E+02  0.60445451745E+02  0.10566000000E+00 0.  1.
         23    2    1    0    0    0 -0.22479648281E+02  0.62918751629E+01  0.15327070482E+02  0.97074359999E+02  0.92970909427E+02 0.  0.
         13    1    3    3    0    0  0.27644074165E+02  0.17396440622E+02 -0.16578141423E+02  0.36628908254E+02  0.10566000000E+00 0. -1.
         22    1    1    0    0    0  0.22479648281E+02 -0.62918751629E+01 -0.15327070482E+02  0.27925640001E+02  0.00000000000E+00 0.  1.
</event>
<event>
 5    1  0.8943113E-005  0.9118800E+02  0.7818608E-02  0.1130116E+00
         25   -1    0    0    0    0  0.00000000000E+00  0.00000000000E+00  0.99999998245E-14  0.12500000000E+03  0.12500000000E+03 0.  0.
        -13    1    3    3    0    0 -0.25833744154E+02 -0.23642814456E+02 -0.43820139006E+02  0.56094391511E+02  0.10566000000E+00 0. -1.
         23    2    1    0    0    0 -0.15765029846E+02  0.83262815167E+01 -0.24232052043E+02  0.94915860056E+02  0.90022025161E+02 0.  0.
         13    1    3    3    0    0  0.10068714308E+02  0.31969095973E+02  0.19588086963E+02  0.38821468546E+02  0.10566000000E+00 0.  1.
         22    1    1    0    0    0  0.15765029846E+02 -0.83262815167E+01  0.24232052043E+02  0.30084139944E+02  0.00000000000E+00 0. -1.
</event>
<event>
 5    1  0.8943113E-005  0.9118800E+02  0.7818608E-02  0.1130116E+00
         25   -1    0    0    0    0  0.00000000000E+00  0.00000000000E+00  0.99999998245E-14  0.12500000000E+03  0.12500000000E+03 0.  0.
        -13    1    3    3    0    0  0.10653070772E+02  0.57881044554E+02 -0.12385190631E+02  0.60142392258E+02  0.10566000000E+00 0. -1.
         23    2    1    0    0    0 -0.61806703344E+01  0.27536209815E+02 -0.10478126323E+02  0.94896268205E+02  0.89994816802E+02 0.  0.
         13    1    3    3    0    0 -0.16833741106E+02 -0.30344834739E+02  0.19070643082E+01  0.34753875947E+02  0.10566000000E+00 0.  1.
         22    1    1    0    0    0  0.61806703344E+01 -0.27536209815E+02  0.10478126323E+02  0.30103731795E+02  0.00000000000E+00 0. -1.
</event>
<event>
 5    1  0.8943113E-005  0.9118800E+02  0.7818608E-02  0.1130116E+00
         25   -1    0    0    0    0  0.00000000000E+00  0.00000000000E+00  0.99999998245E-14  0.12500000000E+03  0.12500000000E+03 0.  0.
        -13    1    3    3    0    0 -0.24609885567E+02  0.26904787667E+02 -0.48093918950E+02  0.60353543981E+02  0.10566000000E+00 0.  1.
         23    2    1    0    0    0 -0.20099370098E+02  0.15404952066E+02 -0.15261681099E+02  0.95432853765E+02  0.90737056604E+02 0.  0.
         13    1    3    3    0    0  0.45105154691E+01 -0.11499835601E+02  0.32832237850E+02  0.35079309784E+02  0.10566000000E+00 0. -1.
         22    1    1    0    0    0  0.20099370098E+02 -0.15404952066E+02  0.15261681099E+02  0.29567146235E+02  0.00000000000E+00 0.  1.
</event>
<event>
 5    1  0.8943113E-005  0.9118800E+02  0.7818608E-02  0.1130116E+00
         25   -1    0    0    0    0  0.00000000000E+00  0.00000000000E+00  0.99999998245E-14  0.12500000000E+03  0.12500000000E+03 0.  0.
        -13    1    3    3    0    0  0.22548099000E+01  0.42160463333E+02 -0.31547061525E+02  0.52705000626E+02  0.10566000000E+00 0.  1.
         23    2    1    0    0    0  0.10087377585E+02 -0.78058460326E+00 -0.26486304965E+02  0.96647066297E+02  0.92394624163E+02 0.  0.
         13    1    3    3    0    0  0.78325676849E+01 -0.42941047936E+02  0.50607565594E+01  0.43942065670E+02  0.10566000000E+00 0. -1.
         22    1    1    0    0    0 -0.10087377585E+02  0.78058460326E+00  0.26486304965E+02  0.28352933703E+02  0.00000000000E+00 0.  1.
</event>
<event>
 5    1  0.8943113E-005  0.9118800E+02  0.7818608E-02  0.1130116E+00
         25   -1    0    0    0    0  0.00000000000E+00  0.00000000000E+00  0.99999998245E-14  0.12500000000E+03  0.12500000000E+03 0.  0.
        -13    1    3    3    0    0  0.25448622740E+01 -0.56196341824E+01 -0.48645459651E+02  0.49035176363E+02  0.10566000000E+00 0.  1.
         23    2    1    0    0    0  0.26157097028E+02 -0.52838790768E+01 -0.62058786684E+01  0.97602444761E+02  0.93678232211E+02 0.  0.
         13    1    3    3    0    0  0.23612234754E+02  0.33575510554E+00  0.42439580982E+02  0.48567268397E+02  0.10566000000E+00 0. -1.
         22    1    1    0    0    0 -0.26157097028E+02  0.52838790768E+01  0.62058786684E+01  0.27397555239E+02  0.00000000000E+00 0. -1.
</event>
<event>
 5    1  0.8943113E-005  0.9118800E+02  0.7818608E-02  0.1130116E+00
         25   -1    0    0    0    0  0.00000000000E+00  0.00000000000E+00  0.99999998245E-14  0.12500000000E+03  0.12500000000E+03 0.  0.
        -13    1    3    3    0    0 -0.22173838289E+02 -0.94911532952E+01  0.28014410216E+02  0.36967275246E+02  0.10566000000E+00 0. -1.
         23    2    1    0    0    0  0.17772593965E+02  0.25000363884E+02  0.98038473251E+01  0.92797535607E+02  0.87030936464E+02 0.  0.
         13    1    3    3    0    0  0.39946432255E+02  0.34491517179E+02 -0.18210562891E+02  0.55830260361E+02  0.10566000000E+00 0.  1.
         22    1    1    0    0    0 -0.17772593965E+02 -0.25000363884E+02 -0.98038473251E+01  0.32202464393E+02  0.00000000000E+00 0.  1.
</event>
<event>
 5    1  0.8943113E-005  0.9118800E+02  0.7818608E-02  0.1130116E+00
         25   -1    0    0    0    0  0.00000000000E+00  0.00000000000E+00  0.99999998245E-14  0.12500000000E+03  0.12500000000E+03 0.  0.
        -13    1    3    3    0    0 -0.20907741838E+02  0.23368824964E+02 -0.25124979849E+02  0.40180983380E+02  0.10566000000E+00 0.  1.
         23    2    1    0    0    0  0.81176743109E+01 -0.23075004140E+02 -0.16173074101E+02  0.95675594155E+02  0.91070843516E+02 0.  0.
         13    1    3    3    0    0  0.29025416149E+02 -0.46443829104E+02  0.89519057476E+01  0.55494610775E+02  0.10566000000E+00 0. -1.
         22    1    1    0    0    0 -0.81176743109E+01  0.23075004140E+02  0.16173074101E+02  0.29324405845E+02  0.00000000000E+00 0. -1.
</event>
<event>
 4    1  0.8943113E-005  0.9118800E+02  0.7818608E-02  0.1130116E+00
         25   -1    0    0    0    0  0.00000000000E+00  0.00000000000E+00  0.99999998245E-14  0.12500000000E+03  0.12500000000E+03 0.  0.
        -13    1    1    0    0    0  0.34807816738E+02 -0.12341773624E+02 -0.20406410185E+02  0.42194030655E+02  0.10566000000E+00 0.  1.
         13    1    1    0    0    0  0.81328412665E+01 -0.23150027471E+02  0.58062849712E+01  0.25214896156E+02  0.10566000000E+00 0. -1.
         22    1    1    0    0    0 -0.42940658005E+02  0.35491801094E+02  0.14600125214E+02  0.57591073189E+02  0.00000000000E+00 0. -1.
</event>
<event>
 5    1  0.8943113E-005  0.9118800E+02  0.7818608E-02  0.1130116E+00
         25   -1    0    0    0    0  0.00000000000E+00  0.00000000000E+00  0.99999998245E-14  0.12500000000E+03  0.12500000000E+03 0.  0.
        -13    1    3    3    0    0  0.36242267960E+01 -0.46992201909E+02 -0.34562734270E+02  0.58446521063E+02  0.10566000000E+00 0.  1.
         23    2    1    0    0    0 -0.85641164147E+00 -0.29702719574E+02 -0.24601604229E+01  0.95183270127E+02  0.90392574539E+02 0.  0.
         13    1    3    3    0    0 -0.44806384375E+01  0.17289482334E+02  0.32102573847E+02  0.36736749064E+02  0.10566000000E+00 0. -1.
         22    1    1    0    0    0  0.85641164147E+00  0.29702719574E+02  0.24601604229E+01  0.29816729873E+02  0.00000000000E+00 0.  1.
</event>
<event>
 5    1  0.8943113E-005  0.9118800E+02  0.7818608E-02  0.1130116E+00
         25   -1    0    0    0    0  0.00000000000E+00  0.00000000000E+00  0.99999998245E-14  0.12500000000E+03  0.12500000000E+03 0.  0.
        -13    1    3    3    0    0  0.17709744027E+02  0.52434468887E+02 -0.40682688036E+01  0.55493878365E+02  0.10566000000E+00 0. -1.
         23    2    1    0    0    0  0.49647133767E+01  0.35895595455E+02  0.16838364747E+02  0.85041613154E+02  0.75069323218E+02 0.  0.
         13    1    3    3    0    0 -0.12745030650E+02 -0.16538873432E+02  0.20906633551E+02  0.29547734788E+02  0.10566000000E+00 0.  1.
         22    1    1    0    0    0 -0.49647133767E+01 -0.35895595455E+02 -0.16838364747E+02  0.39958386846E+02  0.00000000000E+00 0. -1.
</event>
<event>
 5    1  0.8943113E-005  0.9118800E+02  0.7818608E-02  0.1130116E+00
         25   -1    0    0    0    0  0.00000000000E+00  0.00000000000E+00  0.99999998245E-14  0.12500000000E+03  0.12500000000E+03 0.  0.
        -13    1    3    3    0    0 -0.24834322495E+02 -0.29516482022E+02  0.39088851044E+02  0.54917353584E+02  0.10566000000E+00 0. -1.
         23    2    1    0    0    0 -0.18712678390E+02  0.67583897927E+01  0.21542884805E+02  0.95675333747E+02  0.91070486091E+02 0.  0.
         13    1    3    3    0    0  0.61216441055E+01  0.36274871814E+02 -0.17545966239E+02  0.40757980163E+02  0.10566000000E+00 0.  1.
         22    1    1    0    0    0  0.18712678390E+02 -0.67583897927E+01 -0.21542884805E+02  0.29324666253E+02  0.00000000000E+00 0. -1.
</event>
<event>
 5    1  0.8943113E-005  0.9118800E+02  0.7818608E-02  0.1130116E+00
         25   -1    0    0    0    0  0.00000000000E+00  0.00000000000E+00  0.99999998245E-14  0.12500000000E+03  0.12500000000E+03 0.  0.
        -13    1    3    3    0    0 -0.43590121691E+01  0.46069740933E+02 -0.17275469001E+02  0.49395090950E+02  0.10566000000E+00 0.  1.
         23    2    1    0    0    0  0.23243588789E+01  0.15844458165E+01 -0.28985030320E+02  0.95878786162E+02  0.91349310563E+02 0.  0.
         13    1    3    3    0    0  0.66833710480E+01 -0.44485295117E+02 -0.11709561319E+02  0.46483695211E+02  0.10566000000E+00 0. -1.
         22    1    1    0    0    0 -0.23243588789E+01 -0.15844458165E+01  0.28985030320E+02  0.29121213838E+02  0.00000000000E+00 0. -1.
</event>
<event>
 5    1  0.8943113E-005  0.9118800E+02  0.7818608E-02  0.1130116E+00
         25   -1    0    0    0    0  0.00000000000E+00  0.00000000000E+00  0.99999998245E-14  0.12500000000E+03  0.12500000000E+03 0.  0.
        -13    1    3    3    0    0 -0.38196390955E+01  0.46144279493E+02 -0.40475361261E+02  0.61499188661E+02  0.10566000000E+00 0.  1.
         23    2    1    0    0    0 -0.41493446239E+01  0.25861472208E+02 -0.12706779099E+02  0.95888231922E+02  0.91362234980E+02 0.  0.
         13    1    3    3    0    0 -0.32970552839E+00 -0.20282807285E+02  0.27768582162E+02  0.34389043261E+02  0.10566000000E+00 0. -1.
         22    1    1    0    0    0  0.41493446239E+01 -0.25861472208E+02  0.12706779099E+02  0.29111768078E+02  0.00000000000E+00 0.  1.
</event>
<event>
 5    1  0.8943113E-005  0.9118800E+02  0.7818608E-02  0.1130116E+00
         25   -1    0    0    0    0  0.00000000000E+00  0.00000000000E+00  0.99999998245E-14  0.12500000000E+03  0.12500000000E+03 0.  0.
        -13    1    3    3    0    0  0.34771715348E+02  0.33117515272E+02 -0.21152836804E+02  0.52471856027E+02  0.10566000000E+00 0.  1.
         23    2    1    0    0    0  0.10216911586E+02  0.40245216392E+02 -0.21910744674E+02  0.78051693779E+02  0.62353215193E+02 0.  0.
         13    1    3    3    0    0 -0.24554803762E+02  0.71277011198E+01 -0.75790787003E+00  0.25579837752E+02  0.10566000000E+00 0. -1.
         22    1    1    0    0    0 -0.10216911586E+02 -0.40245216392E+02  0.21910744674E+02  0.46948306221E+02  0.00000000000E+00 0.  1.
</event>
<event>
 5    1  0.8943113E-005  0.9118800E+02  0.7818608E-02  0.1130116E+00
         25   -1    0    0    0    0  0.00000000000E+00  0.00000000000E+00  0.99999998245E-14  0.12500000000E+03  0.12500000000E+03 0.  0.
        -13    1    3    3    0    0 -0.19100558813E+02  0.72449349527E+01 -0.26990303195E+02  0.33849786706E+02  0.10566000000E+00 0.  1.
         23    2    1    0    0    0  0.38859891720E+01 -0.15673737242E+02  0.25057360142E+02  0.95189963967E+02  0.90401830688E+02 0.  0.
         13    1    3    3    0    0  0.22986547985E+02 -0.22918672194E+02  0.52047663338E+02  0.61340177261E+02  0.10566000000E+00 0. -1.
         22    1    1    0    0    0 -0.38859891720E+01  0.15673737242E+02 -0.25057360142E+02  0.29810036033E+02  0.00000000000E+00 0. -1.
</event>
<event>
 5    1  0.8943113E-005  0.9118800E+02  0.7818608E-02  0.1130116E+00
         25   -1    0    0    0    0  0.00000000000E+00  0.00000000000E+00  0.99999998245E-14  0.12500000000E+03  0.12500000000E+03 0.  0.
        -13    1    3    3    0    0 -0.16186320961E+02  0.55269971593E+02  0.17037695955E+02  0.60058812789E+02  0.10566000000E+00 0.  1.
         23    2    1    0    0    0 -0.11732247963E+02  0.27963744234E+02 -0.34405102757E+01  0.94480272858E+02  0.89415145331E+02 0.  0.
         13    1    3    3    0    0  0.44540729985E+01 -0.27306227359E+02 -0.20478206231E+02  0.34421460069E+02  0.10566000000E+00 0. -1.
         22    1    1    0    0    0  0.11732247963E+02 -0.27963744234E+02  0.34405102757E+01  0.30519727142E+02  0.00000000000E+00 0.  1.
</event>
<event>
 5    1  0.8943113E-005  0.9118800E+02  0.7818608E-02  0.1130116E+00
         25   -1    0    0    0    0  0.00000000000E+00  0.00000000000E+00  0.99999998245E-14  0.12500000000E+03  0.12500000000E+03 0.  0.
        -13    1    3    3    0    0  0.23367028145E+02 -0.40822981567E+02 -0.21957017079E+02  0.51910072157E+02  0.10566000000E+00 0.  1.
         23    2    1    0    0    0  0.23960357827E+02 -0.11278768867E+02  0.11131777589E+02  0.96273255550E+02  0.91887506700E+02 0.  0.
         13    1    3    3    0    0  0.59332968228E+00  0.29544212699E+02  0.33088794668E+02  0.44363183393E+02  0.10566000000E+00 0. -1.
         22    1    1    0    0    0 -0.23960357827E+02  0.11278768867E+02 -0.11131777589E+02  0.28726744450E+02  0.00000000000E+00 0.  1.
</event>
<event>
 5    1  0.8943113E-005  0.9118800E+02  0.7818608E-02  0.1130116E+00
         25   -1    0    0    0    0  0.00000000000E+00  0.00000000000E+00  0.99999998245E-14  0.12500000000E+03  0.12500000000E+03 0.  0.
        -13    1    3    3    0    0  0.23147394894E+02  0.56946511038E+01  0.51846892057E+02  0.57064369983E+02  0.10566000000E+00 0.  1.
         23    2    1    0    0    0  0.41380291430E+00 -0.12648562113E+02  0.26061549227E+02  0.96028260244E+02  0.91553618503E+02 0.  0.
         13    1    3    3    0    0 -0.22733591979E+02 -0.18343213217E+02 -0.25785342830E+02  0.38963890261E+02  0.10566000000E+00 0. -1.
         22    1    1    0    0    0 -0.41380291430E+00  0.12648562113E+02 -0.26061549227E+02  0.28971739756E+02  0.00000000000E+00 0.  1.
</event>
<event>
 5    1  0.8943113E-005  0.9118800E+02  0.7818608E-02  0.1130116E+00
         25   -1    0    0    0    0  0.00000000000E+00  0.00000000000E+00  0.99999998245E-14  0.12500000000E+03  0.12500000000E+03 0.  0.
        -13    1    3    3    0    0  0.29290167219E+02 -0.71366930716E+01 -0.15945931600E+02  0.34104694433E+02  0.10566000000E+00 0. -1.
         23    2    1    0    0    0 -0.14972151456E+02  0.89284759874E+01  0.23644373019E+02  0.95624170172E+02  0.91000233752E+02 0.  0.
         13    1    3    3    0    0 -0.44262318675E+02  0.16065169059E+02  0.39590304619E+02  0.61519475739E+02  0.10566000000E+00 0.  1.
         22    1    1    0    0    0  0.14972151456E+02 -0.89284759874E+01 -0.23644373019E+02  0.29375829828E+02  0.00000000000E+00 0.  1.
</event>
<event>
 5    1  0.8943113E-005  0.9118800E+02  0.7818608E-02  0.1130116E+00
         25   -1    0    0    0    0  0.00000000000E+00  0.00000000000E+00  0.99999998245E-14  0.12500000000E+03  0.12500000000E+03 0.  0.
        -13    1    3    3    0    0  0.24761548939E+02 -0.24232804069E+02 -0.39050065983E+02  0.52204232742E+02  0.10566000000E+00 0.  1.
         23    2    1    0    0    0  0.25302764623E+02 -0.14109935639E+02  0.33835415733E+01  0.95832063239E+02  0.91285353753E+02 0.  0.
         13    1    3    3    0    0  0.54121568420E+00  0.10122868430E+02  0.42433607556E+02  0.43627830497E+02  0.10566000000E+00 0. -1.
         22    1    1    0    0    0 -0.25302764623E+02  0.14109935639E+02 -0.33835415733E+01  0.29167936761E+02  0.00000000000E+00 0.  1.
</event>
<event>
 5    1  0.8943113E-005  0.9118800E+02  0.7818608E-02  0.1130116E+00
         25   -1    0    0    0    0  0.00000000000E+00  0.00000000000E+00  0.99999998245E-14  0.12500000000E+03  0.12500000000E+03 0.  0.
        -13    1    3    3    0    0 -0.34030702385E+02  0.10428115543E+02 -0.33953861020E+02  0.49190549303E+02  0.10566000000E+00 0.  1.
         23    2    1    0    0    0  0.36691279651E+01 -0.15920659513E+02 -0.23533390545E+02  0.96351258843E+02  0.91993557985E+02 0.  0.
         13    1    3    3    0    0  0.37699830350E+02 -0.26348775056E+02  0.10420470474E+02  0.47160709539E+02  0.10566000000E+00 0. -1.
         22    1    1    0    0    0 -0.36691279651E+01  0.15920659513E+02  0.23533390545E+02  0.28648741157E+02  0.00000000000E+00 0. -1.
</event>
<event>
 5    1  0.8943113E-005  0.9118800E+02  0.7818608E-02  0.1130116E+00
         25   -1    0    0    0    0  0.00000000000E+00  0.00000000000E+00  0.99999998245E-14  0.12500000000E+03  0.12500000000E+03 0.  0.
        -13    1    3    3    0    0 -0.40384505519E+02  0.23445368701E+02  0.26177963390E+02  0.53534012841E+02  0.10566000000E+00 0.  1.
         23    2    1    0    0    0 -0.88838614215E+01 -0.10624735409E+01  0.30062607567E+02  0.93634219004E+02  0.88224456649E+02 0.  0.
         13    1    3    3    0    0  0.31500644098E+02 -0.24507842242E+02  0.38846441766E+01  0.40100206163E+02  0.10566000000E+00 0. -1.
         22    1    1    0    0    0  0.88838614215E+01  0.10624735409E+01 -0.30062607567E+02  0.31365780996E+02  0.00000000000E+00 0. -1.
</event>
<event>
 5    1  0.8943113E-005  0.9118800E+02  0.7818608E-02  0.1130116E+00
         25   -1    0    0    0    0  0.00000000000E+00  0.00000000000E+00  0.99999998245E-14  0.12500000000E+03  0.12500000000E+03 0.  0.
        -13    1    3    3    0    0  0.36717206181E+02  0.25307931973E+02  0.11153621470E+02  0.45968022434E+02  0.10566000000E+00 0.  1.
         23    2    1    0    0    0  0.38422748502E+01 -0.20994887598E+02  0.49278481792E+01  0.10309493052E+03  0.10074091835E+03 0.  0.
         13    1    3    3    0    0 -0.32874931331E+02 -0.46302819571E+02 -0.62257732907E+01  0.57126908085E+02  0.10566000000E+00 0. -1.
         22    1    1    0    0    0 -0.38422748502E+01  0.20994887598E+02 -0.49278481792E+01  0.21905069481E+02  0.00000000000E+00 0. -1.
</event>
<event>
 5    1  0.8943113E-005  0.9118800E+02  0.7818608E-02  0.1130116E+00
         25   -1    0    0    0    0  0.00000000000E+00  0.00000000000E+00  0.99999998245E-14  0.12500000000E+03  0.12500000000E+03 0.  0.
        -13    1    3    3    0    0  0.17895857474E+02 -0.28280734605E+02  0.10759321127E+02  0.35154456612E+02  0.10566000000E+00 0.  1.
         23    2    1    0    0    0 -0.92374847725E+01  0.26500792470E+02  0.31559664762E+01  0.96758483559E+02  0.92545236992E+02 0.  0.
         13    1    3    3    0    0 -0.27133342247E+02  0.54781527075E+02 -0.76033546508E+01  0.61604026947E+02  0.10566000000E+00 0. -1.
         22    1    1    0    0    0  0.92374847725E+01 -0.26500792470E+02 -0.31559664762E+01  0.28241516441E+02  0.00000000000E+00 0. -1.
</event>
<event>
 5    1  0.8943113E-005  0.9118800E+02  0.7818608E-02  0.1130116E+00
         25   -1    0    0    0    0  0.00000000000E+00  0.00000000000E+00  0.99999998245E-14  0.12500000000E+03  0.12500000000E+03 0.  0.
        -13    1    3    3    0    0 -0.49796969769E+02 -0.23202114352E+02 -0.27562639235E+02  0.61463701110E+02  0.10566000000E+00 0.  1.
         23    2    1    0    0    0 -0.19857919795E+02 -0.18047277281E+02 -0.11849169126E+02  0.95666674160E+02  0.91058599484E+02 0.  0.
         13    1    3    3    0    0  0.29939049973E+02  0.51548370711E+01  0.15713470109E+02  0.34202973050E+02  0.10566000000E+00 0. -1.
         22    1    1    0    0    0  0.19857919795E+02  0.18047277281E+02  0.11849169126E+02  0.29333325840E+02  0.00000000000E+00 0.  1.
</event>
<event>
 5    1  0.8943113E-005  0.9118800E+02  0.7818608E-02  0.1130116E+00
         25   -1    0    0    0    0  0.00000000000E+00  0.00000000000E+00  0.99999998245E-14  0.12500000000E+03  0.12500000000E+03 0.  0.
        -13    1    3    3    0    0 -0.13704838985E+02  0.71335384148E+01  0.50638900346E+02  0.52943548938E+02  0.10566000000E+00 0.  1.
         23    2    1    0    0    0 -0.17626853333E+02 -0.17899818852E+02  0.18867649367E+02  0.93581889522E+02  0.88150282929E+02 0.  0.
         13    1    3    3    0    0 -0.39220143485E+01 -0.25033357267E+02 -0.31771250979E+02  0.40638340584E+02  0.10566000000E+00 0. -1.
         22    1    1    0    0    0  0.17626853333E+02  0.17899818852E+02 -0.18867649367E+02  0.31418110478E+02  0.00000000000E+00 0.  1.
</event>
<event>
 5    1  0.8943113E-005  0.9118800E+02  0.7818608E-02  0.1130116E+00
         25   -1    0    0    0    0  0.00000000000E+00  0.00000000000E+00  0.99999998245E-14  0.12500000000E+03  0.12500000000E+03 0.  0.
        -13    1    3    3    0    0  0.30784897609E+02  0.11537492157E+02 -0.11219795349E+02  0.34737855687E+02  0.10566000000E+00 0. -1.
         23    2    1    0    0    0 -0.10975177145E+02 -0.29094403066E+02 -0.10324505495E+01  0.93887225176E+02  0.88582200774E+02 0.  0.
         13    1    3    3    0    0 -0.41760074754E+02 -0.40631895223E+02  0.10187344799E+02  0.59149369489E+02  0.10566000000E+00 0.  1.
         22    1    1    0    0    0  0.10975177145E+02  0.29094403066E+02  0.10324505495E+01  0.31112774824E+02  0.00000000000E+00 0.  1.
</event>
<event>
 5    1  0.8943113E-005  0.9118800E+02  0.7818608E-02  0.1130116E+00
         25   -1    0    0    0    0  0.00000000000E+00  0.00000000000E+00  0.99999998245E-14  0.12500000000E+03  0.12500000000E+03 0.  0.
        -13    1    3    3    0    0 -0.37921561156E+02  0.66143756257E+01 -0.33436104909E+02  0.50988028408E+02  0.10566000000E+00 0. -1.
         23    2    1    0    0    0 -0.43025468710E+01  0.26472416536E+02 -0.11076564633E+02  0.95982918291E+02  0.91491691278E+02 0.  0.
         13    1    3    3    0    0  0.33619014285E+02  0.19858040910E+02  0.22359540275E+02  0.44994889883E+02  0.10566000000E+00 0.  1.
         22    1    1    0    0    0  0.43025468710E+01 -0.26472416536E+02  0.11076564633E+02  0.29017081709E+02  0.00000000000E+00 0. -1.
</event>
<event>
 5    1  0.8943113E-005  0.9118800E+02  0.7818608E-02  0.1130116E+00
         25   -1    0    0    0    0  0.00000000000E+00  0.00000000000E+00  0.99999998245E-14  0.12500000000E+03  0.12500000000E+03 0.  0.
        -13    1    3    3    0    0 -0.25235793700E+02  0.25523462804E+02  0.48312069228E+02  0.60186041856E+02  0.10566000000E+00 0.  1.
         23    2    1    0    0    0 -0.19528022934E+02  0.15878191699E+02  0.14178947666E+02  0.96112230819E+02  0.91668193528E+02 0.  0.
         13    1    3    3    0    0  0.57077707659E+01 -0.96452711048E+01 -0.34133121562E+02  0.35926188963E+02  0.10566000000E+00 0. -1.
         22    1    1    0    0    0  0.19528022934E+02 -0.15878191699E+02 -0.14178947666E+02  0.28887769181E+02  0.00000000000E+00 0.  1.
</event>
<event>
 5    1  0.8943113E-005  0.9118800E+02  0.7818608E-02  0.1130116E+00
         25   -1    0    0    0    0  0.00000000000E+00  0.00000000000E+00  0.99999998245E-14  0.12500000000E+03  0.12500000000E+03 0.  0.
        -13    1    3    3    0    0 -0.23278887297E+01  0.58776103128E+02 -0.79245557518E+01  0.59353678174E+02  0.10566000000E+00 0.  1.
         23    2    1    0    0    0 -0.14241280844E+02  0.23745168960E+02  0.52091448453E+00  0.97306706932E+02  0.93282778330E+02 0.  0.
         13    1    3    3    0    0 -0.11913392115E+02 -0.35030934168E+02  0.84454702363E+01  0.37953028758E+02  0.10566000000E+00 0. -1.
         22    1    1    0    0    0  0.14241280844E+02 -0.23745168960E+02 -0.52091448453E+00  0.27693293068E+02  0.00000000000E+00 0.  1.
</event>
<event>
 5    1  0.8943113E-005  0.9118800E+02  0.7818608E-02  0.1130116E+00
         25   -1    0    0    0    0  0.00000000000E+00  0.00000000000E+00  0.99999998245E-14  0.12500000000E+03  0.12500000000E+03 0.  0.
        -13    1    3    3    0    0  0.19674029433E+01  0.44205182767E+02  0.35389506564E+02  0.56660367072E+02  0.10566000000E+00 0.  1.
         23    2    1    0    0    0 -0.68891890878E+00  0.32114565092E+01  0.25991875087E+02  0.98801419262E+02  0.95264656696E+02 0.  0.
         13    1    3    3    0    0 -0.26563218521E+01 -0.40993726258E+02 -0.93976314776E+01  0.42141052190E+02  0.10566000000E+00 0. -1.
         22    1    1    0    0    0  0.68891890878E+00 -0.32114565092E+01 -0.25991875087E+02  0.26198580738E+02  0.00000000000E+00 0.  1.
</event>
<event>
 5    1  0.8943113E-005  0.9118800E+02  0.7818608E-02  0.1130116E+00
         25   -1    0    0    0    0  0.00000000000E+00  0.00000000000E+00  0.99999998245E-14  0.12500000000E+03  0.12500000000E+03 0.  0.
        -13    1    3    3    0    0  0.52977262598E+02 -0.20489273045E+01 -0.17500330294E+02  0.55830647318E+02  0.10566000000E+00 0.  1.
         23    2    1    0    0    0  0.24107133357E+02  0.45964384648E+01  0.12037535165E+02  0.97665344741E+02  0.93762125537E+02 0.  0.
         13    1    3    3    0    0 -0.28870129241E+02  0.66453657693E+01  0.29537865459E+02  0.41834697423E+02  0.10566000000E+00 0. -1.
         22    1    1    0    0    0 -0.24107133357E+02 -0.45964384648E+01 -0.12037535165E+02  0.27334655259E+02  0.00000000000E+00 0. -1.
</event>
<event>
 5    1  0.8943113E-005  0.9118800E+02  0.7818608E-02  0.1130116E+00
         25   -1    0    0    0    0  0.00000000000E+00  0.00000000000E+00  0.99999998245E-14  0.12500000000E+03  0.12500000000E+03 0.  0.
        -13    1    3    3    0    0  0.40010212539E+02  0.38720193066E+02  0.88585859972E+01  0.56378685409E+02  0.10566000000E+00 0.  1.
         23    2    1    0    0    0  0.25182685655E+01  0.28285010199E+02  0.87139978102E+01  0.95296174718E+02  0.90548570831E+02 0.  0.
         13    1    3    3    0    0 -0.37491943974E+02 -0.10435182867E+02 -0.14458818706E+00  0.38917489310E+02  0.10566000000E+00 0. -1.
         22    1    1    0    0    0 -0.25182685655E+01 -0.28285010199E+02 -0.87139978102E+01  0.29703825282E+02  0.00000000000E+00 0.  1.
</event>
<event>
 5    1  0.8943113E-005  0.9118800E+02  0.7818608E-02  0.1130116E+00
         25   -1    0    0    0    0  0.00000000000E+00  0.00000000000E+00  0.99999998245E-14  0.12500000000E+03  0.12500000000E+03 0.  0.
        -13    1    3    3    0    0  0.13052984522E+02  0.30712787151E+02  0.16317446238E+02  0.37147354082E+02  0.10566000000E+00 0. -1.
         23    2    1    0    0    0  0.15248466251E+02 -0.25163401550E+02 -0.60358352846E+00  0.95570816973E+02  0.90926917044E+02 0.  0.
         13    1    3    3    0    0  0.21954817292E+01 -0.55876188701E+02 -0.16921029766E+02  0.58423462891E+02  0.10566000000E+00 0.  1.
         22    1    1    0    0    0 -0.15248466251E+02  0.25163401550E+02  0.60358352846E+00  0.29429183027E+02  0.00000000000E+00 0.  1.
</event>
<event>
 5    1  0.8943113E-005  0.9118800E+02  0.7818608E-02  0.1130116E+00
         25   -1    0    0    0    0  0.00000000000E+00  0.00000000000E+00  0.99999998245E-14  0.12500000000E+03  0.12500000000E+03 0.  0.
        -13    1    3    3    0    0  0.45022343033E+02  0.23386187517E+02 -0.29528715294E+02  0.58701629702E+02  0.10566000000E+00 0.  1.
         23    2    1    0    0    0  0.18148961344E+02  0.24539236428E+02 -0.72471499487E+01  0.93629948921E+02  0.88218406414E+02 0.  0.
         13    1    3    3    0    0 -0.26873381689E+02  0.11530489111E+01  0.22281565345E+02  0.34928319219E+02  0.10566000000E+00 0. -1.
         22    1    1    0    0    0 -0.18148961344E+02 -0.24539236428E+02  0.72471499487E+01  0.31370051079E+02  0.00000000000E+00 0.  1.
</event>
<event>
 5    1  0.8943113E-005  0.9118800E+02  0.7818608E-02  0.1130116E+00
         25   -1    0    0    0    0  0.00000000000E+00  0.00000000000E+00  0.99999998245E-14  0.12500000000E+03  0.12500000000E+03 0.  0.
        -13    1    3    3    0    0  0.16728342939E+02 -0.42412260504E+02  0.30645050061E+02  0.54934211160E+02  0.10566000000E+00 0. -1.
         23    2    1    0    0    0  0.23891553325E+02 -0.58193820009E+01  0.18762725398E+02  0.94069248449E+02  0.88838685900E+02 0.  0.
         13    1    3    3    0    0  0.71632103854E+01  0.36592878503E+02 -0.11882324663E+02  0.39135037289E+02  0.10566000000E+00 0.  1.
         22    1    1    0    0    0 -0.23891553325E+02  0.58193820009E+01 -0.18762725398E+02  0.30930751551E+02  0.00000000000E+00 0. -1.
</event>
<event>
 5    1  0.8943113E-005  0.9118800E+02  0.7818608E-02  0.1130116E+00
         25   -1    0    0    0    0  0.00000000000E+00  0.00000000000E+00  0.99999998245E-14  0.12500000000E+03  0.12500000000E+03 0.  0.
        -13    1    3    3    0    0 -0.37957256405E+02  0.14713861816E+02  0.44600036804E+02  0.60385639769E+02  0.10566000000E+00 0.  1.
         23    2    1    0    0    0 -0.36459855316E+02  0.13080456434E+02  0.27825048253E+02  0.77306680756E+02  0.60841352624E+02 0.  0.
         13    1    3    3    0    0  0.14974010897E+01 -0.16334053822E+01 -0.16774988551E+02  0.16921040987E+02  0.10566000000E+00 0. -1.
         22    1    1    0    0    0  0.36459855316E+02 -0.13080456434E+02 -0.27825048253E+02  0.47693319244E+02  0.00000000000E+00 0.  1.
</event>
<event>
 5    1  0.8943113E-005  0.9118800E+02  0.7818608E-02  0.1130116E+00
         25   -1    0    0    0    0  0.00000000000E+00  0.00000000000E+00  0.99999998245E-14  0.12500000000E+03  0.12500000000E+03 0.  0.
        -13    1    3    3    0    0  0.46001455291E+02  0.25724901374E+01  0.19123546269E+02  0.49884594619E+02  0.10566000000E+00 0.  1.
         23    2    1    0    0    0  0.72291958318E+01  0.25985008937E+02  0.10853446372E+02  0.95926313272E+02  0.91414322280E+02 0.  0.
         13    1    3    3    0    0 -0.38772259459E+02  0.23412518800E+02 -0.82700998974E+01  0.46041718652E+02  0.10566000000E+00 0. -1.
         22    1    1    0    0    0 -0.72291958318E+01 -0.25985008937E+02 -0.10853446372E+02  0.29073686728E+02  0.00000000000E+00 0.  1.
</event>
<event>
 5    1  0.8943113E-005  0.9118800E+02  0.7818608E-02  0.1130116E+00
         25   -1    0    0    0    0  0.00000000000E+00  0.00000000000E+00  0.99999998245E-14  0.12500000000E+03  0.12500000000E+03 0.  0.
        -13    1    3    3    0    0 -0.27458095947E+02 -0.22531403783E+02 -0.23769905591E+01  0.35598770170E+02  0.10566000000E+00 0.  1.
         23    2    1    0    0    0  0.24679126826E+02 -0.59866213651E+01  0.17894548459E+02  0.93933719231E+02  0.88647785126E+02 0.  0.
         13    1    3    3    0    0  0.52137222773E+02  0.16544782418E+02  0.20271539018E+02  0.58334949061E+02  0.10566000000E+00 0. -1.
         22    1    1    0    0    0 -0.24679126826E+02  0.59866213651E+01 -0.17894548459E+02  0.31066280769E+02  0.00000000000E+00 0. -1.
</event>
<event>
 5    1  0.8943113E-005  0.9118800E+02  0.7818608E-02  0.1130116E+00
         25   -1    0    0    0    0  0.00000000000E+00  0.00000000000E+00  0.99999998245E-14  0.12500000000E+03  0.12500000000E+03 0.  0.
        -13    1    3    3    0    0 -0.19602836150E+02 -0.12087925780E+02 -0.29584859020E+02  0.37492188281E+02  0.10566000000E+00 0. -1.
         23    2    1    0    0    0 -0.31534252542E+01 -0.22368567115E+02  0.22527169539E+02  0.93097488295E+02  0.87460688734E+02 0.  0.
         13    1    3    3    0    0  0.16449410896E+02 -0.10280641336E+02  0.52112028559E+02  0.55605300015E+02  0.10566000000E+00 0.  1.
         22    1    1    0    0    0  0.31534252542E+01  0.22368567115E+02 -0.22527169539E+02  0.31902511705E+02  0.00000000000E+00 0.  1.
</event>
<event>
 5    1  0.8943113E-005  0.9118800E+02  0.7818608E-02  0.1130116E+00
         25   -1    0    0    0    0  0.00000000000E+00  0.00000000000E+00  0.99999998245E-14  0.12500000000E+03  0.12500000000E+03 0.  0.
        -13    1    3    3    0    0  0.27219419390E+02 -0.10808453617E+02  0.19583802957E+02  0.35231462697E+02  0.10566000000E+00 0. -1.
         23    2    1    0    0    0 -0.23365624317E+02  0.99257060816E+01 -0.10379336170E+02  0.97573686717E+02  0.93639850914E+02 0.  0.
         13    1    3    3    0    0 -0.50585043707E+02  0.20734159699E+02 -0.29963139127E+02  0.62342224019E+02  0.10566000000E+00 0.  1.
         22    1    1    0    0    0  0.23365624317E+02 -0.99257060816E+01  0.10379336170E+02  0.27426313283E+02  0.00000000000E+00 0.  1.
</event>
<event>
 5    1  0.8943113E-005  0.9118800E+02  0.7818608E-02  0.1130116E+00
         25   -1    0    0    0    0  0.00000000000E+00  0.00000000000E+00  0.99999998245E-14  0.12500000000E+03  0.12500000000E+03 0.  0.
        -13    1    3    3    0    0  0.32747744614E+02 -0.31047753763E+02 -0.11633085070E+02  0.46601691207E+02  0.10566000000E+00 0. -1.
         23    2    1    0    0    0 -0.12614637067E+02 -0.14200873479E+02 -0.21839281885E+02  0.96056121387E+02  0.91591649984E+02 0.  0.
         13    1    3    3    0    0 -0.45362381681E+02  0.16846880283E+02 -0.10206196814E+02  0.49454430181E+02  0.10566000000E+00 0.  1.
         22    1    1    0    0    0  0.12614637067E+02  0.14200873479E+02  0.21839281885E+02  0.28943878613E+02  0.00000000000E+00 0.  1.
</event>
<event>
 5    1  0.8943113E-005  0.9118800E+02  0.7818608E-02  0.1130116E+00
         25   -1    0    0    0    0  0.00000000000E+00  0.00000000000E+00  0.99999998245E-14  0.12500000000E+03  0.12500000000E+03 0.  0.
        -13    1    3    3    0    0 -0.16615615973E+02  0.12455829158E+02  0.56829952161E+02  0.60505214658E+02  0.10566000000E+00 0. -1.
         23    2    1    0    0    0 -0.17930364561E+02  0.20469232992E+01  0.23994289846E+02  0.94976445689E+02  0.90106112014E+02 0.  0.
         13    1    3    3    0    0 -0.13147485878E+01 -0.10408905859E+02 -0.32835662315E+02  0.34471231031E+02  0.10566000000E+00 0.  1.
         22    1    1    0    0    0  0.17930364561E+02 -0.20469232992E+01 -0.23994289846E+02  0.30023554311E+02  0.00000000000E+00 0. -1.
</event>
<event>
 5    1  0.8943113E-005  0.9118800E+02  0.7818608E-02  0.1130116E+00
         25   -1    0    0    0    0  0.00000000000E+00  0.00000000000E+00  0.99999998245E-14  0.12500000000E+03  0.12500000000E+03 0.  0.
        -13    1    3    3    0    0  0.22505865324E+02  0.50066625379E+02  0.17037971064E+02  0.57475947777E+02  0.10566000000E+00 0.  1.
         23    2    1    0    0    0  0.22718898091E+02  0.24617822972E+02 -0.49854843149E+01  0.91132012280E+02  0.84604982536E+02 0.  0.
         13    1    3    3    0    0  0.21303276729E+00 -0.25448802407E+02 -0.22023455379E+02  0.33656064503E+02  0.10566000000E+00 0. -1.
         22    1    1    0    0    0 -0.22718898091E+02 -0.24617822972E+02  0.49854843149E+01  0.33867987720E+02  0.00000000000E+00 0.  1.
</event>
<event>
 5    1  0.8943113E-005  0.9118800E+02  0.7818608E-02  0.1130116E+00
         25   -1    0    0    0    0  0.00000000000E+00  0.00000000000E+00  0.99999998245E-14  0.12500000000E+03  0.12500000000E+03 0.  0.
        -13    1    3    3    0    0  0.49815895334E+02  0.80151402617E+00  0.25883859270E-02  0.49822455012E+02  0.10566000000E+00 0.  1.
         23    2    1    0    0    0  0.77998363178E+01  0.24444307672E+02 -0.66577024622E+01  0.98491763049E+02  0.94857476049E+02 0.  0.
         13    1    3    3    0    0 -0.42016059016E+02  0.23642793646E+02 -0.66602908481E+01  0.48669308038E+02  0.10566000000E+00 0. -1.
         22    1    1    0    0    0 -0.77998363178E+01 -0.24444307672E+02  0.66577024622E+01  0.26508236951E+02  0.00000000000E+00 0. -1.
</event>
<event>
 5    1  0.8943113E-005  0.9118800E+02  0.7818608E-02  0.1130116E+00
         25   -1    0    0    0    0  0.00000000000E+00  0.00000000000E+00  0.99999998245E-14  0.12500000000E+03  0.12500000000E+03 0.  0.
        -13    1    3    3    0    0 -0.28307728847E+02  0.10293866189E+02  0.45658738146E+02  0.54699385067E+02  0.10566000000E+00 0. -1.
         23    2    1    0    0    0 -0.76653208549E+01 -0.16734900280E+02  0.22889429589E+02  0.95627563634E+02  0.91004894970E+02 0.  0.
         13    1    3    3    0    0  0.20642407992E+02 -0.27028766469E+02 -0.22769308558E+02  0.40928178566E+02  0.10566000000E+00 0.  1.
         22    1    1    0    0    0  0.76653208549E+01  0.16734900280E+02 -0.22889429589E+02  0.29372436366E+02  0.00000000000E+00 0.  1.
</event>
<event>
 5    1  0.8943113E-005  0.9118800E+02  0.7818608E-02  0.1130116E+00
         25   -1    0    0    0    0  0.00000000000E+00  0.00000000000E+00  0.99999998245E-14  0.12500000000E+03  0.12500000000E+03 0.  0.
        -13    1    3    3    0    0  0.30402907577E+02 -0.10074410338E+02 -0.69514127657E+01  0.32774438763E+02  0.10566000000E+00 0. -1.
         23    2    1    0    0    0 -0.24768086634E+02  0.15115795107E+02  0.73071892968E+01  0.95077760902E+02  0.90246552429E+02 0.  0.
         13    1    3    3    0    0 -0.55170994211E+02  0.25190205445E+02  0.14258602062E+02  0.62303322138E+02  0.10566000000E+00 0.  1.
         22    1    1    0    0    0  0.24768086634E+02 -0.15115795107E+02 -0.73071892968E+01  0.29922239098E+02  0.00000000000E+00 0.  1.
</event>
<event>
 5    1  0.8943113E-005  0.9118800E+02  0.7818608E-02  0.1130116E+00
         25   -1    0    0    0    0  0.00000000000E+00  0.00000000000E+00  0.99999998245E-14  0.12500000000E+03  0.12500000000E+03 0.  0.
        -13    1    3    3    0    0  0.20287580352E+02 -0.27269555303E+02  0.37625127115E+02  0.50703805749E+02  0.10566000000E+00 0.  1.
         23    2    1    0    0    0 -0.12342667907E+02 -0.26951687577E+02  0.92510094449E+01  0.93946560737E+02  0.88665890760E+02 0.  0.
         13    1    3    3    0    0 -0.32630248259E+02  0.31786772589E+00 -0.28374117670E+02  0.43242754988E+02  0.10566000000E+00 0. -1.
         22    1    1    0    0    0  0.12342667907E+02  0.26951687577E+02 -0.92510094449E+01  0.31053439263E+02  0.00000000000E+00 0. -1.
</event>
<event>
 5    1  0.8943113E-005  0.9118800E+02  0.7818608E-02  0.1130116E+00
         25   -1    0    0    0    0  0.00000000000E+00  0.00000000000E+00  0.99999998245E-14  0.12500000000E+03  0.12500000000E+03 0.  0.
        -13    1    3    3    0    0 -0.32163371071E+02 -0.27618656267E+02  0.23425486620E+02  0.48435908168E+02  0.10566000000E+00 0.  1.
         23    2    1    0    0    0 -0.26279342948E+02  0.70769426724E+00 -0.13581867933E+02  0.95409936913E+02  0.90705480695E+02 0.  0.
         13    1    3    3    0    0  0.58840281224E+01  0.28326350534E+02 -0.37007354553E+02  0.46974028745E+02  0.10566000000E+00 0. -1.
         22    1    1    0    0    0  0.26279342948E+02 -0.70769426724E+00  0.13581867933E+02  0.29590063087E+02  0.00000000000E+00 0.  1.
</event>
<event>
 5    1  0.8943113E-005  0.9118800E+02  0.7818608E-02  0.1130116E+00
         25   -1    0    0    0    0  0.00000000000E+00  0.00000000000E+00  0.99999998245E-14  0.12500000000E+03  0.12500000000E+03 0.  0.
        -13    1    3    3    0    0  0.81745741338E+01 -0.42539180002E+02  0.35576051190E+02  0.56054188781E+02  0.10566000000E+00 0. -1.
         23    2    1    0    0    0  0.11154163812E+02 -0.22332154900E+02 -0.31523991034E+01  0.99838956044E+02  0.96616453107E+02 0.  0.
         13    1    3    3    0    0  0.29795896786E+01  0.20207025102E+02 -0.38728450294E+02  0.43784767263E+02  0.10566000000E+00 0.  1.
         22    1    1    0    0    0 -0.11154163812E+02  0.22332154900E+02  0.31523991034E+01  0.25161043956E+02  0.00000000000E+00 0. -1.
</event>
<event>
 5    1  0.8943113E-005  0.9118800E+02  0.7818608E-02  0.1130116E+00
         25   -1    0    0    0    0  0.00000000000E+00  0.00000000000E+00  0.99999998245E-14  0.12500000000E+03  0.12500000000E+03 0.  0.
        -13    1    3    3    0    0 -0.46268806334E+02 -0.32383667111E+02  0.27195909259E+01  0.56541238702E+02  0.10566000000E+00 0. -1.
         23    2    1    0    0    0 -0.28524207577E+02  0.10826123869E+01 -0.69203538531E+01  0.95628351001E+02  0.91005976453E+02 0.  0.
         13    1    3    3    0    0  0.17744598757E+02  0.33466279498E+02 -0.96399447790E+01  0.39087112299E+02  0.10566000000E+00 0.  1.
         22    1    1    0    0    0  0.28524207577E+02 -0.10826123869E+01  0.69203538531E+01  0.29371648999E+02  0.00000000000E+00 0. -1.
</event>
<event>
 5    1  0.8943113E-005  0.9118800E+02  0.7818608E-02  0.1130116E+00
         25   -1    0    0    0    0  0.00000000000E+00  0.00000000000E+00  0.99999998245E-14  0.12500000000E+03  0.12500000000E+03 0.  0.
        -13    1    3    3    0    0 -0.20627660995E+02  0.15080923351E+02  0.56905367605E+02  0.62379216679E+02  0.10566000000E+00 0.  1.
         23    2    1    0    0    0 -0.12026335233E+02  0.54945646649E+01  0.27205018917E+02  0.94752090415E+02  0.89794335032E+02 0.  0.
         13    1    3    3    0    0  0.86013257626E+01 -0.95863586857E+01 -0.29700348688E+02  0.32372873736E+02  0.10566000000E+00 0. -1.
         22    1    1    0    0    0  0.12026335233E+02 -0.54945646649E+01 -0.27205018917E+02  0.30247909585E+02  0.00000000000E+00 0.  1.
</event>
<event>
 5    1  0.8943113E-005  0.9118800E+02  0.7818608E-02  0.1130116E+00
         25   -1    0    0    0    0  0.00000000000E+00  0.00000000000E+00  0.99999998245E-14  0.12500000000E+03  0.12500000000E+03 0.  0.
        -13    1    3    3    0    0  0.33582216124E+02 -0.12922870525E+02 -0.49206717101E+02  0.60959642341E+02  0.10566000000E+00 0.  1.
         23    2    1    0    0    0  0.24058781704E+02 -0.46074030900E+01 -0.18085559751E+02  0.94551016243E+02  0.89513988074E+02 0.  0.
         13    1    3    3    0    0 -0.95234344209E+01  0.83154674347E+01  0.31121157350E+02  0.33591373902E+02  0.10566000000E+00 0. -1.
         22    1    1    0    0    0 -0.24058781704E+02  0.46074030900E+01  0.18085559751E+02  0.30448983757E+02  0.00000000000E+00 0.  1.
</event>
<event>
 5    1  0.8943113E-005  0.9118800E+02  0.7818608E-02  0.1130116E+00
         25   -1    0    0    0    0  0.00000000000E+00  0.00000000000E+00  0.99999998245E-14  0.12500000000E+03  0.12500000000E+03 0.  0.
        -13    1    3    3    0    0 -0.11904437811E+02  0.56265097646E+02  0.63981266585E+01  0.57865568704E+02  0.10566000000E+00 0.  1.
         23    2    1    0    0    0  0.41879894589E+01  0.33873762631E+02 -0.93377444744E+01  0.89614063212E+02  0.82331742379E+02 0.  0.
         13    1    3    3    0    0  0.16092427270E+02 -0.22391335015E+02 -0.15735871133E+02  0.31748494508E+02  0.10566000000E+00 0. -1.
         22    1    1    0    0    0 -0.41879894589E+01 -0.33873762631E+02  0.93377444744E+01  0.35385936788E+02  0.00000000000E+00 0.  1.
</event>
<event>
 5    1  0.8943113E-005  0.9118800E+02  0.7818608E-02  0.1130116E+00
         25   -1    0    0    0    0  0.00000000000E+00  0.00000000000E+00  0.99999998245E-14  0.12500000000E+03  0.12500000000E+03 0.  0.
        -13    1    3    3    0    0 -0.29099688408E+02 -0.23198133095E+02 -0.11220273198E+02  0.38869666055E+02  0.10566000000E+00 0.  1.
         23    2    1    0    0    0 -0.64468684362E+01  0.27949246724E+02  0.16461135672E+01  0.96269664204E+02  0.91882621049E+02 0.  0.
         13    1    3    3    0    0  0.22652819972E+02  0.51147379819E+02  0.12866386766E+02  0.57399998149E+02  0.10566000000E+00 0. -1.
         22    1    1    0    0    0  0.64468684362E+01 -0.27949246724E+02 -0.16461135672E+01  0.28730335796E+02  0.00000000000E+00 0. -1.
</event>
<event>
 5    1  0.8943113E-005  0.9118800E+02  0.7818608E-02  0.1130116E+00
         25   -1    0    0    0    0  0.00000000000E+00  0.00000000000E+00  0.99999998245E-14  0.12500000000E+03  0.12500000000E+03 0.  0.
        -13    1    3    3    0    0  0.24790491451E+00 -0.37523315853E+01 -0.48566967108E+02  0.48712451255E+02  0.10566000000E+00 0.  1.
         23    2    1    0    0    0 -0.20177237288E+01 -0.26779091200E+02 -0.55204859597E+01  0.97583459377E+02  0.93652895546E+02 0.  0.
         13    1    3    3    0    0 -0.22656286433E+01 -0.23026759614E+02  0.43046481149E+02  0.48871008121E+02  0.10566000000E+00 0. -1.
         22    1    1    0    0    0  0.20177237288E+01  0.26779091200E+02  0.55204859597E+01  0.27416540623E+02  0.00000000000E+00 0. -1.
</event>
<event>
 5    1  0.8943113E-005  0.9118800E+02  0.7818608E-02  0.1130116E+00
         25   -1    0    0    0    0  0.00000000000E+00  0.00000000000E+00  0.99999998245E-14  0.12500000000E+03  0.12500000000E+03 0.  0.
        -13    1    3    3    0    0  0.23291016529E+02  0.55680244297E+01 -0.54820653568E+02  0.59822985287E+02  0.10566000000E+00 0.  1.
         23    2    1    0    0    0  0.16284277238E+02  0.13286862680E+02 -0.20700293831E+02  0.95500498822E+02  0.90830197102E+02 0.  0.
         13    1    3    3    0    0 -0.70067392908E+01  0.77188382500E+01  0.34120359737E+02  0.35677513535E+02  0.10566000000E+00 0. -1.
         22    1    1    0    0    0 -0.16284277238E+02 -0.13286862680E+02  0.20700293831E+02  0.29499501178E+02  0.00000000000E+00 0.  1.
</event>
<event>
 5    1  0.8943113E-005  0.9118800E+02  0.7818608E-02  0.1130116E+00
         25   -1    0    0    0    0  0.00000000000E+00  0.00000000000E+00  0.99999998245E-14  0.12500000000E+03  0.12500000000E+03 0.  0.
        -13    1    3    3    0    0  0.12429244978E+02 -0.19698507528E+02  0.23426506264E+02  0.33035279465E+02  0.10566000000E+00 0.  1.
         23    2    1    0    0    0 -0.12877214276E+02  0.19480240325E+02 -0.18077158676E+02  0.95468896458E+02  0.90786695691E+02 0.  0.
         13    1    3    3    0    0 -0.25306459254E+02  0.39178747854E+02 -0.41503664939E+02  0.62433616993E+02  0.10566000000E+00 0. -1.
         22    1    1    0    0    0  0.12877214276E+02 -0.19480240325E+02  0.18077158676E+02  0.29531103542E+02  0.00000000000E+00 0. -1.
</event>
<event>
 5    1  0.8943113E-005  0.9118800E+02  0.7818608E-02  0.1130116E+00
         25   -1    0    0    0    0  0.00000000000E+00  0.00000000000E+00  0.99999998245E-14  0.12500000000E+03  0.12500000000E+03 0.  0.
        -13    1    3    3    0    0  0.24315553227E+02 -0.25204582793E+02  0.41471553753E+02  0.54280917984E+02  0.10566000000E+00 0. -1.
         23    2    1    0    0    0 -0.65124880485E+01 -0.25543717878E+02  0.17126768698E+02  0.93564029685E+02  0.88124953453E+02 0.  0.
         13    1    3    3    0    0 -0.30828041276E+02 -0.33913508559E+00 -0.24344785054E+02  0.39283111701E+02  0.10566000000E+00 0.  1.
         22    1    1    0    0    0  0.65124880485E+01  0.25543717878E+02 -0.17126768698E+02  0.31435970315E+02  0.00000000000E+00 0. -1.
</event>
<event>
 5    1  0.8943113E-005  0.9118800E+02  0.7818608E-02  0.1130116E+00
         25   -1    0    0    0    0  0.00000000000E+00  0.00000000000E+00  0.99999998245E-14  0.12500000000E+03  0.12500000000E+03 0.  0.
        -13    1    3    3    0    0 -0.22199030106E+02 -0.20559385568E+02 -0.17326311448E+02  0.34866853959E+02  0.10566000000E+00 0. -1.
         23    2    1    0    0    0 -0.16098116999E+00  0.21494217908E+02  0.20290601115E+02  0.95440977485E+02  0.90748247208E+02 0.  0.
         13    1    3    3    0    0  0.22038048936E+02  0.42053603476E+02  0.37616912563E+02  0.60574123526E+02  0.10566000000E+00 0.  1.
         22    1    1    0    0    0  0.16098116999E+00 -0.21494217908E+02 -0.20290601115E+02  0.29559022515E+02  0.00000000000E+00 0.  1.
</event>
<event>
 5    1  0.8943113E-005  0.9118800E+02  0.7818608E-02  0.1130116E+00
         25   -1    0    0    0    0  0.00000000000E+00  0.00000000000E+00  0.99999998245E-14  0.12500000000E+03  0.12500000000E+03 0.  0.
        -13    1    3    3    0    0 -0.55227492586E+02 -0.50708343537E+01 -0.97714136403E+01  0.56314127774E+02  0.10566000000E+00 0.  1.
         23    2    1    0    0    0 -0.22197104287E+02  0.17133905691E+02 -0.18254414126E+01  0.96899921721E+02  0.92736079441E+02 0.  0.
         13    1    3    3    0    0  0.33030388299E+02  0.22204740044E+02  0.79459722277E+01  0.40585793946E+02  0.10566000000E+00 0. -1.
         22    1    1    0    0    0  0.22197104287E+02 -0.17133905691E+02  0.18254414126E+01  0.28100078279E+02  0.00000000000E+00 0.  1.
</event>
<event>
 5    1  0.8943113E-005  0.9118800E+02  0.7818608E-02  0.1130116E+00
         25   -1    0    0    0    0  0.00000000000E+00  0.00000000000E+00  0.99999998245E-14  0.12500000000E+03  0.12500000000E+03 0.  0.
        -13    1    3    3    0    0 -0.16007319122E+02 -0.94077720124E+01  0.34878803946E+02  0.39513068325E+02  0.10566000000E+00 0. -1.
         23    2    1    0    0    0 -0.50359260458E+01  0.27882469434E+02 -0.61237207013E+01  0.96012198978E+02  0.91531687106E+02 0.  0.
         13    1    3    3    0    0  0.10971393076E+02  0.37290241446E+02 -0.41002524647E+02  0.56499130654E+02  0.10566000000E+00 0.  1.
         22    1    1    0    0    0  0.50359260458E+01 -0.27882469434E+02  0.61237207013E+01  0.28987801022E+02  0.00000000000E+00 0.  1.
</event>
<event>
 5    1  0.8943113E-005  0.9118800E+02  0.7818608E-02  0.1130116E+00
         25   -1    0    0    0    0  0.00000000000E+00  0.00000000000E+00  0.99999998245E-14  0.12500000000E+03  0.12500000000E+03 0.  0.
        -13    1    3    3    0    0  0.19755988700E+02 -0.85368635437E+01 -0.53043122374E+02  0.57243000654E+02  0.10566000000E+00 0.  1.
         23    2    1    0    0    0  0.23440919233E+02  0.45728935638E+00 -0.13537360256E+02  0.97927025824E+02  0.94110341918E+02 0.  0.
         13    1    3    3    0    0  0.36849305331E+01  0.89941529001E+01  0.39505762118E+02  0.40684025169E+02  0.10566000000E+00 0. -1.
         22    1    1    0    0    0 -0.23440919233E+02 -0.45728935638E+00  0.13537360256E+02  0.27072974176E+02  0.00000000000E+00 0.  1.
</event>
<event>
 5    1  0.8943113E-005  0.9118800E+02  0.7818608E-02  0.1130116E+00
         25   -1    0    0    0    0  0.00000000000E+00  0.00000000000E+00  0.99999998245E-14  0.12500000000E+03  0.12500000000E+03 0.  0.
        -13    1    3    3    0    0 -0.39051605830E+02  0.13114435708E+02 -0.93246655600E+01  0.42237150634E+02  0.10566000000E+00 0. -1.
         23    2    1    0    0    0  0.13736184915E+02  0.18436167556E+02 -0.17746254809E+02  0.95956849174E+02  0.91456067559E+02 0.  0.
         13    1    3    3    0    0  0.52787790745E+02  0.53217318482E+01 -0.84215892486E+01  0.53719698539E+02  0.10566000000E+00 0.  1.
         22    1    1    0    0    0 -0.13736184915E+02 -0.18436167556E+02  0.17746254809E+02  0.29043150826E+02  0.00000000000E+00 0.  1.
</event>
<event>
 5    1  0.8943113E-005  0.9118800E+02  0.7818608E-02  0.1130116E+00
         25   -1    0    0    0    0  0.00000000000E+00  0.00000000000E+00  0.99999998245E-14  0.12500000000E+03  0.12500000000E+03 0.  0.
        -13    1    3    3    0    0  0.58392258116E+01  0.17260067234E+02  0.49602670172E+02  0.52843566603E+02  0.10566000000E+00 0. -1.
         23    2    1    0    0    0  0.22187197667E+02 -0.64227259444E+01  0.17062434077E+02  0.96283283518E+02  0.91901147324E+02 0.  0.
         13    1    3    3    0    0  0.16347971855E+02 -0.23682793179E+02 -0.32540236095E+02  0.43439716916E+02  0.10566000000E+00 0.  1.
         22    1    1    0    0    0 -0.22187197667E+02  0.64227259444E+01 -0.17062434077E+02  0.28716716482E+02  0.00000000000E+00 0. -1.
</event>
<event>
 5    1  0.8943113E-005  0.9118800E+02  0.7818608E-02  0.1130116E+00
         25   -1    0    0    0    0  0.00000000000E+00  0.00000000000E+00  0.99999998245E-14  0.12500000000E+03  0.12500000000E+03 0.  0.
        -13    1    3    3    0    0  0.31706282604E+02 -0.30250390419E+02  0.42689439466E+02  0.61178214121E+02  0.10566000000E+00 0.  1.
         23    2    1    0    0    0  0.14573680389E+02 -0.18721112867E+02  0.11374607829E+02  0.98689281075E+02  0.95117402555E+02 0.  0.
         13    1    3    3    0    0 -0.17132602215E+02  0.11529277551E+02 -0.31314831637E+02  0.37511066954E+02  0.10566000000E+00 0. -1.
         22    1    1    0    0    0 -0.14573680389E+02  0.18721112867E+02 -0.11374607829E+02  0.26310718925E+02  0.00000000000E+00 0.  1.
</event>
<event>
 5    1  0.8943113E-005  0.9118800E+02  0.7818608E-02  0.1130116E+00
         25   -1    0    0    0    0  0.00000000000E+00  0.00000000000E+00  0.99999998245E-14  0.12500000000E+03  0.12500000000E+03 0.  0.
        -13    1    3    3    0    0 -0.16616135654E+02  0.44907803474E+02 -0.37853806756E+02  0.61038746931E+02  0.10566000000E+00 0. -1.
         23    2    1    0    0    0 -0.16014663486E+02  0.16015677026E+02 -0.17246139387E+02  0.96532462683E+02  0.92239447477E+02 0.  0.
         13    1    3    3    0    0  0.60147216802E+00 -0.28892126449E+02  0.20607667369E+02  0.35493715753E+02  0.10566000000E+00 0.  1.
         22    1    1    0    0    0  0.16014663486E+02 -0.16015677026E+02  0.17246139387E+02  0.28467537317E+02  0.00000000000E+00 0. -1.
</event>
<event>
 5    1  0.8943113E-005  0.9118800E+02  0.7818608E-02  0.1130116E+00
         25   -1    0    0    0    0  0.00000000000E+00  0.00000000000E+00  0.99999998245E-14  0.12500000000E+03  0.12500000000E+03 0.  0.
        -13    1    3    3    0    0 -0.24962354858E+02 -0.73337161866E+01  0.25208184620E+02  0.36226596432E+02  0.10566000000E+00 0. -1.
         23    2    1    0    0    0  0.17798845233E+02 -0.17545752018E+02 -0.15039322233E+02  0.95830949300E+02  0.91283828388E+02 0.  0.
         13    1    3    3    0    0  0.42761200090E+02 -0.10212035831E+02 -0.40247506853E+02  0.59604352869E+02  0.10566000000E+00 0.  1.
         22    1    1    0    0    0 -0.17798845233E+02  0.17545752018E+02  0.15039322233E+02  0.29169050700E+02  0.00000000000E+00 0.  1.
</event>
<event>
 5    1  0.8943113E-005  0.9118800E+02  0.7818608E-02  0.1130116E+00
         25   -1    0    0    0    0  0.00000000000E+00  0.00000000000E+00  0.99999998245E-14  0.12500000000E+03  0.12500000000E+03 0.  0.
        -13    1    3    3    0    0  0.49373127954E+02  0.33755532524E+02 -0.24831213030E+01  0.59860828556E+02  0.10566000000E+00 0. -1.
         23    2    1    0    0    0  0.27536864281E+02  0.48667599893E+01 -0.64843944780E+01  0.96294397429E+02  0.91916262746E+02 0.  0.
         13    1    3    3    0    0 -0.21836263673E+02 -0.28888772535E+02 -0.40012731750E+01  0.36433568873E+02  0.10566000000E+00 0.  1.
         22    1    1    0    0    0 -0.27536864281E+02 -0.48667599893E+01  0.64843944780E+01  0.28705602571E+02  0.00000000000E+00 0. -1.
</event>
<event>
 5    1  0.8943113E-005  0.9118800E+02  0.7818608E-02  0.1130116E+00
         25   -1    0    0    0    0  0.00000000000E+00  0.00000000000E+00  0.99999998245E-14  0.12500000000E+03  0.12500000000E+03 0.  0.
        -13    1    3    3    0    0 -0.27258257641E+02 -0.27398915830E+02  0.39458578047E+02  0.55233176115E+02  0.10566000000E+00 0.  1.
         23    2    1    0    0    0 -0.18871050905E+02 -0.22743323133E+02  0.40861477955E+00  0.95444251398E+02  0.90752756705E+02 0.  0.
         13    1    3    3    0    0  0.83872067358E+01  0.46555926970E+01 -0.39049963267E+02  0.40211075283E+02  0.10566000000E+00 0. -1.
         22    1    1    0    0    0  0.18871050905E+02  0.22743323133E+02 -0.40861477955E+00  0.29555748602E+02  0.00000000000E+00 0. -1.
</event>
<event>
 5    1  0.8943113E-005  0.9118800E+02  0.7818608E-02  0.1130116E+00
         25   -1    0    0    0    0  0.00000000000E+00  0.00000000000E+00  0.99999998245E-14  0.12500000000E+03  0.12500000000E+03 0.  0.
        -13    1    3    3    0    0  0.17326864034E+02  0.23874315649E+02 -0.53197321855E+02  0.60829017595E+02  0.10566000000E+00 0. -1.
         23    2    1    0    0    0 -0.20791520106E+00  0.78240503380E+01 -0.29821610327E+02  0.94168402005E+02  0.88978090006E+02 0.  0.
         13    1    3    3    0    0 -0.17534779235E+02 -0.16050265311E+02  0.23375711527E+02  0.33339384410E+02  0.10566000000E+00 0.  1.
         22    1    1    0    0    0  0.20791520106E+00 -0.78240503380E+01  0.29821610327E+02  0.30831597995E+02  0.00000000000E+00 0. -1.
</event>
<event>
 5    1  0.8943113E-005  0.9118800E+02  0.7818608E-02  0.1130116E+00
         25   -1    0    0    0    0  0.00000000000E+00  0.00000000000E+00  0.99999998245E-14  0.12500000000E+03  0.12500000000E+03 0.  0.
        -13    1    3    3    0    0  0.39246689103E+02  0.32221911899E+02  0.33775091762E+02  0.60986245987E+02  0.10566000000E+00 0. -1.
         23    2    1    0    0    0  0.16159395056E+02  0.22108624877E+02  0.94078125951E+01  0.96044443014E+02  0.91575710499E+02 0.  0.
         13    1    3    3    0    0 -0.23087294046E+02 -0.10113287022E+02 -0.24367279167E+02  0.35058197027E+02  0.10566000000E+00 0.  1.
         22    1    1    0    0    0 -0.16159395056E+02 -0.22108624877E+02 -0.94078125951E+01  0.28955556986E+02  0.00000000000E+00 0. -1.
</event>
<event>
 5    1  0.8943113E-005  0.9118800E+02  0.7818608E-02  0.1130116E+00
         25   -1    0    0    0    0  0.00000000000E+00  0.00000000000E+00  0.99999998245E-14  0.12500000000E+03  0.12500000000E+03 0.  0.
        -13    1    3    3    0    0  0.94957706050E+01 -0.27713890516E+02  0.54383131911E+02  0.61771883469E+02  0.10566000000E+00 0.  1.
         23    2    1    0    0    0  0.31008492455E+01 -0.18488317536E+02  0.21728205287E+02  0.96302472993E+02  0.91927244319E+02 0.  0.
         13    1    3    3    0    0 -0.63949213594E+01  0.92255729799E+01 -0.32654926624E+02  0.34530589523E+02  0.10566000000E+00 0. -1.
         22    1    1    0    0    0 -0.31008492455E+01  0.18488317536E+02 -0.21728205287E+02  0.28697527007E+02  0.00000000000E+00 0.  1.
</event>
<event>
 5    1  0.8943113E-005  0.9118800E+02  0.7818608E-02  0.1130116E+00
         25   -1    0    0    0    0  0.00000000000E+00  0.00000000000E+00  0.99999998245E-14  0.12500000000E+03  0.12500000000E+03 0.  0.
        -13    1    3    3    0    0  0.10668160244E+02 -0.16094482879E+02 -0.45081882989E+02  0.49043137746E+02  0.10566000000E+00 0.  1.
         23    2    1    0    0    0  0.13363068227E+01 -0.29197124866E+02 -0.12367215467E+01  0.95746157576E+02  0.91167644447E+02 0.  0.
         13    1    3    3    0    0 -0.93318534209E+01 -0.13102641987E+02  0.43845161442E+02  0.46703019830E+02  0.10566000000E+00 0. -1.
         22    1    1    0    0    0 -0.13363068227E+01  0.29197124866E+02  0.12367215467E+01  0.29253842424E+02  0.00000000000E+00 0. -1.
</event>
<event>
 5    1  0.8943113E-005  0.9118800E+02  0.7818608E-02  0.1130116E+00
         25   -1    0    0    0    0  0.00000000000E+00  0.00000000000E+00  0.99999998245E-14  0.12500000000E+03  0.12500000000E+03 0.  0.
        -13    1    3    3    0    0 -0.11516814623E+02 -0.35315813586E+02  0.14688610342E+02  0.39945089136E+02  0.10566000000E+00 0.  1.
         23    2    1    0    0    0  0.16183722621E+02 -0.52518636075E+01 -0.23566803422E+02  0.95933022641E+02  0.91423496216E+02 0.  0.
         13    1    3    3    0    0  0.27700537244E+02  0.30063949978E+02 -0.38255413764E+02  0.55987933505E+02  0.10566000000E+00 0. -1.
         22    1    1    0    0    0 -0.16183722621E+02  0.52518636075E+01  0.23566803422E+02  0.29066977359E+02  0.00000000000E+00 0. -1.
</event>
<event>
 5    1  0.8943113E-005  0.9118800E+02  0.7818608E-02  0.1130116E+00
         25   -1    0    0    0    0  0.00000000000E+00  0.00000000000E+00  0.99999998245E-14  0.12500000000E+03  0.12500000000E+03 0.  0.
        -13    1    3    3    0    0  0.32533222183E+02  0.13215122419E+01 -0.29876080854E+02  0.44189911874E+02  0.10566000000E+00 0. -1.
         23    2    1    0    0    0 -0.16269906725E+02 -0.13718000633E+02 -0.19147527566E+02  0.96372718989E+02  0.92022713213E+02 0.  0.
         13    1    3    3    0    0 -0.48803128908E+02 -0.15039512875E+02  0.10728553288E+02  0.52182807115E+02  0.10566000000E+00 0.  1.
         22    1    1    0    0    0  0.16269906725E+02  0.13718000633E+02  0.19147527566E+02  0.28627281011E+02  0.00000000000E+00 0.  1.
</event>
<event>
 5    1  0.8943113E-005  0.9118800E+02  0.7818608E-02  0.1130116E+00
         25   -1    0    0    0    0  0.00000000000E+00  0.00000000000E+00  0.99999998245E-14  0.12500000000E+03  0.12500000000E+03 0.  0.
        -13    1    3    3    0    0  0.44213543800E+02  0.32681391584E+01  0.65696560836E+01  0.44818408428E+02  0.10566000000E+00 0. -1.
         23    2    1    0    0    0  0.35323189016E+01 -0.27820740798E+02 -0.26078176167E+01  0.96834922189E+02  0.92648424418E+02 0.  0.
         13    1    3    3    0    0 -0.40681224899E+02 -0.31088879957E+02 -0.91774737002E+01  0.52016513760E+02  0.10566000000E+00 0.  1.
         22    1    1    0    0    0 -0.35323189016E+01  0.27820740798E+02  0.26078176167E+01  0.28165077811E+02  0.00000000000E+00 0. -1.
</event>
<event>
 5    1  0.8943113E-005  0.9118800E+02  0.7818608E-02  0.1130116E+00
         25   -1    0    0    0    0  0.00000000000E+00  0.00000000000E+00  0.99999998245E-14  0.12500000000E+03  0.12500000000E+03 0.  0.
        -13    1    3    3    0    0  0.50244177499E+01 -0.60564637506E+02 -0.14152408773E+02  0.62398893645E+02  0.10566000000E+00 0. -1.
         23    2    1    0    0    0  0.11592869451E+00 -0.28882555312E+02 -0.56136471012E+01  0.95576735827E+02  0.90935053510E+02 0.  0.
         13    1    3    3    0    0 -0.49084890553E+01  0.31682082194E+02  0.85387616721E+01  0.33177842183E+02  0.10566000000E+00 0.  1.
         22    1    1    0    0    0 -0.11592869451E+00  0.28882555312E+02  0.56136471012E+01  0.29423264173E+02  0.00000000000E+00 0. -1.
</event>
<event>
 5    1  0.8943113E-005  0.9118800E+02  0.7818608E-02  0.1130116E+00
         25   -1    0    0    0    0  0.00000000000E+00  0.00000000000E+00  0.99999998245E-14  0.12500000000E+03  0.12500000000E+03 0.  0.
        -13    1    3    3    0    0 -0.30929539421E+02 -0.34863442417E+02 -0.63604883446E+01  0.47037889004E+02  0.10566000000E+00 0. -1.
         23    2    1    0    0    0 -0.18694391853E+02  0.87279173251E+01 -0.21905663066E+02  0.94908225344E+02  0.90011423364E+02 0.  0.
         13    1    3    3    0    0  0.12235147568E+02  0.43591359742E+02 -0.15545174721E+02  0.47870336340E+02  0.10566000000E+00 0.  1.
         22    1    1    0    0    0  0.18694391853E+02 -0.87279173251E+01  0.21905663066E+02  0.30091774656E+02  0.00000000000E+00 0. -1.
</event>
<event>
 5    1  0.8943113E-005  0.9118800E+02  0.7818608E-02  0.1130116E+00
         25   -1    0    0    0    0  0.00000000000E+00  0.00000000000E+00  0.99999998245E-14  0.12500000000E+03  0.12500000000E+03 0.  0.
        -13    1    3    3    0    0 -0.67855616252E+01 -0.24532172837E+02  0.29129145042E+02  0.38683195390E+02  0.10566000000E+00 0. -1.
         23    2    1    0    0    0 -0.17075810115E+02  0.24041644255E+02  0.15727536893E+01  0.95469380235E+02  0.90787361779E+02 0.  0.
         13    1    3    3    0    0 -0.10290248489E+02  0.48573817092E+02 -0.27556391352E+02  0.56786184845E+02  0.10566000000E+00 0.  1.
         22    1    1    0    0    0  0.17075810115E+02 -0.24041644255E+02 -0.15727536893E+01  0.29530619765E+02  0.00000000000E+00 0.  1.
</event>
<event>
 5    1  0.8943113E-005  0.9118800E+02  0.7818608E-02  0.1130116E+00
         25   -1    0    0    0    0  0.00000000000E+00  0.00000000000E+00  0.99999998245E-14  0.12500000000E+03  0.12500000000E+03 0.  0.
        -13    1    3    3    0    0 -0.49579292464E+02  0.17487466941E+01 -0.38656326294E+01  0.49760613299E+02  0.10566000000E+00 0. -1.
         23    2    1    0    0    0 -0.15313866006E+02 -0.16289059360E+02  0.19793727191E+02  0.95139665390E+02  0.90332255300E+02 0.  0.
         13    1    3    3    0    0  0.34265426457E+02 -0.18037806054E+02  0.23659359821E+02  0.45379052091E+02  0.10566000000E+00 0.  1.
         22    1    1    0    0    0  0.15313866006E+02  0.16289059360E+02 -0.19793727191E+02  0.29860334610E+02  0.00000000000E+00 0. -1.
</event>
<event>
 5    1  0.8943113E-005  0.9118800E+02  0.7818608E-02  0.1130116E+00
         25   -1    0    0    0    0  0.00000000000E+00  0.00000000000E+00  0.99999998245E-14  0.12500000000E+03  0.12500000000E+03 0.  0.
        -13    1    3    3    0    0 -0.29734414155E+02  0.26945585567E+02 -0.21292196136E+02  0.45426520305E+02  0.10566000000E+00 0.  1.
         23    2    1    0    0    0 -0.70545617994E+01 -0.10834201637E+02  0.16888224968E+02  0.10373126920E+03  0.10152742142E+03 0.  0.
         13    1    3    3    0    0  0.22679852355E+02 -0.37779787204E+02  0.38180421104E+02  0.58304748895E+02  0.10566000000E+00 0. -1.
         22    1    1    0    0    0  0.70545617994E+01  0.10834201637E+02 -0.16888224968E+02  0.21268730800E+02  0.00000000000E+00 0. -1.
</event>
<event>
 5    1  0.8943113E-005  0.9118800E+02  0.7818608E-02  0.1130116E+00
         25   -1    0    0    0    0  0.00000000000E+00  0.00000000000E+00  0.99999998245E-14  0.12500000000E+03  0.12500000000E+03 0.  0.
        -13    1    3    3    0    0 -0.14120150032E+02 -0.26869601437E+02 -0.32288731266E+02  0.44316221061E+02  0.10566000000E+00 0. -1.
         23    2    1    0    0    0 -0.48933726916E+01  0.21621676509E+02 -0.19903099586E+02  0.95207796917E+02  0.90426485221E+02 0.  0.
         13    1    3    3    0    0  0.92267773408E+01  0.48491277947E+02  0.12385631680E+02  0.50891575856E+02  0.10566000000E+00 0.  1.
         22    1    1    0    0    0  0.48933726916E+01 -0.21621676509E+02  0.19903099586E+02  0.29792203083E+02  0.00000000000E+00 0.  1.
</event>
<event>
 5    1  0.8943113E-005  0.9118800E+02  0.7818608E-02  0.1130116E+00
         25   -1    0    0    0    0  0.00000000000E+00  0.00000000000E+00  0.99999998245E-14  0.12500000000E+03  0.12500000000E+03 0.  0.
        -13    1    3    3    0    0 -0.29320121942E+02 -0.13977785154E+02  0.23163637208E+02  0.39895028277E+02  0.10566000000E+00 0. -1.
         23    2    1    0    0    0 -0.21704785694E+02  0.36051909204E+01 -0.24980092317E+02  0.91711861936E+02  0.85457389874E+02 0.  0.
         13    1    3    3    0    0  0.76153362478E+01  0.17582976074E+02 -0.48143729525E+02  0.51816833659E+02  0.10566000000E+00 0.  1.
         22    1    1    0    0    0  0.21704785694E+02 -0.36051909204E+01  0.24980092317E+02  0.33288138064E+02  0.00000000000E+00 0. -1.
</event>
<event>
 5    1  0.8943113E-005  0.9118800E+02  0.7818608E-02  0.1130116E+00
         25   -1    0    0    0    0  0.00000000000E+00  0.00000000000E+00  0.99999998245E-14  0.12500000000E+03  0.12500000000E+03 0.  0.
        -13    1    3    3    0    0 -0.40098105283E+02 -0.74061503663E+01  0.85046001930E+01  0.41653913370E+02  0.10566000000E+00 0. -1.
         23    2    1    0    0    0  0.13776888587E+02 -0.22978895582E+02  0.15701738918E+01  0.98161636649E+02  0.94421444398E+02 0.  0.
         13    1    3    3    0    0  0.53874993870E+02 -0.15572745216E+02 -0.69344263012E+01  0.56507723279E+02  0.10566000000E+00 0.  1.
         22    1    1    0    0    0 -0.13776888587E+02  0.22978895582E+02 -0.15701738918E+01  0.26838363351E+02  0.00000000000E+00 0.  1.
</event>
<event>
 5    1  0.8943113E-005  0.9118800E+02  0.7818608E-02  0.1130116E+00
         25   -1    0    0    0    0  0.00000000000E+00  0.00000000000E+00  0.99999998245E-14  0.12500000000E+03  0.12500000000E+03 0.  0.
        -13    1    3    3    0    0  0.25516352053E+02  0.83694737587E+01 -0.27477112885E+02  0.38420505067E+02  0.10566000000E+00 0.  1.
         23    2    1    0    0    0  0.13525253308E+02 -0.47852878487E+01  0.26285965365E+02  0.95053657452E+02  0.90213160697E+02 0.  0.
         13    1    3    3    0    0 -0.11991098745E+02 -0.13154761607E+02  0.53763078250E+02  0.56633152385E+02  0.10566000000E+00 0. -1.
         22    1    1    0    0    0 -0.13525253308E+02  0.47852878487E+01 -0.26285965365E+02  0.29946342548E+02  0.00000000000E+00 0. -1.
</event>
<event>
 5    1  0.8943113E-005  0.9118800E+02  0.7818608E-02  0.1130116E+00
         25   -1    0    0    0    0  0.00000000000E+00  0.00000000000E+00  0.99999998245E-14  0.12500000000E+03  0.12500000000E+03 0.  0.
        -13    1    3    3    0    0 -0.58456322450E+02 -0.11993874814E+00  0.14108251546E+02  0.60134931158E+02  0.10566000000E+00 0.  1.
         23    2    1    0    0    0 -0.27190861480E+02 -0.97627647053E+01 -0.81886122680E+00  0.96098009473E+02  0.91648799055E+02 0.  0.
         13    1    3    3    0    0  0.31265460970E+02 -0.96428259571E+01 -0.14927112773E+02  0.35963078315E+02  0.10566000000E+00 0. -1.
         22    1    1    0    0    0  0.27190861480E+02  0.97627647053E+01  0.81886122680E+00  0.28901990527E+02  0.00000000000E+00 0.  1.
</event>
<event>
 5    1  0.8943113E-005  0.9118800E+02  0.7818608E-02  0.1130116E+00
         25   -1    0    0    0    0  0.00000000000E+00  0.00000000000E+00  0.99999998245E-14  0.12500000000E+03  0.12500000000E+03 0.  0.
        -13    1    3    3    0    0  0.52393320783E+01 -0.42643491495E+02 -0.21856546902E+02  0.48204126110E+02  0.10566000000E+00 0.  1.
         23    2    1    0    0    0  0.13312170066E+02 -0.11809169935E+01 -0.30838817405E+02  0.91389866175E+02  0.84985096009E+02 0.  0.
         13    1    3    3    0    0  0.80728379881E+01  0.41462574502E+02 -0.89822705030E+01  0.43185740065E+02  0.10566000000E+00 0. -1.
         22    1    1    0    0    0 -0.13312170066E+02  0.11809169935E+01  0.30838817405E+02  0.33610133825E+02  0.00000000000E+00 0.  1.
</event>
<event>
 5    1  0.8943113E-005  0.9118800E+02  0.7818608E-02  0.1130116E+00
         25   -1    0    0    0    0  0.00000000000E+00  0.00000000000E+00  0.99999998245E-14  0.12500000000E+03  0.12500000000E+03 0.  0.
        -13    1    3    3    0    0  0.21323691486E+01 -0.43945492027E+02  0.35423033760E+01  0.44139691265E+02  0.10566000000E+00 0.  1.
         23    2    1    0    0    0  0.18337824392E+02  0.63485195860E+01  0.17582514031E+02  0.98813661882E+02  0.95280719301E+02 0.  0.
         13    1    3    3    0    0  0.16205455243E+02  0.50294011613E+02  0.14040210655E+02  0.54673970617E+02  0.10566000000E+00 0. -1.
         22    1    1    0    0    0 -0.18337824392E+02 -0.63485195860E+01 -0.17582514031E+02  0.26186338118E+02  0.00000000000E+00 0. -1.
</event>
<event>
 5    1  0.8943113E-005  0.9118800E+02  0.7818608E-02  0.1130116E+00
         25   -1    0    0    0    0  0.00000000000E+00  0.00000000000E+00  0.99999998245E-14  0.12500000000E+03  0.12500000000E+03 0.  0.
        -13    1    3    3    0    0  0.26915087352E+02  0.59610071461E+01  0.22925668972E+02  0.35854609121E+02  0.10566000000E+00 0.  1.
         23    2    1    0    0    0  0.16881326008E+02 -0.31308579057E+02  0.33777318313E+02  0.75947848949E+02  0.57982430418E+02 0.  0.
         13    1    3    3    0    0 -0.10033761344E+02 -0.37269586203E+02  0.10851649341E+02  0.40093239828E+02  0.10566000000E+00 0. -1.
         22    1    1    0    0    0 -0.16881326008E+02  0.31308579057E+02 -0.33777318313E+02  0.49052151051E+02  0.00000000000E+00 0.  1.
</event>
<event>
 5    1  0.8943113E-005  0.9118800E+02  0.7818608E-02  0.1130116E+00
         25   -1    0    0    0    0  0.00000000000E+00  0.00000000000E+00  0.99999998245E-14  0.12500000000E+03  0.12500000000E+03 0.  0.
        -13    1    3    3    0    0 -0.60996589322E+02 -0.10534094571E+02  0.83277795075E+01  0.62457298476E+02  0.10566000000E+00 0.  1.
         23    2    1    0    0    0 -0.28481660877E+02 -0.63846621905E+01  0.46850879462E+01  0.95437879530E+02  0.90743979870E+02 0.  0.
         13    1    3    3    0    0  0.32514928445E+02  0.41494323809E+01 -0.36426915613E+01  0.32980581054E+02  0.10566000000E+00 0. -1.
         22    1    1    0    0    0  0.28481660877E+02  0.63846621905E+01 -0.46850879462E+01  0.29562120470E+02  0.00000000000E+00 0.  1.
</event>
<event>
 5    1  0.8943113E-005  0.9118800E+02  0.7818608E-02  0.1130116E+00
         25   -1    0    0    0    0  0.00000000000E+00  0.00000000000E+00  0.99999998245E-14  0.12500000000E+03  0.12500000000E+03 0.  0.
        -13    1    3    3    0    0 -0.32964567923E+00  0.47362327054E+02 -0.36014595614E+02  0.59500932359E+02  0.10566000000E+00 0. -1.
         23    2    1    0    0    0  0.13114003443E+02  0.22139599834E+02 -0.13153117741E+02  0.96101151001E+02  0.91653083693E+02 0.  0.
         13    1    3    3    0    0  0.13443649123E+02 -0.25222727220E+02  0.22861477873E+02  0.36600218643E+02  0.10566000000E+00 0.  1.
         22    1    1    0    0    0 -0.13114003443E+02 -0.22139599834E+02  0.13153117741E+02  0.28898848999E+02  0.00000000000E+00 0. -1.
</event>
<event>
 5    1  0.8943113E-005  0.9118800E+02  0.7818608E-02  0.1130116E+00
         25   -1    0    0    0    0  0.00000000000E+00  0.00000000000E+00  0.99999998245E-14  0.12500000000E+03  0.12500000000E+03 0.  0.
        -13    1    3    3    0    0  0.29798201888E+02  0.37143713221E+02 -0.31468480333E+02  0.57077707435E+02  0.10566000000E+00 0. -1.
         23    2    1    0    0    0 -0.34237971948E+00  0.26709654198E+02 -0.67008919904E+01  0.97460486483E+02  0.93488617601E+02 0.  0.
         13    1    3    3    0    0 -0.30140581607E+02 -0.10434059023E+02  0.24767588342E+02  0.40382779048E+02  0.10566000000E+00 0.  1.
         22    1    1    0    0    0  0.34237971948E+00 -0.26709654198E+02  0.67008919904E+01  0.27539513517E+02  0.00000000000E+00 0. -1.
</event>
<event>
 5    1  0.8943113E-005  0.9118800E+02  0.7818608E-02  0.1130116E+00
         25   -1    0    0    0    0  0.00000000000E+00  0.00000000000E+00  0.99999998245E-14  0.12500000000E+03  0.12500000000E+03 0.  0.
        -13    1    3    3    0    0 -0.34342467546E+02 -0.51995856007E+02  0.42620432506E+01  0.62459189042E+02  0.10566000000E+00 0. -1.
         23    2    1    0    0    0 -0.14972630882E+02 -0.24156038674E+02  0.57759840558E+00  0.96574175476E+02  0.92295958032E+02 0.  0.
         13    1    3    3    0    0  0.19369836664E+02  0.27839817333E+02 -0.36844448450E+01  0.34114986434E+02  0.10566000000E+00 0.  1.
         22    1    1    0    0    0  0.14972630882E+02  0.24156038674E+02 -0.57759840558E+00  0.28425824524E+02  0.00000000000E+00 0. -1.
</event>
<event>
 5    1  0.8943113E-005  0.9118800E+02  0.7818608E-02  0.1130116E+00
         25   -1    0    0    0    0  0.00000000000E+00  0.00000000000E+00  0.99999998245E-14  0.12500000000E+03  0.12500000000E+03 0.  0.
        -13    1    3    3    0    0  0.21424902103E+02 -0.21064962425E+02 -0.21971832903E+02  0.37222730653E+02  0.10566000000E+00 0.  1.
         23    2    1    0    0    0 -0.21940937119E+02  0.16618861123E+02 -0.65915729859E+01  0.96697348162E+02  0.92462625100E+02 0.  0.
         13    1    3    3    0    0 -0.43365839222E+02  0.37683823548E+02  0.15380259917E+02  0.59474617508E+02  0.10566000000E+00 0. -1.
         22    1    1    0    0    0  0.21940937119E+02 -0.16618861123E+02  0.65915729859E+01  0.28302651838E+02  0.00000000000E+00 0. -1.
</event>
<event>
 5    1  0.8943113E-005  0.9118800E+02  0.7818608E-02  0.1130116E+00
         25   -1    0    0    0    0  0.00000000000E+00  0.00000000000E+00  0.99999998245E-14  0.12500000000E+03  0.12500000000E+03 0.  0.
        -13    1    3    3    0    0  0.22973544769E+01  0.13586273306E+02  0.36462155354E+02  0.38979027657E+02  0.10566000000E+00 0.  1.
         23    2    1    0    0    0  0.20893739212E+02  0.35895848600E+01 -0.17872544117E+02  0.97271651854E+02  0.93235792287E+02 0.  0.
         13    1    3    3    0    0  0.18596384735E+02 -0.99966884461E+01 -0.54334699471E+02  0.58292624197E+02  0.10566000000E+00 0. -1.
         22    1    1    0    0    0 -0.20893739212E+02 -0.35895848600E+01  0.17872544117E+02  0.27728348146E+02  0.00000000000E+00 0. -1.
</event>
<event>
 5    1  0.8943113E-005  0.9118800E+02  0.7818608E-02  0.1130116E+00
         25   -1    0    0    0    0  0.00000000000E+00  0.00000000000E+00  0.99999998245E-14  0.12500000000E+03  0.12500000000E+03 0.  0.
        -13    1    3    3    0    0  0.28497910998E+01 -0.41681214943E+02  0.90388677782E+01  0.42745260359E+02  0.10566000000E+00 0. -1.
         23    2    1    0    0    0  0.22503673878E+02  0.73317875690E+01  0.16600474211E+02  0.96090724828E+02  0.91638862973E+02 0.  0.
         13    1    3    3    0    0  0.19653882778E+02  0.49013002512E+02  0.75616064327E+01  0.53345464469E+02  0.10566000000E+00 0.  1.
         22    1    1    0    0    0 -0.22503673878E+02 -0.73317875690E+01 -0.16600474211E+02  0.28909275172E+02  0.00000000000E+00 0.  1.
</event>
<event>
 5    1  0.8943113E-005  0.9118800E+02  0.7818608E-02  0.1130116E+00
         25   -1    0    0    0    0  0.00000000000E+00  0.00000000000E+00  0.99999998245E-14  0.12500000000E+03  0.12500000000E+03 0.  0.
        -13    1    3    3    0    0 -0.45485234611E+01 -0.42482721410E+02 -0.75547343055E+00  0.42732336564E+02  0.10566000000E+00 0.  1.
         23    2    1    0    0    0 -0.30798255703E+02 -0.44659399848E+01  0.13495724447E+02  0.91079331483E+02  0.84527113228E+02 0.  0.
         13    1    3    3    0    0 -0.26249732242E+02  0.38016781425E+02  0.14251197878E+02  0.48346994919E+02  0.10566000000E+00 0. -1.
         22    1    1    0    0    0  0.30798255703E+02  0.44659399848E+01 -0.13495724447E+02  0.33920668517E+02  0.00000000000E+00 0.  1.
</event>
<event>
 5    1  0.8943113E-005  0.9118800E+02  0.7818608E-02  0.1130116E+00
         25   -1    0    0    0    0  0.00000000000E+00  0.00000000000E+00  0.99999998245E-14  0.12500000000E+03  0.12500000000E+03 0.  0.
        -13    1    3    3    0    0  0.48570501680E+02 -0.12663497241E+02  0.37194596951E+02  0.62473250293E+02  0.10566000000E+00 0. -1.
         23    2    1    0    0    0  0.23730172190E+02 -0.55171637601E+01  0.16658818289E+02  0.95485996631E+02  0.90810237076E+02 0.  0.
         13    1    3    3    0    0 -0.24840329491E+02  0.71463334807E+01 -0.20535778663E+02  0.33012746337E+02  0.10566000000E+00 0.  1.
         22    1    1    0    0    0 -0.23730172190E+02  0.55171637601E+01 -0.16658818289E+02  0.29514003369E+02  0.00000000000E+00 0. -1.
</event>
<event>
 5    1  0.8943113E-005  0.9118800E+02  0.7818608E-02  0.1130116E+00
         25   -1    0    0    0    0  0.00000000000E+00  0.00000000000E+00  0.99999998245E-14  0.12500000000E+03  0.12500000000E+03 0.  0.
        -13    1    3    3    0    0 -0.25173790705E+02  0.56495392180E+00  0.29093885693E+02  0.38477321374E+02  0.10566000000E+00 0.  1.
         23    2    1    0    0    0  0.23071038073E+02  0.18167452882E+02  0.49699656629E+01  0.95216956155E+02  0.90439145500E+02 0.  0.
         13    1    3    3    0    0  0.48244828778E+02  0.17602498960E+02 -0.24123920030E+02  0.56739634781E+02  0.10566000000E+00 0. -1.
         22    1    1    0    0    0 -0.23071038073E+02 -0.18167452882E+02 -0.49699656629E+01  0.29783043845E+02  0.00000000000E+00 0. -1.
</event>
<event>
 5    1  0.8943113E-005  0.9118800E+02  0.7818608E-02  0.1130116E+00
         25   -1    0    0    0    0  0.00000000000E+00  0.00000000000E+00  0.99999998245E-14  0.12500000000E+03  0.12500000000E+03 0.  0.
        -13    1    3    3    0    0  0.34168005886E+02  0.36224955736E+02  0.19746891941E+02  0.53569123099E+02  0.10566000000E+00 0.  1.
         23    2    1    0    0    0  0.12586557887E+02  0.18182875326E+02 -0.15002468283E+02  0.98277117499E+02  0.94574200365E+02 0.  0.
         13    1    3    3    0    0 -0.21581447999E+02 -0.18042080409E+02 -0.34749360224E+02  0.44707994400E+02  0.10566000000E+00 0. -1.
         22    1    1    0    0    0 -0.12586557887E+02 -0.18182875326E+02  0.15002468283E+02  0.26722882501E+02  0.00000000000E+00 0.  1.
</event>
<event>
 5    1  0.8943113E-005  0.9118800E+02  0.7818608E-02  0.1130116E+00
         25   -1    0    0    0    0  0.00000000000E+00  0.00000000000E+00  0.99999998245E-14  0.12500000000E+03  0.12500000000E+03 0.  0.
        -13    1    3    3    0    0  0.35958068467E+02 -0.35702975183E+02 -0.33358603689E+02  0.60667064614E+02  0.10566000000E+00 0.  1.
         23    2    1    0    0    0  0.22971342625E+02 -0.81588754359E+01 -0.17419495785E+02  0.95038547035E+02  0.90192221165E+02 0.  0.
         13    1    3    3    0    0 -0.12986725841E+02  0.27544099747E+02  0.15939107904E+02  0.34371482420E+02  0.10566000000E+00 0. -1.
         22    1    1    0    0    0 -0.22971342625E+02  0.81588754359E+01  0.17419495785E+02  0.29961452965E+02  0.00000000000E+00 0.  1.
</event>
<event>
 5    1  0.8943113E-005  0.9118800E+02  0.7818608E-02  0.1130116E+00
         25   -1    0    0    0    0  0.00000000000E+00  0.00000000000E+00  0.99999998245E-14  0.12500000000E+03  0.12500000000E+03 0.  0.
        -13    1    3    3    0    0 -0.38433803219E+02  0.23890991212E+02 -0.17216463109E+02  0.48418534230E+02  0.10566000000E+00 0. -1.
         23    2    1    0    0    0  0.23094618030E+00  0.23705332631E+02  0.13427672001E+02  0.97754844346E+02  0.93881367088E+02 0.  0.
         13    1    3    3    0    0  0.38664749399E+02 -0.18565858108E+00  0.30644135109E+02  0.49336310116E+02  0.10566000000E+00 0.  1.
         22    1    1    0    0    0 -0.23094618030E+00 -0.23705332631E+02 -0.13427672001E+02  0.27245155654E+02  0.00000000000E+00 0.  1.
</event>
<event>
 5    1  0.8943113E-005  0.9118800E+02  0.7818608E-02  0.1130116E+00
         25   -1    0    0    0    0  0.00000000000E+00  0.00000000000E+00  0.99999998245E-14  0.12500000000E+03  0.12500000000E+03 0.  0.
        -13    1    3    3    0    0 -0.18248478366E+02 -0.39069307294E+02 -0.13085257334E+01  0.43140945038E+02  0.10566000000E+00 0. -1.
         23    2    1    0    0    0 -0.11779019983E+02  0.58622426628E+01  0.25817521331E+02  0.96023188435E+02  0.91546693598E+02 0.  0.
         13    1    3    3    0    0  0.64694583834E+01  0.44931549957E+02  0.27126047064E+02  0.52882243397E+02  0.10566000000E+00 0.  1.
         22    1    1    0    0    0  0.11779019983E+02 -0.58622426628E+01 -0.25817521331E+02  0.28976811565E+02  0.00000000000E+00 0. -1.
</event>
<event>
 5    1  0.8943113E-005  0.9118800E+02  0.7818608E-02  0.1130116E+00
         25   -1    0    0    0    0  0.00000000000E+00  0.00000000000E+00  0.99999998245E-14  0.12500000000E+03  0.12500000000E+03 0.  0.
        -13    1    3    3    0    0 -0.17058617221E+02 -0.15540553279E+02  0.49730792784E+02  0.54823974068E+02  0.10566000000E+00 0.  1.
         23    2    1    0    0    0  0.12306835243E+02 -0.15908723310E+02  0.21451683295E+02  0.95593871605E+02  0.90958605427E+02 0.  0.
         13    1    3    3    0    0  0.29365452464E+02 -0.36817003061E+00 -0.28279109489E+02  0.40769897536E+02  0.10566000000E+00 0. -1.
         22    1    1    0    0    0 -0.12306835243E+02  0.15908723310E+02 -0.21451683295E+02  0.29406128395E+02  0.00000000000E+00 0.  1.
</event>
<event>
 5    1  0.8943113E-005  0.9118800E+02  0.7818608E-02  0.1130116E+00
         25   -1    0    0    0    0  0.00000000000E+00  0.00000000000E+00  0.99999998245E-14  0.12500000000E+03  0.12500000000E+03 0.  0.
        -13    1    3    3    0    0 -0.90873696187E+01 -0.47709480931E+02  0.25157517064E+02  0.54696313278E+02  0.10566000000E+00 0.  1.
         23    2    1    0    0    0 -0.23627707116E+02 -0.12920677067E+02  0.44772406414E+01  0.97700583831E+02  0.93809093150E+02 0.  0.
         13    1    3    3    0    0 -0.14540337497E+02  0.34788803864E+02 -0.20680276423E+02  0.43004270553E+02  0.10566000000E+00 0. -1.
         22    1    1    0    0    0  0.23627707116E+02  0.12920677067E+02 -0.44772406414E+01  0.27299416169E+02  0.00000000000E+00 0. -1.
</event>
<event>
 5    1  0.8943113E-005  0.9118800E+02  0.7818608E-02  0.1130116E+00
         25   -1    0    0    0    0  0.00000000000E+00  0.00000000000E+00  0.99999998245E-14  0.12500000000E+03  0.12500000000E+03 0.  0.
        -13    1    3    3    0    0  0.19575588176E+02  0.14818235679E+02  0.53180727083E+02  0.58574607622E+02  0.10566000000E+00 0.  1.
         23    2    1    0    0    0 -0.20376426428E+01 -0.23616732155E+01  0.30597712244E+02  0.94243708246E+02  0.89083820424E+02 0.  0.
         13    1    3    3    0    0 -0.21613230818E+02 -0.17179908895E+02 -0.22583014839E+02  0.35669100623E+02  0.10566000000E+00 0. -1.
         22    1    1    0    0    0  0.20376426428E+01  0.23616732155E+01 -0.30597712244E+02  0.30756291754E+02  0.00000000000E+00 0.  1.
</event>
<event>
 5    1  0.8943113E-005  0.9118800E+02  0.7818608E-02  0.1130116E+00
         25   -1    0    0    0    0  0.00000000000E+00  0.00000000000E+00  0.99999998245E-14  0.12500000000E+03  0.12500000000E+03 0.  0.
        -13    1    3    3    0    0  0.26524631434E+02  0.99399473097E+01  0.25059449538E+02  0.37819912750E+02  0.10566000000E+00 0.  1.
         23    2    1    0    0    0  0.79694931932E+01 -0.12489292245E+02 -0.25122857186E+02  0.95834040463E+02  0.91288061189E+02 0.  0.
         13    1    3    3    0    0 -0.18555138241E+02 -0.22429239555E+02 -0.50182306724E+02  0.58014127713E+02  0.10566000000E+00 0. -1.
         22    1    1    0    0    0 -0.79694931932E+01  0.12489292245E+02  0.25122857186E+02  0.29165959537E+02  0.00000000000E+00 0. -1.
</event>
<event>
 5    1  0.8943113E-005  0.9118800E+02  0.7818608E-02  0.1130116E+00
         25   -1    0    0    0    0  0.00000000000E+00  0.00000000000E+00  0.99999998245E-14  0.12500000000E+03  0.12500000000E+03 0.  0.
        -13    1    3    3    0    0 -0.40952207396E+02 -0.30971240422E+02 -0.10488288654E+02  0.52405308766E+02  0.10566000000E+00 0. -1.
         23    2    1    0    0    0  0.67324378177E+00 -0.30093302591E+02 -0.62679099279E+01  0.94253507308E+02  0.89097569142E+02 0.  0.
         13    1    3    3    0    0  0.41625451178E+02  0.87793783149E+00  0.42203787265E+01  0.41848198542E+02  0.10566000000E+00 0.  1.
         22    1    1    0    0    0 -0.67324378177E+00  0.30093302591E+02  0.62679099279E+01  0.30746492692E+02  0.00000000000E+00 0.  1.
</event>
<event>
 5    1  0.8943113E-005  0.9118800E+02  0.7818608E-02  0.1130116E+00
         25   -1    0    0    0    0  0.00000000000E+00  0.00000000000E+00  0.99999998245E-14  0.12500000000E+03  0.12500000000E+03 0.  0.
        -13    1    3    3    0    0 -0.31793572875E+02 -0.30351292496E+02 -0.10247307424E+02  0.45133698118E+02  0.10566000000E+00 0. -1.
         23    2    1    0    0    0 -0.17058521816E+02  0.19137764193E+02 -0.11765649893E+02  0.96792240389E+02  0.92590820805E+02 0.  0.
         13    1    3    3    0    0  0.14735051058E+02  0.49489056689E+02 -0.15183424685E+01  0.51658542271E+02  0.10566000000E+00 0.  1.
         22    1    1    0    0    0  0.17058521816E+02 -0.19137764193E+02  0.11765649893E+02  0.28207759611E+02  0.00000000000E+00 0.  1.
</event>
<event>
 5    1  0.8943113E-005  0.9118800E+02  0.7818608E-02  0.1130116E+00
         25   -1    0    0    0    0  0.00000000000E+00  0.00000000000E+00  0.99999998245E-14  0.12500000000E+03  0.12500000000E+03 0.  0.
        -13    1    3    3    0    0 -0.33538774024E+02 -0.26254040366E+02 -0.30545521371E+02  0.52413395601E+02  0.10566000000E+00 0.  1.
         23    2    1    0    0    0  0.94618159026E+01 -0.17664214122E+02 -0.18103579349E+02  0.97994630053E+02  0.94200092958E+02 0.  0.
         13    1    3    3    0    0  0.43000589926E+02  0.85898262436E+01  0.12441942022E+02  0.45581234453E+02  0.10566000000E+00 0. -1.
         22    1    1    0    0    0 -0.94618159026E+01  0.17664214122E+02  0.18103579349E+02  0.27005369947E+02  0.00000000000E+00 0. -1.
</event>
<event>
 5    1  0.8943113E-005  0.9118800E+02  0.7818608E-02  0.1130116E+00
         25   -1    0    0    0    0  0.00000000000E+00  0.00000000000E+00  0.99999998245E-14  0.12500000000E+03  0.12500000000E+03 0.  0.
        -13    1    3    3    0    0 -0.22895835179E+02 -0.32281840180E+02 -0.11203947730E+02  0.41132421309E+02  0.10566000000E+00 0. -1.
         23    2    1    0    0    0 -0.20523335101E+02  0.18997056549E+02  0.79543421674E+01  0.95924804377E+02  0.91412258993E+02 0.  0.
         13    1    3    3    0    0  0.23725000779E+01  0.51278896729E+02  0.19158289897E+02  0.54792383068E+02  0.10566000000E+00 0.  1.
         22    1    1    0    0    0  0.20523335101E+02 -0.18997056549E+02 -0.79543421674E+01  0.29075195623E+02  0.00000000000E+00 0.  1.
</event>
<event>
 5    1  0.8943113E-005  0.9118800E+02  0.7818608E-02  0.1130116E+00
         25   -1    0    0    0    0  0.00000000000E+00  0.00000000000E+00  0.99999998245E-14  0.12500000000E+03  0.12500000000E+03 0.  0.
        -13    1    3    3    0    0  0.21421890951E+02  0.21521379015E+02  0.24916014653E+02  0.39279589062E+02  0.10566000000E+00 0. -1.
         23    2    1    0    0    0  0.35659412888E+02 -0.17851932218E+02  0.15646304457E+02  0.82162025554E+02  0.70110672430E+02 0.  0.
         13    1    3    3    0    0  0.14237521937E+02 -0.39373311233E+02 -0.92697101959E+01  0.42882436492E+02  0.10566000000E+00 0.  1.
         22    1    1    0    0    0 -0.35659412888E+02  0.17851932218E+02 -0.15646304457E+02  0.42837974446E+02  0.00000000000E+00 0.  1.
</event>
<event>
 5    1  0.8943113E-005  0.9118800E+02  0.7818608E-02  0.1130116E+00
         25   -1    0    0    0    0  0.00000000000E+00  0.00000000000E+00  0.99999998245E-14  0.12500000000E+03  0.12500000000E+03 0.  0.
        -13    1    3    3    0    0  0.13516822791E+02  0.31573869512E+01  0.35735146626E+02  0.38336476874E+02  0.10566000000E+00 0.  1.
         23    2    1    0    0    0  0.16386905540E+02  0.10673765681E+02 -0.21385286227E+02  0.96020862435E+02  0.91543517569E+02 0.  0.
         13    1    3    3    0    0  0.28700827491E+01  0.75163787300E+01 -0.57120432853E+02  0.57684385561E+02  0.10566000000E+00 0. -1.
         22    1    1    0    0    0 -0.16386905540E+02 -0.10673765681E+02  0.21385286227E+02  0.28979137565E+02  0.00000000000E+00 0. -1.
</event>
<event>
 5    1  0.8943113E-005  0.9118800E+02  0.7818608E-02  0.1130116E+00
         25   -1    0    0    0    0  0.00000000000E+00  0.00000000000E+00  0.99999998245E-14  0.12500000000E+03  0.12500000000E+03 0.  0.
        -13    1    3    3    0    0 -0.31581657725E+02 -0.40379249417E+02 -0.18759593152E+02  0.54587712788E+02  0.10566000000E+00 0. -1.
         23    2    1    0    0    0 -0.16916776366E+02 -0.23476813023E+02  0.12867766898E+02  0.93331127313E+02  0.87793973759E+02 0.  0.
         13    1    3    3    0    0  0.14664881359E+02  0.16902436395E+02  0.31627360050E+02  0.38743414526E+02  0.10566000000E+00 0.  1.
         22    1    1    0    0    0  0.16916776366E+02  0.23476813023E+02 -0.12867766898E+02  0.31668872687E+02  0.00000000000E+00 0. -1.
</event>
<event>
 5    1  0.8943113E-005  0.9118800E+02  0.7818608E-02  0.1130116E+00
         25   -1    0    0    0    0  0.00000000000E+00  0.00000000000E+00  0.99999998245E-14  0.12500000000E+03  0.12500000000E+03 0.  0.
        -13    1    3    3    0    0  0.34895035538E+02 -0.13389699139E+02 -0.17198400659E+01  0.37415458866E+02  0.10566000000E+00 0. -1.
         23    2    1    0    0    0 -0.11400681275E+02 -0.19339242752E+02  0.25161571522E+02  0.91279286407E+02  0.84822294250E+02 0.  0.
         13    1    3    3    0    0 -0.46295716813E+02 -0.59495436132E+01  0.26881411588E+02  0.53863827542E+02  0.10566000000E+00 0.  1.
         22    1    1    0    0    0  0.11400681275E+02  0.19339242752E+02 -0.25161571522E+02  0.33720713593E+02  0.00000000000E+00 0.  1.
</event>
<event>
 5    1  0.8943113E-005  0.9118800E+02  0.7818608E-02  0.1130116E+00
         25   -1    0    0    0    0  0.00000000000E+00  0.00000000000E+00  0.99999998245E-14  0.12500000000E+03  0.12500000000E+03 0.  0.
        -13    1    3    3    0    0 -0.31476948969E+02  0.27150693530E+02 -0.94619133270E+01  0.42632117510E+02  0.10566000000E+00 0.  1.
         23    2    1    0    0    0 -0.14350719480E+01 -0.10766117911E+02  0.22087430394E+02  0.10038652183E+03  0.97322301950E+02 0.  0.
         13    1    3    3    0    0  0.30041877020E+02 -0.37916811441E+02  0.31549343721E+02  0.57754404317E+02  0.10566000000E+00 0. -1.
         22    1    1    0    0    0  0.14350719480E+01  0.10766117911E+02 -0.22087430394E+02  0.24613478173E+02  0.00000000000E+00 0. -1.
</event>
<event>
 5    1  0.8943113E-005  0.9118800E+02  0.7818608E-02  0.1130116E+00
         25   -1    0    0    0    0  0.00000000000E+00  0.00000000000E+00  0.99999998245E-14  0.12500000000E+03  0.12500000000E+03 0.  0.
        -13    1    3    3    0    0 -0.43150931556E+02  0.30075490000E+02 -0.68839326175E+01  0.53046561483E+02  0.10566000000E+00 0.  1.
         23    2    1    0    0    0 -0.25797776769E+02 -0.77002353226E+01 -0.13065508214E+02  0.95074652632E+02  0.90242247079E+02 0.  0.
         13    1    3    3    0    0  0.17353154787E+02 -0.37775725323E+02 -0.61815755961E+01  0.42028091149E+02  0.10566000000E+00 0. -1.
         22    1    1    0    0    0  0.25797776769E+02  0.77002353226E+01  0.13065508214E+02  0.29925347368E+02  0.00000000000E+00 0. -1.
</event>
<event>
 5    1  0.8943113E-005  0.9118800E+02  0.7818608E-02  0.1130116E+00
         25   -1    0    0    0    0  0.00000000000E+00  0.00000000000E+00  0.99999998245E-14  0.12500000000E+03  0.12500000000E+03 0.  0.
        -13    1    3    3    0    0  0.24133012101E+00  0.31524282762E+02 -0.52100671603E+01  0.31953006239E+02  0.10566000000E+00 0. -1.
         23    2    1    0    0    0  0.23871726923E+01 -0.29423659706E+02  0.81296726809E+01  0.94380693642E+02  0.89275827694E+02 0.  0.
         13    1    3    3    0    0  0.21458425712E+01 -0.60947942468E+02  0.13339739841E+02  0.62427687403E+02  0.10566000000E+00 0.  1.
         22    1    1    0    0    0 -0.23871726923E+01  0.29423659706E+02 -0.81296726809E+01  0.30619306358E+02  0.00000000000E+00 0.  1.
</event>
<event>
 5    1  0.8943113E-005  0.9118800E+02  0.7818608E-02  0.1130116E+00
         25   -1    0    0    0    0  0.00000000000E+00  0.00000000000E+00  0.99999998245E-14  0.12500000000E+03  0.12500000000E+03 0.  0.
        -13    1    3    3    0    0  0.17058098601E+01 -0.42676277137E+02  0.44905854476E+02  0.61973553616E+02  0.10566000000E+00 0. -1.
         23    2    1    0    0    0  0.24449926994E+01 -0.22629711785E+02  0.15922057574E+02  0.97222423393E+02  0.93169768961E+02 0.  0.
         13    1    3    3    0    0  0.73918283921E+00  0.20046565352E+02 -0.28983796902E+02  0.35248869777E+02  0.10566000000E+00 0.  1.
         22    1    1    0    0    0 -0.24449926994E+01  0.22629711785E+02 -0.15922057574E+02  0.27777576607E+02  0.00000000000E+00 0. -1.
</event>
<event>
 5    1  0.8943113E-005  0.9118800E+02  0.7818608E-02  0.1130116E+00
         25   -1    0    0    0    0  0.00000000000E+00  0.00000000000E+00  0.99999998245E-14  0.12500000000E+03  0.12500000000E+03 0.  0.
        -13    1    3    3    0    0 -0.12508638909E+02 -0.13535019918E+02 -0.27961248117E+01  0.18641145070E+02  0.10566000000E+00 0.  1.
         23    2    1    0    0    0  0.44717638912E+02 -0.82254883425E+01 -0.14466451148E+02  0.77286227385E+02  0.60799316165E+02 0.  0.
         13    1    3    3    0    0  0.57226277821E+02  0.53095315752E+01 -0.11670326336E+02  0.58645082314E+02  0.10566000000E+00 0. -1.
         22    1    1    0    0    0 -0.44717638912E+02  0.82254883425E+01  0.14466451148E+02  0.47713772615E+02  0.00000000000E+00 0. -1.
</event>
<event>
 5    1  0.8943113E-005  0.9118800E+02  0.7818608E-02  0.1130116E+00
         25   -1    0    0    0    0  0.00000000000E+00  0.00000000000E+00  0.99999998245E-14  0.12500000000E+03  0.12500000000E+03 0.  0.
        -13    1    3    3    0    0  0.90891514495E+01 -0.39209333462E+02 -0.44822294668E+02  0.60241462200E+02  0.10566000000E+00 0. -1.
         23    2    1    0    0    0 -0.10030590119E+01 -0.14862500353E+02 -0.32319994411E+02  0.89412332433E+02  0.82024893223E+02 0.  0.
         13    1    3    3    0    0 -0.10092210461E+02  0.24346833109E+02  0.12502300257E+02  0.29170870233E+02  0.10566000000E+00 0.  1.
         22    1    1    0    0    0  0.10030590119E+01  0.14862500353E+02  0.32319994411E+02  0.35587667567E+02  0.00000000000E+00 0. -1.
</event>
<event>
 5    1  0.8943113E-005  0.9118800E+02  0.7818608E-02  0.1130116E+00
         25   -1    0    0    0    0  0.00000000000E+00  0.00000000000E+00  0.99999998245E-14  0.12500000000E+03  0.12500000000E+03 0.  0.
        -13    1    3    3    0    0 -0.17625099360E+02  0.42461101136E+02  0.89357790259E+00  0.45982593257E+02  0.10566000000E+00 0. -1.
         23    2    1    0    0    0 -0.17849630628E+02  0.32425924951E+00 -0.24125072961E+02  0.94987775774E+02  0.90121828341E+02 0.  0.
         13    1    3    3    0    0 -0.22453126838E+00 -0.42136841886E+02 -0.25018650864E+02  0.49005182517E+02  0.10566000000E+00 0.  1.
         22    1    1    0    0    0  0.17849630628E+02 -0.32425924951E+00  0.24125072961E+02  0.30012224226E+02  0.00000000000E+00 0. -1.
</event>
<event>
 5    1  0.8943113E-005  0.9118800E+02  0.7818608E-02  0.1130116E+00
         25   -1    0    0    0    0  0.00000000000E+00  0.00000000000E+00  0.99999998245E-14  0.12500000000E+03  0.12500000000E+03 0.  0.
        -13    1    3    3    0    0  0.45568453623E+02  0.24292686348E+02 -0.92651641755E+01  0.52464016305E+02  0.10566000000E+00 0. -1.
         23    2    1    0    0    0  0.16207758124E+02 -0.64327042564E+01 -0.22091388556E+02  0.96855718951E+02  0.92676478881E+02 0.  0.
         13    1    3    3    0    0 -0.29360695499E+02 -0.30725390604E+02 -0.12826224380E+02  0.44391702646E+02  0.10566000000E+00 0.  1.
         22    1    1    0    0    0 -0.16207758124E+02  0.64327042564E+01  0.22091388556E+02  0.28144281049E+02  0.00000000000E+00 0. -1.
</event>
<event>
 5    1  0.8943113E-005  0.9118800E+02  0.7818608E-02  0.1130116E+00
         25   -1    0    0    0    0  0.00000000000E+00  0.00000000000E+00  0.99999998245E-14  0.12500000000E+03  0.12500000000E+03 0.  0.
        -13    1    3    3    0    0 -0.33610142870E+02  0.15717963697E+02 -0.13632911580E+02  0.39529274325E+02  0.10566000000E+00 0. -1.
         23    2    1    0    0    0  0.16310851590E+02 -0.13101562648E+02 -0.18087749332E+02  0.97343870493E+02  0.93332564646E+02 0.  0.
         13    1    3    3    0    0  0.49920994460E+02 -0.28819526346E+02 -0.44548377516E+01  0.57814596168E+02  0.10566000000E+00 0.  1.
         22    1    1    0    0    0 -0.16310851590E+02  0.13101562648E+02  0.18087749332E+02  0.27656129507E+02  0.00000000000E+00 0.  1.
</event>
<event>
 5    1  0.8943113E-005  0.9118800E+02  0.7818608E-02  0.1130116E+00
         25   -1    0    0    0    0  0.00000000000E+00  0.00000000000E+00  0.99999998245E-14  0.12500000000E+03  0.12500000000E+03 0.  0.
        -13    1    3    3    0    0 -0.31626174732E+02  0.67838510599E+00  0.24285618888E+02  0.39880792160E+02  0.10566000000E+00 0.  1.
         23    2    1    0    0    0 -0.13474351984E+02 -0.11528700539E+02 -0.25315513721E+02  0.94091355053E+02  0.88869785435E+02 0.  0.
         13    1    3    3    0    0  0.18151822748E+02 -0.12207085645E+02 -0.49601132609E+02  0.54210562893E+02  0.10566000000E+00 0. -1.
         22    1    1    0    0    0  0.13474351984E+02  0.11528700539E+02  0.25315513721E+02  0.30908644947E+02  0.00000000000E+00 0. -1.
</event>
<event>
 5    1  0.8943113E-005  0.9118800E+02  0.7818608E-02  0.1130116E+00
         25   -1    0    0    0    0  0.00000000000E+00  0.00000000000E+00  0.99999998245E-14  0.12500000000E+03  0.12500000000E+03 0.  0.
        -13    1    3    3    0    0  0.24437385369E+02  0.54731202692E+02 -0.64141058758E+01  0.60281359225E+02  0.10566000000E+00 0.  1.
         23    2    1    0    0    0  0.20441233801E+02  0.21936505773E+02 -0.97098315309E+01  0.93482780053E+02  0.88009630230E+02 0.  0.
         13    1    3    3    0    0 -0.39961515688E+01 -0.32794696919E+02 -0.32957256552E+01  0.33201420828E+02  0.10566000000E+00 0. -1.
         22    1    1    0    0    0 -0.20441233801E+02 -0.21936505773E+02  0.97098315309E+01  0.31517219947E+02  0.00000000000E+00 0.  1.
</event>
<event>
 5    1  0.8943113E-005  0.9118800E+02  0.7818608E-02  0.1130116E+00
         25   -1    0    0    0    0  0.00000000000E+00  0.00000000000E+00  0.99999998245E-14  0.12500000000E+03  0.12500000000E+03 0.  0.
        -13    1    3    3    0    0 -0.59032046236E+02  0.15372043589E+02 -0.90522144278E+01  0.61668759977E+02  0.10566000000E+00 0.  1.
         23    2    1    0    0    0 -0.23814479082E+02  0.73439744565E+01 -0.10815962075E+02  0.97832953595E+02  0.93985309483E+02 0.  0.
         13    1    3    3    0    0  0.35217567154E+02 -0.80280691330E+01 -0.17637476472E+01  0.36164193618E+02  0.10566000000E+00 0. -1.
         22    1    1    0    0    0  0.23814479082E+02 -0.73439744565E+01  0.10815962075E+02  0.27167046405E+02  0.00000000000E+00 0.  1.
</event>
<event>
 5    1  0.8943113E-005  0.9118800E+02  0.7818608E-02  0.1130116E+00
         25   -1    0    0    0    0  0.00000000000E+00  0.00000000000E+00  0.99999998245E-14  0.12500000000E+03  0.12500000000E+03 0.  0.
        -13    1    3    3    0    0  0.58597873055E+02 -0.11394260620E+02 -0.16762574927E+02  0.62004314236E+02  0.10566000000E+00 0. -1.
         23    2    1    0    0    0  0.27290818007E+02 -0.11065184940E+01 -0.11449358389E+02  0.95384110039E+02  0.90669882043E+02 0.  0.
         13    1    3    3    0    0 -0.31307055048E+02  0.10287742126E+02  0.53132165372E+01  0.33379795803E+02  0.10566000000E+00 0.  1.
         22    1    1    0    0    0 -0.27290818007E+02  0.11065184940E+01  0.11449358389E+02  0.29615889961E+02  0.00000000000E+00 0. -1.
</event>
<event>
 5    1  0.8943113E-005  0.9118800E+02  0.7818608E-02  0.1130116E+00
         25   -1    0    0    0    0  0.00000000000E+00  0.00000000000E+00  0.99999998245E-14  0.12500000000E+03  0.12500000000E+03 0.  0.
        -13    1    3    3    0    0  0.58239965109E+01 -0.34053842481E+02  0.12877873893E+02  0.36870502073E+02  0.10566000000E+00 0. -1.
         23    2    1    0    0    0 -0.75369857271E+00  0.24232561796E+02  0.16555864734E+02  0.95642177025E+02  0.91024965017E+02 0.  0.
         13    1    3    3    0    0 -0.65776950836E+01  0.58286404276E+02  0.36779908407E+01  0.58771674953E+02  0.10566000000E+00 0.  1.
         22    1    1    0    0    0  0.75369857271E+00 -0.24232561796E+02 -0.16555864734E+02  0.29357822975E+02  0.00000000000E+00 0.  1.
</event>
<event>
 5    1  0.8943113E-005  0.9118800E+02  0.7818608E-02  0.1130116E+00
         25   -1    0    0    0    0  0.00000000000E+00  0.00000000000E+00  0.99999998245E-14  0.12500000000E+03  0.12500000000E+03 0.  0.
        -13    1    3    3    0    0 -0.22045135475E+02  0.28493094712E+02 -0.47618223588E+02  0.59710558749E+02  0.10566000000E+00 0.  1.
         23    2    1    0    0    0 -0.21384252041E+02  0.14565515574E+02 -0.15220198689E+02  0.94981756757E+02  0.90113479509E+02 0.  0.
         13    1    3    3    0    0  0.66088343457E+00 -0.13927579138E+02  0.32398024898E+02  0.35271198008E+02  0.10566000000E+00 0. -1.
         22    1    1    0    0    0  0.21384252041E+02 -0.14565515574E+02  0.15220198689E+02  0.30018243243E+02  0.00000000000E+00 0.  1.
</event>
<event>
 5    1  0.8943113E-005  0.9118800E+02  0.7818608E-02  0.1130116E+00
         25   -1    0    0    0    0  0.00000000000E+00  0.00000000000E+00  0.99999998245E-14  0.12500000000E+03  0.12500000000E+03 0.  0.
        -13    1    3    3    0    0  0.17085614784E+02  0.14690337128E+02  0.57600169526E+02  0.61850747214E+02  0.10566000000E+00 0.  1.
         23    2    1    0    0    0  0.13581714725E+02  0.42926887054E+01  0.25272531233E+02  0.95989812373E+02  0.91501109793E+02 0.  0.
         13    1    3    3    0    0 -0.35039000585E+01 -0.10397648423E+02 -0.32327638293E+02  0.34139065160E+02  0.10566000000E+00 0. -1.
         22    1    1    0    0    0 -0.13581714725E+02 -0.42926887054E+01 -0.25272531233E+02  0.29010187627E+02  0.00000000000E+00 0.  1.
</event>
<event>
 5    1  0.8943113E-005  0.9118800E+02  0.7818608E-02  0.1130116E+00
         25   -1    0    0    0    0  0.00000000000E+00  0.00000000000E+00  0.99999998245E-14  0.12500000000E+03  0.12500000000E+03 0.  0.
        -13    1    3    3    0    0  0.57471159946E+02  0.80509668162E+01  0.13572024909E+02  0.59598349947E+02  0.10566000000E+00 0.  1.
         23    2    1    0    0    0  0.25414948496E+02 -0.98551155826E+01  0.59379131507E+01  0.97101940520E+02  0.93007984227E+02 0.  0.
         13    1    3    3    0    0 -0.32056211451E+02 -0.17906082399E+02 -0.76341117583E+01  0.37503590573E+02  0.10566000000E+00 0. -1.
         22    1    1    0    0    0 -0.25414948496E+02  0.98551155826E+01 -0.59379131507E+01  0.27898059480E+02  0.00000000000E+00 0.  1.
</event>
<event>
 5    1  0.8943113E-005  0.9118800E+02  0.7818608E-02  0.1130116E+00
         25   -1    0    0    0    0  0.00000000000E+00  0.00000000000E+00  0.99999998245E-14  0.12500000000E+03  0.12500000000E+03 0.  0.
        -13    1    3    3    0    0  0.32353973265E+02 -0.12565977195E+02 -0.31072729165E+02  0.46585502366E+02  0.10566000000E+00 0.  1.
         23    2    1    0    0    0  0.37134309190E+00  0.21520561198E+02 -0.22042980957E+02  0.94191470995E+02  0.89010492352E+02 0.  0.
         13    1    3    3    0    0 -0.31982630173E+02  0.34086538393E+02  0.90297482078E+01  0.47605968629E+02  0.10566000000E+00 0. -1.
         22    1    1    0    0    0 -0.37134309190E+00 -0.21520561198E+02  0.22042980957E+02  0.30808529005E+02  0.00000000000E+00 0. -1.
</event>
<event>
 5    1  0.8943113E-005  0.9118800E+02  0.7818608E-02  0.1130116E+00
         25   -1    0    0    0    0  0.00000000000E+00  0.00000000000E+00  0.99999998245E-14  0.12500000000E+03  0.12500000000E+03 0.  0.
        -13    1    3    3    0    0  0.53487985859E+02 -0.14158464766E+02 -0.58582298433E+01  0.55639525310E+02  0.10566000000E+00 0. -1.
         23    2    1    0    0    0  0.19297840277E+02  0.11800932588E+02 -0.12620310210E+02  0.99097473500E+02  0.95652330735E+02 0.  0.
         13    1    3    3    0    0 -0.34190145583E+02  0.25959397354E+02 -0.67620803669E+01  0.43457948190E+02  0.10566000000E+00 0.  1.
         22    1    1    0    0    0 -0.19297840277E+02 -0.11800932588E+02  0.12620310210E+02  0.25902526500E+02  0.00000000000E+00 0. -1.
</event>
<event>
 5    1  0.8943113E-005  0.9118800E+02  0.7818608E-02  0.1130116E+00
         25   -1    0    0    0    0  0.00000000000E+00  0.00000000000E+00  0.99999998245E-14  0.12500000000E+03  0.12500000000E+03 0.  0.
        -13    1    3    3    0    0 -0.34354275323E+02  0.41771831763E+01  0.44452915103E+01  0.34891788044E+02  0.10566000000E+00 0. -1.
         23    2    1    0    0    0  0.26312974706E+02  0.46884682653E+01  0.11368961926E+02  0.95955075007E+02  0.91453642638E+02 0.  0.
         13    1    3    3    0    0  0.60667250030E+02  0.51128508905E+00  0.69236704162E+01  0.61063286963E+02  0.10566000000E+00 0.  1.
         22    1    1    0    0    0 -0.26312974706E+02 -0.46884682653E+01 -0.11368961926E+02  0.29044924993E+02  0.00000000000E+00 0.  1.
</event>
<event>
 5    1  0.8943113E-005  0.9118800E+02  0.7818608E-02  0.1130116E+00
         25   -1    0    0    0    0  0.00000000000E+00  0.00000000000E+00  0.99999998245E-14  0.12500000000E+03  0.12500000000E+03 0.  0.
        -13    1    3    3    0    0 -0.40674646528E+02  0.20255079790E+02 -0.11981826508E+02  0.46992238274E+02  0.10566000000E+00 0. -1.
         23    2    1    0    0    0 -0.20693611726E+00 -0.15507985762E+01 -0.28961066511E+02  0.95996704114E+02  0.91510524141E+02 0.  0.
         13    1    3    3    0    0  0.40467710411E+02 -0.21805878366E+02 -0.16979240003E+02  0.49004465841E+02  0.10566000000E+00 0.  1.
         22    1    1    0    0    0  0.20693611726E+00  0.15507985762E+01  0.28961066511E+02  0.29003295886E+02  0.00000000000E+00 0. -1.
</event>
<event>
 5    1  0.8943113E-005  0.9118800E+02  0.7818608E-02  0.1130116E+00
         25   -1    0    0    0    0  0.00000000000E+00  0.00000000000E+00  0.99999998245E-14  0.12500000000E+03  0.12500000000E+03 0.  0.
        -13    1    3    3    0    0 -0.11164946693E+02  0.28075138901E+02 -0.26258949332E+02  0.40030151674E+02  0.10566000000E+00 0.  1.
         23    2    1    0    0    0  0.24712250792E+01 -0.46784557031E+01  0.23371080942E+02  0.10103748082E+03  0.98154827718E+02 0.  0.
         13    1    3    3    0    0  0.13636171772E+02 -0.32753594604E+02  0.49630030275E+02  0.61007329143E+02  0.10566000000E+00 0. -1.
         22    1    1    0    0    0 -0.24712250792E+01  0.46784557031E+01 -0.23371080942E+02  0.23962519182E+02  0.00000000000E+00 0. -1.
</event>
<event>
 5    1  0.8943113E-005  0.9118800E+02  0.7818608E-02  0.1130116E+00
         25   -1    0    0    0    0  0.00000000000E+00  0.00000000000E+00  0.99999998245E-14  0.12500000000E+03  0.12500000000E+03 0.  0.
        -13    1    3    3    0    0 -0.14573437043E+01  0.32619291526E+02  0.13728258400E+02  0.35420591089E+02  0.10566000000E+00 0.  1.
         23    2    1    0    0    0 -0.13442857169E+02 -0.22573346383E+02 -0.10275803666E+02  0.96789035522E+02  0.92586494050E+02 0.  0.
         13    1    3    3    0    0 -0.11985513464E+02 -0.55192637909E+02 -0.24004062067E+02  0.61368444433E+02  0.10566000000E+00 0. -1.
         22    1    1    0    0    0  0.13442857169E+02  0.22573346383E+02  0.10275803666E+02  0.28210964478E+02  0.00000000000E+00 0. -1.
</event>
<event>
 5    1  0.8943113E-005  0.9118800E+02  0.7818608E-02  0.1130116E+00
         25   -1    0    0    0    0  0.00000000000E+00  0.00000000000E+00  0.99999998245E-14  0.12500000000E+03  0.12500000000E+03 0.  0.
        -13    1    3    3    0    0 -0.23961361257E+02  0.81260693821E+01 -0.11453885793E+02  0.27773773613E+02  0.10566000000E+00 0.  1.
         23    2    1    0    0    0  0.10819184451E+02 -0.37521020300E+02 -0.69357379041E+01  0.85339110237E+02  0.75563070075E+02 0.  0.
         13    1    3    3    0    0  0.34780545709E+02 -0.45647089682E+02  0.45181478886E+01  0.57565336624E+02  0.10566000000E+00 0. -1.
         22    1    1    0    0    0 -0.10819184451E+02  0.37521020300E+02  0.69357379041E+01  0.39660889763E+02  0.00000000000E+00 0. -1.
</event>
<event>
 5    1  0.8943113E-005  0.9118800E+02  0.7818608E-02  0.1130116E+00
         25   -1    0    0    0    0  0.00000000000E+00  0.00000000000E+00  0.99999998245E-14  0.12500000000E+03  0.12500000000E+03 0.  0.
        -13    1    3    3    0    0 -0.38226899045E+02  0.39487145793E+02 -0.96076697841E+00  0.54967851793E+02  0.10566000000E+00 0.  1.
         23    2    1    0    0    0 -0.22402648943E+02  0.97442711834E+01 -0.19787185030E+02  0.93561771806E+02  0.88121750729E+02 0.  0.
         13    1    3    3    0    0  0.15824250102E+02 -0.29742874609E+02 -0.18826418051E+02  0.38593920014E+02  0.10566000000E+00 0. -1.
         22    1    1    0    0    0  0.22402648943E+02 -0.97442711834E+01  0.19787185030E+02  0.31438228194E+02  0.00000000000E+00 0.  1.
</event>
<event>
 5    1  0.8943113E-005  0.9118800E+02  0.7818608E-02  0.1130116E+00
         25   -1    0    0    0    0  0.00000000000E+00  0.00000000000E+00  0.99999998245E-14  0.12500000000E+03  0.12500000000E+03 0.  0.
        -13    1    3    3    0    0 -0.61198215060E+01  0.33654943406E+02 -0.12982131470E+02  0.36587625401E+02  0.10566000000E+00 0.  1.
         23    2    1    0    0    0  0.30031580707E+02 -0.87415965005E+01 -0.90292958914E+01  0.92444823247E+02  0.86522862942E+02 0.  0.
         13    1    3    3    0    0  0.36151402213E+02 -0.42396539907E+02  0.39528355785E+01  0.55857197846E+02  0.10566000000E+00 0. -1.
         22    1    1    0    0    0 -0.30031580707E+02  0.87415965005E+01  0.90292958914E+01  0.32555176753E+02  0.00000000000E+00 0. -1.
</event>
<event>
 5    1  0.8943113E-005  0.9118800E+02  0.7818608E-02  0.1130116E+00
         25   -1    0    0    0    0  0.00000000000E+00  0.00000000000E+00  0.99999998245E-14  0.12500000000E+03  0.12500000000E+03 0.  0.
        -13    1    3    3    0    0  0.55086648671E+00 -0.78509160134E+01 -0.36261947862E+02  0.37106338582E+02  0.10566000000E+00 0. -1.
         23    2    1    0    0    0 -0.22722886339E+02 -0.73470268519E+00  0.17624456337E+02  0.96233859960E+02  0.91833898915E+02 0.  0.
         13    1    3    3    0    0 -0.23273752826E+02  0.71162133282E+01  0.53886404200E+02  0.59127521378E+02  0.10566000000E+00 0.  1.
         22    1    1    0    0    0  0.22722886339E+02  0.73470268519E+00 -0.17624456337E+02  0.28766140040E+02  0.00000000000E+00 0.  1.
</event>
<event>
 5    1  0.8943113E-005  0.9118800E+02  0.7818608E-02  0.1130116E+00
         25   -1    0    0    0    0  0.00000000000E+00  0.00000000000E+00  0.99999998245E-14  0.12500000000E+03  0.12500000000E+03 0.  0.
        -13    1    3    3    0    0  0.19875054688E+02 -0.50446369127E+02 -0.77116196342E+00  0.54226006784E+02  0.10566000000E+00 0. -1.
         23    2    1    0    0    0 -0.95584731384E+01 -0.22679784383E+02 -0.13859785077E+02  0.96754103470E+02  0.92539320656E+02 0.  0.
         13    1    3    3    0    0 -0.29433527826E+02  0.27766584744E+02 -0.13088623113E+02  0.42528096686E+02  0.10566000000E+00 0.  1.
         22    1    1    0    0    0  0.95584731384E+01  0.22679784383E+02  0.13859785077E+02  0.28245896530E+02  0.00000000000E+00 0. -1.
</event>
<event>
 5    1  0.8943113E-005  0.9118800E+02  0.7818608E-02  0.1130116E+00
         25   -1    0    0    0    0  0.00000000000E+00  0.00000000000E+00  0.99999998245E-14  0.12500000000E+03  0.12500000000E+03 0.  0.
        -13    1    3    3    0    0 -0.54399018972E+00 -0.32791347116E+02 -0.10056031258E+02  0.34303109184E+02  0.10566000000E+00 0.  1.
         23    2    1    0    0    0  0.33701951848E+01 -0.10132074721E+02 -0.46442010586E+02  0.77346275057E+02  0.60922645742E+02 0.  0.
         13    1    3    3    0    0  0.39141853745E+01  0.22659272395E+02 -0.36385979328E+02  0.43043165872E+02  0.10566000000E+00 0. -1.
         22    1    1    0    0    0 -0.33701951848E+01  0.10132074721E+02  0.46442010586E+02  0.47653724943E+02  0.00000000000E+00 0. -1.
</event>
<event>
 5    1  0.8943113E-005  0.9118800E+02  0.7818608E-02  0.1130116E+00
         25   -1    0    0    0    0  0.00000000000E+00  0.00000000000E+00  0.99999998245E-14  0.12500000000E+03  0.12500000000E+03 0.  0.
        -13    1    3    3    0    0  0.49538802188E+02 -0.30022848460E+02  0.14132668920E+02  0.59625563701E+02  0.10566000000E+00 0.  1.
         23    2    1    0    0    0  0.15863585099E+02 -0.24963058137E+02  0.91388066791E+01  0.94043168908E+02  0.88801983237E+02 0.  0.
         13    1    3    3    0    0 -0.33675217088E+02  0.50597903226E+01 -0.49938622409E+01  0.34417605207E+02  0.10566000000E+00 0. -1.
         22    1    1    0    0    0 -0.15863585099E+02  0.24963058137E+02 -0.91388066791E+01  0.30956831092E+02  0.00000000000E+00 0.  1.
</event>
<event>
 5    1  0.8943113E-005  0.9118800E+02  0.7818608E-02  0.1130116E+00
         25   -1    0    0    0    0  0.00000000000E+00  0.00000000000E+00  0.99999998245E-14  0.12500000000E+03  0.12500000000E+03 0.  0.
        -13    1    3    3    0    0 -0.33181536781E+02 -0.14758457884E+02  0.35792437657E+02  0.50989569715E+02  0.10566000000E+00 0.  1.
         23    2    1    0    0    0 -0.14715109958E+02  0.38356162789E+01 -0.12089059084E+02  0.10557342637E+03  0.10377069236E+03 0.  0.
         13    1    3    3    0    0  0.18466426824E+02  0.18594074163E+02 -0.47881496741E+02  0.54583856659E+02  0.10566000000E+00 0. -1.
         22    1    1    0    0    0  0.14715109958E+02 -0.38356162789E+01  0.12089059084E+02  0.19426573626E+02  0.00000000000E+00 0. -1.
</event>
<event>
 5    1  0.8943113E-005  0.9118800E+02  0.7818608E-02  0.1130116E+00
         25   -1    0    0    0    0  0.00000000000E+00  0.00000000000E+00  0.99999998245E-14  0.12500000000E+03  0.12500000000E+03 0.  0.
        -13    1    3    3    0    0  0.55538094346E+02 -0.96093102523E+01  0.50285075323E+01  0.56587240781E+02  0.10566000000E+00 0.  1.
         23    2    1    0    0    0  0.23822990851E+02  0.13571731358E+02  0.91717600463E+01  0.96088964607E+02  0.91636461912E+02 0.  0.
         13    1    3    3    0    0 -0.31715103495E+02  0.23181041610E+02  0.41432525140E+01  0.39501723826E+02  0.10566000000E+00 0. -1.
         22    1    1    0    0    0 -0.23822990851E+02 -0.13571731358E+02 -0.91717600463E+01  0.28911035393E+02  0.00000000000E+00 0.  1.
</event>
<event>
 5    1  0.8943113E-005  0.9118800E+02  0.7818608E-02  0.1130116E+00
         25   -1    0    0    0    0  0.00000000000E+00  0.00000000000E+00  0.99999998245E-14  0.12500000000E+03  0.12500000000E+03 0.  0.
        -13    1    3    3    0    0  0.37041553662E+02  0.29901301874E+02 -0.11591585969E+02  0.48995311824E+02  0.10566000000E+00 0.  1.
         23    2    1    0    0    0 -0.57907474886E+01  0.29251573763E+02  0.46737422373E+01  0.94816706763E+02  0.89884240503E+02 0.  0.
         13    1    3    3    0    0 -0.42832301150E+02 -0.64972811122E+00  0.16265328206E+02  0.45821394939E+02  0.10566000000E+00 0. -1.
         22    1    1    0    0    0  0.57907474886E+01 -0.29251573763E+02 -0.46737422373E+01  0.30183293237E+02  0.00000000000E+00 0.  1.
</event>
<event>
 5    1  0.8943113E-005  0.9118800E+02  0.7818608E-02  0.1130116E+00
         25   -1    0    0    0    0  0.00000000000E+00  0.00000000000E+00  0.99999998245E-14  0.12500000000E+03  0.12500000000E+03 0.  0.
        -13    1    3    3    0    0  0.15423257415E+02  0.30129082955E+02 -0.42583832472E+02  0.54396989448E+02  0.10566000000E+00 0.  1.
         23    2    1    0    0    0  0.32056084184E+01  0.28409461871E+02 -0.25411366111E+01  0.96297546718E+02  0.91920545470E+02 0.  0.
         13    1    3    3    0    0 -0.12217648997E+02 -0.17196210840E+01  0.40042695860E+02  0.41900557269E+02  0.10566000000E+00 0. -1.
         22    1    1    0    0    0 -0.32056084184E+01 -0.28409461871E+02  0.25411366111E+01  0.28702453282E+02  0.00000000000E+00 0.  1.
</event>
<event>
 5    1  0.8943113E-005  0.9118800E+02  0.7818608E-02  0.1130116E+00
         25   -1    0    0    0    0  0.00000000000E+00  0.00000000000E+00  0.99999998245E-14  0.12500000000E+03  0.12500000000E+03 0.  0.
        -13    1    3    3    0    0  0.30914544839E+02  0.36738232131E+02  0.21882819722E+02  0.52766236797E+02  0.10566000000E+00 0. -1.
         23    2    1    0    0    0  0.94220466538E+00  0.38743668831E+02  0.11034868945E+02  0.84704492102E+02  0.74505859002E+02 0.  0.
         13    1    3    3    0    0 -0.29972340173E+02  0.20054366997E+01 -0.10847950778E+02  0.31938255305E+02  0.10566000000E+00 0.  1.
         22    1    1    0    0    0 -0.94220466538E+00 -0.38743668831E+02 -0.11034868945E+02  0.40295507898E+02  0.00000000000E+00 0.  1.
</event>
<event>
 5    1  0.8943113E-005  0.9118800E+02  0.7818608E-02  0.1130116E+00
         25   -1    0    0    0    0  0.00000000000E+00  0.00000000000E+00  0.99999998245E-14  0.12500000000E+03  0.12500000000E+03 0.  0.
        -13    1    3    3    0    0 -0.58706519816E+02  0.11730966629E+02  0.12893789322E+02  0.61239954393E+02  0.10566000000E+00 0. -1.
         23    2    1    0    0    0 -0.31035119805E+02  0.22271850525E+01 -0.15039099091E+01  0.93848743853E+02  0.88527882405E+02 0.  0.
         13    1    3    3    0    0  0.27671400011E+02 -0.95037815767E+01 -0.14397699231E+02  0.32608789460E+02  0.10566000000E+00 0.  1.
         22    1    1    0    0    0  0.31035119805E+02 -0.22271850525E+01  0.15039099091E+01  0.31151256147E+02  0.00000000000E+00 0.  1.
</event>
<event>
 5    1  0.8943113E-005  0.9118800E+02  0.7818608E-02  0.1130116E+00
         25   -1    0    0    0    0  0.00000000000E+00  0.00000000000E+00  0.99999998245E-14  0.12500000000E+03  0.12500000000E+03 0.  0.
        -13    1    3    3    0    0  0.19723984840E+02 -0.16589826824E+02 -0.31963876487E+02  0.41060424939E+02  0.10566000000E+00 0.  1.
         23    2    1    0    0    0  0.44501265549E+01 -0.24608921378E+02  0.18175600352E+02  0.94084711130E+02  0.88860439919E+02 0.  0.
         13    1    3    3    0    0 -0.15273858285E+02 -0.80190945545E+01  0.50139476839E+02  0.53024286192E+02  0.10566000000E+00 0. -1.
         22    1    1    0    0    0 -0.44501265549E+01  0.24608921378E+02 -0.18175600352E+02  0.30915288870E+02  0.00000000000E+00 0. -1.
</event>
<event>
 5    1  0.8943113E-005  0.9118800E+02  0.7818608E-02  0.1130116E+00
         25   -1    0    0    0    0  0.00000000000E+00  0.00000000000E+00  0.99999998245E-14  0.12500000000E+03  0.12500000000E+03 0.  0.
        -13    1    3    3    0    0  0.45170121071E+02  0.39740149110E+02  0.13146542925E+02  0.61582968780E+02  0.10566000000E+00 0. -1.
         23    2    1    0    0    0  0.25295459018E+02  0.14435882043E+02  0.11124891227E+02  0.93822794511E+02  0.88491234752E+02 0.  0.
         13    1    3    3    0    0 -0.19874662054E+02 -0.25304267067E+02 -0.20216516984E+01  0.32239825731E+02  0.10566000000E+00 0.  1.
         22    1    1    0    0    0 -0.25295459018E+02 -0.14435882043E+02 -0.11124891227E+02  0.31177205489E+02  0.00000000000E+00 0. -1.
</event>
<event>
 5    1  0.8943113E-005  0.9118800E+02  0.7818608E-02  0.1130116E+00
         25   -1    0    0    0    0  0.00000000000E+00  0.00000000000E+00  0.99999998245E-14  0.12500000000E+03  0.12500000000E+03 0.  0.
        -13    1    3    3    0    0 -0.19718216744E+02  0.51469320126E+02 -0.25516218241E+02  0.60737036009E+02  0.10566000000E+00 0.  1.
         23    2    1    0    0    0 -0.11343984420E+02  0.26207356236E+02 -0.17977719035E+01  0.96386305949E+02  0.92041167351E+02 0.  0.
         13    1    3    3    0    0  0.83742323240E+01 -0.25261963890E+02  0.23718446337E+02  0.35649269940E+02  0.10566000000E+00 0. -1.
         22    1    1    0    0    0  0.11343984420E+02 -0.26207356236E+02  0.17977719035E+01  0.28613694051E+02  0.00000000000E+00 0.  1.
</event>
<event>
 5    1  0.8943113E-005  0.9118800E+02  0.7818608E-02  0.1130116E+00
         25   -1    0    0    0    0  0.00000000000E+00  0.00000000000E+00  0.99999998245E-14  0.12500000000E+03  0.12500000000E+03 0.  0.
        -13    1    3    3    0    0  0.19351111411E+02 -0.30446096734E+02 -0.21018502499E+01  0.36136674690E+02  0.10566000000E+00 0.  1.
         23    2    1    0    0    0 -0.91136348538E+01  0.14950775480E+02  0.23639624411E+02  0.95582048508E+02  0.90942356067E+02 0.  0.
         13    1    3    3    0    0 -0.28464746264E+02  0.45396872213E+02  0.25741474661E+02  0.59445373818E+02  0.10566000000E+00 0. -1.
         22    1    1    0    0    0  0.91136348538E+01 -0.14950775480E+02 -0.23639624411E+02  0.29417951492E+02  0.00000000000E+00 0. -1.
</event>
<event>
 5    1  0.8943113E-005  0.9118800E+02  0.7818608E-02  0.1130116E+00
         25   -1    0    0    0    0  0.00000000000E+00  0.00000000000E+00  0.99999998245E-14  0.12500000000E+03  0.12500000000E+03 0.  0.
        -13    1    3    3    0    0  0.14634639510E+02 -0.25962407700E+02  0.20573258243E+02  0.36214491656E+02  0.10566000000E+00 0. -1.
         23    2    1    0    0    0 -0.21843230634E+02  0.18649078498E+02  0.77680844685E+01  0.95246714641E+02  0.90480266689E+02 0.  0.
         13    1    3    3    0    0 -0.36477870144E+02  0.44611486198E+02 -0.12805173774E+02  0.59032222984E+02  0.10566000000E+00 0.  1.
         22    1    1    0    0    0  0.21843230634E+02 -0.18649078498E+02 -0.77680844685E+01  0.29753285359E+02  0.00000000000E+00 0.  1.
</event>
<event>
 5    1  0.8943113E-005  0.9118800E+02  0.7818608E-02  0.1130116E+00
         25   -1    0    0    0    0  0.00000000000E+00  0.00000000000E+00  0.99999998245E-14  0.12500000000E+03  0.12500000000E+03 0.  0.
        -13    1    3    3    0    0  0.33149106026E+01  0.42695687614E+02  0.33191335197E+02  0.54181050832E+02  0.10566000000E+00 0. -1.
         23    2    1    0    0    0  0.20542978525E+02  0.14925167502E+02  0.27878724392E+02  0.87290613034E+02  0.78725175506E+02 0.  0.
         13    1    3    3    0    0  0.17228067922E+02 -0.27770520112E+02 -0.53126108048E+01  0.33109562202E+02  0.10566000000E+00 0.  1.
         22    1    1    0    0    0 -0.20542978525E+02 -0.14925167502E+02 -0.27878724392E+02  0.37709386966E+02  0.00000000000E+00 0. -1.
</event>
<event>
 5    1  0.8943113E-005  0.9118800E+02  0.7818608E-02  0.1130116E+00
         25   -1    0    0    0    0  0.00000000000E+00  0.00000000000E+00  0.99999998245E-14  0.12500000000E+03  0.12500000000E+03 0.  0.
        -13    1    3    3    0    0 -0.34962726542E+02 -0.22043843689E+02 -0.31379971126E+02  0.51894479897E+02  0.10566000000E+00 0.  1.
         23    2    1    0    0    0 -0.27440518576E+00  0.56661496509E+01 -0.28011846478E+02  0.96419515519E+02  0.92086257822E+02 0.  0.
         13    1    3    3    0    0  0.34688321357E+02  0.27709993340E+02  0.33681246481E+01  0.44525035622E+02  0.10566000000E+00 0. -1.
         22    1    1    0    0    0  0.27440518576E+00 -0.56661496509E+01  0.28011846478E+02  0.28580484481E+02  0.00000000000E+00 0.  1.
</event>
<event>
 5    1  0.8943113E-005  0.9118800E+02  0.7818608E-02  0.1130116E+00
         25   -1    0    0    0    0  0.00000000000E+00  0.00000000000E+00  0.99999998245E-14  0.12500000000E+03  0.12500000000E+03 0.  0.
        -13    1    3    3    0    0  0.30019848929E+02 -0.36887675765E+02  0.21342202918E+02  0.52128617308E+02  0.10566000000E+00 0. -1.
         23    2    1    0    0    0 -0.84940740060E+01 -0.22308419334E+02  0.20838912763E+02  0.93312855106E+02  0.87767954154E+02 0.  0.
         13    1    3    3    0    0 -0.38513922935E+02  0.14579256432E+02 -0.50329015446E+00  0.41184237797E+02  0.10566000000E+00 0.  1.
         22    1    1    0    0    0  0.84940740060E+01  0.22308419334E+02 -0.20838912763E+02  0.31687144894E+02  0.00000000000E+00 0. -1.
</event>
<event>
 5    1  0.8943113E-005  0.9118800E+02  0.7818608E-02  0.1130116E+00
         25   -1    0    0    0    0  0.00000000000E+00  0.00000000000E+00  0.99999998245E-14  0.12500000000E+03  0.12500000000E+03 0.  0.
        -13    1    3    3    0    0  0.34487680691E+02  0.26599482674E+02 -0.27977250957E+01  0.43643682563E+02  0.10566000000E+00 0.  1.
         23    2    1    0    0    0  0.97807672305E+01 -0.10725727807E+02  0.24825151951E+02  0.96242517252E+02  0.91845682059E+02 0.  0.
         13    1    3    3    0    0 -0.24706913460E+02 -0.37325210481E+02  0.27622877047E+02  0.52598834688E+02  0.10566000000E+00 0. -1.
         22    1    1    0    0    0 -0.97807672305E+01  0.10725727807E+02 -0.24825151951E+02  0.28757482748E+02  0.00000000000E+00 0. -1.
</event>
<event>
 5    1  0.8943113E-005  0.9118800E+02  0.7818608E-02  0.1130116E+00
         25   -1    0    0    0    0  0.00000000000E+00  0.00000000000E+00  0.99999998245E-14  0.12500000000E+03  0.12500000000E+03 0.  0.
        -13    1    3    3    0    0  0.36690911849E+02  0.18962615029E+01  0.42327226020E+01  0.36983049153E+02  0.10566000000E+00 0.  1.
         23    2    1    0    0    0 -0.12798372479E+02 -0.28261624116E+00 -0.26703342512E+02  0.95386713938E+02  0.90673471780E+02 0.  0.
         13    1    3    3    0    0 -0.49489284328E+02 -0.21788777440E+01 -0.30936065114E+02  0.58403664785E+02  0.10566000000E+00 0. -1.
         22    1    1    0    0    0  0.12798372479E+02  0.28261624116E+00  0.26703342512E+02  0.29613286062E+02  0.00000000000E+00 0. -1.
</event>
<event>
 5    1  0.8943113E-005  0.9118800E+02  0.7818608E-02  0.1130116E+00
         25   -1    0    0    0    0  0.00000000000E+00  0.00000000000E+00  0.99999998245E-14  0.12500000000E+03  0.12500000000E+03 0.  0.
        -13    1    3    3    0    0 -0.29334093925E+02 -0.40897175846E+02  0.16832045279E+02  0.53069736865E+02  0.10566000000E+00 0.  1.
         23    2    1    0    0    0  0.69293223976E+01 -0.22730509220E+02  0.20258099800E+02  0.93773694330E+02  0.88421850142E+02 0.  0.
         13    1    3    3    0    0  0.36263416323E+02  0.18166666626E+02  0.34260545207E+01  0.40703957465E+02  0.10566000000E+00 0. -1.
         22    1    1    0    0    0 -0.69293223976E+01  0.22730509220E+02 -0.20258099800E+02  0.31226305670E+02  0.00000000000E+00 0.  1.
</event>
<event>
 5    1  0.8943113E-005  0.9118800E+02  0.7818608E-02  0.1130116E+00
         25   -1    0    0    0    0  0.00000000000E+00  0.00000000000E+00  0.99999998245E-14  0.12500000000E+03  0.12500000000E+03 0.  0.
        -13    1    3    3    0    0 -0.40653762438E+02 -0.16595225323E+01 -0.44995920972E+01  0.40935802282E+02  0.10566000000E+00 0. -1.
         23    2    1    0    0    0  0.12286710553E+02 -0.86491158872E+01 -0.23066225559E+02  0.97471447126E+02  0.93503271501E+02 0.  0.
         13    1    3    3    0    0  0.52940472991E+02 -0.69895933548E+01 -0.18566633462E+02  0.56535644843E+02  0.10566000000E+00 0.  1.
         22    1    1    0    0    0 -0.12286710553E+02  0.86491158872E+01  0.23066225559E+02  0.27528552874E+02  0.00000000000E+00 0.  1.
</event>
<event>
 5    1  0.8943113E-005  0.9118800E+02  0.7818608E-02  0.1130116E+00
         25   -1    0    0    0    0  0.00000000000E+00  0.00000000000E+00  0.99999998245E-14  0.12500000000E+03  0.12500000000E+03 0.  0.
        -13    1    3    3    0    0 -0.25962725020E+02 -0.21922279497E+01  0.38259507978E+02  0.46288984311E+02  0.10566000000E+00 0. -1.
         23    2    1    0    0    0 -0.20221537125E+02 -0.20959993210E+02 -0.64970129888E+01  0.95159707494E+02  0.90359984913E+02 0.  0.
         13    1    3    3    0    0  0.57411878947E+01 -0.18767765260E+02 -0.44756520966E+02  0.48870723182E+02  0.10566000000E+00 0.  1.
         22    1    1    0    0    0  0.20221537125E+02  0.20959993210E+02  0.64970129888E+01  0.29840292506E+02  0.00000000000E+00 0.  1.
</event>
<event>
 5    1  0.8943113E-005  0.9118800E+02  0.7818608E-02  0.1130116E+00
         25   -1    0    0    0    0  0.00000000000E+00  0.00000000000E+00  0.99999998245E-14  0.12500000000E+03  0.12500000000E+03 0.  0.
        -13    1    3    3    0    0 -0.80166054624E+01 -0.31783571106E+02  0.30507570090E+02  0.44779284856E+02  0.10566000000E+00 0.  1.
         23    2    1    0    0    0 -0.27849688154E+02  0.65596433588E+01  0.24100741742E+01  0.96286893083E+02  0.91906056769E+02 0.  0.
         13    1    3    3    0    0 -0.19833082692E+02  0.38343214465E+02 -0.28097495916E+02  0.51507608227E+02  0.10566000000E+00 0. -1.
         22    1    1    0    0    0  0.27849688154E+02 -0.65596433588E+01 -0.24100741742E+01  0.28713106917E+02  0.00000000000E+00 0.  1.
</event>
<event>
 5    1  0.8943113E-005  0.9118800E+02  0.7818608E-02  0.1130116E+00
         25   -1    0    0    0    0  0.00000000000E+00  0.00000000000E+00  0.99999998245E-14  0.12500000000E+03  0.12500000000E+03 0.  0.
        -13    1    3    3    0    0 -0.78766605418E+01  0.25053240074E+02 -0.18249944141E+02  0.31980904376E+02  0.10566000000E+00 0. -1.
         23    2    1    0    0    0 -0.47190142567E+01 -0.23537982747E+02  0.19882745132E+02  0.93829031434E+02  0.88500044398E+02 0.  0.
         13    1    3    3    0    0  0.31576462851E+01 -0.48591222821E+02  0.38132689274E+02  0.61848127058E+02  0.10566000000E+00 0.  1.
         22    1    1    0    0    0  0.47190142567E+01  0.23537982747E+02 -0.19882745132E+02  0.31170968566E+02  0.00000000000E+00 0.  1.
</event>
<event>
 5    1  0.8943113E-005  0.9118800E+02  0.7818608E-02  0.1130116E+00
         25   -1    0    0    0    0  0.00000000000E+00  0.00000000000E+00  0.99999998245E-14  0.12500000000E+03  0.12500000000E+03 0.  0.
        -13    1    3    3    0    0  0.27878246321E+02  0.29117253529E+02 -0.15861037232E+02  0.43319680714E+02  0.10566000000E+00 0. -1.
         23    2    1    0    0    0 -0.58486158744E+01 -0.11528328627E+02 -0.24938204895E+02  0.96910451553E+02  0.92750271635E+02 0.  0.
         13    1    3    3    0    0 -0.33726862196E+02 -0.40645582156E+02 -0.90771676624E+01  0.53590770840E+02  0.10566000000E+00 0.  1.
         22    1    1    0    0    0  0.58486158744E+01  0.11528328627E+02  0.24938204895E+02  0.28089548447E+02  0.00000000000E+00 0. -1.
</event>
<event>
 5    1  0.8943113E-005  0.9118800E+02  0.7818608E-02  0.1130116E+00
         25   -1    0    0    0    0  0.00000000000E+00  0.00000000000E+00  0.99999998245E-14  0.12500000000E+03  0.12500000000E+03 0.  0.
        -13    1    3    3    0    0  0.16530425134E+01  0.33460973399E+02  0.14768473247E+02  0.36612678903E+02  0.10566000000E+00 0. -1.
         23    2    1    0    0    0 -0.28795221493E+02 -0.97959946364E+01 -0.69564545896E+01  0.93798741176E+02  0.88457251223E+02 0.  0.
         13    1    3    3    0    0 -0.30448264007E+02 -0.43256968036E+02 -0.21724927837E+02  0.57186062272E+02  0.10566000000E+00 0.  1.
         22    1    1    0    0    0  0.28795221493E+02  0.97959946364E+01  0.69564545896E+01  0.31201258824E+02  0.00000000000E+00 0.  1.
</event>
<event>
 5    1  0.8943113E-005  0.9118800E+02  0.7818608E-02  0.1130116E+00
         25   -1    0    0    0    0  0.00000000000E+00  0.00000000000E+00  0.99999998245E-14  0.12500000000E+03  0.12500000000E+03 0.  0.
        -13    1    3    3    0    0 -0.31045009803E+02 -0.64197214287E+01  0.16786710755E+02  0.35872137919E+02  0.10566000000E+00 0.  1.
         23    2    1    0    0    0  0.26391200573E+02 -0.96322836657E+01 -0.30926203172E+01  0.96736230670E+02  0.92515175336E+02 0.  0.
         13    1    3    3    0    0  0.57436210376E+02 -0.32125622370E+01 -0.19879331072E+02  0.60864092751E+02  0.10566000000E+00 0. -1.
         22    1    1    0    0    0 -0.26391200573E+02  0.96322836657E+01  0.30926203172E+01  0.28263769330E+02  0.00000000000E+00 0. -1.
</event>
<event>
 5    1  0.8943113E-005  0.9118800E+02  0.7818608E-02  0.1130116E+00
         25   -1    0    0    0    0  0.00000000000E+00  0.00000000000E+00  0.99999998245E-14  0.12500000000E+03  0.12500000000E+03 0.  0.
        -13    1    3    3    0    0  0.24497770321E+02  0.51725165547E+02 -0.24892000033E+02  0.62411988682E+02  0.10566000000E+00 0.  1.
         23    2    1    0    0    0  0.13733231636E+02  0.24497914065E+02 -0.10730389709E+02  0.94935224797E+02  0.90048910039E+02 0.  0.
         13    1    3    3    0    0 -0.10764538685E+02 -0.27227251482E+02  0.14161610324E+02  0.32523236115E+02  0.10566000000E+00 0. -1.
         22    1    1    0    0    0 -0.13733231636E+02 -0.24497914065E+02  0.10730389709E+02  0.30064775203E+02  0.00000000000E+00 0.  1.
</event>
<event>
 5    1  0.8943113E-005  0.9118800E+02  0.7818608E-02  0.1130116E+00
         25   -1    0    0    0    0  0.00000000000E+00  0.00000000000E+00  0.99999998245E-14  0.12500000000E+03  0.12500000000E+03 0.  0.
        -13    1    3    3    0    0 -0.33880276834E+02  0.16977208359E+02 -0.91679713096E+01  0.38989250108E+02  0.10566000000E+00 0.  1.
         23    2    1    0    0    0  0.12402728201E+02  0.11773755775E+02  0.23541695927E+02  0.95902569890E+02  0.91381849798E+02 0.  0.
         13    1    3    3    0    0  0.46283005034E+02 -0.52034525840E+01  0.32709667237E+02  0.56913319782E+02  0.10566000000E+00 0. -1.
         22    1    1    0    0    0 -0.12402728201E+02 -0.11773755775E+02 -0.23541695927E+02  0.29097430110E+02  0.00000000000E+00 0. -1.
</event>
<event>
 5    1  0.8943113E-005  0.9118800E+02  0.7818608E-02  0.1130116E+00
         25   -1    0    0    0    0  0.00000000000E+00  0.00000000000E+00  0.99999998245E-14  0.12500000000E+03  0.12500000000E+03 0.  0.
        -13    1    3    3    0    0  0.10208561991E+02 -0.24779082518E+02  0.43226062808E+02  0.50859820470E+02  0.10566000000E+00 0. -1.
         23    2    1    0    0    0 -0.96836283369E+01 -0.24552049249E+02 -0.17900347846E+00  0.98606670875E+02  0.95008777061E+02 0.  0.
         13    1    3    3    0    0 -0.19892190328E+02  0.22703326926E+00 -0.43405066286E+02  0.47746850404E+02  0.10566000000E+00 0.  1.
         22    1    1    0    0    0  0.96836283369E+01  0.24552049249E+02  0.17900347846E+00  0.26393329125E+02  0.00000000000E+00 0.  1.
</event>
<event>
 5    1  0.8943113E-005  0.9118800E+02  0.7818608E-02  0.1130116E+00
         25   -1    0    0    0    0  0.00000000000E+00  0.00000000000E+00  0.99999998245E-14  0.12500000000E+03  0.12500000000E+03 0.  0.
        -13    1    3    3    0    0 -0.40014943760E+02 -0.17884833656E+02  0.22896488867E+02  0.49450210975E+02  0.10566000000E+00 0.  1.
         23    2    1    0    0    0 -0.23596449851E+00 -0.20616516449E+01  0.31762916102E+02  0.93169371259E+02  0.87563364570E+02 0.  0.
         13    1    3    3    0    0  0.39778979261E+02  0.15823182011E+02  0.88664272347E+01  0.43719160284E+02  0.10566000000E+00 0. -1.
         22    1    1    0    0    0  0.23596449851E+00  0.20616516449E+01 -0.31762916102E+02  0.31830628741E+02  0.00000000000E+00 0. -1.
</event>
<event>
 5    1  0.8943113E-005  0.9118800E+02  0.7818608E-02  0.1130116E+00
         25   -1    0    0    0    0  0.00000000000E+00  0.00000000000E+00  0.99999998245E-14  0.12500000000E+03  0.12500000000E+03 0.  0.
        -13    1    3    3    0    0  0.44794577026E+02 -0.22411470096E+02  0.13554626492E+01  0.50106651912E+02  0.10566000000E+00 0.  1.
         23    2    1    0    0    0  0.15683008750E+02 -0.34226344842E+01 -0.26072233193E+02  0.94382479951E+02  0.89278328769E+02 0.  0.
         13    1    3    3    0    0 -0.29111568275E+02  0.18988835612E+02 -0.27427695842E+02  0.44275828039E+02  0.10566000000E+00 0. -1.
         22    1    1    0    0    0 -0.15683008750E+02  0.34226344842E+01  0.26072233193E+02  0.30617520049E+02  0.00000000000E+00 0.  1.
</event>
<event>
 5    1  0.8943113E-005  0.9118800E+02  0.7818608E-02  0.1130116E+00
         25   -1    0    0    0    0  0.00000000000E+00  0.00000000000E+00  0.99999998245E-14  0.12500000000E+03  0.12500000000E+03 0.  0.
        -13    1    3    3    0    0  0.43121771774E+02  0.47774797162E+01  0.66217112889E+01  0.43888150312E+02  0.10566000000E+00 0.  1.
         23    2    1    0    0    0  0.57603873840E+01 -0.27736792652E+02 -0.80604995643E+01  0.95546929147E+02  0.90894071791E+02 0.  0.
         13    1    3    3    0    0 -0.37361384390E+02 -0.32514272368E+02 -0.14682210853E+02  0.51658778835E+02  0.10566000000E+00 0. -1.
         22    1    1    0    0    0 -0.57603873840E+01  0.27736792652E+02  0.80604995643E+01  0.29453070853E+02  0.00000000000E+00 0. -1.
</event>
<event>
 5    1  0.8943113E-005  0.9118800E+02  0.7818608E-02  0.1130116E+00
         25   -1    0    0    0    0  0.00000000000E+00  0.00000000000E+00  0.99999998245E-14  0.12500000000E+03  0.12500000000E+03 0.  0.
        -13    1    3    3    0    0  0.31414184036E+02 -0.27127334594E+02  0.38378607514E+02  0.56530274363E+02  0.10566000000E+00 0. -1.
         23    2    1    0    0    0  0.28087907634E+02 -0.70827999917E+01  0.50036770094E+01  0.95603854086E+02  0.90972322833E+02 0.  0.
         13    1    3    3    0    0 -0.33262764026E+01  0.20044534602E+02 -0.33374930505E+02  0.39073579723E+02  0.10566000000E+00 0.  1.
         22    1    1    0    0    0 -0.28087907634E+02  0.70827999917E+01 -0.50036770094E+01  0.29396145914E+02  0.00000000000E+00 0. -1.
</event>
<event>
 5    1  0.8943113E-005  0.9118800E+02  0.7818608E-02  0.1130116E+00
         25   -1    0    0    0    0  0.00000000000E+00  0.00000000000E+00  0.99999998245E-14  0.12500000000E+03  0.12500000000E+03 0.  0.
        -13    1    3    3    0    0 -0.30139809707E+02 -0.38994517004E+01  0.58738462731E+01  0.30953628008E+02  0.10566000000E+00 0.  1.
         23    2    1    0    0    0  0.10194054247E+02  0.28827431945E+01 -0.34792654733E+02  0.88630262941E+02  0.80824289266E+02 0.  0.
         13    1    3    3    0    0  0.40333863955E+02  0.67821948949E+01 -0.40666501006E+02  0.57676634934E+02  0.10566000000E+00 0. -1.
         22    1    1    0    0    0 -0.10194054247E+02 -0.28827431945E+01  0.34792654733E+02  0.36369737059E+02  0.00000000000E+00 0. -1.
</event>
<event>
 5    1  0.8943113E-005  0.9118800E+02  0.7818608E-02  0.1130116E+00
         25   -1    0    0    0    0  0.00000000000E+00  0.00000000000E+00  0.99999998245E-14  0.12500000000E+03  0.12500000000E+03 0.  0.
        -13    1    3    3    0    0 -0.20307790471E+02 -0.46210432508E+02 -0.67562852686E+01  0.50926112958E+02  0.10566000000E+00 0.  1.
         23    2    1    0    0    0 -0.27288485429E+02 -0.50507228503E+00 -0.53772748924E+01  0.97182170820E+02  0.93115748963E+02 0.  0.
         13    1    3    3    0    0 -0.69806949583E+01  0.45705360223E+02  0.13790103762E+01  0.46256057861E+02  0.10566000000E+00 0. -1.
         22    1    1    0    0    0  0.27288485429E+02  0.50507228503E+00  0.53772748924E+01  0.27817829180E+02  0.00000000000E+00 0.  1.
</event>
<event>
 5    1  0.8943113E-005  0.9118800E+02  0.7818608E-02  0.1130116E+00
         25   -1    0    0    0    0  0.00000000000E+00  0.00000000000E+00  0.99999998245E-14  0.12500000000E+03  0.12500000000E+03 0.  0.
        -13    1    3    3    0    0  0.49596319544E+02 -0.25265565902E+02  0.13077013532E+00  0.55661225260E+02  0.10566000000E+00 0.  1.
         23    2    1    0    0    0  0.22218885822E+02 -0.17626042824E+01  0.18393361160E+02  0.96101879026E+02  0.91654076596E+02 0.  0.
         13    1    3    3    0    0 -0.27377433722E+02  0.23502961619E+02  0.18262591025E+02  0.40440653766E+02  0.10566000000E+00 0. -1.
         22    1    1    0    0    0 -0.22218885822E+02  0.17626042824E+01 -0.18393361160E+02  0.28898120974E+02  0.00000000000E+00 0.  1.
</event>
<event>
 5    1  0.8943113E-005  0.9118800E+02  0.7818608E-02  0.1130116E+00
         25   -1    0    0    0    0  0.00000000000E+00  0.00000000000E+00  0.99999998245E-14  0.12500000000E+03  0.12500000000E+03 0.  0.
        -13    1    3    3    0    0  0.68937402672E+01 -0.32141147322E+02  0.18928486537E+02  0.37932516034E+02  0.10566000000E+00 0.  1.
         23    2    1    0    0    0 -0.17402062913E+02  0.20507931337E+02  0.40011133043E+01  0.97807796172E+02  0.93951844277E+02 0.  0.
         13    1    3    3    0    0 -0.24295803180E+02  0.52649078660E+02 -0.14927373233E+02  0.59875280137E+02  0.10566000000E+00 0. -1.
         22    1    1    0    0    0  0.17402062913E+02 -0.20507931337E+02 -0.40011133043E+01  0.27192203828E+02  0.00000000000E+00 0. -1.
</event>
<event>
 5    1  0.8943113E-005  0.9118800E+02  0.7818608E-02  0.1130116E+00
         25   -1    0    0    0    0  0.00000000000E+00  0.00000000000E+00  0.99999998245E-14  0.12500000000E+03  0.12500000000E+03 0.  0.
        -13    1    3    3    0    0  0.19462058373E+02 -0.31582112271E+02  0.28307137311E+02  0.46663762369E+02  0.10566000000E+00 0. -1.
         23    2    1    0    0    0 -0.22696872780E+02 -0.11521703041E+02  0.15956925164E+02  0.94958010458E+02  0.90080534049E+02 0.  0.
         13    1    3    3    0    0 -0.42158931153E+02  0.20060409230E+02 -0.12350212147E+02  0.48294248089E+02  0.10566000000E+00 0.  1.
         22    1    1    0    0    0  0.22696872780E+02  0.11521703041E+02 -0.15956925164E+02  0.30041989542E+02  0.00000000000E+00 0. -1.
</event>
<event>
 5    1  0.8943113E-005  0.9118800E+02  0.7818608E-02  0.1130116E+00
         25   -1    0    0    0    0  0.00000000000E+00  0.00000000000E+00  0.99999998245E-14  0.12500000000E+03  0.12500000000E+03 0.  0.
        -13    1    3    3    0    0  0.25233943375E+02 -0.25719358322E+02 -0.28623218294E+00  0.36032351902E+02  0.10566000000E+00 0. -1.
         23    2    1    0    0    0 -0.20935936396E+02  0.12254632259E+02 -0.13474513577E+02  0.97250189898E+02  0.93207014084E+02 0.  0.
         13    1    3    3    0    0 -0.46169879771E+02  0.37973990580E+02 -0.13188281394E+02  0.61217837995E+02  0.10566000000E+00 0.  1.
         22    1    1    0    0    0  0.20935936396E+02 -0.12254632259E+02  0.13474513577E+02  0.27749810102E+02  0.00000000000E+00 0.  1.
</event>
<event>
 5    1  0.8943113E-005  0.9118800E+02  0.7818608E-02  0.1130116E+00
         25   -1    0    0    0    0  0.00000000000E+00  0.00000000000E+00  0.99999998245E-14  0.12500000000E+03  0.12500000000E+03 0.  0.
        -13    1    3    3    0    0 -0.52386731083E+02  0.38432163723E+01  0.29305060437E+02  0.60149294567E+02  0.10566000000E+00 0.  1.
         23    2    1    0    0    0 -0.23943386198E+02  0.13413061395E+02  0.10218302243E+02  0.95715026731E+02  0.91124950934E+02 0.  0.
         13    1    3    3    0    0  0.28443344885E+02  0.95698450231E+01 -0.19086758193E+02  0.35565732164E+02  0.10566000000E+00 0. -1.
         22    1    1    0    0    0  0.23943386198E+02 -0.13413061395E+02 -0.10218302243E+02  0.29284973269E+02  0.00000000000E+00 0.  1.
</event>
<event>
 5    1  0.8943113E-005  0.9118800E+02  0.7818608E-02  0.1130116E+00
         25   -1    0    0    0    0  0.00000000000E+00  0.00000000000E+00  0.99999998245E-14  0.12500000000E+03  0.12500000000E+03 0.  0.
        -13    1    3    3    0    0  0.26553304709E+02  0.47494510847E+01  0.51686138480E+02  0.58301829745E+02  0.10566000000E+00 0. -1.
         23    2    1    0    0    0  0.23922700572E+02 -0.57900438663E+01  0.15906963521E+02  0.95693828310E+02  0.91095867511E+02 0.  0.
         13    1    3    3    0    0 -0.26306041373E+01 -0.10539494951E+02 -0.35779174959E+02  0.37391998565E+02  0.10566000000E+00 0.  1.
         22    1    1    0    0    0 -0.23922700572E+02  0.57900438663E+01 -0.15906963521E+02  0.29306171690E+02  0.00000000000E+00 0. -1.
</event>
<event>
 5    1  0.8943113E-005  0.9118800E+02  0.7818608E-02  0.1130116E+00
         25   -1    0    0    0    0  0.00000000000E+00  0.00000000000E+00  0.99999998245E-14  0.12500000000E+03  0.12500000000E+03 0.  0.
        -13    1    3    3    0    0  0.27144401468E+02 -0.25909423057E+02  0.40231555727E+02  0.55015506673E+02  0.10566000000E+00 0.  1.
         23    2    1    0    0    0  0.21321109032E+02 -0.19489039584E+02  0.57907650219E-01  0.96113745352E+02  0.91670258743E+02 0.  0.
         13    1    3    3    0    0 -0.58232924353E+01  0.64203834730E+01 -0.40173648077E+02  0.41098238679E+02  0.10566000000E+00 0. -1.
         22    1    1    0    0    0 -0.21321109032E+02  0.19489039584E+02 -0.57907650219E-01  0.28886254648E+02  0.00000000000E+00 0.  1.
</event>
<event>
 5    1  0.8943113E-005  0.9118800E+02  0.7818608E-02  0.1130116E+00
         25   -1    0    0    0    0  0.00000000000E+00  0.00000000000E+00  0.99999998245E-14  0.12500000000E+03  0.12500000000E+03 0.  0.
        -13    1    3    3    0    0  0.23333833426E+02  0.47826864488E+02  0.27974953956E+02  0.60120595157E+02  0.10566000000E+00 0.  1.
         23    2    1    0    0    0  0.20227206777E+02  0.20014613527E+02  0.54906262862E+01  0.96019461260E+02  0.91541604285E+02 0.  0.
         13    1    3    3    0    0 -0.31066266484E+01 -0.27812250962E+02 -0.22484327670E+02  0.35898866103E+02  0.10566000000E+00 0. -1.
         22    1    1    0    0    0 -0.20227206777E+02 -0.20014613527E+02 -0.54906262862E+01  0.28980538740E+02  0.00000000000E+00 0.  1.
</event>
<event>
 5    1  0.8943113E-005  0.9118800E+02  0.7818608E-02  0.1130116E+00
         25   -1    0    0    0    0  0.00000000000E+00  0.00000000000E+00  0.99999998245E-14  0.12500000000E+03  0.12500000000E+03 0.  0.
        -13    1    3    3    0    0  0.43216382230E+02 -0.12814750544E+02 -0.10879058074E+02  0.46370665222E+02  0.10566000000E+00 0. -1.
         23    2    1    0    0    0 -0.84765245149E-01 -0.26511298209E+02  0.10396558902E+02  0.96522911756E+02  0.92226503452E+02 0.  0.
         13    1    3    3    0    0 -0.43301147475E+02 -0.13696547665E+02  0.21275616976E+02  0.50152246534E+02  0.10566000000E+00 0.  1.
         22    1    1    0    0    0  0.84765245149E-01  0.26511298209E+02 -0.10396558902E+02  0.28477088244E+02  0.00000000000E+00 0. -1.
</event>
<event>
 5    1  0.8943113E-005  0.9118800E+02  0.7818608E-02  0.1130116E+00
         25   -1    0    0    0    0  0.00000000000E+00  0.00000000000E+00  0.99999998245E-14  0.12500000000E+03  0.12500000000E+03 0.  0.
        -13    1    3    3    0    0  0.12669942364E+02  0.19311287833E+02 -0.31515359308E+02  0.39072782261E+02  0.10566000000E+00 0. -1.
         23    2    1    0    0    0 -0.21834705749E+02 -0.18070905518E+02 -0.58217835007E+01  0.96065502173E+02  0.91604451546E+02 0.  0.
         13    1    3    3    0    0 -0.34504648113E+02 -0.37382193351E+02  0.25693575807E+02  0.56992719912E+02  0.10566000000E+00 0.  1.
         22    1    1    0    0    0  0.21834705749E+02  0.18070905518E+02  0.58217835007E+01  0.28934497827E+02  0.00000000000E+00 0.  1.
</event>
<event>
 5    1  0.8943113E-005  0.9118800E+02  0.7818608E-02  0.1130116E+00
         25   -1    0    0    0    0  0.00000000000E+00  0.00000000000E+00  0.99999998245E-14  0.12500000000E+03  0.12500000000E+03 0.  0.
        -13    1    3    3    0    0 -0.26322616292E+02  0.13626732540E+02 -0.44238111417E+02  0.53250254779E+02  0.10566000000E+00 0.  1.
         23    2    1    0    0    0 -0.10351850323E+02 -0.18162720906E+02 -0.16941100760E+02  0.98091894701E+02  0.94329071209E+02 0.  0.
         13    1    3    3    0    0  0.15970765970E+02 -0.31789453446E+02  0.27297010658E+02  0.44841639922E+02  0.10566000000E+00 0. -1.
         22    1    1    0    0    0  0.10351850323E+02  0.18162720906E+02  0.16941100760E+02  0.26908105299E+02  0.00000000000E+00 0.  1.
</event>
<event>
 5    1  0.8943113E-005  0.9118800E+02  0.7818608E-02  0.1130116E+00
         25   -1    0    0    0    0  0.00000000000E+00  0.00000000000E+00  0.99999998245E-14  0.12500000000E+03  0.12500000000E+03 0.  0.
        -13    1    3    3    0    0  0.18791406876E+02 -0.50529458497E+02  0.25894203287E+02  0.59806889873E+02  0.10566000000E+00 0.  1.
         23    2    1    0    0    0  0.18501464917E+02 -0.19721973881E+02  0.38606508916E+01  0.97683977538E+02  0.93786962764E+02 0.  0.
         13    1    3    3    0    0 -0.28994195813E+00  0.30807484617E+02 -0.22033552396E+02  0.37877087664E+02  0.10566000000E+00 0. -1.
         22    1    1    0    0    0 -0.18501464917E+02  0.19721973881E+02 -0.38606508916E+01  0.27316022462E+02  0.00000000000E+00 0.  1.
</event>
<event>
 5    1  0.8943113E-005  0.9118800E+02  0.7818608E-02  0.1130116E+00
         25   -1    0    0    0    0  0.00000000000E+00  0.00000000000E+00  0.99999998245E-14  0.12500000000E+03  0.12500000000E+03 0.  0.
        -13    1    3    3    0    0  0.12094986360E+02 -0.34733263476E+02 -0.20927899997E+02  0.42316385113E+02  0.10566000000E+00 0. -1.
         23    2    1    0    0    0  0.95983772430E+01  0.20410574808E+02 -0.15174219451E+02  0.97815862242E+02  0.93962575319E+02 0.  0.
         13    1    3    3    0    0 -0.24966091170E+01  0.55143838284E+02  0.57536805461E+01  0.55499477129E+02  0.10566000000E+00 0.  1.
         22    1    1    0    0    0 -0.95983772430E+01 -0.20410574808E+02  0.15174219451E+02  0.27184137758E+02  0.00000000000E+00 0.  1.
</event>
<event>
 5    1  0.8943113E-005  0.9118800E+02  0.7818608E-02  0.1130116E+00
         25   -1    0    0    0    0  0.00000000000E+00  0.00000000000E+00  0.99999998245E-14  0.12500000000E+03  0.12500000000E+03 0.  0.
        -13    1    3    3    0    0 -0.47286072993E+02 -0.24455127229E+01  0.28011145717E+01  0.47432168814E+02  0.10566000000E+00 0.  1.
         23    2    1    0    0    0 -0.13370200048E+02  0.12272929423E+02  0.27611928969E+02  0.91957517234E+02  0.85815961852E+02 0.  0.
         13    1    3    3    0    0  0.33915872945E+02  0.14718442146E+02  0.24810814397E+02  0.44525348420E+02  0.10566000000E+00 0. -1.
         22    1    1    0    0    0  0.13370200048E+02 -0.12272929423E+02 -0.27611928969E+02  0.33042482766E+02  0.00000000000E+00 0.  1.
</event>
<event>
 5    1  0.8943113E-005  0.9118800E+02  0.7818608E-02  0.1130116E+00
         25   -1    0    0    0    0  0.00000000000E+00  0.00000000000E+00  0.99999998245E-14  0.12500000000E+03  0.12500000000E+03 0.  0.
        -13    1    3    3    0    0  0.16276747869E+02 -0.26390979338E+02 -0.36584271846E+02  0.47956609786E+02  0.10566000000E+00 0.  1.
         23    2    1    0    0    0  0.10381436991E+02  0.19080532491E+02 -0.14761122478E+02  0.98737256598E+02  0.95180429446E+02 0.  0.
         13    1    3    3    0    0 -0.58953108779E+01  0.45471511829E+02  0.21823149368E+02  0.50780646813E+02  0.10566000000E+00 0. -1.
         22    1    1    0    0    0 -0.10381436991E+02 -0.19080532491E+02  0.14761122478E+02  0.26262743402E+02  0.00000000000E+00 0.  1.
</event>
<event>
 5    1  0.8943113E-005  0.9118800E+02  0.7818608E-02  0.1130116E+00
         25   -1    0    0    0    0  0.00000000000E+00  0.00000000000E+00  0.99999998245E-14  0.12500000000E+03  0.12500000000E+03 0.  0.
        -13    1    3    3    0    0 -0.16549827621E+02  0.39281275860E+02  0.34496800589E+02  0.54835716849E+02  0.10566000000E+00 0.  1.
         23    2    1    0    0    0  0.53920707153E+01  0.58796096321E+01  0.28692438558E+02  0.95219129186E+02  0.90442148894E+02 0.  0.
         13    1    3    3    0    0  0.21941898336E+02 -0.33401666227E+02 -0.58043620306E+01  0.40383412337E+02  0.10566000000E+00 0. -1.
         22    1    1    0    0    0 -0.53920707153E+01 -0.58796096321E+01 -0.28692438558E+02  0.29780870814E+02  0.00000000000E+00 0.  1.
</event>
<event>
 5    1  0.8943113E-005  0.9118800E+02  0.7818608E-02  0.1130116E+00
         25   -1    0    0    0    0  0.00000000000E+00  0.00000000000E+00  0.99999998245E-14  0.12500000000E+03  0.12500000000E+03 0.  0.
        -13    1    3    3    0    0  0.55562165168E+02 -0.13880074392E+02  0.19830308052E+02  0.60605799596E+02  0.10566000000E+00 0.  1.
         23    2    1    0    0    0  0.21295736742E+02 -0.16271780381E+02  0.10644631064E+02  0.96162742664E+02  0.91737046312E+02 0.  0.
         13    1    3    3    0    0 -0.34266428425E+02 -0.23917059885E+01 -0.91856769881E+01  0.35556943068E+02  0.10566000000E+00 0. -1.
         22    1    1    0    0    0 -0.21295736742E+02  0.16271780381E+02 -0.10644631064E+02  0.28837257336E+02  0.00000000000E+00 0.  1.
</event>
<event>
 5    1  0.8943113E-005  0.9118800E+02  0.7818608E-02  0.1130116E+00
         25   -1    0    0    0    0  0.00000000000E+00  0.00000000000E+00  0.99999998245E-14  0.12500000000E+03  0.12500000000E+03 0.  0.
        -13    1    3    3    0    0  0.19697607533E+02  0.13030717793E+02  0.33493813999E+02  0.40983436764E+02  0.10566000000E+00 0.  1.
         23    2    1    0    0    0 -0.17645012669E+02 -0.20056708811E+02  0.74364548231E+01  0.97270613048E+02  0.93234399564E+02 0.  0.
         13    1    3    3    0    0 -0.37342620202E+02 -0.33087426603E+02 -0.26057359176E+02  0.56287176284E+02  0.10566000000E+00 0. -1.
         22    1    1    0    0    0  0.17645012669E+02  0.20056708811E+02 -0.74364548231E+01  0.27729386952E+02  0.00000000000E+00 0. -1.
</event>
<event>
 5    1  0.8943113E-005  0.9118800E+02  0.7818608E-02  0.1130116E+00
         25   -1    0    0    0    0  0.00000000000E+00  0.00000000000E+00  0.99999998245E-14  0.12500000000E+03  0.12500000000E+03 0.  0.
        -13    1    3    3    0    0 -0.25513335051E+02  0.76690059764E+01  0.47566453431E+02  0.54519011125E+02  0.10566000000E+00 0. -1.
         23    2    1    0    0    0 -0.26900112356E+02 -0.65692270821E+01  0.86373495584E+01  0.95993542156E+02  0.91506204921E+02 0.  0.
         13    1    3    3    0    0 -0.13867773057E+01 -0.14238233058E+02 -0.38929103872E+02  0.41474531031E+02  0.10566000000E+00 0.  1.
         22    1    1    0    0    0  0.26900112356E+02  0.65692270821E+01 -0.86373495584E+01  0.29006457844E+02  0.00000000000E+00 0. -1.
</event>
<event>
 5    1  0.8943113E-005  0.9118800E+02  0.7818608E-02  0.1130116E+00
         25   -1    0    0    0    0  0.00000000000E+00  0.00000000000E+00  0.99999998245E-14  0.12500000000E+03  0.12500000000E+03 0.  0.
        -13    1    3    3    0    0  0.96972806513E+01  0.17396941068E+01 -0.40528432599E+02  0.41708857580E+02  0.10566000000E+00 0.  1.
         23    2    1    0    0    0 -0.23953551328E+02 -0.14720424551E+02 -0.18425705459E-01  0.96884810872E+02  0.92715709122E+02 0.  0.
         13    1    3    3    0    0 -0.33650831979E+02 -0.16460118658E+02  0.40510006894E+02  0.55175953292E+02  0.10566000000E+00 0. -1.
         22    1    1    0    0    0  0.23953551328E+02  0.14720424551E+02  0.18425705459E-01  0.28115189128E+02  0.00000000000E+00 0.  1.
</event>
<event>
 5    1  0.8943113E-005  0.9118800E+02  0.7818608E-02  0.1130116E+00
         25   -1    0    0    0    0  0.00000000000E+00  0.00000000000E+00  0.99999998245E-14  0.12500000000E+03  0.12500000000E+03 0.  0.
        -13    1    3    3    0    0  0.36270150797E+02  0.16610815897E+02  0.20078217226E+02  0.44660821920E+02  0.10566000000E+00 0.  1.
         23    2    1    0    0    0  0.19556413003E+02 -0.13825856137E+01 -0.23324838731E+02  0.94530130713E+02  0.89484818144E+02 0.  0.
         13    1    3    3    0    0 -0.16713737793E+02 -0.17993401511E+02 -0.43403055957E+02  0.49869308792E+02  0.10566000000E+00 0. -1.
         22    1    1    0    0    0 -0.19556413003E+02  0.13825856137E+01  0.23324838731E+02  0.30469869287E+02  0.00000000000E+00 0. -1.
</event>
<event>
 5    1  0.8943113E-005  0.9118800E+02  0.7818608E-02  0.1130116E+00
         25   -1    0    0    0    0  0.00000000000E+00  0.00000000000E+00  0.99999998245E-14  0.12500000000E+03  0.12500000000E+03 0.  0.
        -13    1    3    3    0    0  0.27869018582E+02  0.35862119787E+02 -0.19312019479E+02  0.49353207522E+02  0.10566000000E+00 0.  1.
         23    2    1    0    0    0 -0.14676116450E+02  0.25366261333E+02 -0.70288912168E+01  0.94862964317E+02  0.89948546843E+02 0.  0.
         13    1    3    3    0    0 -0.42545135032E+02 -0.10495858454E+02  0.12283128262E+02  0.45509756795E+02  0.10566000000E+00 0. -1.
         22    1    1    0    0    0  0.14676116450E+02 -0.25366261333E+02  0.70288912168E+01  0.30137035683E+02  0.00000000000E+00 0. -1.
</event>
<event>
 5    1  0.8943113E-005  0.9118800E+02  0.7818608E-02  0.1130116E+00
         25   -1    0    0    0    0  0.00000000000E+00  0.00000000000E+00  0.99999998245E-14  0.12500000000E+03  0.12500000000E+03 0.  0.
        -13    1    3    3    0    0 -0.40016226320E+02 -0.87751284168E+01 -0.49558232295E+01  0.41265876891E+02  0.10566000000E+00 0.  1.
         23    2    1    0    0    0  0.33137799789E+01  0.16823551656E+01  0.28034305254E+02  0.96720436218E+02  0.92493832521E+02 0.  0.
         13    1    3    3    0    0  0.43330006299E+02  0.10457483582E+02  0.32990128484E+02  0.55454559327E+02  0.10566000000E+00 0. -1.
         22    1    1    0    0    0 -0.33137799789E+01 -0.16823551656E+01 -0.28034305254E+02  0.28279563782E+02  0.00000000000E+00 0. -1.
</event>
<event>
 5    1  0.8943113E-005  0.9118800E+02  0.7818608E-02  0.1130116E+00
         25   -1    0    0    0    0  0.00000000000E+00  0.00000000000E+00  0.99999998245E-14  0.12500000000E+03  0.12500000000E+03 0.  0.
        -13    1    3    3    0    0 -0.38813767565E+02 -0.33862471139E+02 -0.33774910602E+02  0.61594896335E+02  0.10566000000E+00 0.  1.
         23    2    1    0    0    0 -0.19232891821E+02 -0.13871167521E+02 -0.24064301415E+02  0.91215328642E+02  0.84727989239E+02 0.  0.
         13    1    3    3    0    0  0.19580875745E+02  0.19991303618E+02  0.97106091877E+01  0.29620432308E+02  0.10566000000E+00 0. -1.
         22    1    1    0    0    0  0.19232891821E+02  0.13871167521E+02  0.24064301415E+02  0.33784671358E+02  0.00000000000E+00 0.  1.
</event>
<event>
 5    1  0.8943113E-005  0.9118800E+02  0.7818608E-02  0.1130116E+00
         25   -1    0    0    0    0  0.00000000000E+00  0.00000000000E+00  0.99999998245E-14  0.12500000000E+03  0.12500000000E+03 0.  0.
        -13    1    3    3    0    0  0.41110009286E+02  0.16086836857E+02  0.74685669232E+00  0.44151875866E+02  0.10566000000E+00 0.  1.
         23    2    1    0    0    0  0.77238624846E+00 -0.17827614751E+01  0.28604552122E+02  0.96329540968E+02  0.91964043202E+02 0.  0.
         13    1    3    3    0    0 -0.40337623037E+02 -0.17869598332E+02  0.27857695430E+02  0.52177665102E+02  0.10566000000E+00 0. -1.
         22    1    1    0    0    0 -0.77238624846E+00  0.17827614751E+01 -0.28604552122E+02  0.28670459032E+02  0.00000000000E+00 0.  1.
</event>
<event>
 5    1  0.8943113E-005  0.9118800E+02  0.7818608E-02  0.1130116E+00
         25   -1    0    0    0    0  0.00000000000E+00  0.00000000000E+00  0.99999998245E-14  0.12500000000E+03  0.12500000000E+03 0.  0.
        -13    1    3    3    0    0  0.34424694969E+02 -0.17607392981E+02  0.11062618591E+02  0.40217814528E+02  0.10566000000E+00 0.  1.
         23    2    1    0    0    0  0.22416086006E+02  0.28571169014E+01  0.40859453643E+02  0.78308041583E+02  0.62865017265E+02 0.  0.
         13    1    3    3    0    0 -0.12008608963E+02  0.20464509882E+02  0.29796835052E+02  0.38090227055E+02  0.10566000000E+00 0. -1.
         22    1    1    0    0    0 -0.22416086006E+02 -0.28571169014E+01 -0.40859453643E+02  0.46691958417E+02  0.00000000000E+00 0. -1.
</event>
<event>
 5    1  0.8943113E-005  0.9118800E+02  0.7818608E-02  0.1130116E+00
         25   -1    0    0    0    0  0.00000000000E+00  0.00000000000E+00  0.99999998245E-14  0.12500000000E+03  0.12500000000E+03 0.  0.
        -13    1    3    3    0    0 -0.17301489488E+02  0.23931377442E+02 -0.39389877963E+02  0.49230336326E+02  0.10566000000E+00 0.  1.
         23    2    1    0    0    0 -0.19990736906E+01 -0.18012117100E+02 -0.20298202495E+02  0.97788794908E+02  0.93926560285E+02 0.  0.
         13    1    3    3    0    0  0.15302415797E+02 -0.41943494542E+02  0.19091675468E+02  0.48558458582E+02  0.10566000000E+00 0. -1.
         22    1    1    0    0    0  0.19990736906E+01  0.18012117100E+02  0.20298202495E+02  0.27211205092E+02  0.00000000000E+00 0. -1.
</event>
<event>
 5    1  0.8943113E-005  0.9118800E+02  0.7818608E-02  0.1130116E+00
         25   -1    0    0    0    0  0.00000000000E+00  0.00000000000E+00  0.99999998245E-14  0.12500000000E+03  0.12500000000E+03 0.  0.
        -13    1    3    3    0    0  0.32221802679E+02  0.58382866604E+01  0.32889389760E+02  0.46411779558E+02  0.10566000000E+00 0.  1.
         23    2    1    0    0    0  0.25895516754E+02 -0.43370433535E+01 -0.14302477979E+02  0.95101026618E+02  0.90278771892E+02 0.  0.
         13    1    3    3    0    0 -0.63262859249E+01 -0.10175330014E+02 -0.47191867738E+02  0.48689247059E+02  0.10566000000E+00 0. -1.
         22    1    1    0    0    0 -0.25895516754E+02  0.43370433535E+01  0.14302477979E+02  0.29898973382E+02  0.00000000000E+00 0. -1.
</event>
<event>
 5    1  0.8943113E-005  0.9118800E+02  0.7818608E-02  0.1130116E+00
         25   -1    0    0    0    0  0.00000000000E+00  0.00000000000E+00  0.99999998245E-14  0.12500000000E+03  0.12500000000E+03 0.  0.
        -13    1    3    3    0    0 -0.41506073862E+01  0.29407766370E+02  0.53366517340E+02  0.61074058335E+02  0.10566000000E+00 0. -1.
         23    2    1    0    0    0  0.64966168177E+01  0.10352598425E+02  0.27407434888E+02  0.94990837876E+02  0.90126075411E+02 0.  0.
         13    1    3    3    0    0  0.10647224204E+02 -0.19055167945E+02 -0.25959082451E+02  0.33916779541E+02  0.10566000000E+00 0.  1.
         22    1    1    0    0    0 -0.64966168177E+01 -0.10352598425E+02 -0.27407434888E+02  0.30009162124E+02  0.00000000000E+00 0. -1.
</event>
<event>
 5    1  0.8943113E-005  0.9118800E+02  0.7818608E-02  0.1130116E+00
         25   -1    0    0    0    0  0.00000000000E+00  0.00000000000E+00  0.99999998245E-14  0.12500000000E+03  0.12500000000E+03 0.  0.
        -13    1    3    3    0    0  0.17298531798E+02  0.19788798079E+02  0.53118481543E+02  0.59265672840E+02  0.10566000000E+00 0. -1.
         23    2    1    0    0    0  0.14592564484E+02 -0.32342566724E+01  0.26601155987E+02  0.94487300115E+02  0.89424968710E+02 0.  0.
         13    1    3    3    0    0 -0.27059673146E+01 -0.23023054752E+02 -0.26517325556E+02  0.35221627275E+02  0.10566000000E+00 0.  1.
         22    1    1    0    0    0 -0.14592564484E+02  0.32342566724E+01 -0.26601155987E+02  0.30512699885E+02  0.00000000000E+00 0. -1.
</event>
<event>
 5    1  0.8943113E-005  0.9118800E+02  0.7818608E-02  0.1130116E+00
         25   -1    0    0    0    0  0.00000000000E+00  0.00000000000E+00  0.99999998245E-14  0.12500000000E+03  0.12500000000E+03 0.  0.
        -13    1    3    3    0    0 -0.29234877862E+02  0.30774381762E+02  0.44461193533E+02  0.61469907686E+02  0.10566000000E+00 0.  1.
         23    2    1    0    0    0 -0.17610788359E+02  0.18457808821E+02  0.15130030994E+02  0.95339446887E+02  0.90608287268E+02 0.  0.
         13    1    3    3    0    0  0.11624089503E+02 -0.12316572941E+02 -0.29331162539E+02  0.33869539201E+02  0.10566000000E+00 0. -1.
         22    1    1    0    0    0  0.17610788359E+02 -0.18457808821E+02 -0.15130030994E+02  0.29660553113E+02  0.00000000000E+00 0.  1.
</event>
<event>
 5    1  0.8943113E-005  0.9118800E+02  0.7818608E-02  0.1130116E+00
         25   -1    0    0    0    0  0.00000000000E+00  0.00000000000E+00  0.99999998245E-14  0.12500000000E+03  0.12500000000E+03 0.  0.
        -13    1    3    3    0    0  0.47167323983E+02 -0.21380091736E+02 -0.50643380122E+01  0.52033868373E+02  0.10566000000E+00 0.  1.
         23    2    1    0    0    0  0.20478966229E+02 -0.12537392209E+01  0.21907264200E+02  0.94985201241E+02  0.90118257363E+02 0.  0.
         13    1    3    3    0    0 -0.26688357754E+02  0.20126352515E+02  0.26971602212E+02  0.42951332867E+02  0.10566000000E+00 0. -1.
         22    1    1    0    0    0 -0.20478966229E+02  0.12537392209E+01 -0.21907264200E+02  0.30014798759E+02  0.00000000000E+00 0.  1.
</event>
<event>
 5    1  0.8943113E-005  0.9118800E+02  0.7818608E-02  0.1130116E+00
         25   -1    0    0    0    0  0.00000000000E+00  0.00000000000E+00  0.99999998245E-14  0.12500000000E+03  0.12500000000E+03 0.  0.
        -13    1    3    3    0    0 -0.11097402916E+02 -0.25261615087E+02  0.20605715090E+02  0.34437017970E+02  0.10566000000E+00 0.  1.
         23    2    1    0    0    0 -0.15456836003E+02  0.16747707053E+02 -0.21207387619E+02  0.93868781579E+02  0.88556170845E+02 0.  0.
         13    1    3    3    0    0 -0.43594330875E+01  0.42009322140E+02 -0.41813102708E+02  0.59431763609E+02  0.10566000000E+00 0. -1.
         22    1    1    0    0    0  0.15456836003E+02 -0.16747707053E+02  0.21207387619E+02  0.31131218421E+02  0.00000000000E+00 0. -1.
</event>
<event>
 5    1  0.8943113E-005  0.9118800E+02  0.7818608E-02  0.1130116E+00
         25   -1    0    0    0    0  0.00000000000E+00  0.00000000000E+00  0.99999998245E-14  0.12500000000E+03  0.12500000000E+03 0.  0.
        -13    1    3    3    0    0 -0.24384327395E+01 -0.42534844381E+01 -0.53876563139E+02  0.54099291158E+02  0.10566000000E+00 0.  1.
         23    2    1    0    0    0 -0.10983079682E+02 -0.21434588379E+02 -0.17492781932E+02  0.95233121796E+02  0.90461485998E+02 0.  0.
         13    1    3    3    0    0 -0.85446469429E+01 -0.17181103941E+02  0.36383781207E+02  0.41133830638E+02  0.10566000000E+00 0. -1.
         22    1    1    0    0    0  0.10983079682E+02  0.21434588379E+02  0.17492781932E+02  0.29766878204E+02  0.00000000000E+00 0.  1.
</event>
<event>
 5    1  0.8943113E-005  0.9118800E+02  0.7818608E-02  0.1130116E+00
         25   -1    0    0    0    0  0.00000000000E+00  0.00000000000E+00  0.99999998245E-14  0.12500000000E+03  0.12500000000E+03 0.  0.
        -13    1    3    3    0    0  0.12091258004E+02  0.44389847323E+02  0.34028344174E+01  0.46132933047E+02  0.10566000000E+00 0.  1.
         23    2    1    0    0    0  0.28821481197E+02  0.51972290213E+01 -0.14458575330E+02  0.92339023767E+02  0.86369878672E+02 0.  0.
         13    1    3    3    0    0  0.16730223194E+02 -0.39192618301E+02 -0.17861409747E+02  0.46206090720E+02  0.10566000000E+00 0. -1.
         22    1    1    0    0    0 -0.28821481197E+02 -0.51972290213E+01  0.14458575330E+02  0.32660976233E+02  0.00000000000E+00 0. -1.
</event>
<event>
 5    1  0.8943113E-005  0.9118800E+02  0.7818608E-02  0.1130116E+00
         25   -1    0    0    0    0  0.00000000000E+00  0.00000000000E+00  0.99999998245E-14  0.12500000000E+03  0.12500000000E+03 0.  0.
        -13    1    3    3    0    0  0.10193607969E+02  0.57188749058E+02 -0.94499118493E+01  0.58853841508E+02  0.10566000000E+00 0.  1.
         23    2    1    0    0    0 -0.77515515842E+01  0.24911117410E+02  0.48632581021E+01  0.98461318760E+02  0.94817349098E+02 0.  0.
         13    1    3    3    0    0 -0.17945159553E+02 -0.32277631648E+02  0.14313169951E+02  0.39607477252E+02  0.10566000000E+00 0. -1.
         22    1    1    0    0    0  0.77515515842E+01 -0.24911117410E+02 -0.48632581021E+01  0.26538681240E+02  0.00000000000E+00 0.  1.
</event>
<event>
 5    1  0.8943113E-005  0.9118800E+02  0.7818608E-02  0.1130116E+00
         25   -1    0    0    0    0  0.00000000000E+00  0.00000000000E+00  0.99999998245E-14  0.12500000000E+03  0.12500000000E+03 0.  0.
        -13    1    3    3    0    0 -0.16843884778E+02 -0.56411760921E+02 -0.18753484369E+02  0.61787600412E+02  0.10566000000E+00 0.  1.
         23    2    1    0    0    0 -0.10039159877E+02 -0.24312359575E+02 -0.14748017141E+02  0.94844079044E+02  0.89922298464E+02 0.  0.
         13    1    3    3    0    0  0.68047249007E+01  0.32099401347E+02  0.40054672284E+01  0.33056478632E+02  0.10566000000E+00 0. -1.
         22    1    1    0    0    0  0.10039159877E+02  0.24312359575E+02  0.14748017141E+02  0.30155920956E+02  0.00000000000E+00 0.  1.
</event>
<event>
 5    1  0.8943113E-005  0.9118800E+02  0.7818608E-02  0.1130116E+00
         25   -1    0    0    0    0  0.00000000000E+00  0.00000000000E+00  0.99999998245E-14  0.12500000000E+03  0.12500000000E+03 0.  0.
        -13    1    3    3    0    0  0.33413083606E+02 -0.82007294577E+01  0.16858559164E+02  0.38313291438E+02  0.10566000000E+00 0. -1.
         23    2    1    0    0    0 -0.68268680542E+01  0.29189217761E+02  0.82048911678E+01  0.93920476194E+02  0.88629109487E+02 0.  0.
         13    1    3    3    0    0 -0.40239951660E+02  0.37389947219E+02 -0.86536679962E+01  0.55607184756E+02  0.10566000000E+00 0.  1.
         22    1    1    0    0    0  0.68268680542E+01 -0.29189217761E+02 -0.82048911678E+01  0.31079523806E+02  0.00000000000E+00 0. -1.
</event>
<event>
 4    1  0.8943113E-005  0.9118800E+02  0.7818608E-02  0.1130116E+00
         25   -1    0    0    0    0  0.00000000000E+00  0.00000000000E+00  0.99999998245E-14  0.12500000000E+03  0.12500000000E+03 0.  0.
        -13    1    1    0    0    0  0.11146450080E+01 -0.62256990649E+01  0.22782442164E+01  0.67233416606E+01  0.10566000000E+00 0.  1.
         13    1    1    0    0    0 -0.10286942189E+02 -0.51918905946E+02 -0.20343500725E+02  0.56703290557E+02  0.10566000000E+00 0. -1.
         22    1    1    0    0    0  0.91722971815E+01  0.58144605010E+02  0.18065256508E+02  0.61573367783E+02  0.00000000000E+00 0. -1.
</event>
<event>
 5    1  0.8943113E-005  0.9118800E+02  0.7818608E-02  0.1130116E+00
         25   -1    0    0    0    0  0.00000000000E+00  0.00000000000E+00  0.99999998245E-14  0.12500000000E+03  0.12500000000E+03 0.  0.
        -13    1    3    3    0    0  0.48125786883E+02  0.14092178861E+01  0.15573340330E+02  0.50602542932E+02  0.10566000000E+00 0.  1.
         23    2    1    0    0    0  0.17477611538E+02  0.25169485092E+02 -0.40951175427E+01  0.94084957180E+02  0.88860786036E+02 0.  0.
         13    1    3    3    0    0 -0.30648175345E+02  0.23760267206E+02 -0.19668457873E+02  0.43482414248E+02  0.10566000000E+00 0. -1.
         22    1    1    0    0    0 -0.17477611538E+02 -0.25169485092E+02  0.40951175427E+01  0.30915042820E+02  0.00000000000E+00 0.  1.
</event>
<event>
 5    1  0.8943113E-005  0.9118800E+02  0.7818608E-02  0.1130116E+00
         25   -1    0    0    0    0  0.00000000000E+00  0.00000000000E+00  0.99999998245E-14  0.12500000000E+03  0.12500000000E+03 0.  0.
        -13    1    3    3    0    0  0.12295452009E+02  0.44390823276E+02  0.35253254557E+02  0.58004538203E+02  0.10566000000E+00 0.  1.
         23    2    1    0    0    0  0.21436256317E+02  0.19673601869E+02  0.10772878787E+02  0.93973904326E+02  0.88704431015E+02 0.  0.
         13    1    3    3    0    0  0.91408043084E+01 -0.24717221407E+02 -0.24480375770E+02  0.35969366124E+02  0.10566000000E+00 0. -1.
         22    1    1    0    0    0 -0.21436256317E+02 -0.19673601869E+02 -0.10772878787E+02  0.31026095674E+02  0.00000000000E+00 0.  1.
</event>
<event>
 5    1  0.8943113E-005  0.9118800E+02  0.7818608E-02  0.1130116E+00
         25   -1    0    0    0    0  0.00000000000E+00  0.00000000000E+00  0.99999998245E-14  0.12500000000E+03  0.12500000000E+03 0.  0.
        -13    1    3    3    0    0  0.43193764448E+02  0.38173651088E+02  0.86537970448E+01  0.58290893730E+02  0.10566000000E+00 0.  1.
         23    2    1    0    0    0  0.24696339886E+02  0.65590885663E+01  0.14858933579E+02  0.95441266033E+02  0.90748644664E+02 0.  0.
         13    1    3    3    0    0 -0.18497424561E+02 -0.31614562521E+02  0.62051365342E+01  0.37150372303E+02  0.10566000000E+00 0. -1.
         22    1    1    0    0    0 -0.24696339886E+02 -0.65590885663E+01 -0.14858933579E+02  0.29558733967E+02  0.00000000000E+00 0.  1.
</event>
<event>
 5    1  0.8943113E-005  0.9118800E+02  0.7818608E-02  0.1130116E+00
         25   -1    0    0    0    0  0.00000000000E+00  0.00000000000E+00  0.99999998245E-14  0.12500000000E+03  0.12500000000E+03 0.  0.
        -13    1    3    3    0    0 -0.53766512279E+02 -0.55352870657E+01 -0.21343806827E+02  0.58112360987E+02  0.10566000000E+00 0.  1.
         23    2    1    0    0    0 -0.16083669207E+02 -0.76457623582E+01 -0.23024851761E+02  0.95891824245E+02  0.91367149792E+02 0.  0.
         13    1    3    3    0    0  0.37682843072E+02 -0.21104752924E+01 -0.16810449334E+01  0.37779463258E+02  0.10566000000E+00 0. -1.
         22    1    1    0    0    0  0.16083669207E+02  0.76457623582E+01  0.23024851761E+02  0.29108175755E+02  0.00000000000E+00 0.  1.
</event>
<event>
 5    1  0.8943113E-005  0.9118800E+02  0.7818608E-02  0.1130116E+00
         25   -1    0    0    0    0  0.00000000000E+00  0.00000000000E+00  0.99999998245E-14  0.12500000000E+03  0.12500000000E+03 0.  0.
        -13    1    3    3    0    0  0.37481617855E+02  0.44778246594E+02 -0.13562146258E+02  0.59949195326E+02  0.10566000000E+00 0. -1.
         23    2    1    0    0    0  0.91392534202E+01  0.28845541525E+02 -0.12522102188E+01  0.94715362816E+02  0.89743193079E+02 0.  0.
         13    1    3    3    0    0 -0.28342364435E+02 -0.15932705069E+02  0.12309936039E+02  0.34766167490E+02  0.10566000000E+00 0.  1.
         22    1    1    0    0    0 -0.91392534202E+01 -0.28845541525E+02  0.12522102188E+01  0.30284637184E+02  0.00000000000E+00 0. -1.
</event>
<event>
 5    1  0.8943113E-005  0.9118800E+02  0.7818608E-02  0.1130116E+00
         25   -1    0    0    0    0  0.00000000000E+00  0.00000000000E+00  0.99999998245E-14  0.12500000000E+03  0.12500000000E+03 0.  0.
        -13    1    3    3    0    0 -0.21083459525E+02 -0.87324847890E+01  0.27319584409E+02  0.35596901725E+02  0.10566000000E+00 0. -1.
         23    2    1    0    0    0  0.22106678232E+02 -0.12288537536E+02 -0.14520998025E+02  0.95835419412E+02  0.91289949353E+02 0.  0.
         13    1    3    3    0    0  0.43190137757E+02 -0.35560527473E+01 -0.41840582434E+02  0.60238517687E+02  0.10566000000E+00 0.  1.
         22    1    1    0    0    0 -0.22106678232E+02  0.12288537536E+02  0.14520998025E+02  0.29164580588E+02  0.00000000000E+00 0.  1.
</event>
<event>
 5    1  0.8943113E-005  0.9118800E+02  0.7818608E-02  0.1130116E+00
         25   -1    0    0    0    0  0.00000000000E+00  0.00000000000E+00  0.99999998245E-14  0.12500000000E+03  0.12500000000E+03 0.  0.
        -13    1    3    3    0    0  0.48927929286E+01  0.31018177517E+02 -0.17918266900E+02  0.36154421747E+02  0.10566000000E+00 0. -1.
         23    2    1    0    0    0 -0.23898876845E+02 -0.13891286444E+02  0.90283029340E+01  0.95920206202E+02  0.91405971087E+02 0.  0.
         13    1    3    3    0    0 -0.28791669773E+02 -0.44909463961E+02  0.26946569834E+02  0.59765784454E+02  0.10566000000E+00 0.  1.
         22    1    1    0    0    0  0.23898876845E+02  0.13891286444E+02 -0.90283029340E+01  0.29079793798E+02  0.00000000000E+00 0.  1.
</event>
<event>
 5    1  0.8943113E-005  0.9118800E+02  0.7818608E-02  0.1130116E+00
         25   -1    0    0    0    0  0.00000000000E+00  0.00000000000E+00  0.99999998245E-14  0.12500000000E+03  0.12500000000E+03 0.  0.
        -13    1    3    3    0    0 -0.32311011552E+02 -0.79408574142E+00 -0.13730881725E+02  0.35116667220E+02  0.10566000000E+00 0.  1.
         23    2    1    0    0    0  0.28185884041E+02 -0.83871682368E+00 -0.20828226180E+01  0.96724822633E+02  0.92499760314E+02 0.  0.
         13    1    3    3    0    0  0.60496895593E+02 -0.44631082260E-01  0.11648059107E+02  0.61608155413E+02  0.10566000000E+00 0. -1.
         22    1    1    0    0    0 -0.28185884041E+02  0.83871682368E+00  0.20828226180E+01  0.28275177367E+02  0.00000000000E+00 0. -1.
</event>
<event>
 5    1  0.8943113E-005  0.9118800E+02  0.7818608E-02  0.1130116E+00
         25   -1    0    0    0    0  0.00000000000E+00  0.00000000000E+00  0.99999998245E-14  0.12500000000E+03  0.12500000000E+03 0.  0.
        -13    1    3    3    0    0  0.32808944101E+02 -0.67693483720E+01  0.89091044272E+01  0.34664595716E+02  0.10566000000E+00 0.  1.
         23    2    1    0    0    0 -0.18257830140E+02  0.30438430193E+01 -0.22847336372E+02  0.95595678531E+02  0.90961088564E+02 0.  0.
         13    1    3    3    0    0 -0.51066774241E+02  0.98131913914E+01 -0.31756440800E+02  0.60931082815E+02  0.10566000000E+00 0. -1.
         22    1    1    0    0    0  0.18257830140E+02 -0.30438430193E+01  0.22847336372E+02  0.29404321469E+02  0.00000000000E+00 0. -1.
</event>
<event>
 5    1  0.8943113E-005  0.9118800E+02  0.7818608E-02  0.1130116E+00
         25   -1    0    0    0    0  0.00000000000E+00  0.00000000000E+00  0.99999998245E-14  0.12500000000E+03  0.12500000000E+03 0.  0.
        -13    1    3    3    0    0 -0.52798110245E+01 -0.27665533140E+02 -0.35268138398E+02  0.45134364718E+02  0.10566000000E+00 0.  1.
         23    2    1    0    0    0  0.24809921491E+02 -0.10330648577E+02  0.43039636170E+01  0.97782751660E+02  0.93918517423E+02 0.  0.
         13    1    3    3    0    0  0.30089732515E+02  0.17334884564E+02  0.39572102015E+02  0.52648386942E+02  0.10566000000E+00 0. -1.
         22    1    1    0    0    0 -0.24809921491E+02  0.10330648577E+02 -0.43039636170E+01  0.27217248340E+02  0.00000000000E+00 0. -1.
</event>
<event>
 5    1  0.8943113E-005  0.9118800E+02  0.7818608E-02  0.1130116E+00
         25   -1    0    0    0    0  0.00000000000E+00  0.00000000000E+00  0.99999998245E-14  0.12500000000E+03  0.12500000000E+03 0.  0.
        -13    1    3    3    0    0  0.46844636667E+02 -0.31061819530E+02  0.21178446273E+02  0.60064917943E+02  0.10566000000E+00 0. -1.
         23    2    1    0    0    0  0.13700735969E+02 -0.23084708264E+02  0.13243214544E+02  0.95066796810E+02  0.90231364849E+02 0.  0.
         13    1    3    3    0    0 -0.33143900698E+02  0.79771112656E+01 -0.79352317292E+01  0.35001878867E+02  0.10566000000E+00 0.  1.
         22    1    1    0    0    0 -0.13700735969E+02  0.23084708264E+02 -0.13243214544E+02  0.29933203190E+02  0.00000000000E+00 0. -1.
</event>
<event>
 5    1  0.8943113E-005  0.9118800E+02  0.7818608E-02  0.1130116E+00
         25   -1    0    0    0    0  0.00000000000E+00  0.00000000000E+00  0.99999998245E-14  0.12500000000E+03  0.12500000000E+03 0.  0.
        -13    1    3    3    0    0 -0.16186787032E+02  0.15644623571E+02 -0.39927743356E+02  0.45836690266E+02  0.10566000000E+00 0.  1.
         23    2    1    0    0    0  0.50416446164E+01  0.29072370548E+02  0.27583015941E+01  0.95365068966E+02  0.90643627694E+02 0.  0.
         13    1    3    3    0    0  0.21228431648E+02  0.13427746977E+02  0.42686044950E+02  0.49528378699E+02  0.10566000000E+00 0. -1.
         22    1    1    0    0    0 -0.50416446164E+01 -0.29072370548E+02 -0.27583015941E+01  0.29634931034E+02  0.00000000000E+00 0. -1.
</event>
<event>
 5    1  0.8943113E-005  0.9118800E+02  0.7818608E-02  0.1130116E+00
         25   -1    0    0    0    0  0.00000000000E+00  0.00000000000E+00  0.99999998245E-14  0.12500000000E+03  0.12500000000E+03 0.  0.
        -13    1    3    3    0    0 -0.25785547188E+01  0.23608594518E+02 -0.50538248201E+02  0.55840311378E+02  0.10566000000E+00 0.  1.
         23    2    1    0    0    0 -0.16547861941E+02  0.20321791300E+02 -0.13587612838E+02  0.95480004080E+02  0.90801987974E+02 0.  0.
         13    1    3    3    0    0 -0.13969307223E+02 -0.32868032177E+01  0.36950635364E+02  0.39639692702E+02  0.10566000000E+00 0. -1.
         22    1    1    0    0    0  0.16547861941E+02 -0.20321791300E+02  0.13587612838E+02  0.29519995920E+02  0.00000000000E+00 0.  1.
</event>
<event>
 5    1  0.8943113E-005  0.9118800E+02  0.7818608E-02  0.1130116E+00
         25   -1    0    0    0    0  0.00000000000E+00  0.00000000000E+00  0.99999998245E-14  0.12500000000E+03  0.12500000000E+03 0.  0.
        -13    1    3    3    0    0 -0.30055593334E+02 -0.82650633705E+01 -0.15270655629E+02  0.34711007628E+02  0.10566000000E+00 0.  1.
         23    2    1    0    0    0  0.23035959773E+02  0.15104854098E+02  0.65473928523E+01  0.96686038547E+02  0.92447334395E+02 0.  0.
         13    1    3    3    0    0  0.53091553108E+02  0.23369917468E+02  0.21818048481E+02  0.61975030919E+02  0.10566000000E+00 0. -1.
         22    1    1    0    0    0 -0.23035959773E+02 -0.15104854098E+02 -0.65473928523E+01  0.28313961453E+02  0.00000000000E+00 0. -1.
</event>
<event>
 5    1  0.8943113E-005  0.9118800E+02  0.7818608E-02  0.1130116E+00
         25   -1    0    0    0    0  0.00000000000E+00  0.00000000000E+00  0.99999998245E-14  0.12500000000E+03  0.12500000000E+03 0.  0.
        -13    1    3    3    0    0  0.20379116733E+02  0.17565370991E+02  0.13204475880E+02  0.29970318720E+02  0.10566000000E+00 0. -1.
         23    2    1    0    0    0 -0.33300226244E+02 -0.80698362618E+01  0.85474679797E+00  0.90725258319E+02  0.84001872478E+02 0.  0.
         13    1    3    3    0    0 -0.53679342977E+02 -0.25635207253E+02 -0.12349729082E+02  0.60754939600E+02  0.10566000000E+00 0.  1.
         22    1    1    0    0    0  0.33300226244E+02  0.80698362618E+01 -0.85474679797E+00  0.34274741681E+02  0.00000000000E+00 0.  1.
</event>
<event>
 5    1  0.8943113E-005  0.9118800E+02  0.7818608E-02  0.1130116E+00
         25   -1    0    0    0    0  0.00000000000E+00  0.00000000000E+00  0.99999998245E-14  0.12500000000E+03  0.12500000000E+03 0.  0.
        -13    1    3    3    0    0  0.40571225497E+01  0.28437537040E+02  0.49351995388E+02  0.57103278095E+02  0.10566000000E+00 0. -1.
         23    2    1    0    0    0  0.19415260910E+02  0.15612463050E+02  0.18126026470E+02  0.94190030927E+02  0.89008470000E+02 0.  0.
         13    1    3    3    0    0  0.15358138360E+02 -0.12825073990E+02 -0.31225968918E+02  0.37086752832E+02  0.10566000000E+00 0.  1.
         22    1    1    0    0    0 -0.19415260910E+02 -0.15612463050E+02 -0.18126026470E+02  0.30809969073E+02  0.00000000000E+00 0. -1.
</event>
<event>
 5    1  0.8943113E-005  0.9118800E+02  0.7818608E-02  0.1130116E+00
         25   -1    0    0    0    0  0.00000000000E+00  0.00000000000E+00  0.99999998245E-14  0.12500000000E+03  0.12500000000E+03 0.  0.
        -13    1    3    3    0    0  0.13511750426E+02  0.34464117443E+02 -0.49278676737E+02  0.61633934936E+02  0.10566000000E+00 0.  1.
         23    2    1    0    0    0 -0.61645019389E-01  0.15360164412E+02 -0.26818325099E+02  0.94094320716E+02  0.88873956697E+02 0.  0.
         13    1    3    3    0    0 -0.13573395445E+02 -0.19103953031E+02  0.22460351637E+02  0.32460385781E+02  0.10566000000E+00 0. -1.
         22    1    1    0    0    0  0.61645019389E-01 -0.15360164412E+02  0.26818325099E+02  0.30905679284E+02  0.00000000000E+00 0.  1.
</event>
<event>
 5    1  0.8943113E-005  0.9118800E+02  0.7818608E-02  0.1130116E+00
         25   -1    0    0    0    0  0.00000000000E+00  0.00000000000E+00  0.99999998245E-14  0.12500000000E+03  0.12500000000E+03 0.  0.
        -13    1    3    3    0    0  0.55000974417E+02  0.23937529661E+02  0.10450140358E+01  0.59993464073E+02  0.10566000000E+00 0. -1.
         23    2    1    0    0    0  0.23545277715E+02  0.13503850620E+02  0.12578643040E+02  0.95084179019E+02  0.90255441691E+02 0.  0.
         13    1    3    3    0    0 -0.31455696703E+02 -0.10433679041E+02  0.11533629004E+02  0.35090714946E+02  0.10566000000E+00 0.  1.
         22    1    1    0    0    0 -0.23545277715E+02 -0.13503850620E+02 -0.12578643040E+02  0.29915820981E+02  0.00000000000E+00 0. -1.
</event>
<event>
 5    1  0.8943113E-005  0.9118800E+02  0.7818608E-02  0.1130116E+00
         25   -1    0    0    0    0  0.00000000000E+00  0.00000000000E+00  0.99999998245E-14  0.12500000000E+03  0.12500000000E+03 0.  0.
        -13    1    3    3    0    0 -0.13450031597E+02  0.31128866581E+02  0.21067283470E+01  0.33975861327E+02  0.10566000000E+00 0.  1.
         23    2    1    0    0    0  0.79365687046E+01 -0.20796973846E+02  0.22144361158E+02  0.93601338006E+02  0.88177857206E+02 0.  0.
         13    1    3    3    0    0  0.21386600301E+02 -0.51925840427E+02  0.20037632811E+02  0.59625476679E+02  0.10566000000E+00 0. -1.
         22    1    1    0    0    0 -0.79365687046E+01  0.20796973846E+02 -0.22144361158E+02  0.31398661994E+02  0.00000000000E+00 0. -1.
</event>
<event>
 5    1  0.8943113E-005  0.9118800E+02  0.7818608E-02  0.1130116E+00
         25   -1    0    0    0    0  0.00000000000E+00  0.00000000000E+00  0.99999998245E-14  0.12500000000E+03  0.12500000000E+03 0.  0.
        -13    1    3    3    0    0  0.15299423985E+02 -0.17194942811E+02 -0.57483994093E+02  0.61920587639E+02  0.10566000000E+00 0. -1.
         23    2    1    0    0    0  0.92854408679E+01 -0.21839943703E+01 -0.25806188287E+02  0.97487301161E+02  0.93524463592E+02 0.  0.
         13    1    3    3    0    0 -0.60139831172E+01  0.15010948441E+02  0.31677805807E+02  0.35566713522E+02  0.10566000000E+00 0.  1.
         22    1    1    0    0    0 -0.92854408679E+01  0.21839943703E+01  0.25806188287E+02  0.27512698839E+02  0.00000000000E+00 0. -1.
</event>
<event>
 5    1  0.8943113E-005  0.9118800E+02  0.7818608E-02  0.1130116E+00
         25   -1    0    0    0    0  0.00000000000E+00  0.00000000000E+00  0.99999998245E-14  0.12500000000E+03  0.12500000000E+03 0.  0.
        -13    1    3    3    0    0  0.24570637911E+02  0.14452445600E+01  0.26877822014E+02  0.36444937364E+02  0.10566000000E+00 0.  1.
         23    2    1    0    0    0 -0.66268008630E+01 -0.28005910183E+02 -0.11500025174E+02  0.94008128907E+02  0.88752646308E+02 0.  0.
         13    1    3    3    0    0 -0.31197438774E+02 -0.29451154743E+02 -0.38377847188E+02  0.57563191543E+02  0.10566000000E+00 0. -1.
         22    1    1    0    0    0  0.66268008630E+01  0.28005910183E+02  0.11500025174E+02  0.30991871093E+02  0.00000000000E+00 0. -1.
</event>
<event>
 5    1  0.8943113E-005  0.9118800E+02  0.7818608E-02  0.1130116E+00
         25   -1    0    0    0    0  0.00000000000E+00  0.00000000000E+00  0.99999998245E-14  0.12500000000E+03  0.12500000000E+03 0.  0.
        -13    1    3    3    0    0 -0.16636667906E+02 -0.30334784332E+02  0.34665316635E+02  0.48976251397E+02  0.10566000000E+00 0.  1.
         23    2    1    0    0    0 -0.14221375757E+02  0.14810666942E+02  0.19556100862E+02  0.96644322181E+02  0.92390911594E+02 0.  0.
         13    1    3    3    0    0  0.24152921494E+01  0.45145451274E+02 -0.15109215773E+02  0.47668070783E+02  0.10566000000E+00 0. -1.
         22    1    1    0    0    0  0.14221375757E+02 -0.14810666942E+02 -0.19556100862E+02  0.28355677819E+02  0.00000000000E+00 0. -1.
</event>
<event>
 5    1  0.8943113E-005  0.9118800E+02  0.7818608E-02  0.1130116E+00
         25   -1    0    0    0    0  0.00000000000E+00  0.00000000000E+00  0.99999998245E-14  0.12500000000E+03  0.12500000000E+03 0.  0.
        -13    1    3    3    0    0 -0.37471339933E+02 -0.59687553905E+01  0.32447264795E+02  0.49925579756E+02  0.10566000000E+00 0.  1.
         23    2    1    0    0    0 -0.46842535746E+01  0.19340572077E+02  0.26636962481E+02  0.91750522861E+02  0.85513921178E+02 0.  0.
         13    1    3    3    0    0  0.32787086358E+02  0.25309327468E+02 -0.58103023145E+01  0.41824943105E+02  0.10566000000E+00 0. -1.
         22    1    1    0    0    0  0.46842535746E+01 -0.19340572077E+02 -0.26636962481E+02  0.33249477139E+02  0.00000000000E+00 0.  1.
</event>
<event>
 5    1  0.8943113E-005  0.9118800E+02  0.7818608E-02  0.1130116E+00
         25   -1    0    0    0    0  0.00000000000E+00  0.00000000000E+00  0.99999998245E-14  0.12500000000E+03  0.12500000000E+03 0.  0.
        -13    1    3    3    0    0  0.39775999917E+02  0.72200446816E+01  0.45241578382E+02  0.60671828661E+02  0.10566000000E+00 0.  1.
         23    2    1    0    0    0  0.19485265154E+02  0.11107054990E+02  0.12678390556E+02  0.99235997676E+02  0.95833185374E+02 0.  0.
         13    1    3    3    0    0 -0.20290734763E+02  0.38870103084E+01 -0.32563187826E+02  0.38564169015E+02  0.10566000000E+00 0. -1.
         22    1    1    0    0    0 -0.19485265154E+02 -0.11107054990E+02 -0.12678390556E+02  0.25764002324E+02  0.00000000000E+00 0.  1.
</event>
<event>
 5    1  0.8943113E-005  0.9118800E+02  0.7818608E-02  0.1130116E+00
         25   -1    0    0    0    0  0.00000000000E+00  0.00000000000E+00  0.99999998245E-14  0.12500000000E+03  0.12500000000E+03 0.  0.
        -13    1    3    3    0    0 -0.45583008953E+02  0.39601927422E+02  0.63220126001E-01  0.60383263588E+02  0.10566000000E+00 0.  1.
         23    2    1    0    0    0 -0.26957866092E+02  0.10477795504E+02  0.60049619441E+01  0.95460698877E+02  0.90775408119E+02 0.  0.
         13    1    3    3    0    0  0.18625142861E+02 -0.29124131918E+02  0.59417418181E+01  0.35077435288E+02  0.10566000000E+00 0. -1.
         22    1    1    0    0    0  0.26957866092E+02 -0.10477795504E+02 -0.60049619441E+01  0.29539301123E+02  0.00000000000E+00 0.  1.
</event>
<event>
 5    1  0.8943113E-005  0.9118800E+02  0.7818608E-02  0.1130116E+00
         25   -1    0    0    0    0  0.00000000000E+00  0.00000000000E+00  0.99999998245E-14  0.12500000000E+03  0.12500000000E+03 0.  0.
        -13    1    3    3    0    0 -0.21075662715E+02 -0.75780028318E+01  0.30791370649E+02  0.38075311637E+02  0.10566000000E+00 0.  1.
         23    2    1    0    0    0  0.84877624326E+01 -0.21854306746E+02 -0.16988555049E+02  0.96047213656E+02  0.91579492322E+02 0.  0.
         13    1    3    3    0    0  0.29563425147E+02 -0.14276303914E+02 -0.47779925698E+02  0.57971902018E+02  0.10566000000E+00 0. -1.
         22    1    1    0    0    0 -0.84877624326E+01  0.21854306746E+02  0.16988555049E+02  0.28952786344E+02  0.00000000000E+00 0. -1.
</event>
<event>
 4    1  0.8943113E-005  0.9118800E+02  0.7818608E-02  0.1130116E+00
         25   -1    0    0    0    0  0.00000000000E+00  0.00000000000E+00  0.99999998245E-14  0.12500000000E+03  0.12500000000E+03 0.  0.
        -13    1    1    0    0    0  0.11621182066E+02  0.27821190822E+01 -0.44453148984E+00  0.11958295509E+02  0.10566000000E+00 0.  1.
         13    1    1    0    0    0 -0.15782162263E+01 -0.55063224726E+01 -0.55673277965E+02  0.55967270766E+02  0.10566000000E+00 0. -1.
         22    1    1    0    0    0 -0.10042965840E+02  0.27242033904E+01  0.56117809455E+02  0.57074433725E+02  0.00000000000E+00 0.  1.
</event>
<event>
 5    1  0.8943113E-005  0.9118800E+02  0.7818608E-02  0.1130116E+00
         25   -1    0    0    0    0  0.00000000000E+00  0.00000000000E+00  0.99999998245E-14  0.12500000000E+03  0.12500000000E+03 0.  0.
        -13    1    3    3    0    0 -0.12759811409E+02  0.54977089122E+02  0.16637265831E+02  0.58839637099E+02  0.10566000000E+00 0.  1.
         23    2    1    0    0    0 -0.90824156701E+00  0.26528380188E+02 -0.68479566738E+01  0.97586967174E+02  0.93657577341E+02 0.  0.
         13    1    3    3    0    0  0.11851569842E+02 -0.28448708934E+02 -0.23485222505E+02  0.38747330075E+02  0.10566000000E+00 0. -1.
         22    1    1    0    0    0  0.90824156701E+00 -0.26528380188E+02  0.68479566738E+01  0.27413032826E+02  0.00000000000E+00 0.  1.
</event>
<event>
 5    1  0.8943113E-005  0.9118800E+02  0.7818608E-02  0.1130116E+00
         25   -1    0    0    0    0  0.00000000000E+00  0.00000000000E+00  0.99999998245E-14  0.12500000000E+03  0.12500000000E+03 0.  0.
        -13    1    3    3    0    0 -0.26984016071E+02 -0.51445132981E+01  0.48925154011E+02  0.56109580282E+02  0.10566000000E+00 0. -1.
         23    2    1    0    0    0 -0.23039529056E+02 -0.15206644578E+02  0.11446624559E+02  0.95115436222E+02  0.90298721228E+02 0.  0.
         13    1    3    3    0    0  0.39444870148E+01 -0.10062131279E+02 -0.37478529452E+02  0.39005855940E+02  0.10566000000E+00 0.  1.
         22    1    1    0    0    0  0.23039529056E+02  0.15206644578E+02 -0.11446624559E+02  0.29884563778E+02  0.00000000000E+00 0.  1.
</event>
<event>
 5    1  0.8943113E-005  0.9118800E+02  0.7818608E-02  0.1130116E+00
         25   -1    0    0    0    0  0.00000000000E+00  0.00000000000E+00  0.99999998245E-14  0.12500000000E+03  0.12500000000E+03 0.  0.
        -13    1    3    3    0    0 -0.17242331621E+01  0.20407822656E+02 -0.55219819891E+02  0.58895601520E+02  0.10566000000E+00 0. -1.
         23    2    1    0    0    0 -0.61050508855E+01  0.21528133785E+02 -0.18296043795E+02  0.96095373915E+02  0.91645204341E+02 0.  0.
         13    1    3    3    0    0 -0.43808177234E+01  0.11203111293E+01  0.36923776097E+02  0.37199772395E+02  0.10566000000E+00 0.  1.
         22    1    1    0    0    0  0.61050508855E+01 -0.21528133785E+02  0.18296043795E+02  0.28904626085E+02  0.00000000000E+00 0. -1.
</event>
<event>
 5    1  0.8943113E-005  0.9118800E+02  0.7818608E-02  0.1130116E+00
         25   -1    0    0    0    0  0.00000000000E+00  0.00000000000E+00  0.99999998245E-14  0.12500000000E+03  0.12500000000E+03 0.  0.
        -13    1    3    3    0    0 -0.15186408452E+02  0.33494438933E+02  0.88930049889E+01  0.37836505427E+02  0.10566000000E+00 0. -1.
         23    2    1    0    0    0 -0.33221053126E+01 -0.13285422962E+02 -0.24782709484E+02  0.96685312357E+02  0.92446352493E+02 0.  0.
         13    1    3    3    0    0  0.11864303140E+02 -0.46779861895E+02 -0.33675714472E+02  0.58848806930E+02  0.10566000000E+00 0.  1.
         22    1    1    0    0    0  0.33221053126E+01  0.13285422962E+02  0.24782709484E+02  0.28314687643E+02  0.00000000000E+00 0.  1.
</event>
<event>
 5    1  0.8943113E-005  0.9118800E+02  0.7818608E-02  0.1130116E+00
         25   -1    0    0    0    0  0.00000000000E+00  0.00000000000E+00  0.99999998245E-14  0.12500000000E+03  0.12500000000E+03 0.  0.
        -13    1    3    3    0    0 -0.12482616706E+02 -0.35540341734E+02 -0.19389766985E+02  0.42366329062E+02  0.10566000000E+00 0.  1.
         23    2    1    0    0    0 -0.11428436294E+02  0.18874854000E+02 -0.17522125237E+02  0.96823872827E+02  0.92633515569E+02 0.  0.
         13    1    3    3    0    0  0.10541804125E+01  0.54415195734E+02  0.18676417481E+01  0.54457543765E+02  0.10566000000E+00 0. -1.
         22    1    1    0    0    0  0.11428436294E+02 -0.18874854000E+02  0.17522125237E+02  0.28176127173E+02  0.00000000000E+00 0. -1.
</event>
<event>
 5    1  0.8943113E-005  0.9118800E+02  0.7818608E-02  0.1130116E+00
         25   -1    0    0    0    0  0.00000000000E+00  0.00000000000E+00  0.99999998245E-14  0.12500000000E+03  0.12500000000E+03 0.  0.
        -13    1    3    3    0    0  0.41847177117E+00  0.19552384941E+02  0.32245006724E+02  0.37712365322E+02  0.10566000000E+00 0. -1.
         23    2    1    0    0    0 -0.19261370738E+02 -0.22896880144E+02 -0.92201802682E+00  0.95064775927E+02  0.90228565221E+02 0.  0.
         13    1    3    3    0    0 -0.19679842509E+02 -0.42449265085E+02 -0.33167024750E+02  0.57352410606E+02  0.10566000000E+00 0.  1.
         22    1    1    0    0    0  0.19261370738E+02  0.22896880144E+02  0.92201802682E+00  0.29935224073E+02  0.00000000000E+00 0.  1.
</event>
<event>
 5    1  0.8943113E-005  0.9118800E+02  0.7818608E-02  0.1130116E+00
         25   -1    0    0    0    0  0.00000000000E+00  0.00000000000E+00  0.99999998245E-14  0.12500000000E+03  0.12500000000E+03 0.  0.
        -13    1    3    3    0    0 -0.79027794696E+01  0.40492454750E+02  0.82055419333E+01  0.42064651401E+02  0.10566000000E+00 0. -1.
         23    2    1    0    0    0  0.51893420867E+01 -0.56852209468E+01  0.29454936675E+02  0.94555882292E+02  0.89520782911E+02 0.  0.
         13    1    3    3    0    0  0.13092121556E+02 -0.46177675697E+02  0.21249394741E+02  0.52491230891E+02  0.10566000000E+00 0.  1.
         22    1    1    0    0    0 -0.51893420867E+01  0.56852209468E+01 -0.29454936675E+02  0.30444117708E+02  0.00000000000E+00 0.  1.
</event>
<event>
 5    1  0.8943113E-005  0.9118800E+02  0.7818608E-02  0.1130116E+00
         25   -1    0    0    0    0  0.00000000000E+00  0.00000000000E+00  0.99999998245E-14  0.12500000000E+03  0.12500000000E+03 0.  0.
        -13    1    3    3    0    0  0.77035270584E+01  0.50326160527E+02 -0.27712844515E+02  0.57966194266E+02  0.10566000000E+00 0.  1.
         23    2    1    0    0    0  0.13984978780E+02  0.13735205404E+02 -0.22007832254E+02  0.95528315632E+02  0.90868470374E+02 0.  0.
         13    1    3    3    0    0  0.62814517213E+01 -0.36590955123E+02  0.57050122612E+01  0.37562121366E+02  0.10566000000E+00 0. -1.
         22    1    1    0    0    0 -0.13984978780E+02 -0.13735205404E+02  0.22007832254E+02  0.29471684368E+02  0.00000000000E+00 0.  1.
</event>
<event>
 5    1  0.8943113E-005  0.9118800E+02  0.7818608E-02  0.1130116E+00
         25   -1    0    0    0    0  0.00000000000E+00  0.00000000000E+00  0.99999998245E-14  0.12500000000E+03  0.12500000000E+03 0.  0.
        -13    1    3    3    0    0  0.26819949930E+02 -0.29377277735E+02  0.14371340968E+02  0.42295162450E+02  0.10566000000E+00 0.  1.
         23    2    1    0    0    0 -0.23191374781E+02 -0.17799930812E+02 -0.57066608201E+00  0.95759564625E+02  0.91186025005E+02 0.  0.
         13    1    3    3    0    0 -0.50011324712E+02  0.11577346923E+02 -0.14942007050E+02  0.53464402175E+02  0.10566000000E+00 0. -1.
         22    1    1    0    0    0  0.23191374781E+02  0.17799930812E+02  0.57066608201E+00  0.29240435375E+02  0.00000000000E+00 0.  1.
</event>
<event>
 5    1  0.8943113E-005  0.9118800E+02  0.7818608E-02  0.1130116E+00
         25   -1    0    0    0    0  0.00000000000E+00  0.00000000000E+00  0.99999998245E-14  0.12500000000E+03  0.12500000000E+03 0.  0.
        -13    1    3    3    0    0 -0.16384500315E+02  0.18064269473E+02  0.48695940868E+02  0.54461688399E+02  0.10566000000E+00 0. -1.
         23    2    1    0    0    0  0.52328245555E+01  0.25169281103E+02  0.14652377782E+02  0.95410012864E+02  0.90705585362E+02 0.  0.
         13    1    3    3    0    0  0.21617324870E+02  0.71050116297E+01 -0.34043563086E+02  0.40948324465E+02  0.10566000000E+00 0.  1.
         22    1    1    0    0    0 -0.52328245555E+01 -0.25169281103E+02 -0.14652377782E+02  0.29589987136E+02  0.00000000000E+00 0. -1.
</event>
<event>
 5    1  0.8943113E-005  0.9118800E+02  0.7818608E-02  0.1130116E+00
         25   -1    0    0    0    0  0.00000000000E+00  0.00000000000E+00  0.99999998245E-14  0.12500000000E+03  0.12500000000E+03 0.  0.
        -13    1    3    3    0    0  0.28862737137E+02  0.12619918359E+02  0.21046691932E+02  0.37885278668E+02  0.10566000000E+00 0. -1.
         23    2    1    0    0    0 -0.18255394561E+02 -0.17623328991E+02  0.17870822984E+02  0.93964416077E+02  0.88691059410E+02 0.  0.
         13    1    3    3    0    0 -0.47118131698E+02 -0.30243247350E+02 -0.31758689483E+01  0.56079137409E+02  0.10566000000E+00 0.  1.
         22    1    1    0    0    0  0.18255394561E+02  0.17623328991E+02 -0.17870822984E+02  0.31035583923E+02  0.00000000000E+00 0.  1.
</event>
<event>
 5    1  0.8943113E-005  0.9118800E+02  0.7818608E-02  0.1130116E+00
         25   -1    0    0    0    0  0.00000000000E+00  0.00000000000E+00  0.99999998245E-14  0.12500000000E+03  0.12500000000E+03 0.  0.
        -13    1    3    3    0    0 -0.93520304994E+01 -0.23191229314E+02  0.26522910939E+02  0.36452291564E+02  0.10566000000E+00 0.  1.
         23    2    1    0    0    0  0.49109947949E+01  0.29118638206E+02  0.38552794288E+01  0.95219534249E+02  0.90442708729E+02 0.  0.
         13    1    3    3    0    0  0.14263025294E+02  0.52309867520E+02 -0.22667631510E+02  0.58767242685E+02  0.10566000000E+00 0. -1.
         22    1    1    0    0    0 -0.49109947949E+01 -0.29118638206E+02 -0.38552794288E+01  0.29780465751E+02  0.00000000000E+00 0. -1.
</event>
<event>
 5    1  0.8943113E-005  0.9118800E+02  0.7818608E-02  0.1130116E+00
         25   -1    0    0    0    0  0.00000000000E+00  0.00000000000E+00  0.99999998245E-14  0.12500000000E+03  0.12500000000E+03 0.  0.
        -13    1    3    3    0    0 -0.17035281104E+02 -0.58115795764E+02 -0.16158155677E+01  0.60582741301E+02  0.10566000000E+00 0. -1.
         23    2    1    0    0    0 -0.29856637011E+00 -0.27886709441E+02  0.71077578146E+01  0.96220181959E+02  0.91815279174E+02 0.  0.
         13    1    3    3    0    0  0.16736714734E+02  0.30229086323E+02  0.87235733823E+01  0.35637440658E+02  0.10566000000E+00 0.  1.
         22    1    1    0    0    0  0.29856637011E+00  0.27886709441E+02 -0.71077578146E+01  0.28779818041E+02  0.00000000000E+00 0. -1.
</event>
<event>
 5    1  0.8943113E-005  0.9118800E+02  0.7818608E-02  0.1130116E+00
         25   -1    0    0    0    0  0.00000000000E+00  0.00000000000E+00  0.99999998245E-14  0.12500000000E+03  0.12500000000E+03 0.  0.
        -13    1    3    3    0    0  0.35973368158E+01  0.84570050226E+01 -0.43812741967E+02  0.44766385703E+02  0.10566000000E+00 0.  1.
         23    2    1    0    0    0  0.18499247836E+02 -0.21520086068E+02 -0.47243610638E+01  0.96230991287E+02  0.91829994129E+02 0.  0.
         13    1    3    3    0    0  0.14901911020E+02 -0.29977091090E+02  0.39088380904E+02  0.51464605585E+02  0.10566000000E+00 0. -1.
         22    1    1    0    0    0 -0.18499247836E+02  0.21520086068E+02  0.47243610638E+01  0.28769008713E+02  0.00000000000E+00 0. -1.
</event>
<event>
 5    1  0.8943113E-005  0.9118800E+02  0.7818608E-02  0.1130116E+00
         25   -1    0    0    0    0  0.00000000000E+00  0.00000000000E+00  0.99999998245E-14  0.12500000000E+03  0.12500000000E+03 0.  0.
        -13    1    3    3    0    0  0.95062615638E+00  0.11624596116E+01  0.32235483444E+02  0.32270614487E+02  0.10566000000E+00 0.  1.
         23    2    1    0    0    0 -0.24354742957E+01  0.10252993606E+02 -0.28935044674E+02  0.94205646245E+02  0.89030396838E+02 0.  0.
         13    1    3    3    0    0 -0.33861004521E+01  0.90905339943E+01 -0.61170528118E+02  0.61935031758E+02  0.10566000000E+00 0. -1.
         22    1    1    0    0    0  0.24354742957E+01 -0.10252993606E+02  0.28935044674E+02  0.30794353755E+02  0.00000000000E+00 0. -1.
</event>
<event>
 5    1  0.8943113E-005  0.9118800E+02  0.7818608E-02  0.1130116E+00
         25   -1    0    0    0    0  0.00000000000E+00  0.00000000000E+00  0.99999998245E-14  0.12500000000E+03  0.12500000000E+03 0.  0.
        -13    1    3    3    0    0  0.90833189271E+01 -0.71754873519E+01  0.38638660075E+02  0.40335487079E+02  0.10566000000E+00 0. -1.
         23    2    1    0    0    0 -0.30071880051E+02  0.77555048177E+01  0.61951188150E+01  0.93332266865E+02  0.87795596224E+02 0.  0.
         13    1    3    3    0    0 -0.39155198978E+02  0.14930992170E+02 -0.32443541260E+02  0.52996779786E+02  0.10566000000E+00 0.  1.
         22    1    1    0    0    0  0.30071880051E+02 -0.77555048177E+01 -0.61951188150E+01  0.31667733135E+02  0.00000000000E+00 0.  1.
</event>
<event>
 5    1  0.8943113E-005  0.9118800E+02  0.7818608E-02  0.1130116E+00
         25   -1    0    0    0    0  0.00000000000E+00  0.00000000000E+00  0.99999998245E-14  0.12500000000E+03  0.12500000000E+03 0.  0.
        -13    1    3    3    0    0 -0.95566427242E+01 -0.55239685730E+02 -0.12394040990E+02  0.57414072455E+02  0.10566000000E+00 0.  1.
         23    2    1    0    0    0 -0.18161684250E+02 -0.12025605047E+02 -0.83886746441E+01  0.10165836737E+03  0.98942366267E+02 0.  0.
         13    1    3    3    0    0 -0.86050415259E+01  0.43214080684E+02  0.40053663463E+01  0.44244294916E+02  0.10566000000E+00 0. -1.
         22    1    1    0    0    0  0.18161684250E+02  0.12025605047E+02  0.83886746441E+01  0.23341632630E+02  0.00000000000E+00 0.  1.
</event>
<event>
 5    1  0.8943113E-005  0.9118800E+02  0.7818608E-02  0.1130116E+00
         25   -1    0    0    0    0  0.00000000000E+00  0.00000000000E+00  0.99999998245E-14  0.12500000000E+03  0.12500000000E+03 0.  0.
        -13    1    3    3    0    0 -0.23904883482E+02  0.23856506488E+02  0.79532418618E+01  0.34696420222E+02  0.10566000000E+00 0. -1.
         23    2    1    0    0    0  0.25167963702E+02 -0.10560188785E+02 -0.76913764461E+01  0.96643320792E+02  0.92389556758E+02 0.  0.
         13    1    3    3    0    0  0.49072847183E+02 -0.34416695273E+02 -0.15644618308E+02  0.61946900570E+02  0.10566000000E+00 0.  1.
         22    1    1    0    0    0 -0.25167963702E+02  0.10560188785E+02  0.76913764461E+01  0.28356679208E+02  0.00000000000E+00 0.  1.
</event>
<event>
 5    1  0.8943113E-005  0.9118800E+02  0.7818608E-02  0.1130116E+00
         25   -1    0    0    0    0  0.00000000000E+00  0.00000000000E+00  0.99999998245E-14  0.12500000000E+03  0.12500000000E+03 0.  0.
        -13    1    3    3    0    0 -0.50819134038E+02  0.26930616333E+02 -0.75686523861E+01  0.58009810752E+02  0.10566000000E+00 0.  1.
         23    2    1    0    0    0 -0.14336024499E+02  0.26437826025E+02 -0.33653675806E+01  0.94737714192E+02  0.89774320092E+02 0.  0.
         13    1    3    3    0    0  0.36483109539E+02 -0.49279030799E+00  0.42032848054E+01  0.36727903441E+02  0.10566000000E+00 0. -1.
         22    1    1    0    0    0  0.14336024499E+02 -0.26437826025E+02  0.33653675806E+01  0.30262285808E+02  0.00000000000E+00 0.  1.
</event>
<event>
 5    1  0.8943113E-005  0.9118800E+02  0.7818608E-02  0.1130116E+00
         25   -1    0    0    0    0  0.00000000000E+00  0.00000000000E+00  0.99999998245E-14  0.12500000000E+03  0.12500000000E+03 0.  0.
        -13    1    3    3    0    0  0.23227249446E+02 -0.31373903322E+02 -0.66557102562E+01  0.39599704160E+02  0.10566000000E+00 0.  1.
         23    2    1    0    0    0 -0.10730769045E+02  0.31611701824E+01 -0.29719712942E+02  0.93244626619E+02  0.87670728609E+02 0.  0.
         13    1    3    3    0    0 -0.33958018491E+02  0.34535073505E+02 -0.23064002686E+02  0.53644922460E+02  0.10566000000E+00 0. -1.
         22    1    1    0    0    0  0.10730769045E+02 -0.31611701824E+01  0.29719712942E+02  0.31755373381E+02  0.00000000000E+00 0. -1.
</event>
<event>
 5    1  0.8943113E-005  0.9118800E+02  0.7818608E-02  0.1130116E+00
         25   -1    0    0    0    0  0.00000000000E+00  0.00000000000E+00  0.99999998245E-14  0.12500000000E+03  0.12500000000E+03 0.  0.
        -13    1    3    3    0    0 -0.36615779760E+02 -0.11763083502E+02 -0.35318756196E+02  0.52216004866E+02  0.10566000000E+00 0.  1.
         23    2    1    0    0    0 -0.34721292387E+01 -0.26812858076E+02 -0.12196796300E+02  0.95339472701E+02  0.90608322881E+02 0.  0.
         13    1    3    3    0    0  0.33143650522E+02 -0.15049774574E+02  0.23121959896E+02  0.43123467835E+02  0.10566000000E+00 0. -1.
         22    1    1    0    0    0  0.34721292387E+01  0.26812858076E+02  0.12196796300E+02  0.29660527299E+02  0.00000000000E+00 0.  1.
</event>
<event>
 5    1  0.8943113E-005  0.9118800E+02  0.7818608E-02  0.1130116E+00
         25   -1    0    0    0    0  0.00000000000E+00  0.00000000000E+00  0.99999998245E-14  0.12500000000E+03  0.12500000000E+03 0.  0.
        -13    1    3    3    0    0 -0.42977939352E+02 -0.28239847951E+02 -0.21669946658E+02  0.55804928415E+02  0.10566000000E+00 0. -1.
         23    2    1    0    0    0 -0.25668400859E+02  0.68348433478E+01 -0.76115588102E+01  0.97368175707E+02  0.93365110865E+02 0.  0.
         13    1    3    3    0    0  0.17309538493E+02  0.35074691298E+02  0.14058387848E+02  0.41563247292E+02  0.10566000000E+00 0.  1.
         22    1    1    0    0    0  0.25668400859E+02 -0.68348433478E+01  0.76115588102E+01  0.27631824293E+02  0.00000000000E+00 0. -1.
</event>
<event>
 5    1  0.8943113E-005  0.9118800E+02  0.7818608E-02  0.1130116E+00
         25   -1    0    0    0    0  0.00000000000E+00  0.00000000000E+00  0.99999998245E-14  0.12500000000E+03  0.12500000000E+03 0.  0.
        -13    1    3    3    0    0  0.39324249747E+02 -0.27719245646E+02 -0.15399769616E+02  0.50516504883E+02  0.10566000000E+00 0.  1.
         23    2    1    0    0    0 -0.44954707692E+01 -0.28536089676E+02 -0.37209426265E+01  0.95873326907E+02  0.91341839957E+02 0.  0.
         13    1    3    3    0    0 -0.43819720516E+02 -0.81684403027E+00  0.11678826989E+02  0.45356822024E+02  0.10566000000E+00 0. -1.
         22    1    1    0    0    0  0.44954707692E+01  0.28536089676E+02  0.37209426265E+01  0.29126673093E+02  0.00000000000E+00 0.  1.
</event>
<event>
 5    1  0.8943113E-005  0.9118800E+02  0.7818608E-02  0.1130116E+00
         25   -1    0    0    0    0  0.00000000000E+00  0.00000000000E+00  0.99999998245E-14  0.12500000000E+03  0.12500000000E+03 0.  0.
        -13    1    3    3    0    0 -0.39082572939E+02  0.37093703062E+02  0.19063393259E+02  0.57156053406E+02  0.10566000000E+00 0.  1.
         23    2    1    0    0    0 -0.28273561546E+02  0.33622591388E+01  0.20436944216E+01  0.96453971276E+02  0.92133016987E+02 0.  0.
         13    1    3    3    0    0  0.10809011392E+02 -0.33731443923E+02 -0.17019698837E+02  0.39297917871E+02  0.10566000000E+00 0. -1.
         22    1    1    0    0    0  0.28273561546E+02 -0.33622591388E+01 -0.20436944216E+01  0.28546028724E+02  0.00000000000E+00 0.  1.
</event>
<event>
 5    1  0.8943113E-005  0.9118800E+02  0.7818608E-02  0.1130116E+00
         25   -1    0    0    0    0  0.00000000000E+00  0.00000000000E+00  0.99999998245E-14  0.12500000000E+03  0.12500000000E+03 0.  0.
        -13    1    3    3    0    0  0.62175387845E+01 -0.23566073757E+02 -0.22841663712E+02  0.33403149343E+02  0.10566000000E+00 0.  1.
         23    2    1    0    0    0 -0.21528394263E+01  0.67118714730E+01  0.29621038796E+02  0.94551849389E+02  0.89515151495E+02 0.  0.
         13    1    3    3    0    0 -0.83703782108E+01  0.30277945230E+02  0.52462702509E+02  0.61148700046E+02  0.10566000000E+00 0. -1.
         22    1    1    0    0    0  0.21528394263E+01 -0.67118714730E+01 -0.29621038796E+02  0.30448150611E+02  0.00000000000E+00 0. -1.
</event>
<event>
 5    1  0.8943113E-005  0.9118800E+02  0.7818608E-02  0.1130116E+00
         25   -1    0    0    0    0  0.00000000000E+00  0.00000000000E+00  0.99999998245E-14  0.12500000000E+03  0.12500000000E+03 0.  0.
        -13    1    3    3    0    0 -0.41684783750E+02  0.17587593393E+02  0.40416939218E+02  0.60666999080E+02  0.10566000000E+00 0. -1.
         23    2    1    0    0    0 -0.13612428307E+02  0.86946322272E+01  0.28103992955E+02  0.92585045827E+02  0.86725206583E+02 0.  0.
         13    1    3    3    0    0  0.28072355444E+02 -0.88929611653E+01 -0.12312946262E+02  0.31918046747E+02  0.10566000000E+00 0.  1.
         22    1    1    0    0    0  0.13612428307E+02 -0.86946322272E+01 -0.28103992955E+02  0.32414954173E+02  0.00000000000E+00 0. -1.
</event>
<event>
 5    1  0.8943113E-005  0.9118800E+02  0.7818608E-02  0.1130116E+00
         25   -1    0    0    0    0  0.00000000000E+00  0.00000000000E+00  0.99999998245E-14  0.12500000000E+03  0.12500000000E+03 0.  0.
        -13    1    3    3    0    0 -0.76260607360E+01  0.40831587562E+02 -0.38447747790E+02  0.56600493102E+02  0.10566000000E+00 0.  1.
         23    2    1    0    0    0  0.14872473244E+02  0.22681878420E+02 -0.13907458696E+02  0.94519260566E+02  0.89469632510E+02 0.  0.
         13    1    3    3    0    0  0.22498533980E+02 -0.18149709142E+02  0.24540289094E+02  0.37918767465E+02  0.10566000000E+00 0. -1.
         22    1    1    0    0    0 -0.14872473244E+02 -0.22681878420E+02  0.13907458696E+02  0.30480739434E+02  0.00000000000E+00 0.  1.
</event>
<event>
 5    1  0.8943113E-005  0.9118800E+02  0.7818608E-02  0.1130116E+00
         25   -1    0    0    0    0  0.00000000000E+00  0.00000000000E+00  0.99999998245E-14  0.12500000000E+03  0.12500000000E+03 0.  0.
        -13    1    3    3    0    0 -0.27371283554E+02  0.33260573853E+02 -0.29585547482E+02  0.52256757652E+02  0.10566000000E+00 0. -1.
         23    2    1    0    0    0 -0.29345718653E+02  0.81060557134E+00 -0.87432471153E+00  0.95630071019E+02  0.91008338930E+02 0.  0.
         13    1    3    3    0    0 -0.19744350984E+01 -0.32449968282E+02  0.28711222770E+02  0.43373313367E+02  0.10566000000E+00 0.  1.
         22    1    1    0    0    0  0.29345718653E+02 -0.81060557134E+00  0.87432471153E+00  0.29369928981E+02  0.00000000000E+00 0. -1.
</event>
<event>
 5    1  0.8943113E-005  0.9118800E+02  0.7818608E-02  0.1130116E+00
         25   -1    0    0    0    0  0.00000000000E+00  0.00000000000E+00  0.99999998245E-14  0.12500000000E+03  0.12500000000E+03 0.  0.
        -13    1    3    3    0    0  0.10736274252E+02 -0.34289805377E+02  0.34039360964E+02  0.49494924957E+02  0.10566000000E+00 0. -1.
         23    2    1    0    0    0 -0.22225540077E+02 -0.46617082149E+01  0.15319046668E+02  0.97606947121E+02  0.93684239764E+02 0.  0.
         13    1    3    3    0    0 -0.32961814330E+02  0.29628097162E+02 -0.18720314295E+02  0.48112022164E+02  0.10566000000E+00 0.  1.
         22    1    1    0    0    0  0.22225540077E+02  0.46617082149E+01 -0.15319046668E+02  0.27393052879E+02  0.00000000000E+00 0.  1.
</event>
<event>
 5    1  0.8943113E-005  0.9118800E+02  0.7818608E-02  0.1130116E+00
         25   -1    0    0    0    0  0.00000000000E+00  0.00000000000E+00  0.99999998245E-14  0.12500000000E+03  0.12500000000E+03 0.  0.
        -13    1    3    3    0    0  0.81343495085E+01  0.38104237886E+02 -0.39786239743E+02  0.55687131581E+02  0.10566000000E+00 0.  1.
         23    2    1    0    0    0 -0.12698195686E+02  0.25801380520E+02 -0.89488406733E+01  0.94882942378E+02  0.89976305739E+02 0.  0.
         13    1    3    3    0    0 -0.20832545194E+02 -0.12302857366E+02  0.30837399069E+02  0.39195810797E+02  0.10566000000E+00 0. -1.
         22    1    1    0    0    0  0.12698195686E+02 -0.25801380520E+02  0.89488406733E+01  0.30117057622E+02  0.00000000000E+00 0.  1.
</event>
<event>
 5    1  0.8943113E-005  0.9118800E+02  0.7818608E-02  0.1130116E+00
         25   -1    0    0    0    0  0.00000000000E+00  0.00000000000E+00  0.99999998245E-14  0.12500000000E+03  0.12500000000E+03 0.  0.
        -13    1    3    3    0    0  0.12889763511E+02 -0.44915702078E+02 -0.12379522530E+02  0.48340769943E+02  0.10566000000E+00 0.  1.
         23    2    1    0    0    0 -0.24658221757E+01 -0.35926233668E+01 -0.29164235570E+02  0.95512038761E+02  0.90846076911E+02 0.  0.
         13    1    3    3    0    0 -0.15355585686E+02  0.41323078712E+02 -0.16784713040E+02  0.47171268818E+02  0.10566000000E+00 0. -1.
         22    1    1    0    0    0  0.24658221757E+01  0.35926233668E+01  0.29164235570E+02  0.29487961239E+02  0.00000000000E+00 0.  1.
</event>
<event>
 5    1  0.8943113E-005  0.9118800E+02  0.7818608E-02  0.1130116E+00
         25   -1    0    0    0    0  0.00000000000E+00  0.00000000000E+00  0.99999998245E-14  0.12500000000E+03  0.12500000000E+03 0.  0.
        -13    1    3    3    0    0 -0.35339096095E+02 -0.13964092916E+02  0.57185455151E+01  0.38426039747E+02  0.10566000000E+00 0. -1.
         23    2    1    0    0    0  0.12607710813E+02  0.16336167971E+02  0.19297139703E+02  0.96747489375E+02  0.92530386056E+02 0.  0.
         13    1    3    3    0    0  0.47946806909E+02  0.30300260886E+02  0.13578594188E+02  0.58321449628E+02  0.10566000000E+00 0.  1.
         22    1    1    0    0    0 -0.12607710813E+02 -0.16336167971E+02 -0.19297139703E+02  0.28252510625E+02  0.00000000000E+00 0.  1.
</event>
<event>
 5    1  0.8943113E-005  0.9118800E+02  0.7818608E-02  0.1130116E+00
         25   -1    0    0    0    0  0.00000000000E+00  0.00000000000E+00  0.99999998245E-14  0.12500000000E+03  0.12500000000E+03 0.  0.
        -13    1    3    3    0    0  0.11022540979E+02 -0.55344253225E+02  0.21615769275E+02  0.60429590600E+02  0.10566000000E+00 0. -1.
         23    2    1    0    0    0 -0.32428358884E+01 -0.22185099821E+02  0.17087095622E+02  0.96810223920E+02  0.92615095853E+02 0.  0.
         13    1    3    3    0    0 -0.14265376867E+02  0.33159153404E+02 -0.45286736523E+01  0.36380633320E+02  0.10566000000E+00 0.  1.
         22    1    1    0    0    0  0.32428358884E+01  0.22185099821E+02 -0.17087095622E+02  0.28189776080E+02  0.00000000000E+00 0. -1.
</event>
<event>
 5    1  0.8943113E-005  0.9118800E+02  0.7818608E-02  0.1130116E+00
         25   -1    0    0    0    0  0.00000000000E+00  0.00000000000E+00  0.99999998245E-14  0.12500000000E+03  0.12500000000E+03 0.  0.
        -13    1    3    3    0    0 -0.66410291516E+01  0.10395651504E+02  0.22691387580E+02  0.25827951384E+02  0.10566000000E+00 0. -1.
         23    2    1    0    0    0 -0.14052943894E+02  0.25462968842E+01 -0.36400505686E+02  0.85898009333E+02  0.76482039285E+02 0.  0.
         13    1    3    3    0    0 -0.74119147424E+01 -0.78493546196E+01 -0.59091893266E+02  0.60070057948E+02  0.10566000000E+00 0.  1.
         22    1    1    0    0    0  0.14052943894E+02 -0.25462968842E+01  0.36400505686E+02  0.39101990667E+02  0.00000000000E+00 0.  1.
</event>
<event>
 5    1  0.8943113E-005  0.9118800E+02  0.7818608E-02  0.1130116E+00
         25   -1    0    0    0    0  0.00000000000E+00  0.00000000000E+00  0.99999998245E-14  0.12500000000E+03  0.12500000000E+03 0.  0.
        -13    1    3    3    0    0  0.24010774267E+02  0.22488353488E+02 -0.21822537918E+02  0.39477558799E+02  0.10566000000E+00 0. -1.
         23    2    1    0    0    0 -0.16381677051E+02  0.18960365874E+02  0.16280899728E+02  0.95118190935E+02  0.90302534481E+02 0.  0.
         13    1    3    3    0    0 -0.40392451318E+02 -0.35279876136E+01  0.38103437645E+02  0.55640632136E+02  0.10566000000E+00 0.  1.
         22    1    1    0    0    0  0.16381677051E+02 -0.18960365874E+02 -0.16280899728E+02  0.29881809065E+02  0.00000000000E+00 0.  1.
</event>
<event>
 5    1  0.8943113E-005  0.9118800E+02  0.7818608E-02  0.1130116E+00
         25   -1    0    0    0    0  0.00000000000E+00  0.00000000000E+00  0.99999998245E-14  0.12500000000E+03  0.12500000000E+03 0.  0.
        -13    1    3    3    0    0  0.25943324274E+02 -0.25675131174E+02  0.19700453026E+02  0.41477553552E+02  0.10566000000E+00 0. -1.
         23    2    1    0    0    0  0.18787412610E+02  0.91051351334E+01 -0.20929798113E+02  0.95437746915E+02  0.90743797192E+02 0.  0.
         13    1    3    3    0    0 -0.71559116642E+01  0.34780266308E+02 -0.40630251138E+02  0.53960193363E+02  0.10566000000E+00 0.  1.
         22    1    1    0    0    0 -0.18787412610E+02 -0.91051351334E+01  0.20929798113E+02  0.29562253085E+02  0.00000000000E+00 0. -1.
</event>
<event>
 5    1  0.8943113E-005  0.9118800E+02  0.7818608E-02  0.1130116E+00
         25   -1    0    0    0    0  0.00000000000E+00  0.00000000000E+00  0.99999998245E-14  0.12500000000E+03  0.12500000000E+03 0.  0.
        -13    1    3    3    0    0 -0.85329142810E+00  0.46824862246E+02 -0.15226111904E+02  0.49245725483E+02  0.10566000000E+00 0. -1.
         23    2    1    0    0    0  0.15581234654E+02  0.23388642854E+02  0.16846330831E+02  0.92234128268E+02  0.86217933558E+02 0.  0.
         13    1    3    3    0    0  0.16434526082E+02 -0.23436219392E+02  0.32072442735E+02  0.42988402785E+02  0.10566000000E+00 0.  1.
         22    1    1    0    0    0 -0.15581234654E+02 -0.23388642854E+02 -0.16846330831E+02  0.32765871732E+02  0.00000000000E+00 0.  1.
</event>
<event>
 5    1  0.8943113E-005  0.9118800E+02  0.7818608E-02  0.1130116E+00
         25   -1    0    0    0    0  0.00000000000E+00  0.00000000000E+00  0.99999998245E-14  0.12500000000E+03  0.12500000000E+03 0.  0.
        -13    1    3    3    0    0 -0.47096170544E+02  0.22050450740E+02  0.24211313644E+02  0.57362623111E+02  0.10566000000E+00 0.  1.
         23    2    1    0    0    0 -0.25377531511E+02 -0.39584372746E+01  0.21762265089E+02  0.91335708636E+02  0.84905401235E+02 0.  0.
         13    1    3    3    0    0  0.21718639033E+02 -0.26008888014E+02 -0.24490485552E+01  0.33973085525E+02  0.10566000000E+00 0. -1.
         22    1    1    0    0    0  0.25377531511E+02  0.39584372746E+01 -0.21762265089E+02  0.33664291364E+02  0.00000000000E+00 0.  1.
</event>
<event>
 5    1  0.8943113E-005  0.9118800E+02  0.7818608E-02  0.1130116E+00
         25   -1    0    0    0    0  0.00000000000E+00  0.00000000000E+00  0.99999998245E-14  0.12500000000E+03  0.12500000000E+03 0.  0.
        -13    1    3    3    0    0 -0.25462240041E+02  0.14606626018E+02  0.53465969424E+02  0.60994264009E+02  0.10566000000E+00 0. -1.
         23    2    1    0    0    0 -0.61216775463E+01  0.14615911703E+02  0.24100298395E+02  0.96156903883E+02  0.91729090101E+02 0.  0.
         13    1    3    3    0    0  0.19340562494E+02  0.92856851184E-02 -0.29365671030E+02  0.35162639874E+02  0.10566000000E+00 0.  1.
         22    1    1    0    0    0  0.61216775463E+01 -0.14615911703E+02 -0.24100298395E+02  0.28843096117E+02  0.00000000000E+00 0. -1.
</event>
<event>
 5    1  0.8943113E-005  0.9118800E+02  0.7818608E-02  0.1130116E+00
         25   -1    0    0    0    0  0.00000000000E+00  0.00000000000E+00  0.99999998245E-14  0.12500000000E+03  0.12500000000E+03 0.  0.
        -13    1    3    3    0    0  0.26665323085E+02  0.18167775062E+02 -0.13666513965E+02  0.35041293839E+02  0.10566000000E+00 0. -1.
         23    2    1    0    0    0 -0.28431234015E+02 -0.26868558677E+01  0.30530300143E+01  0.96279358393E+02  0.91895808382E+02 0.  0.
         13    1    3    3    0    0 -0.55096557099E+02 -0.20854630930E+02  0.16719543979E+02  0.61238064554E+02  0.10566000000E+00 0.  1.
         22    1    1    0    0    0  0.28431234015E+02  0.26868558677E+01 -0.30530300143E+01  0.28720641607E+02  0.00000000000E+00 0.  1.
</event>
<event>
 5    1  0.8943113E-005  0.9118800E+02  0.7818608E-02  0.1130116E+00
         25   -1    0    0    0    0  0.00000000000E+00  0.00000000000E+00  0.99999998245E-14  0.12500000000E+03  0.12500000000E+03 0.  0.
        -13    1    3    3    0    0 -0.18569615311E+02 -0.36660692109E+02  0.44776363098E+02  0.60776400149E+02  0.10566000000E+00 0. -1.
         23    2    1    0    0    0  0.71751248857E+00 -0.20994289229E+02  0.17655455264E+02  0.97559334830E+02  0.93620690595E+02 0.  0.
         13    1    3    3    0    0  0.19287127799E+02  0.15666402880E+02 -0.27120907835E+02  0.36782934681E+02  0.10566000000E+00 0.  1.
         22    1    1    0    0    0 -0.71751248857E+00  0.20994289229E+02 -0.17655455264E+02  0.27440665170E+02  0.00000000000E+00 0. -1.
</event>
<event>
 5    1  0.8943113E-005  0.9118800E+02  0.7818608E-02  0.1130116E+00
         25   -1    0    0    0    0  0.00000000000E+00  0.00000000000E+00  0.99999998245E-14  0.12500000000E+03  0.12500000000E+03 0.  0.
        -13    1    3    3    0    0 -0.53827565647E+02  0.26304700554E+01  0.24613644412E+02  0.59246677978E+02  0.10566000000E+00 0. -1.
         23    2    1    0    0    0 -0.26158264006E+02 -0.83018930914E+01  0.48580806997E+00  0.97551644599E+02  0.93610422229E+02 0.  0.
         13    1    3    3    0    0  0.27669301641E+02 -0.10932363147E+02 -0.24127836342E+02  0.38304966621E+02  0.10566000000E+00 0.  1.
         22    1    1    0    0    0  0.26158264006E+02  0.83018930914E+01 -0.48580806997E+00  0.27448355401E+02  0.00000000000E+00 0. -1.
</event>
<event>
 5    1  0.8943113E-005  0.9118800E+02  0.7818608E-02  0.1130116E+00
         25   -1    0    0    0    0  0.00000000000E+00  0.00000000000E+00  0.99999998245E-14  0.12500000000E+03  0.12500000000E+03 0.  0.
        -13    1    3    3    0    0  0.16718004527E+01  0.18629473946E+02  0.51809913947E+02  0.55082942582E+02  0.10566000000E+00 0. -1.
         23    2    1    0    0    0  0.14071907189E+02 -0.86308207674E+01  0.23403209920E+02  0.96360518971E+02  0.92006139702E+02 0.  0.
         13    1    3    3    0    0  0.12400106736E+02 -0.27260294713E+02 -0.28406704027E+02  0.41277576390E+02  0.10566000000E+00 0.  1.
         22    1    1    0    0    0 -0.14071907189E+02  0.86308207674E+01 -0.23403209920E+02  0.28639481029E+02  0.00000000000E+00 0. -1.
</event>
<event>
 5    1  0.8943113E-005  0.9118800E+02  0.7818608E-02  0.1130116E+00
         25   -1    0    0    0    0  0.00000000000E+00  0.00000000000E+00  0.99999998245E-14  0.12500000000E+03  0.12500000000E+03 0.  0.
        -13    1    3    3    0    0 -0.10932792468E+02  0.40424074596E+02 -0.41606688138E+02  0.59031850894E+02  0.10566000000E+00 0.  1.
         23    2    1    0    0    0 -0.86207286087E+01  0.27086089770E+02 -0.76856035276E+01  0.95554427798E+02  0.90904383554E+02 0.  0.
         13    1    3    3    0    0  0.23120638592E+01 -0.13337984826E+02  0.33921084611E+02  0.36522576904E+02  0.10566000000E+00 0. -1.
         22    1    1    0    0    0  0.86207286087E+01 -0.27086089770E+02  0.76856035276E+01  0.29445572202E+02  0.00000000000E+00 0.  1.
</event>
<event>
 5    1  0.8943113E-005  0.9118800E+02  0.7818608E-02  0.1130116E+00
         25   -1    0    0    0    0  0.00000000000E+00  0.00000000000E+00  0.99999998245E-14  0.12500000000E+03  0.12500000000E+03 0.  0.
        -13    1    3    3    0    0 -0.37833062369E+02 -0.10811008427E+02 -0.21004354658E+02  0.44602831637E+02  0.10566000000E+00 0.  1.
         23    2    1    0    0    0 -0.24709832755E+02 -0.21696987887E+02  0.18243607992E+02  0.87394623380E+02  0.78890150494E+02 0.  0.
         13    1    3    3    0    0  0.13123229614E+02 -0.10885979460E+02  0.39247962651E+02  0.42791791743E+02  0.10566000000E+00 0. -1.
         22    1    1    0    0    0  0.24709832755E+02  0.21696987887E+02 -0.18243607992E+02  0.37605376620E+02  0.00000000000E+00 0.  1.
</event>
<event>
 5    1  0.8943113E-005  0.9118800E+02  0.7818608E-02  0.1130116E+00
         25   -1    0    0    0    0  0.00000000000E+00  0.00000000000E+00  0.99999998245E-14  0.12500000000E+03  0.12500000000E+03 0.  0.
        -13    1    3    3    0    0  0.75763970721E+01  0.35438009870E+02  0.20774863607E+02  0.41771526882E+02  0.10566000000E+00 0. -1.
         23    2    1    0    0    0 -0.28248044667E+02 -0.25336571801E+01  0.62570005000E+01  0.95956558374E+02  0.91455670100E+02 0.  0.
         13    1    3    3    0    0 -0.35824441740E+02 -0.37971667050E+02 -0.14517863107E+02  0.54185031492E+02  0.10566000000E+00 0.  1.
         22    1    1    0    0    0  0.28248044667E+02  0.25336571801E+01 -0.62570005000E+01  0.29043441626E+02  0.00000000000E+00 0.  1.
</event>
<event>
 5    1  0.8943113E-005  0.9118800E+02  0.7818608E-02  0.1130116E+00
         25   -1    0    0    0    0  0.00000000000E+00  0.00000000000E+00  0.99999998245E-14  0.12500000000E+03  0.12500000000E+03 0.  0.
        -13    1    3    3    0    0 -0.19941329300E+01  0.15756324524E+02  0.30227546706E+02  0.34146069650E+02  0.10566000000E+00 0. -1.
         23    2    1    0    0    0  0.12337752797E+02 -0.18494859113E+02 -0.18964864738E+02  0.95777644649E+02  0.91210806171E+02 0.  0.
         13    1    3    3    0    0  0.14331885727E+02 -0.34251183638E+02 -0.49192411444E+02  0.61631574999E+02  0.10566000000E+00 0.  1.
         22    1    1    0    0    0 -0.12337752797E+02  0.18494859113E+02  0.18964864738E+02  0.29222355351E+02  0.00000000000E+00 0.  1.
</event>
<event>
 5    1  0.8943113E-005  0.9118800E+02  0.7818608E-02  0.1130116E+00
         25   -1    0    0    0    0  0.00000000000E+00  0.00000000000E+00  0.99999998245E-14  0.12500000000E+03  0.12500000000E+03 0.  0.
        -13    1    3    3    0    0 -0.41376621503E+02  0.19409456705E+02 -0.23327072372E+01  0.45762479213E+02  0.10566000000E+00 0. -1.
         23    2    1    0    0    0 -0.32422480152E+02  0.13552197150E+02 -0.32106442993E+02  0.77400599285E+02  0.61034005449E+02 0.  0.
         13    1    3    3    0    0  0.89541413511E+01 -0.58572595549E+01 -0.29773735756E+02  0.31638120072E+02  0.10566000000E+00 0.  1.
         22    1    1    0    0    0  0.32422480152E+02 -0.13552197150E+02  0.32106442993E+02  0.47599400715E+02  0.00000000000E+00 0.  1.
</event>
<event>
 5    1  0.8943113E-005  0.9118800E+02  0.7818608E-02  0.1130116E+00
         25   -1    0    0    0    0  0.00000000000E+00  0.00000000000E+00  0.99999998245E-14  0.12500000000E+03  0.12500000000E+03 0.  0.
        -13    1    3    3    0    0  0.87163918982E+01 -0.37059327224E+02 -0.33006433371E+02  0.50386556044E+02  0.10566000000E+00 0.  1.
         23    2    1    0    0    0 -0.72286833875E+01 -0.24823107956E+02  0.95401627888E+01  0.97441784199E+02  0.93463608157E+02 0.  0.
         13    1    3    3    0    0 -0.15945075286E+02  0.12236219268E+02  0.42546596160E+02  0.47055228155E+02  0.10566000000E+00 0. -1.
         22    1    1    0    0    0  0.72286833875E+01  0.24823107956E+02 -0.95401627888E+01  0.27558215801E+02  0.00000000000E+00 0.  1.
</event>
<event>
 5    1  0.8943113E-005  0.9118800E+02  0.7818608E-02  0.1130116E+00
         25   -1    0    0    0    0  0.00000000000E+00  0.00000000000E+00  0.99999998245E-14  0.12500000000E+03  0.12500000000E+03 0.  0.
        -13    1    3    3    0    0 -0.24580513908E+02 -0.26428025193E+02  0.18314255943E+02  0.40473019585E+02  0.10566000000E+00 0.  1.
         23    2    1    0    0    0  0.18051496942E+02  0.68758535458E+01  0.23222515797E+02  0.94793723438E+02  0.89852272422E+02 0.  0.
         13    1    3    3    0    0  0.42632010850E+02  0.33303878739E+02  0.49082598546E+01  0.54320703852E+02  0.10566000000E+00 0. -1.
         22    1    1    0    0    0 -0.18051496942E+02 -0.68758535458E+01 -0.23222515797E+02  0.30206276562E+02  0.00000000000E+00 0. -1.
</event>
<event>
 5    1  0.8943113E-005  0.9118800E+02  0.7818608E-02  0.1130116E+00
         25   -1    0    0    0    0  0.00000000000E+00  0.00000000000E+00  0.99999998245E-14  0.12500000000E+03  0.12500000000E+03 0.  0.
        -13    1    3    3    0    0 -0.18232213633E+02 -0.58615750564E+01  0.59023754592E+02  0.62053093769E+02  0.10566000000E+00 0.  1.
         23    2    1    0    0    0 -0.13016122748E+02 -0.53511367686E+01  0.26515940131E+02  0.94980852825E+02  0.90112225620E+02 0.  0.
         13    1    3    3    0    0  0.52160908848E+01  0.51043828780E+00 -0.32507814461E+02  0.32927759056E+02  0.10566000000E+00 0. -1.
         22    1    1    0    0    0  0.13016122748E+02  0.53511367686E+01 -0.26515940131E+02  0.30019147175E+02  0.00000000000E+00 0.  1.
</event>
<event>
 5    1  0.8943113E-005  0.9118800E+02  0.7818608E-02  0.1130116E+00
         25   -1    0    0    0    0  0.00000000000E+00  0.00000000000E+00  0.99999998245E-14  0.12500000000E+03  0.12500000000E+03 0.  0.
        -13    1    3    3    0    0 -0.33148058759E+02 -0.28651487810E+02  0.35248404605E+02  0.56233110749E+02  0.10566000000E+00 0. -1.
         23    2    1    0    0    0 -0.22106493329E+02 -0.23112968541E+02  0.60687923780E+00  0.93011335375E+02  0.87337471018E+02 0.  0.
         13    1    3    3    0    0  0.11041565430E+02  0.55385192690E+01 -0.34641525367E+02  0.36778224626E+02  0.10566000000E+00 0.  1.
         22    1    1    0    0    0  0.22106493329E+02  0.23112968541E+02 -0.60687923780E+00  0.31988664625E+02  0.00000000000E+00 0. -1.
</event>
<event>
 5    1  0.8943113E-005  0.9118800E+02  0.7818608E-02  0.1130116E+00
         25   -1    0    0    0    0  0.00000000000E+00  0.00000000000E+00  0.99999998245E-14  0.12500000000E+03  0.12500000000E+03 0.  0.
        -13    1    3    3    0    0 -0.13388430667E+02 -0.49550945992E+02 -0.11577254407E+02  0.52617395489E+02  0.10566000000E+00 0.  1.
         23    2    1    0    0    0 -0.22817441665E+01 -0.11108016861E+02 -0.27166145332E+02  0.95562033915E+02  0.90914841906E+02 0.  0.
         13    1    3    3    0    0  0.11106686501E+02  0.38442929131E+02 -0.15588890925E+02  0.42944638426E+02  0.10566000000E+00 0. -1.
         22    1    1    0    0    0  0.22817441665E+01  0.11108016861E+02  0.27166145332E+02  0.29437966085E+02  0.00000000000E+00 0. -1.
</event>
<event>
 5    1  0.8943113E-005  0.9118800E+02  0.7818608E-02  0.1130116E+00
         25   -1    0    0    0    0  0.00000000000E+00  0.00000000000E+00  0.99999998245E-14  0.12500000000E+03  0.12500000000E+03 0.  0.
        -13    1    3    3    0    0  0.47320278712E+02  0.61905103655E+01  0.63444280640E+01  0.48143474402E+02  0.10566000000E+00 0. -1.
         23    2    1    0    0    0  0.88253203932E+01 -0.20144838837E+02  0.18408030530E+02  0.96319755932E+02  0.91950742156E+02 0.  0.
         13    1    3    3    0    0 -0.38494958319E+02 -0.26335349202E+02  0.12063602466E+02  0.48176281530E+02  0.10566000000E+00 0.  1.
         22    1    1    0    0    0 -0.88253203932E+01  0.20144838837E+02 -0.18408030530E+02  0.28680244068E+02  0.00000000000E+00 0.  1.
</event>
<event>
 5    1  0.8943113E-005  0.9118800E+02  0.7818608E-02  0.1130116E+00
         25   -1    0    0    0    0  0.00000000000E+00  0.00000000000E+00  0.99999998245E-14  0.12500000000E+03  0.12500000000E+03 0.  0.
        -13    1    3    3    0    0 -0.14796637887E+02  0.31870975219E+02  0.64123263901E+01  0.35718743650E+02  0.10566000000E+00 0. -1.
         23    2    1    0    0    0  0.23812556544E+02 -0.10271065993E+02  0.17198578522E+02  0.93882099220E+02  0.88574967146E+02 0.  0.
         13    1    3    3    0    0  0.38609194431E+02 -0.42142041212E+02  0.10786252132E+02  0.58163355570E+02  0.10566000000E+00 0.  1.
         22    1    1    0    0    0 -0.23812556544E+02  0.10271065993E+02 -0.17198578522E+02  0.31117900780E+02  0.00000000000E+00 0.  1.
</event>
<event>
 5    1  0.8943113E-005  0.9118800E+02  0.7818608E-02  0.1130116E+00
         25   -1    0    0    0    0  0.00000000000E+00  0.00000000000E+00  0.99999998245E-14  0.12500000000E+03  0.12500000000E+03 0.  0.
        -13    1    3    3    0    0  0.30349472779E+02 -0.12759941498E+02  0.98606597323E+01  0.34367868415E+02  0.10566000000E+00 0. -1.
         23    2    1    0    0    0 -0.28679706039E+02 -0.11024439416E+00  0.96577343614E+01  0.94737654993E+02  0.89774237665E+02 0.  0.
         13    1    3    3    0    0 -0.59029178818E+02  0.12649697104E+02 -0.20292537098E+00  0.60369786578E+02  0.10566000000E+00 0.  1.
         22    1    1    0    0    0  0.28679706039E+02  0.11024439416E+00 -0.96577343614E+01  0.30262345007E+02  0.00000000000E+00 0.  1.
</event>
<event>
 5    1  0.8943113E-005  0.9118800E+02  0.7818608E-02  0.1130116E+00
         25   -1    0    0    0    0  0.00000000000E+00  0.00000000000E+00  0.99999998245E-14  0.12500000000E+03  0.12500000000E+03 0.  0.
        -13    1    3    3    0    0  0.36032936819E+02 -0.17955727161E+02  0.45330557145E+02  0.60627149437E+02  0.10566000000E+00 0.  1.
         23    2    1    0    0    0  0.95525246607E+01 -0.16507599331E+02  0.21214334370E+02  0.96472827938E+02  0.92158596911E+02 0.  0.
         13    1    3    3    0    0 -0.26480412158E+02  0.14481278300E+01 -0.24116222775E+02  0.35845678502E+02  0.10566000000E+00 0. -1.
         22    1    1    0    0    0 -0.95525246607E+01  0.16507599331E+02 -0.21214334370E+02  0.28527172062E+02  0.00000000000E+00 0.  1.
</event>
<event>
 5    1  0.8943113E-005  0.9118800E+02  0.7818608E-02  0.1130116E+00
         25   -1    0    0    0    0  0.00000000000E+00  0.00000000000E+00  0.99999998245E-14  0.12500000000E+03  0.12500000000E+03 0.  0.
        -13    1    3    3    0    0  0.29854034326E+02 -0.13550659180E+02 -0.34606448999E+02  0.47670758396E+02  0.10566000000E+00 0.  1.
         23    2    1    0    0    0  0.58949773787E+01 -0.27719991049E+02  0.51428240896E+01  0.96197269197E+02  0.91784079771E+02 0.  0.
         13    1    3    3    0    0 -0.23959056947E+02 -0.14169331870E+02  0.39749273089E+02  0.48526510801E+02  0.10566000000E+00 0. -1.
         22    1    1    0    0    0 -0.58949773787E+01  0.27719991049E+02 -0.51428240896E+01  0.28802730803E+02  0.00000000000E+00 0. -1.
</event>
<event>
 5    1  0.8943113E-005  0.9118800E+02  0.7818608E-02  0.1130116E+00
         25   -1    0    0    0    0  0.00000000000E+00  0.00000000000E+00  0.99999998245E-14  0.12500000000E+03  0.12500000000E+03 0.  0.
        -13    1    3    3    0    0 -0.36026562642E+01 -0.34334849584E+02  0.17303065039E+02  0.38616942549E+02  0.10566000000E+00 0.  1.
         23    2    1    0    0    0 -0.20226007781E+02  0.18358263598E+02 -0.30840460746E+01  0.97511300989E+02  0.93556535033E+02 0.  0.
         13    1    3    3    0    0 -0.16623351517E+02  0.52693113182E+02 -0.20387111113E+02  0.58894358440E+02  0.10566000000E+00 0. -1.
         22    1    1    0    0    0  0.20226007781E+02 -0.18358263598E+02  0.30840460746E+01  0.27488699011E+02  0.00000000000E+00 0. -1.
</event>
<event>
 5    1  0.8943113E-005  0.9118800E+02  0.7818608E-02  0.1130116E+00
         25   -1    0    0    0    0  0.00000000000E+00  0.00000000000E+00  0.99999998245E-14  0.12500000000E+03  0.12500000000E+03 0.  0.
        -13    1    3    3    0    0 -0.43262952779E+02 -0.23605042269E+02 -0.27161262412E+02  0.56272785994E+02  0.10566000000E+00 0. -1.
         23    2    1    0    0    0 -0.15809967570E+02 -0.16331746044E+01 -0.29475885023E+02  0.91511940460E+02  0.85164459224E+02 0.  0.
         13    1    3    3    0    0  0.27452985209E+02  0.21971867665E+02 -0.23146226115E+01  0.35239154465E+02  0.10566000000E+00 0.  1.
         22    1    1    0    0    0  0.15809967570E+02  0.16331746044E+01  0.29475885023E+02  0.33488059540E+02  0.00000000000E+00 0. -1.
</event>
<event>
 5    1  0.8943113E-005  0.9118800E+02  0.7818608E-02  0.1130116E+00
         25   -1    0    0    0    0  0.00000000000E+00  0.00000000000E+00  0.99999998245E-14  0.12500000000E+03  0.12500000000E+03 0.  0.
        -13    1    3    3    0    0  0.62020060904E+01 -0.14624806478E+02  0.28860786921E+02  0.32943983211E+02  0.10566000000E+00 0.  1.
         23    2    1    0    0    0  0.27359301289E+00  0.15686084727E+02 -0.25264150710E+02  0.95261045440E+02  0.90500062763E+02 0.  0.
         13    1    3    3    0    0 -0.59284130775E+01  0.30310891206E+02 -0.54124937631E+02  0.62317062229E+02  0.10566000000E+00 0. -1.
         22    1    1    0    0    0 -0.27359301289E+00 -0.15686084727E+02  0.25264150710E+02  0.29738954560E+02  0.00000000000E+00 0. -1.
</event>
<event>
 5    1  0.8943113E-005  0.9118800E+02  0.7818608E-02  0.1130116E+00
         25   -1    0    0    0    0  0.00000000000E+00  0.00000000000E+00  0.99999998245E-14  0.12500000000E+03  0.12500000000E+03 0.  0.
        -13    1    3    3    0    0  0.27196019864E+02  0.16867973295E+02 -0.17487528047E+02  0.36468847264E+02  0.10566000000E+00 0.  1.
         23    2    1    0    0    0  0.47304366766E+01 -0.31341062410E+02  0.23082052695E+01  0.93220021464E+02  0.87635639817E+02 0.  0.
         13    1    3    3    0    0 -0.22465583188E+02 -0.48209035705E+02  0.19795733317E+02  0.56751174201E+02  0.10566000000E+00 0. -1.
         22    1    1    0    0    0 -0.47304366766E+01  0.31341062410E+02 -0.23082052695E+01  0.31779978536E+02  0.00000000000E+00 0. -1.
</event>
<event>
 5    1  0.8943113E-005  0.9118800E+02  0.7818608E-02  0.1130116E+00
         25   -1    0    0    0    0  0.00000000000E+00  0.00000000000E+00  0.99999998245E-14  0.12500000000E+03  0.12500000000E+03 0.  0.
        -13    1    3    3    0    0 -0.46665101227E+01  0.26813654621E+02 -0.21660824501E+02  0.34784348103E+02  0.10566000000E+00 0.  1.
         23    2    1    0    0    0  0.24907198065E+02 -0.19482582743E+02 -0.13675444997E+01  0.93348622087E+02  0.87818879074E+02 0.  0.
         13    1    3    3    0    0  0.29573708188E+02 -0.46296237365E+02  0.20293280001E+02  0.58564273984E+02  0.10566000000E+00 0. -1.
         22    1    1    0    0    0 -0.24907198065E+02  0.19482582743E+02  0.13675444997E+01  0.31651377913E+02  0.00000000000E+00 0. -1.
</event>
<event>
 5    1  0.8943113E-005  0.9118800E+02  0.7818608E-02  0.1130116E+00
         25   -1    0    0    0    0  0.00000000000E+00  0.00000000000E+00  0.99999998245E-14  0.12500000000E+03  0.12500000000E+03 0.  0.
        -13    1    3    3    0    0  0.19860702089E+02  0.55796600141E+02  0.20487962280E+01  0.59261427630E+02  0.10566000000E+00 0. -1.
         23    2    1    0    0    0  0.10474578868E+01  0.30656094732E+02 -0.97625428590E+01  0.92809930797E+02  0.87048737493E+02 0.  0.
         13    1    3    3    0    0 -0.18813244202E+02 -0.25140505409E+02 -0.11811339087E+02  0.33548503166E+02  0.10566000000E+00 0.  1.
         22    1    1    0    0    0 -0.10474578868E+01 -0.30656094732E+02  0.97625428590E+01  0.32190069203E+02  0.00000000000E+00 0. -1.
</event>
<event>
 5    1  0.8943113E-005  0.9118800E+02  0.7818608E-02  0.1130116E+00
         25   -1    0    0    0    0  0.00000000000E+00  0.00000000000E+00  0.99999998245E-14  0.12500000000E+03  0.12500000000E+03 0.  0.
        -13    1    3    3    0    0 -0.81445887243E+01 -0.29572371255E+02  0.20449615724E+02  0.36865395894E+02  0.10566000000E+00 0. -1.
         23    2    1    0    0    0  0.27061291472E+02  0.54007056566E+01 -0.10640592147E+02  0.95424616335E+02  0.90725707953E+02 0.  0.
         13    1    3    3    0    0  0.35205880196E+02  0.34973076912E+02 -0.31090207871E+02  0.58559220440E+02  0.10566000000E+00 0.  1.
         22    1    1    0    0    0 -0.27061291472E+02 -0.54007056566E+01  0.10640592147E+02  0.29575383665E+02  0.00000000000E+00 0.  1.
</event>
<event>
 5    1  0.8943113E-005  0.9118800E+02  0.7818608E-02  0.1130116E+00
         25   -1    0    0    0    0  0.00000000000E+00  0.00000000000E+00  0.99999998245E-14  0.12500000000E+03  0.12500000000E+03 0.  0.
        -13    1    3    3    0    0  0.27118101395E+01 -0.26320790647E+02 -0.41958162248E+02  0.49604802971E+02  0.10566000000E+00 0.  1.
         23    2    1    0    0    0 -0.22909963413E+02 -0.57140168965E+01 -0.20705716443E+01  0.10129760182E+03  0.98485534239E+02 0.  0.
         13    1    3    3    0    0 -0.25621773552E+02  0.20606773750E+02  0.39887590604E+02  0.51692798846E+02  0.10566000000E+00 0. -1.
         22    1    1    0    0    0  0.22909963413E+02  0.57140168965E+01  0.20705716443E+01  0.23702398183E+02  0.00000000000E+00 0. -1.
</event>
<event>
 5    1  0.8943113E-005  0.9118800E+02  0.7818608E-02  0.1130116E+00
         25   -1    0    0    0    0  0.00000000000E+00  0.00000000000E+00  0.99999998245E-14  0.12500000000E+03  0.12500000000E+03 0.  0.
        -13    1    3    3    0    0  0.21815922495E+02 -0.48861749717E+02  0.94985625003E+01  0.54347391045E+02  0.10566000000E+00 0.  1.
         23    2    1    0    0    0 -0.65956780486E+01 -0.24216505769E+02 -0.11465228770E+02  0.97406638637E+02  0.93416591991E+02 0.  0.
         13    1    3    3    0    0 -0.28411600544E+02  0.24645243948E+02 -0.20963791270E+02  0.43059247592E+02  0.10566000000E+00 0. -1.
         22    1    1    0    0    0  0.65956780486E+01  0.24216505769E+02  0.11465228770E+02  0.27593361363E+02  0.00000000000E+00 0.  1.
</event>
<event>
 5    1  0.8943113E-005  0.9118800E+02  0.7818608E-02  0.1130116E+00
         25   -1    0    0    0    0  0.00000000000E+00  0.00000000000E+00  0.99999998245E-14  0.12500000000E+03  0.12500000000E+03 0.  0.
        -13    1    3    3    0    0 -0.10991784892E+02 -0.16370162490E+02  0.56823648210E+02  0.60147649289E+02  0.10566000000E+00 0.  1.
         23    2    1    0    0    0  0.47216169186E+01 -0.14642282796E+02  0.25982916843E+02  0.94803939338E+02  0.89866483377E+02 0.  0.
         13    1    3    3    0    0  0.15713401811E+02  0.17278796937E+01 -0.30840731367E+02  0.34656290049E+02  0.10566000000E+00 0. -1.
         22    1    1    0    0    0 -0.47216169186E+01  0.14642282796E+02 -0.25982916843E+02  0.30196060662E+02  0.00000000000E+00 0.  1.
</event>
<event>
 5    1  0.8943113E-005  0.9118800E+02  0.7818608E-02  0.1130116E+00
         25   -1    0    0    0    0  0.00000000000E+00  0.00000000000E+00  0.99999998245E-14  0.12500000000E+03  0.12500000000E+03 0.  0.
        -13    1    3    3    0    0  0.27976924497E+02  0.52901720332E+01  0.28806219316E+02  0.40503131481E+02  0.10566000000E+00 0. -1.
         23    2    1    0    0    0  0.95362357491E+00  0.27409599372E+02 -0.12725235437E+02  0.94765464241E+02  0.89812950403E+02 0.  0.
         13    1    3    3    0    0 -0.27023300922E+02  0.22119427339E+02 -0.41531454753E+02  0.54262332759E+02  0.10566000000E+00 0.  1.
         22    1    1    0    0    0 -0.95362357491E+00 -0.27409599372E+02  0.12725235437E+02  0.30234535759E+02  0.00000000000E+00 0.  1.
</event>
<event>
 5    1  0.8943113E-005  0.9118800E+02  0.7818608E-02  0.1130116E+00
         25   -1    0    0    0    0  0.00000000000E+00  0.00000000000E+00  0.99999998245E-14  0.12500000000E+03  0.12500000000E+03 0.  0.
        -13    1    3    3    0    0  0.35673234617E+02 -0.13962189930E+00  0.23664202470E+02  0.42808933704E+02  0.10566000000E+00 0.  1.
         23    2    1    0    0    0 -0.61676910465E+01 -0.26512639796E+02 -0.32191398413E+00  0.97777507271E+02  0.93911537192E+02 0.  0.
         13    1    3    3    0    0 -0.41840925664E+02 -0.26373017896E+02 -0.23986116454E+02  0.54968573567E+02  0.10566000000E+00 0. -1.
         22    1    1    0    0    0  0.61676910465E+01  0.26512639796E+02  0.32191398413E+00  0.27222492729E+02  0.00000000000E+00 0. -1.
</event>
<event>
 5    1  0.8943113E-005  0.9118800E+02  0.7818608E-02  0.1130116E+00
         25   -1    0    0    0    0  0.00000000000E+00  0.00000000000E+00  0.99999998245E-14  0.12500000000E+03  0.12500000000E+03 0.  0.
        -13    1    3    3    0    0 -0.37830163051E+02 -0.26093548919E+02 -0.59460354106E+01  0.46339627025E+02  0.10566000000E+00 0.  1.
         23    2    1    0    0    0 -0.13845084483E+02  0.15632855663E+02 -0.19592155085E+02  0.96365666039E+02  0.92013132268E+02 0.  0.
         13    1    3    3    0    0  0.23985078568E+02  0.41726404582E+02 -0.13646119674E+02  0.50026039014E+02  0.10566000000E+00 0. -1.
         22    1    1    0    0    0  0.13845084483E+02 -0.15632855663E+02  0.19592155085E+02  0.28634333961E+02  0.00000000000E+00 0. -1.
</event>
<event>
 5    1  0.8943113E-005  0.9118800E+02  0.7818608E-02  0.1130116E+00
         25   -1    0    0    0    0  0.00000000000E+00  0.00000000000E+00  0.99999998245E-14  0.12500000000E+03  0.12500000000E+03 0.  0.
        -13    1    3    3    0    0  0.29453473263E+02 -0.17921388726E+02  0.29880967209E+02  0.45624189050E+02  0.10566000000E+00 0. -1.
         23    2    1    0    0    0  0.23325891272E+02  0.21163509735E+02  0.32017349293E+01  0.93341786935E+02  0.87809149487E+02 0.  0.
         13    1    3    3    0    0 -0.61275819910E+01  0.39084898461E+02 -0.26679232280E+02  0.47717597884E+02  0.10566000000E+00 0.  1.
         22    1    1    0    0    0 -0.23325891272E+02 -0.21163509735E+02 -0.32017349293E+01  0.31658213065E+02  0.00000000000E+00 0.  1.
</event>
<event>
 5    1  0.8943113E-005  0.9118800E+02  0.7818608E-02  0.1130116E+00
         25   -1    0    0    0    0  0.00000000000E+00  0.00000000000E+00  0.99999998245E-14  0.12500000000E+03  0.12500000000E+03 0.  0.
        -13    1    3    3    0    0 -0.10423746869E+02 -0.12904840027E+02  0.36787950370E+02  0.40355344769E+02  0.10566000000E+00 0.  1.
         23    2    1    0    0    0  0.28364379362E+02 -0.78064410179E+01 -0.20861261191E+01  0.95507111703E+02  0.90839297254E+02 0.  0.
         13    1    3    3    0    0  0.38788126231E+02  0.50983990089E+01 -0.38874076490E+02  0.55151766934E+02  0.10566000000E+00 0. -1.
         22    1    1    0    0    0 -0.28364379362E+02  0.78064410179E+01  0.20861261191E+01  0.29492888297E+02  0.00000000000E+00 0. -1.
</event>
<event>
 5    1  0.8943113E-005  0.9118800E+02  0.7818608E-02  0.1130116E+00
         25   -1    0    0    0    0  0.00000000000E+00  0.00000000000E+00  0.99999998245E-14  0.12500000000E+03  0.12500000000E+03 0.  0.
        -13    1    3    3    0    0 -0.10983308531E+02 -0.73626008908E+00 -0.30589075692E+02  0.32509657964E+02  0.10566000000E+00 0. -1.
         23    2    1    0    0    0  0.82511273879E+01 -0.14484262799E+02  0.26156327319E+02  0.93983416841E+02  0.88717834793E+02 0.  0.
         13    1    3    3    0    0  0.19234435919E+02 -0.13748002710E+02  0.56745403011E+02  0.61473758878E+02  0.10566000000E+00 0.  1.
         22    1    1    0    0    0 -0.82511273879E+01  0.14484262799E+02 -0.26156327319E+02  0.31016583159E+02  0.00000000000E+00 0.  1.
</event>
<event>
 5    1  0.8943113E-005  0.9118800E+02  0.7818608E-02  0.1130116E+00
         25   -1    0    0    0    0  0.00000000000E+00  0.00000000000E+00  0.99999998245E-14  0.12500000000E+03  0.12500000000E+03 0.  0.
        -13    1    3    3    0    0 -0.19876383883E+02 -0.51162614506E+02  0.10854193037E+02  0.55950946639E+02  0.10566000000E+00 0.  1.
         23    2    1    0    0    0 -0.20332021370E+02 -0.10751663665E+02  0.16412078980E+02  0.96744988037E+02  0.92527006918E+02 0.  0.
         13    1    3    3    0    0 -0.45563748791E+00  0.40410950840E+02  0.55578859435E+01  0.40794041398E+02  0.10566000000E+00 0. -1.
         22    1    1    0    0    0  0.20332021370E+02  0.10751663665E+02 -0.16412078980E+02  0.28255011963E+02  0.00000000000E+00 0. -1.
</event>
<event>
 5    1  0.8943113E-005  0.9118800E+02  0.7818608E-02  0.1130116E+00
         25   -1    0    0    0    0  0.00000000000E+00  0.00000000000E+00  0.99999998245E-14  0.12500000000E+03  0.12500000000E+03 0.  0.
        -13    1    3    3    0    0 -0.19150983021E+02 -0.18798381706E+02  0.55546472992E+02  0.61689230270E+02  0.10566000000E+00 0. -1.
         23    2    1    0    0    0 -0.11685097226E+02 -0.15351741021E+02  0.24449405872E+02  0.93855323135E+02  0.88537171763E+02 0.  0.
         13    1    3    3    0    0  0.74658857944E+01  0.34466406853E+01 -0.31097067120E+02  0.32166092865E+02  0.10566000000E+00 0.  1.
         22    1    1    0    0    0  0.11685097226E+02  0.15351741021E+02 -0.24449405872E+02  0.31144676865E+02  0.00000000000E+00 0. -1.
</event>
<event>
 5    1  0.8943113E-005  0.9118800E+02  0.7818608E-02  0.1130116E+00
         25   -1    0    0    0    0  0.00000000000E+00  0.00000000000E+00  0.99999998245E-14  0.12500000000E+03  0.12500000000E+03 0.  0.
        -13    1    3    3    0    0  0.37946804658E+01 -0.31201976122E+02 -0.25672566876E+02  0.40583922528E+02  0.10566000000E+00 0. -1.
         23    2    1    0    0    0  0.59026761786E+01 -0.12130040059E+02  0.26002459493E+02  0.95706530462E+02  0.91113295492E+02 0.  0.
         13    1    3    3    0    0  0.21079957128E+01  0.19071936063E+02  0.51675026369E+02  0.55122607933E+02  0.10566000000E+00 0.  1.
         22    1    1    0    0    0 -0.59026761786E+01  0.12130040059E+02 -0.26002459493E+02  0.29293469538E+02  0.00000000000E+00 0.  1.
</event>
<event>
 5    1  0.8943113E-005  0.9118800E+02  0.7818608E-02  0.1130116E+00
         25   -1    0    0    0    0  0.00000000000E+00  0.00000000000E+00  0.99999998245E-14  0.12500000000E+03  0.12500000000E+03 0.  0.
        -13    1    3    3    0    0  0.32874944981E+02 -0.12768669708E+02 -0.38933811612E+02  0.52532406991E+02  0.10566000000E+00 0.  1.
         23    2    1    0    0    0  0.27471948033E+02 -0.96349962542E+01  0.37285076079E+01  0.95649653315E+02  0.91035231250E+02 0.  0.
         13    1    3    3    0    0 -0.54029969476E+01  0.31336734541E+01  0.42662319220E+02  0.43117246324E+02  0.10566000000E+00 0. -1.
         22    1    1    0    0    0 -0.27471948033E+02  0.96349962542E+01 -0.37285076079E+01  0.29350346685E+02  0.00000000000E+00 0.  1.
</event>
<event>
 5    1  0.8943113E-005  0.9118800E+02  0.7818608E-02  0.1130116E+00
         25   -1    0    0    0    0  0.00000000000E+00  0.00000000000E+00  0.99999998245E-14  0.12500000000E+03  0.12500000000E+03 0.  0.
        -13    1    3    3    0    0  0.26420270865E+02 -0.33558666170E+02 -0.62433635362E+01  0.43164864647E+02  0.10566000000E+00 0.  1.
         23    2    1    0    0    0  0.65672850240E+01 -0.11537277188E+01  0.29150207489E+02  0.95096907904E+02  0.90273068941E+02 0.  0.
         13    1    3    3    0    0 -0.19852985841E+02  0.32404938452E+02  0.35393571025E+02  0.51932043257E+02  0.10566000000E+00 0. -1.
         22    1    1    0    0    0 -0.65672850240E+01  0.11537277188E+01 -0.29150207489E+02  0.29903092096E+02  0.00000000000E+00 0. -1.
</event>
<event>
 5    1  0.8943113E-005  0.9118800E+02  0.7818608E-02  0.1130116E+00
         25   -1    0    0    0    0  0.00000000000E+00  0.00000000000E+00  0.99999998245E-14  0.12500000000E+03  0.12500000000E+03 0.  0.
        -13    1    3    3    0    0  0.40821250998E+02 -0.10308665050E+02 -0.25079288853E+02  0.49006377152E+02  0.10566000000E+00 0. -1.
         23    2    1    0    0    0  0.10348372285E+02 -0.20177510984E+02  0.13075449833E+02  0.98823901231E+02  0.95294151488E+02 0.  0.
         13    1    3    3    0    0 -0.30472878713E+02 -0.98688459334E+01  0.38154738686E+02  0.49817524079E+02  0.10566000000E+00 0.  1.
         22    1    1    0    0    0 -0.10348372285E+02  0.20177510984E+02 -0.13075449833E+02  0.26176098769E+02  0.00000000000E+00 0. -1.
</event>
<event>
 5    1  0.8943113E-005  0.9118800E+02  0.7818608E-02  0.1130116E+00
         25   -1    0    0    0    0  0.00000000000E+00  0.00000000000E+00  0.99999998245E-14  0.12500000000E+03  0.12500000000E+03 0.  0.
        -13    1    3    3    0    0 -0.38348146000E+02 -0.38402661306E+01 -0.34014766064E+02  0.51403729631E+02  0.10566000000E+00 0.  1.
         23    2    1    0    0    0 -0.27794826579E+02 -0.12144286284E+01  0.89898916115E+01  0.95762261158E+02  0.91189721402E+02 0.  0.
         13    1    3    3    0    0  0.10553319421E+02  0.26258375022E+01  0.43004657675E+02  0.44358531526E+02  0.10566000000E+00 0. -1.
         22    1    1    0    0    0  0.27794826579E+02  0.12144286284E+01 -0.89898916115E+01  0.29237738842E+02  0.00000000000E+00 0.  1.
</event>
<event>
 5    1  0.8943113E-005  0.9118800E+02  0.7818608E-02  0.1130116E+00
         25   -1    0    0    0    0  0.00000000000E+00  0.00000000000E+00  0.99999998245E-14  0.12500000000E+03  0.12500000000E+03 0.  0.
        -13    1    3    3    0    0 -0.28204723621E+02  0.36543010781E+02 -0.38807768547E+02  0.60307148292E+02  0.10566000000E+00 0.  1.
         23    2    1    0    0    0 -0.26525083226E+01  0.21800763554E+02 -0.20026086170E+02  0.95278741291E+02  0.90524501229E+02 0.  0.
         13    1    3    3    0    0  0.25552215299E+02 -0.14742247227E+02  0.18781682376E+02  0.34971592999E+02  0.10566000000E+00 0. -1.
         22    1    1    0    0    0  0.26525083226E+01 -0.21800763554E+02  0.20026086170E+02  0.29721258709E+02  0.00000000000E+00 0.  1.
</event>
<event>
 5    1  0.8943113E-005  0.9118800E+02  0.7818608E-02  0.1130116E+00
         25   -1    0    0    0    0  0.00000000000E+00  0.00000000000E+00  0.99999998245E-14  0.12500000000E+03  0.12500000000E+03 0.  0.
        -13    1    3    3    0    0 -0.98292611262E+01  0.34595369422E+02 -0.35286119543E+02  0.50384276874E+02  0.10566000000E+00 0. -1.
         23    2    1    0    0    0  0.21970321288E+02  0.75126261055E+01 -0.18134675156E+02  0.95538143108E+02  0.90881988188E+02 0.  0.
         13    1    3    3    0    0  0.31799582414E+02 -0.27082743316E+02  0.17151444387E+02  0.45153866234E+02  0.10566000000E+00 0.  1.
         22    1    1    0    0    0 -0.21970321288E+02 -0.75126261055E+01  0.18134675156E+02  0.29461856892E+02  0.00000000000E+00 0. -1.
</event>
<event>
 5    1  0.8943113E-005  0.9118800E+02  0.7818608E-02  0.1130116E+00
         25   -1    0    0    0    0  0.00000000000E+00  0.00000000000E+00  0.99999998245E-14  0.12500000000E+03  0.12500000000E+03 0.  0.
        -13    1    3    3    0    0 -0.20738981447E+02  0.30121464787E+00 -0.34874741779E+02  0.40576530900E+02  0.10566000000E+00 0. -1.
         23    2    1    0    0    0 -0.76148788676E+01 -0.23453991228E+02  0.14118863889E+02  0.96584891303E+02  0.92310469752E+02 0.  0.
         13    1    3    3    0    0  0.13124102579E+02 -0.23755205876E+02  0.48993605668E+02  0.56008360404E+02  0.10566000000E+00 0.  1.
         22    1    1    0    0    0  0.76148788676E+01  0.23453991228E+02 -0.14118863889E+02  0.28415108697E+02  0.00000000000E+00 0.  1.
</event>
<event>
 5    1  0.8943113E-005  0.9118800E+02  0.7818608E-02  0.1130116E+00
         25   -1    0    0    0    0  0.00000000000E+00  0.00000000000E+00  0.99999998245E-14  0.12500000000E+03  0.12500000000E+03 0.  0.
        -13    1    3    3    0    0 -0.57383237945E+01  0.25189302879E+02 -0.53401740923E+02  0.59322731201E+02  0.10566000000E+00 0. -1.
         23    2    1    0    0    0  0.11245058539E+02  0.13218878002E+02 -0.21954405970E+02  0.97014539155E+02  0.92890445089E+02 0.  0.
         13    1    3    3    0    0  0.16983382334E+02 -0.11970424877E+02  0.31447334952E+02  0.37691807954E+02  0.10566000000E+00 0.  1.
         22    1    1    0    0    0 -0.11245058539E+02 -0.13218878002E+02  0.21954405970E+02  0.27985460845E+02  0.00000000000E+00 0. -1.
</event>
<event>
 5    1  0.8943113E-005  0.9118800E+02  0.7818608E-02  0.1130116E+00
         25   -1    0    0    0    0  0.00000000000E+00  0.00000000000E+00  0.99999998245E-14  0.12500000000E+03  0.12500000000E+03 0.  0.
        -13    1    3    3    0    0  0.18412841050E+02  0.44545203088E+02  0.32828540485E+02  0.58318368188E+02  0.10566000000E+00 0. -1.
         23    2    1    0    0    0 -0.16273574019E+01  0.12823024278E+02  0.25301270245E+02  0.96588162330E+02  0.92314899028E+02 0.  0.
         13    1    3    3    0    0 -0.20040198452E+02 -0.31722178809E+02 -0.75272702396E+01  0.38269794143E+02  0.10566000000E+00 0.  1.
         22    1    1    0    0    0  0.16273574019E+01 -0.12823024278E+02 -0.25301270245E+02  0.28411837670E+02  0.00000000000E+00 0. -1.
</event>
<event>
 5    1  0.8943113E-005  0.9118800E+02  0.7818608E-02  0.1130116E+00
         25   -1    0    0    0    0  0.00000000000E+00  0.00000000000E+00  0.99999998245E-14  0.12500000000E+03  0.12500000000E+03 0.  0.
        -13    1    3    3    0    0  0.30284547590E+02  0.24350436467E+02 -0.17338667644E+02  0.42552768871E+02  0.10566000000E+00 0.  1.
         23    2    1    0    0    0  0.10271015468E+02 -0.23980334137E+02 -0.14982035578E+02  0.94916589720E+02  0.90023038329E+02 0.  0.
         13    1    3    3    0    0 -0.20013532123E+02 -0.48330770603E+02  0.23566320657E+01  0.52363820849E+02  0.10566000000E+00 0. -1.
         22    1    1    0    0    0 -0.10271015468E+02  0.23980334137E+02  0.14982035578E+02  0.30083410280E+02  0.00000000000E+00 0. -1.
</event>
<event>
 5    1  0.8943113E-005  0.9118800E+02  0.7818608E-02  0.1130116E+00
         25   -1    0    0    0    0  0.00000000000E+00  0.00000000000E+00  0.99999998245E-14  0.12500000000E+03  0.12500000000E+03 0.  0.
        -13    1    3    3    0    0 -0.12410023621E+02  0.32922860822E+02 -0.10122536433E+02  0.36611478512E+02  0.10566000000E+00 0.  1.
         23    2    1    0    0    0  0.11620369946E+02 -0.14611434759E+02  0.19867543418E+02  0.97737456009E+02  0.93858212225E+02 0.  0.
         13    1    3    3    0    0  0.24030393567E+02 -0.47534295581E+02  0.29990079852E+02  0.61125977496E+02  0.10566000000E+00 0. -1.
         22    1    1    0    0    0 -0.11620369946E+02  0.14611434759E+02 -0.19867543418E+02  0.27262543991E+02  0.00000000000E+00 0. -1.
</event>
<event>
 5    1  0.8943113E-005  0.9118800E+02  0.7818608E-02  0.1130116E+00
         25   -1    0    0    0    0  0.00000000000E+00  0.00000000000E+00  0.99999998245E-14  0.12500000000E+03  0.12500000000E+03 0.  0.
        -13    1    3    3    0    0 -0.72293036271E+01 -0.32027539165E+01 -0.57802717293E+02  0.58341115469E+02  0.10566000000E+00 0. -1.
         23    2    1    0    0    0 -0.14412414747E+02 -0.11920612128E+02 -0.20810399599E+02  0.97019803006E+02  0.92897528231E+02 0.  0.
         13    1    3    3    0    0 -0.71831111203E+01 -0.87178582117E+01  0.36992317694E+02  0.38678687537E+02  0.10566000000E+00 0.  1.
         22    1    1    0    0    0  0.14412414747E+02  0.11920612128E+02  0.20810399599E+02  0.27980196994E+02  0.00000000000E+00 0. -1.
</event>
<event>
 5    1  0.8943113E-005  0.9118800E+02  0.7818608E-02  0.1130116E+00
         25   -1    0    0    0    0  0.00000000000E+00  0.00000000000E+00  0.99999998245E-14  0.12500000000E+03  0.12500000000E+03 0.  0.
        -13    1    3    3    0    0 -0.69035215681E+01 -0.20319051354E+02  0.27350055860E+02  0.34764337726E+02  0.10566000000E+00 0. -1.
         23    2    1    0    0    0 -0.85741324833E+01  0.18254377296E+02 -0.20495840720E+02  0.96245565123E+02  0.91849830052E+02 0.  0.
         13    1    3    3    0    0 -0.16706109152E+01  0.38573428650E+02 -0.47845896580E+02  0.61481227397E+02  0.10566000000E+00 0.  1.
         22    1    1    0    0    0  0.85741324833E+01 -0.18254377296E+02  0.20495840720E+02  0.28754434877E+02  0.00000000000E+00 0.  1.
</event>
<event>
 5    1  0.8943113E-005  0.9118800E+02  0.7818608E-02  0.1130116E+00
         25   -1    0    0    0    0  0.00000000000E+00  0.00000000000E+00  0.99999998245E-14  0.12500000000E+03  0.12500000000E+03 0.  0.
        -13    1    3    3    0    0 -0.27557188792E+02  0.37342500260E+02 -0.40217761910E+01  0.46583761415E+02  0.10566000000E+00 0.  1.
         23    2    1    0    0    0  0.26061625514E+01  0.16438379710E+02  0.26088669362E+02  0.94054385127E+02  0.88817770079E+02 0.  0.
         13    1    3    3    0    0  0.30163351344E+02 -0.20904120550E+02  0.30110445553E+02  0.47470623713E+02  0.10566000000E+00 0. -1.
         22    1    1    0    0    0 -0.26061625514E+01 -0.16438379710E+02 -0.26088669362E+02  0.30945614873E+02  0.00000000000E+00 0. -1.
</event>
<event>
 5    1  0.8943113E-005  0.9118800E+02  0.7818608E-02  0.1130116E+00
         25   -1    0    0    0    0  0.00000000000E+00  0.00000000000E+00  0.99999998245E-14  0.12500000000E+03  0.12500000000E+03 0.  0.
        -13    1    3    3    0    0  0.50650929209E+02 -0.51285019576E+01  0.29806710555E+02  0.58993807473E+02  0.10566000000E+00 0.  1.
         23    2    1    0    0    0  0.17439883597E+02  0.25713766920E+01  0.26399524864E+02  0.93255765389E+02  0.87686608712E+02 0.  0.
         13    1    3    3    0    0 -0.33211045612E+02  0.76998786496E+01 -0.34071856904E+01  0.34261957916E+02  0.10566000000E+00 0. -1.
         22    1    1    0    0    0 -0.17439883597E+02 -0.25713766920E+01 -0.26399524864E+02  0.31744234611E+02  0.00000000000E+00 0.  1.
</event>
<event>
 5    1  0.8943113E-005  0.9118800E+02  0.7818608E-02  0.1130116E+00
         25   -1    0    0    0    0  0.00000000000E+00  0.00000000000E+00  0.99999998245E-14  0.12500000000E+03  0.12500000000E+03 0.  0.
        -13    1    3    3    0    0  0.41560599871E+02  0.98218252227E+01 -0.32926214353E+02  0.53924933639E+02  0.10566000000E+00 0. -1.
         23    2    1    0    0    0  0.34544132773E+01  0.22529434015E+02 -0.10937051215E+02  0.99719029738E+02  0.96461170605E+02 0.  0.
         13    1    3    3    0    0 -0.38106186593E+02  0.12707608792E+02  0.21989163139E+02  0.45794096098E+02  0.10566000000E+00 0.  1.
         22    1    1    0    0    0 -0.34544132773E+01 -0.22529434015E+02  0.10937051215E+02  0.25280970262E+02  0.00000000000E+00 0. -1.
</event>
<event>
 5    1  0.8943113E-005  0.9118800E+02  0.7818608E-02  0.1130116E+00
         25   -1    0    0    0    0  0.00000000000E+00  0.00000000000E+00  0.99999998245E-14  0.12500000000E+03  0.12500000000E+03 0.  0.
        -13    1    3    3    0    0 -0.36452856418E+02  0.33951512282E+02 -0.14590198660E+01  0.49836290294E+02  0.10566000000E+00 0. -1.
         23    2    1    0    0    0 -0.23019813619E+02  0.97796767567E+00  0.22534837825E+02  0.92771330223E+02  0.86993290291E+02 0.  0.
         13    1    3    3    0    0  0.13433042799E+02 -0.32973544606E+02  0.23993857691E+02  0.42935039929E+02  0.10566000000E+00 0.  1.
         22    1    1    0    0    0  0.23019813619E+02 -0.97796767567E+00 -0.22534837825E+02  0.32228669777E+02  0.00000000000E+00 0.  1.
</event>
<event>
 5    1  0.8943113E-005  0.9118800E+02  0.7818608E-02  0.1130116E+00
         25   -1    0    0    0    0  0.00000000000E+00  0.00000000000E+00  0.99999998245E-14  0.12500000000E+03  0.12500000000E+03 0.  0.
        -13    1    3    3    0    0 -0.28221650824E+02 -0.25294200247E+02  0.99059920411E+01  0.39171392414E+02  0.10566000000E+00 0. -1.
         23    2    1    0    0    0  0.23296639325E+02 -0.16197877582E+02 -0.96607819371E+01  0.95026088849E+02  0.90174953354E+02 0.  0.
         13    1    3    3    0    0  0.51518290149E+02  0.90963226645E+01 -0.19566773978E+02  0.55854696435E+02  0.10566000000E+00 0.  1.
         22    1    1    0    0    0 -0.23296639325E+02  0.16197877582E+02  0.96607819371E+01  0.29973911151E+02  0.00000000000E+00 0.  1.
</event>
<event>
 5    1  0.8943113E-005  0.9118800E+02  0.7818608E-02  0.1130116E+00
         25   -1    0    0    0    0  0.00000000000E+00  0.00000000000E+00  0.99999998245E-14  0.12500000000E+03  0.12500000000E+03 0.  0.
        -13    1    3    3    0    0  0.14867986188E+02 -0.39373946803E+02  0.12738405899E+02  0.43973206035E+02  0.10566000000E+00 0. -1.
         23    2    1    0    0    0 -0.23234605036E+02 -0.15536974670E+02 -0.11192190159E+02  0.94891702578E+02  0.89988475065E+02 0.  0.
         13    1    3    3    0    0 -0.38102591224E+02  0.23836972133E+02 -0.23930596058E+02  0.50918496543E+02  0.10566000000E+00 0.  1.
         22    1    1    0    0    0  0.23234605036E+02  0.15536974670E+02  0.11192190159E+02  0.30108297422E+02  0.00000000000E+00 0.  1.
</event>
<event>
 5    1  0.8943113E-005  0.9118800E+02  0.7818608E-02  0.1130116E+00
         25   -1    0    0    0    0  0.00000000000E+00  0.00000000000E+00  0.99999998245E-14  0.12500000000E+03  0.12500000000E+03 0.  0.
        -13    1    3    3    0    0 -0.33798522398E+02  0.36114464596E+01  0.12438747544E+02  0.36195528265E+02  0.10566000000E+00 0.  1.
         23    2    1    0    0    0  0.24107207251E+02 -0.38691982350E+01  0.17735902518E+02  0.94822353065E+02  0.89892092345E+02 0.  0.
         13    1    3    3    0    0  0.57905729650E+02 -0.74806446947E+01  0.52971549740E+01  0.58626824800E+02  0.10566000000E+00 0. -1.
         22    1    1    0    0    0 -0.24107207251E+02  0.38691982350E+01 -0.17735902518E+02  0.30177646935E+02  0.00000000000E+00 0. -1.
</event>
<event>
 5    1  0.8943113E-005  0.9118800E+02  0.7818608E-02  0.1130116E+00
         25   -1    0    0    0    0  0.00000000000E+00  0.00000000000E+00  0.99999998245E-14  0.12500000000E+03  0.12500000000E+03 0.  0.
        -13    1    3    3    0    0 -0.45019716124E+02 -0.15318441946E+01 -0.25358664522E+02  0.51693272453E+02  0.10566000000E+00 0.  1.
         23    2    1    0    0    0 -0.54146361351E+01  0.15185742639E+02 -0.25674331597E+02  0.94683397834E+02  0.89698659179E+02 0.  0.
         13    1    3    3    0    0  0.39605079989E+02  0.16717586834E+02 -0.31566707503E+00  0.42990125381E+02  0.10566000000E+00 0. -1.
         22    1    1    0    0    0  0.54146361351E+01 -0.15185742639E+02  0.25674331597E+02  0.30316602166E+02  0.00000000000E+00 0.  1.
</event>
<event>
 5    1  0.8943113E-005  0.9118800E+02  0.7818608E-02  0.1130116E+00
         25   -1    0    0    0    0  0.00000000000E+00  0.00000000000E+00  0.99999998245E-14  0.12500000000E+03  0.12500000000E+03 0.  0.
        -13    1    3    3    0    0 -0.25595525325E+02  0.22509641664E+02 -0.29423797449E+01  0.34212331799E+02  0.10566000000E+00 0. -1.
         23    2    1    0    0    0  0.13452634584E+02 -0.25434290821E+02  0.13568266070E+01  0.96195182603E+02  0.91781238011E+02 0.  0.
         13    1    3    3    0    0  0.39048159909E+02 -0.47943932486E+02  0.42992063519E+01  0.61982850804E+02  0.10566000000E+00 0.  1.
         22    1    1    0    0    0 -0.13452634584E+02  0.25434290821E+02 -0.13568266070E+01  0.28804817397E+02  0.00000000000E+00 0.  1.
</event>
<event>
 5    1  0.8943113E-005  0.9118800E+02  0.7818608E-02  0.1130116E+00
         25   -1    0    0    0    0  0.00000000000E+00  0.00000000000E+00  0.99999998245E-14  0.12500000000E+03  0.12500000000E+03 0.  0.
        -13    1    3    3    0    0  0.26425613124E+01 -0.45505593496E+02 -0.41300500533E+02  0.61510037214E+02  0.10566000000E+00 0. -1.
         23    2    1    0    0    0 -0.60748755435E+01 -0.23378682498E+02 -0.17373119106E+02  0.95246140155E+02  0.90479473024E+02 0.  0.
         13    1    3    3    0    0 -0.87174368560E+01  0.22126910997E+02  0.23927381427E+02  0.33736102941E+02  0.10566000000E+00 0.  1.
         22    1    1    0    0    0  0.60748755435E+01  0.23378682498E+02  0.17373119106E+02  0.29753859845E+02  0.00000000000E+00 0. -1.
</event>
<event>
 5    1  0.8943113E-005  0.9118800E+02  0.7818608E-02  0.1130116E+00
         25   -1    0    0    0    0  0.00000000000E+00  0.00000000000E+00  0.99999998245E-14  0.12500000000E+03  0.12500000000E+03 0.  0.
        -13    1    3    3    0    0 -0.27500614354E+02  0.20632780299E+02  0.11297202448E+00  0.34380508132E+02  0.10566000000E+00 0. -1.
         23    2    1    0    0    0  0.30104377829E+02  0.47292575332E+01 -0.39138080753E+01  0.94276111332E+02  0.89129275959E+02 0.  0.
         13    1    3    3    0    0  0.57604992182E+02 -0.15903522766E+02 -0.40267800998E+01  0.59895603200E+02  0.10566000000E+00 0.  1.
         22    1    1    0    0    0 -0.30104377829E+02 -0.47292575332E+01  0.39138080753E+01  0.30723888668E+02  0.00000000000E+00 0.  1.
</event>
<event>
 5    1  0.8943113E-005  0.9118800E+02  0.7818608E-02  0.1130116E+00
         25   -1    0    0    0    0  0.00000000000E+00  0.00000000000E+00  0.99999998245E-14  0.12500000000E+03  0.12500000000E+03 0.  0.
        -13    1    3    3    0    0  0.11240450739E+02  0.39384842130E+02  0.30108569150E+02  0.50833558037E+02  0.10566000000E+00 0.  1.
         23    2    1    0    0    0 -0.14303160529E+02  0.27472083616E+02 -0.24903624943E+01  0.93927541380E+02  0.88639073467E+02 0.  0.
         13    1    3    3    0    0 -0.25543611268E+02 -0.11912758514E+02 -0.32598931644E+02  0.43093983343E+02  0.10566000000E+00 0. -1.
         22    1    1    0    0    0  0.14303160529E+02 -0.27472083616E+02  0.24903624943E+01  0.31072458620E+02  0.00000000000E+00 0.  1.
</event>
<event>
 5    1  0.8943113E-005  0.9118800E+02  0.7818608E-02  0.1130116E+00
         25   -1    0    0    0    0  0.00000000000E+00  0.00000000000E+00  0.99999998245E-14  0.12500000000E+03  0.12500000000E+03 0.  0.
        -13    1    3    3    0    0  0.49919634405E+02 -0.71347402923E+01  0.23990299276E+02  0.55842815487E+02  0.10566000000E+00 0.  1.
         23    2    1    0    0    0  0.19488424022E+02 -0.19297629077E+02 -0.17544615470E+01  0.97517727639E+02  0.93565121224E+02 0.  0.
         13    1    3    3    0    0 -0.30431210383E+02 -0.12162888784E+02 -0.25744760823E+02  0.41674912152E+02  0.10566000000E+00 0. -1.
         22    1    1    0    0    0 -0.19488424022E+02  0.19297629077E+02  0.17544615470E+01  0.27482272361E+02  0.00000000000E+00 0.  1.
</event>
<event>
 5    1  0.8943113E-005  0.9118800E+02  0.7818608E-02  0.1130116E+00
         25   -1    0    0    0    0  0.00000000000E+00  0.00000000000E+00  0.99999998245E-14  0.12500000000E+03  0.12500000000E+03 0.  0.
        -13    1    3    3    0    0 -0.64682124216E+01  0.10501938602E+02 -0.27440383953E+02  0.30085117947E+02  0.10566000000E+00 0.  1.
         23    2    1    0    0    0  0.12263168467E+02 -0.25673734979E+02  0.18171088536E+02  0.91240343200E+02  0.84764885419E+02 0.  0.
         13    1    3    3    0    0  0.18731380889E+02 -0.36175673581E+02  0.45611472490E+02  0.61155225253E+02  0.10566000000E+00 0. -1.
         22    1    1    0    0    0 -0.12263168467E+02  0.25673734979E+02 -0.18171088536E+02  0.33759656800E+02  0.00000000000E+00 0. -1.
</event>
<event>
 5    1  0.8943113E-005  0.9118800E+02  0.7818608E-02  0.1130116E+00
         25   -1    0    0    0    0  0.00000000000E+00  0.00000000000E+00  0.99999998245E-14  0.12500000000E+03  0.12500000000E+03 0.  0.
        -13    1    3    3    0    0 -0.31507065000E+02  0.35404974451E+01  0.21203370520E+02  0.38142159778E+02  0.10566000000E+00 0. -1.
         23    2    1    0    0    0  0.23594846424E+02 -0.11187378093E+02  0.13210583312E+02  0.95735794598E+02  0.91153434656E+02 0.  0.
         13    1    3    3    0    0  0.55101911424E+02 -0.14727875538E+02 -0.79927872080E+01  0.57593634820E+02  0.10566000000E+00 0.  1.
         22    1    1    0    0    0 -0.23594846424E+02  0.11187378093E+02 -0.13210583312E+02  0.29264205402E+02  0.00000000000E+00 0.  1.
</event>
<event>
 5    1  0.8943113E-005  0.9118800E+02  0.7818608E-02  0.1130116E+00
         25   -1    0    0    0    0  0.00000000000E+00  0.00000000000E+00  0.99999998245E-14  0.12500000000E+03  0.12500000000E+03 0.  0.
        -13    1    3    3    0    0 -0.13742614690E+02  0.19963749649E+02 -0.49336338545E+02  0.54968138259E+02  0.10566000000E+00 0. -1.
         23    2    1    0    0    0  0.15145864857E+02  0.11120691481E+02 -0.24783048113E+02  0.93899092055E+02  0.88598944766E+02 0.  0.
         13    1    3    3    0    0  0.28888479547E+02 -0.88430581687E+01  0.24553290433E+02  0.38930953795E+02  0.10566000000E+00 0.  1.
         22    1    1    0    0    0 -0.15145864857E+02 -0.11120691481E+02  0.24783048113E+02  0.31100907945E+02  0.00000000000E+00 0. -1.
</event>
<event>
 5    1  0.8943113E-005  0.9118800E+02  0.7818608E-02  0.1130116E+00
         25   -1    0    0    0    0  0.00000000000E+00  0.00000000000E+00  0.99999998245E-14  0.12500000000E+03  0.12500000000E+03 0.  0.
        -13    1    3    3    0    0  0.23102185722E+02 -0.36347186516E+02  0.31677816604E+02  0.53463297519E+02  0.10566000000E+00 0.  1.
         23    2    1    0    0    0 -0.12570888957E+02 -0.14239235399E+02  0.20828274660E+02  0.96811348042E+02  0.92616613037E+02 0.  0.
         13    1    3    3    0    0 -0.35673074679E+02  0.22107951117E+02 -0.10849541944E+02  0.43348050523E+02  0.10566000000E+00 0. -1.
         22    1    1    0    0    0  0.12570888957E+02  0.14239235399E+02 -0.20828274660E+02  0.28188651958E+02  0.00000000000E+00 0.  1.
</event>
<event>
 5    1  0.8943113E-005  0.9118800E+02  0.7818608E-02  0.1130116E+00
         25   -1    0    0    0    0  0.00000000000E+00  0.00000000000E+00  0.99999998245E-14  0.12500000000E+03  0.12500000000E+03 0.  0.
        -13    1    3    3    0    0  0.21523137530E+02 -0.32855556991E+02  0.19243673316E+02  0.43738577950E+02  0.10566000000E+00 0. -1.
         23    2    1    0    0    0 -0.69831490136E+01 -0.36504890345E+02 -0.11763493843E+02  0.86016013844E+02  0.76674659835E+02 0.  0.
         13    1    3    3    0    0 -0.28506286544E+02 -0.36493333536E+01 -0.31007167159E+02  0.42277435893E+02  0.10566000000E+00 0.  1.
         22    1    1    0    0    0  0.69831490136E+01  0.36504890345E+02  0.11763493843E+02  0.38983986156E+02  0.00000000000E+00 0. -1.
</event>
<event>
 5    1  0.8943113E-005  0.9118800E+02  0.7818608E-02  0.1130116E+00
         25   -1    0    0    0    0  0.00000000000E+00  0.00000000000E+00  0.99999998245E-14  0.12500000000E+03  0.12500000000E+03 0.  0.
        -13    1    3    3    0    0 -0.19949332795E+01  0.12247686970E+02 -0.35066732758E+02  0.37197748659E+02  0.10566000000E+00 0.  1.
         23    2    1    0    0    0  0.20540000420E+02 -0.17473608279E+02  0.10480265292E+02  0.96068104726E+02  0.91608002825E+02 0.  0.
         13    1    3    3    0    0  0.22534933700E+02 -0.29721295249E+02  0.45546998050E+02  0.58870356068E+02  0.10566000000E+00 0. -1.
         22    1    1    0    0    0 -0.20540000420E+02  0.17473608279E+02 -0.10480265292E+02  0.28931895274E+02  0.00000000000E+00 0. -1.
</event>
<event>
 5    1  0.8943113E-005  0.9118800E+02  0.7818608E-02  0.1130116E+00
         25   -1    0    0    0    0  0.00000000000E+00  0.00000000000E+00  0.99999998245E-14  0.12500000000E+03  0.12500000000E+03 0.  0.
        -13    1    3    3    0    0  0.12956401368E+02  0.29031766434E+02 -0.19675779182E+02  0.37387955937E+02  0.10566000000E+00 0. -1.
         23    2    1    0    0    0 -0.25078268204E+02 -0.12635085508E+02 -0.12512815022E+02  0.94256944497E+02  0.89102391237E+02 0.  0.
         13    1    3    3    0    0 -0.38034669573E+02 -0.41666851941E+02  0.71629641600E+01  0.56868988560E+02  0.10566000000E+00 0.  1.
         22    1    1    0    0    0  0.25078268204E+02  0.12635085508E+02  0.12512815022E+02  0.30743055503E+02  0.00000000000E+00 0. -1.
</event>
<event>
 5    1  0.8943113E-005  0.9118800E+02  0.7818608E-02  0.1130116E+00
         25   -1    0    0    0    0  0.00000000000E+00  0.00000000000E+00  0.99999998245E-14  0.12500000000E+03  0.12500000000E+03 0.  0.
        -13    1    3    3    0    0  0.31864109447E+02  0.50941516316E+01 -0.50132186051E+01  0.32656015931E+02  0.10566000000E+00 0.  1.
         23    2    1    0    0    0 -0.29041461189E+02  0.15163246513E+00  0.74452211215E+01  0.95018993046E+02  0.90165116656E+02 0.  0.
         13    1    3    3    0    0 -0.60905570636E+02 -0.49425191665E+01  0.12458439727E+02  0.62362977115E+02  0.10566000000E+00 0. -1.
         22    1    1    0    0    0  0.29041461189E+02 -0.15163246513E+00 -0.74452211215E+01  0.29981006954E+02  0.00000000000E+00 0. -1.
</event>
<event>
 5    1  0.8943113E-005  0.9118800E+02  0.7818608E-02  0.1130116E+00
         25   -1    0    0    0    0  0.00000000000E+00  0.00000000000E+00  0.99999998245E-14  0.12500000000E+03  0.12500000000E+03 0.  0.
        -13    1    3    3    0    0  0.18902166481E+02 -0.25341989119E+01 -0.36581057916E+02  0.41254078878E+02  0.10566000000E+00 0. -1.
         23    2    1    0    0    0 -0.18872328910E+02 -0.22114267246E+02 -0.24043763193E+01  0.95828324700E+02  0.91280234306E+02 0.  0.
         13    1    3    3    0    0 -0.37774495392E+02 -0.19580068334E+02  0.34176681597E+02  0.54574245822E+02  0.10566000000E+00 0.  1.
         22    1    1    0    0    0  0.18872328910E+02  0.22114267246E+02  0.24043763193E+01  0.29171675300E+02  0.00000000000E+00 0.  1.
</event>
<event>
 5    1  0.8943113E-005  0.9118800E+02  0.7818608E-02  0.1130116E+00
         25   -1    0    0    0    0  0.00000000000E+00  0.00000000000E+00  0.99999998245E-14  0.12500000000E+03  0.12500000000E+03 0.  0.
        -13    1    3    3    0    0  0.40131881515E+01 -0.16670837459E+02  0.39069017197E+02  0.42666400943E+02  0.10566000000E+00 0.  1.
         23    2    1    0    0    0 -0.23297985570E+01 -0.26831999602E+02 -0.12283938552E+02  0.95397984692E+02  0.90689008005E+02 0.  0.
         13    1    3    3    0    0 -0.63429867085E+01 -0.10161162144E+02 -0.51352955748E+02  0.52731583748E+02  0.10566000000E+00 0. -1.
         22    1    1    0    0    0  0.23297985570E+01  0.26831999602E+02  0.12283938552E+02  0.29602015308E+02  0.00000000000E+00 0. -1.
</event>
<event>
 5    1  0.8943113E-005  0.9118800E+02  0.7818608E-02  0.1130116E+00
         25   -1    0    0    0    0  0.00000000000E+00  0.00000000000E+00  0.99999998245E-14  0.12500000000E+03  0.12500000000E+03 0.  0.
        -13    1    3    3    0    0 -0.17469895445E+02  0.29216479748E+01 -0.29599719693E+02  0.34494750959E+02  0.10566000000E+00 0. -1.
         23    2    1    0    0    0  0.47761841309E+01  0.12943959162E+02  0.26196272170E+02  0.95392523086E+02  0.90681479760E+02 0.  0.
         13    1    3    3    0    0  0.22246079576E+02  0.10022311187E+02  0.55795991863E+02  0.60897772127E+02  0.10566000000E+00 0.  1.
         22    1    1    0    0    0 -0.47761841309E+01 -0.12943959162E+02 -0.26196272170E+02  0.29607476914E+02  0.00000000000E+00 0.  1.
</event>
<event>
 5    1  0.8943113E-005  0.9118800E+02  0.7818608E-02  0.1130116E+00
         25   -1    0    0    0    0  0.00000000000E+00  0.00000000000E+00  0.99999998245E-14  0.12500000000E+03  0.12500000000E+03 0.  0.
        -13    1    3    3    0    0 -0.45855463686E+02  0.24261960176E+02 -0.86615333123E+01  0.52596573889E+02  0.10566000000E+00 0. -1.
         23    2    1    0    0    0 -0.98387556509E+01  0.31203662139E+02  0.53230739013E+01  0.91851775924E+02  0.85661800010E+02 0.  0.
         13    1    3    3    0    0  0.36016708035E+02  0.69417019631E+01  0.13984607214E+02  0.39255202035E+02  0.10566000000E+00 0.  1.
         22    1    1    0    0    0  0.98387556509E+01 -0.31203662139E+02 -0.53230739013E+01  0.33148224076E+02  0.00000000000E+00 0. -1.
</event>
<event>
 5    1  0.8943113E-005  0.9118800E+02  0.7818608E-02  0.1130116E+00
         25   -1    0    0    0    0  0.00000000000E+00  0.00000000000E+00  0.99999998245E-14  0.12500000000E+03  0.12500000000E+03 0.  0.
        -13    1    3    3    0    0  0.24887820858E+02 -0.20958212243E+02 -0.26165641171E+02  0.41752870912E+02  0.10566000000E+00 0. -1.
         23    2    1    0    0    0  0.20884132431E+01 -0.12265760464E+02  0.24239629121E+02  0.97753532898E+02  0.93879620922E+02 0.  0.
         13    1    3    3    0    0 -0.22799407615E+02  0.86924517795E+01  0.50405270292E+02  0.56000661985E+02  0.10566000000E+00 0.  1.
         22    1    1    0    0    0 -0.20884132431E+01  0.12265760464E+02 -0.24239629121E+02  0.27246467102E+02  0.00000000000E+00 0.  1.
</event>
<event>
 5    1  0.8943113E-005  0.9118800E+02  0.7818608E-02  0.1130116E+00
         25   -1    0    0    0    0  0.00000000000E+00  0.00000000000E+00  0.99999998245E-14  0.12500000000E+03  0.12500000000E+03 0.  0.
        -13    1    3    3    0    0 -0.24367707295E+02 -0.48140727939E+02  0.27090564945E+02  0.60375696421E+02  0.10566000000E+00 0.  1.
         23    2    1    0    0    0 -0.17708595882E+02 -0.38564076281E+02  0.94487796217E+01  0.81525159186E+02  0.68965859644E+02 0.  0.
         13    1    3    3    0    0  0.66591114130E+01  0.95766516584E+01 -0.17641785323E+02  0.21149462764E+02  0.10566000000E+00 0. -1.
         22    1    1    0    0    0  0.17708595882E+02  0.38564076281E+02 -0.94487796217E+01  0.43474840814E+02  0.00000000000E+00 0.  1.
</event>
<event>
 5    1  0.8943113E-005  0.9118800E+02  0.7818608E-02  0.1130116E+00
         25   -1    0    0    0    0  0.00000000000E+00  0.00000000000E+00  0.99999998245E-14  0.12500000000E+03  0.12500000000E+03 0.  0.
        -13    1    3    3    0    0  0.43557779543E+02 -0.29946886435E+01 -0.32965415937E+01  0.43785005073E+02  0.10566000000E+00 0. -1.
         23    2    1    0    0    0 -0.62098868013E+00  0.26100354704E+02  0.76290773758E+01  0.97800423455E+02  0.93942034595E+02 0.  0.
         13    1    3    3    0    0 -0.44178768223E+02  0.29095043347E+02  0.10925618969E+02  0.54015418382E+02  0.10566000000E+00 0.  1.
         22    1    1    0    0    0  0.62098868013E+00 -0.26100354704E+02 -0.76290773758E+01  0.27199576545E+02  0.00000000000E+00 0.  1.
</event>
<event>
 5    1  0.8943113E-005  0.9118800E+02  0.7818608E-02  0.1130116E+00
         25   -1    0    0    0    0  0.00000000000E+00  0.00000000000E+00  0.99999998245E-14  0.12500000000E+03  0.12500000000E+03 0.  0.
        -13    1    3    3    0    0 -0.27978471326E+02  0.11963799143E+02 -0.21641944964E+02  0.37340491341E+02  0.10566000000E+00 0. -1.
         23    2    1    0    0    0 -0.33850458430E+01 -0.26431172858E+02  0.13706984816E+02  0.95034238425E+02  0.90186249541E+02 0.  0.
         13    1    3    3    0    0  0.24593425483E+02 -0.38394972001E+02  0.35348929780E+02  0.57693747084E+02  0.10566000000E+00 0.  1.
         22    1    1    0    0    0  0.33850458430E+01  0.26431172858E+02 -0.13706984816E+02  0.29965761575E+02  0.00000000000E+00 0.  1.
</event>
<event>
 5    1  0.8943113E-005  0.9118800E+02  0.7818608E-02  0.1130116E+00
         25   -1    0    0    0    0  0.00000000000E+00  0.00000000000E+00  0.99999998245E-14  0.12500000000E+03  0.12500000000E+03 0.  0.
        -13    1    3    3    0    0  0.22887434029E+02 -0.53562694569E+02  0.19120755726E+02  0.61305883481E+02  0.10566000000E+00 0. -1.
         23    2    1    0    0    0  0.29506052593E+01 -0.28236082520E+02  0.11068210871E+02  0.94528903542E+02  0.89483103911E+02 0.  0.
         13    1    3    3    0    0 -0.19936828770E+02  0.25326612048E+02 -0.80525448550E+01  0.33223020060E+02  0.10566000000E+00 0.  1.
         22    1    1    0    0    0 -0.29506052593E+01  0.28236082520E+02 -0.11068210871E+02  0.30471096458E+02  0.00000000000E+00 0. -1.
</event>
<event>
 5    1  0.8943113E-005  0.9118800E+02  0.7818608E-02  0.1130116E+00
         25   -1    0    0    0    0  0.00000000000E+00  0.00000000000E+00  0.99999998245E-14  0.12500000000E+03  0.12500000000E+03 0.  0.
        -13    1    3    3    0    0  0.21984736951E+02  0.10490320425E+02 -0.41744617989E+02  0.48332181582E+02  0.10566000000E+00 0.  1.
         23    2    1    0    0    0 -0.14524710255E+01 -0.23000938760E+02 -0.19129168599E+02  0.95048740474E+02  0.90206347440E+02 0.  0.
         13    1    3    3    0    0 -0.23437207976E+02 -0.33491259185E+02  0.22615449391E+02  0.46716558892E+02  0.10566000000E+00 0. -1.
         22    1    1    0    0    0  0.14524710255E+01  0.23000938760E+02  0.19129168599E+02  0.29951259526E+02  0.00000000000E+00 0.  1.
</event>
<event>
 5    1  0.8943113E-005  0.9118800E+02  0.7818608E-02  0.1130116E+00
         25   -1    0    0    0    0  0.00000000000E+00  0.00000000000E+00  0.99999998245E-14  0.12500000000E+03  0.12500000000E+03 0.  0.
        -13    1    3    3    0    0  0.55165234126E+01 -0.88534789494E+01  0.58105674679E+02  0.59034707707E+02  0.10566000000E+00 0. -1.
         23    2    1    0    0    0  0.94640430384E+00 -0.17987045891E+02  0.21947672837E+02  0.96607574180E+02  0.92341180114E+02 0.  0.
         13    1    3    3    0    0 -0.45701191087E+01 -0.91335669416E+01 -0.36158001842E+02  0.37572866473E+02  0.10566000000E+00 0.  1.
         22    1    1    0    0    0 -0.94640430384E+00  0.17987045891E+02 -0.21947672837E+02  0.28392425820E+02  0.00000000000E+00 0. -1.
</event>
<event>
 5    1  0.8943113E-005  0.9118800E+02  0.7818608E-02  0.1130116E+00
         25   -1    0    0    0    0  0.00000000000E+00  0.00000000000E+00  0.99999998245E-14  0.12500000000E+03  0.12500000000E+03 0.  0.
        -13    1    3    3    0    0 -0.47351049481E+02  0.25922284947E+02  0.16967959183E+02  0.56586301758E+02  0.10566000000E+00 0. -1.
         23    2    1    0    0    0 -0.14474029868E+02  0.67099849256E+01  0.24847081780E+02  0.95472065577E+02  0.90791058999E+02 0.  0.
         13    1    3    3    0    0  0.32877019614E+02 -0.19212300021E+02  0.78791225977E+01  0.38885763818E+02  0.10566000000E+00 0.  1.
         22    1    1    0    0    0  0.14474029868E+02 -0.67099849256E+01 -0.24847081780E+02  0.29527934423E+02  0.00000000000E+00 0. -1.
</event>
<event>
 5    1  0.8943113E-005  0.9118800E+02  0.7818608E-02  0.1130116E+00
         25   -1    0    0    0    0  0.00000000000E+00  0.00000000000E+00  0.99999998245E-14  0.12500000000E+03  0.12500000000E+03 0.  0.
        -13    1    3    3    0    0 -0.14681525367E+02  0.20615467874E+02  0.19385102989E+02  0.31880057790E+02  0.10566000000E+00 0. -1.
         23    2    1    0    0    0  0.98290985977E+01 -0.13788648788E+02 -0.26057338208E+02  0.93923917732E+02  0.88633963203E+02 0.  0.
         13    1    3    3    0    0  0.24510623965E+02 -0.34404116662E+02 -0.45442441197E+02  0.62043859942E+02  0.10566000000E+00 0.  1.
         22    1    1    0    0    0 -0.98290985977E+01  0.13788648788E+02  0.26057338208E+02  0.31076082268E+02  0.00000000000E+00 0.  1.
</event>
<event>
 5    1  0.8943113E-005  0.9118800E+02  0.7818608E-02  0.1130116E+00
         25   -1    0    0    0    0  0.00000000000E+00  0.00000000000E+00  0.99999998245E-14  0.12500000000E+03  0.12500000000E+03 0.  0.
        -13    1    3    3    0    0  0.23419297617E+02 -0.37541706107E+02  0.45245085754E+01  0.44478371600E+02  0.10566000000E+00 0. -1.
         23    2    1    0    0    0 -0.52995796039E+01 -0.87769392201E+01 -0.27129964291E+02  0.95997324805E+02  0.91511371977E+02 0.  0.
         13    1    3    3    0    0 -0.28718877221E+02  0.28764766886E+02 -0.31654472866E+02  0.51518953205E+02  0.10566000000E+00 0.  1.
         22    1    1    0    0    0  0.52995796039E+01  0.87769392201E+01  0.27129964291E+02  0.29002675195E+02  0.00000000000E+00 0.  1.
</event>
<event>
 5    1  0.8943113E-005  0.9118800E+02  0.7818608E-02  0.1130116E+00
         25   -1    0    0    0    0  0.00000000000E+00  0.00000000000E+00  0.99999998245E-14  0.12500000000E+03  0.12500000000E+03 0.  0.
        -13    1    3    3    0    0 -0.72568100776E+00  0.52652356448E+02  0.74185384260E+01  0.53177468244E+02  0.10566000000E+00 0.  1.
         23    2    1    0    0    0  0.23322878438E+02  0.19251603346E+02  0.43101432708E+01  0.94452361383E+02  0.89376117312E+02 0.  0.
         13    1    3    3    0    0  0.24048559446E+02 -0.33400753102E+02 -0.31083951553E+01  0.41274893139E+02  0.10566000000E+00 0. -1.
         22    1    1    0    0    0 -0.23322878438E+02 -0.19251603346E+02 -0.43101432708E+01  0.30547638617E+02  0.00000000000E+00 0.  1.
</event>
<event>
 5    1  0.8943113E-005  0.9118800E+02  0.7818608E-02  0.1130116E+00
         25   -1    0    0    0    0  0.00000000000E+00  0.00000000000E+00  0.99999998245E-14  0.12500000000E+03  0.12500000000E+03 0.  0.
        -13    1    3    3    0    0 -0.19581290904E+02  0.33210448958E+00  0.31897909814E+02  0.37430269321E+02  0.10566000000E+00 0.  1.
         23    2    1    0    0    0  0.18543191823E+02  0.24225941257E+02 -0.29627341374E+01  0.94348344476E+02  0.89230522351E+02 0.  0.
         13    1    3    3    0    0  0.38124482727E+02  0.23893836767E+02 -0.34860643952E+02  0.56918075156E+02  0.10566000000E+00 0. -1.
         22    1    1    0    0    0 -0.18543191823E+02 -0.24225941257E+02  0.29627341374E+01  0.30651655524E+02  0.00000000000E+00 0. -1.
</event>
<event>
 5    1  0.8943113E-005  0.9118800E+02  0.7818608E-02  0.1130116E+00
         25   -1    0    0    0    0  0.00000000000E+00  0.00000000000E+00  0.99999998245E-14  0.12500000000E+03  0.12500000000E+03 0.  0.
        -13    1    3    3    0    0 -0.34915269255E+02  0.47136473844E+01 -0.15042977769E+02  0.38309226604E+02  0.10566000000E+00 0. -1.
         23    2    1    0    0    0  0.24092833222E+02 -0.16881300126E+00 -0.13155051014E+02  0.97549162533E+02  0.93607107813E+02 0.  0.
         13    1    3    3    0    0  0.59008102477E+02 -0.48824603857E+01  0.18879267548E+01  0.59239935928E+02  0.10566000000E+00 0.  1.
         22    1    1    0    0    0 -0.24092833222E+02  0.16881300126E+00  0.13155051014E+02  0.27450837467E+02  0.00000000000E+00 0.  1.
</event>
<event>
 5    1  0.8943113E-005  0.9118800E+02  0.7818608E-02  0.1130116E+00
         25   -1    0    0    0    0  0.00000000000E+00  0.00000000000E+00  0.99999998245E-14  0.12500000000E+03  0.12500000000E+03 0.  0.
        -13    1    3    3    0    0  0.57988791409E+02 -0.99522520604E+01  0.13682217286E+02  0.60406634438E+02  0.10566000000E+00 0.  1.
         23    2    1    0    0    0  0.22804806446E+02 -0.41536585674E+01  0.17050982783E+02  0.96224175244E+02  0.91820715587E+02 0.  0.
         13    1    3    3    0    0 -0.35183984963E+02  0.57985934930E+01  0.33687654967E+01  0.35817540806E+02  0.10566000000E+00 0. -1.
         22    1    1    0    0    0 -0.22804806446E+02  0.41536585674E+01 -0.17050982783E+02  0.28775824756E+02  0.00000000000E+00 0.  1.
</event>
<event>
 5    1  0.8943113E-005  0.9118800E+02  0.7818608E-02  0.1130116E+00
         25   -1    0    0    0    0  0.00000000000E+00  0.00000000000E+00  0.99999998245E-14  0.12500000000E+03  0.12500000000E+03 0.  0.
        -13    1    3    3    0    0  0.21889292554E+02 -0.29118144205E+02 -0.22633736162E+02  0.42887114932E+02  0.10566000000E+00 0. -1.
         23    2    1    0    0    0  0.23321402806E+02  0.18508553984E+02 -0.10180534456E+01  0.95209215649E+02  0.90428446367E+02 0.  0.
         13    1    3    3    0    0  0.14321102521E+01  0.47626698189E+02  0.21615682716E+02  0.52322100717E+02  0.10566000000E+00 0.  1.
         22    1    1    0    0    0 -0.23321402806E+02 -0.18508553984E+02  0.10180534456E+01  0.29790784351E+02  0.00000000000E+00 0.  1.
</event>
<event>
 5    1  0.8943113E-005  0.9118800E+02  0.7818608E-02  0.1130116E+00
         25   -1    0    0    0    0  0.00000000000E+00  0.00000000000E+00  0.99999998245E-14  0.12500000000E+03  0.12500000000E+03 0.  0.
        -13    1    3    3    0    0  0.30381819773E+02 -0.46904471408E+02  0.53700432920E+01  0.56142078156E+02  0.10566000000E+00 0.  1.
         23    2    1    0    0    0 -0.54358012331E+00 -0.28909017685E+02 -0.90259264612E+01  0.94709834412E+02  0.89735492437E+02 0.  0.
         13    1    3    3    0    0 -0.30925399896E+02  0.17995453722E+02 -0.14395969753E+02  0.38567756255E+02  0.10566000000E+00 0. -1.
         22    1    1    0    0    0  0.54358012331E+00  0.28909017685E+02  0.90259264612E+01  0.30290165588E+02  0.00000000000E+00 0.  1.
</event>
<event>
 5    1  0.8943113E-005  0.9118800E+02  0.7818608E-02  0.1130116E+00
         25   -1    0    0    0    0  0.00000000000E+00  0.00000000000E+00  0.99999998245E-14  0.12500000000E+03  0.12500000000E+03 0.  0.
        -13    1    3    3    0    0 -0.10502528280E+02 -0.28372694605E+02  0.16102428075E+02  0.34272616670E+02  0.10566000000E+00 0.  1.
         23    2    1    0    0    0 -0.33361269530E+01  0.15678717001E+02 -0.25233957434E+02  0.95105108838E+02  0.90284423958E+02 0.  0.
         13    1    3    3    0    0  0.71664013272E+01  0.44051411606E+02 -0.41336385508E+02  0.60832492168E+02  0.10566000000E+00 0. -1.
         22    1    1    0    0    0  0.33361269530E+01 -0.15678717001E+02  0.25233957434E+02  0.29894891162E+02  0.00000000000E+00 0. -1.
</event>
<event>
 5    1  0.8943113E-005  0.9118800E+02  0.7818608E-02  0.1130116E+00
         25   -1    0    0    0    0  0.00000000000E+00  0.00000000000E+00  0.99999998245E-14  0.12500000000E+03  0.12500000000E+03 0.  0.
        -13    1    3    3    0    0  0.63943192044E+01  0.61035740306E+02  0.16514715294E+01  0.61392079579E+02  0.10566000000E+00 0. -1.
         23    2    1    0    0    0  0.10784398744E+02  0.25276868801E+02 -0.84211992588E+00  0.97505772994E+02  0.93549148839E+02 0.  0.
         13    1    3    3    0    0  0.43900795399E+01 -0.35758871505E+02 -0.24935914553E+01  0.36113693415E+02  0.10566000000E+00 0.  1.
         22    1    1    0    0    0 -0.10784398744E+02 -0.25276868801E+02  0.84211992588E+00  0.27494227006E+02  0.00000000000E+00 0. -1.
</event>
<event>
 5    1  0.8943113E-005  0.9118800E+02  0.7818608E-02  0.1130116E+00
         25   -1    0    0    0    0  0.00000000000E+00  0.00000000000E+00  0.99999998245E-14  0.12500000000E+03  0.12500000000E+03 0.  0.
        -13    1    3    3    0    0 -0.35406656100E+02 -0.93952874984E-01 -0.18183674372E+02  0.39803232294E+02  0.10566000000E+00 0.  1.
         23    2    1    0    0    0  0.10867475946E+02  0.55652921400E+01  0.21004159245E+02  0.10070495492E+03  0.97730439112E+02 0.  0.
         13    1    3    3    0    0  0.46274132046E+02  0.56592450150E+01  0.39187833617E+02  0.60901722623E+02  0.10566000000E+00 0. -1.
         22    1    1    0    0    0 -0.10867475946E+02 -0.55652921400E+01 -0.21004159245E+02  0.24295045084E+02  0.00000000000E+00 0. -1.
</event>
<event>
 5    1  0.8943113E-005  0.9118800E+02  0.7818608E-02  0.1130116E+00
         25   -1    0    0    0    0  0.00000000000E+00  0.00000000000E+00  0.99999998245E-14  0.12500000000E+03  0.12500000000E+03 0.  0.
        -13    1    3    3    0    0 -0.26482671400E+02  0.22589573150E+02  0.56286877796E+01  0.35260657818E+02  0.10566000000E+00 0.  1.
         23    2    1    0    0    0  0.64630585043E+01 -0.27748539839E+02 -0.41393979591E+01  0.96209598754E+02  0.91800869759E+02 0.  0.
         13    1    3    3    0    0  0.32945729904E+02 -0.50338112989E+02 -0.97680857387E+01  0.60948940936E+02  0.10566000000E+00 0. -1.
         22    1    1    0    0    0 -0.64630585043E+01  0.27748539839E+02  0.41393979591E+01  0.28790401246E+02  0.00000000000E+00 0. -1.
</event>
<event>
 5    1  0.8943113E-005  0.9118800E+02  0.7818608E-02  0.1130116E+00
         25   -1    0    0    0    0  0.00000000000E+00  0.00000000000E+00  0.99999998245E-14  0.12500000000E+03  0.12500000000E+03 0.  0.
        -13    1    3    3    0    0  0.37913393186E+02  0.12817508964E+02 -0.20647277487E+02  0.45033711268E+02  0.10566000000E+00 0.  1.
         23    2    1    0    0    0 -0.87326746458E+01 -0.61708650914E+01 -0.27155164125E+02  0.95815378688E+02  0.91262504196E+02 0.  0.
         13    1    3    3    0    0 -0.46646067832E+02 -0.18988374056E+02 -0.65078866382E+01  0.50781667420E+02  0.10566000000E+00 0. -1.
         22    1    1    0    0    0  0.87326746458E+01  0.61708650914E+01  0.27155164125E+02  0.29184621312E+02  0.00000000000E+00 0. -1.
</event>
<event>
 5    1  0.8943113E-005  0.9118800E+02  0.7818608E-02  0.1130116E+00
         25   -1    0    0    0    0  0.00000000000E+00  0.00000000000E+00  0.99999998245E-14  0.12500000000E+03  0.12500000000E+03 0.  0.
        -13    1    3    3    0    0  0.40286114659E+02 -0.15357395626E+02  0.39659995963E+02  0.58581115375E+02  0.10566000000E+00 0. -1.
         23    2    1    0    0    0  0.28029406126E+02  0.13922574832E+01  0.91491799674E+01  0.95482319150E+02  0.90805174894E+02 0.  0.
         13    1    3    3    0    0 -0.12256708532E+02  0.16749653109E+02 -0.30510815996E+02  0.36901203776E+02  0.10566000000E+00 0.  1.
         22    1    1    0    0    0 -0.28029406126E+02 -0.13922574832E+01 -0.91491799674E+01  0.29517680850E+02  0.00000000000E+00 0. -1.
</event>
<event>
 5    1  0.8943113E-005  0.9118800E+02  0.7818608E-02  0.1130116E+00
         25   -1    0    0    0    0  0.00000000000E+00  0.00000000000E+00  0.99999998245E-14  0.12500000000E+03  0.12500000000E+03 0.  0.
        -13    1    3    3    0    0  0.45090409395E+02  0.67061247038E+01 -0.17028260516E+02  0.48663024446E+02  0.10566000000E+00 0. -1.
         23    2    1    0    0    0  0.21242270839E+02 -0.93370700154E+01  0.19182016473E+02  0.94894108503E+02  0.89991816993E+02 0.  0.
         13    1    3    3    0    0 -0.23848138556E+02 -0.16043194719E+02  0.36210276990E+02  0.46231084057E+02  0.10566000000E+00 0.  1.
         22    1    1    0    0    0 -0.21242270839E+02  0.93370700154E+01 -0.19182016473E+02  0.30105891497E+02  0.00000000000E+00 0. -1.
</event>
<event>
 5    1  0.8943113E-005  0.9118800E+02  0.7818608E-02  0.1130116E+00
         25   -1    0    0    0    0  0.00000000000E+00  0.00000000000E+00  0.99999998245E-14  0.12500000000E+03  0.12500000000E+03 0.  0.
        -13    1    3    3    0    0  0.74715362471E+01 -0.33925955033E+02  0.39758752237E+01  0.34965883753E+02  0.10566000000E+00 0.  1.
         23    2    1    0    0    0 -0.41383971284E+01  0.15156853353E+02 -0.26715212246E+02  0.94007112111E+02  0.88751214233E+02 0.  0.
         13    1    3    3    0    0 -0.11609933375E+02  0.49082808386E+02 -0.30691087469E+02  0.59041228359E+02  0.10566000000E+00 0. -1.
         22    1    1    0    0    0  0.41383971284E+01 -0.15156853353E+02  0.26715212246E+02  0.30992887889E+02  0.00000000000E+00 0. -1.
</event>
<event>
 5    1  0.8943113E-005  0.9118800E+02  0.7818608E-02  0.1130116E+00
         25   -1    0    0    0    0  0.00000000000E+00  0.00000000000E+00  0.99999998245E-14  0.12500000000E+03  0.12500000000E+03 0.  0.
        -13    1    3    3    0    0  0.18140122632E+02  0.48599694882E+01  0.30945995584E+02  0.36198745272E+02  0.10566000000E+00 0.  1.
         23    2    1    0    0    0 -0.20928529356E+02  0.97799061057E+01 -0.15568457451E+02  0.97142742923E+02  0.93062805302E+02 0.  0.
         13    1    3    3    0    0 -0.39068651988E+02  0.49199366175E+01 -0.46514453035E+02  0.60943997651E+02  0.10566000000E+00 0. -1.
         22    1    1    0    0    0  0.20928529356E+02 -0.97799061057E+01  0.15568457451E+02  0.27857257077E+02  0.00000000000E+00 0. -1.
</event>
<event>
 5    1  0.8943113E-005  0.9118800E+02  0.7818608E-02  0.1130116E+00
         25   -1    0    0    0    0  0.00000000000E+00  0.00000000000E+00  0.99999998245E-14  0.12500000000E+03  0.12500000000E+03 0.  0.
        -13    1    3    3    0    0  0.61285335930E+02 -0.11088530305E+02 -0.39374183245E+01  0.62404826187E+02  0.10566000000E+00 0. -1.
         23    2    1    0    0    0  0.26657377944E+02 -0.61968861919E+01 -0.37412357539E+01  0.97377291185E+02  0.93377314142E+02 0.  0.
         13    1    3    3    0    0 -0.34627957986E+02  0.48916441130E+01  0.19618257059E+00  0.34972464998E+02  0.10566000000E+00 0.  1.
         22    1    1    0    0    0 -0.26657377944E+02  0.61968861919E+01  0.37412357539E+01  0.27622708815E+02  0.00000000000E+00 0. -1.
</event>
<event>
 5    1  0.8943113E-005  0.9118800E+02  0.7818608E-02  0.1130116E+00
         25   -1    0    0    0    0  0.00000000000E+00  0.00000000000E+00  0.99999998245E-14  0.12500000000E+03  0.12500000000E+03 0.  0.
        -13    1    3    3    0    0  0.13003235872E+02  0.31052624325E+02 -0.32705375794E+02  0.46936152276E+02  0.10566000000E+00 0. -1.
         23    2    1    0    0    0  0.23914350176E+02  0.10814570228E+02  0.11173974977E+02  0.96474418667E+02  0.92160754483E+02 0.  0.
         13    1    3    3    0    0  0.10911114304E+02 -0.20238054096E+02  0.43879350771E+02  0.49538266391E+02  0.10566000000E+00 0.  1.
         22    1    1    0    0    0 -0.23914350176E+02 -0.10814570228E+02 -0.11173974977E+02  0.28525581333E+02  0.00000000000E+00 0.  1.
</event>
<event>
 5    1  0.8943113E-005  0.9118800E+02  0.7818608E-02  0.1130116E+00
         25   -1    0    0    0    0  0.00000000000E+00  0.00000000000E+00  0.99999998245E-14  0.12500000000E+03  0.12500000000E+03 0.  0.
        -13    1    3    3    0    0  0.53282454949E+01  0.29579259441E+02 -0.35331385323E+02  0.46385781679E+02  0.10566000000E+00 0.  1.
         23    2    1    0    0    0  0.23728843649E+02 -0.71721653100E+01 -0.27044422606E+02  0.88313506978E+02  0.80332911963E+02 0.  0.
         13    1    3    3    0    0  0.18400598154E+02 -0.36751424751E+02  0.82869627166E+01  0.41927725299E+02  0.10566000000E+00 0. -1.
         22    1    1    0    0    0 -0.23728843649E+02  0.71721653100E+01  0.27044422606E+02  0.36686493022E+02  0.00000000000E+00 0.  1.
</event>
<event>
 5    1  0.8943113E-005  0.9118800E+02  0.7818608E-02  0.1130116E+00
         25   -1    0    0    0    0  0.00000000000E+00  0.00000000000E+00  0.99999998245E-14  0.12500000000E+03  0.12500000000E+03 0.  0.
        -13    1    3    3    0    0 -0.14295168694E+02 -0.59502203793E+02  0.10647376987E+02  0.62114747886E+02  0.10566000000E+00 0. -1.
         23    2    1    0    0    0 -0.43816321902E+01 -0.23531751042E+02 -0.50812472550E+00  0.10105840025E+03  0.98181464967E+02 0.  0.
         13    1    3    3    0    0  0.99135365042E+01  0.35970452751E+02 -0.11155501712E+02  0.38943652366E+02  0.10566000000E+00 0.  1.
         22    1    1    0    0    0  0.43816321902E+01  0.23531751042E+02  0.50812472550E+00  0.23941599747E+02  0.00000000000E+00 0. -1.
</event>
<event>
 5    1  0.8943113E-005  0.9118800E+02  0.7818608E-02  0.1130116E+00
         25   -1    0    0    0    0  0.00000000000E+00  0.00000000000E+00  0.99999998245E-14  0.12500000000E+03  0.12500000000E+03 0.  0.
        -13    1    3    3    0    0  0.38279694242E+02 -0.69074220139E+01  0.33539061740E+01  0.39042378524E+02  0.10566000000E+00 0. -1.
         23    2    1    0    0    0 -0.59636336012E+01  0.27199485700E+02  0.10244839012E+02  0.95329582503E+02  0.90594677690E+02 0.  0.
         13    1    3    3    0    0 -0.44243327843E+02  0.34106907714E+02  0.68909328379E+01  0.56287203979E+02  0.10566000000E+00 0.  1.
         22    1    1    0    0    0  0.59636336012E+01 -0.27199485700E+02 -0.10244839012E+02  0.29670417497E+02  0.00000000000E+00 0.  1.
</event>
<event>
 5    1  0.8943113E-005  0.9118800E+02  0.7818608E-02  0.1130116E+00
         25   -1    0    0    0    0  0.00000000000E+00  0.00000000000E+00  0.99999998245E-14  0.12500000000E+03  0.12500000000E+03 0.  0.
        -13    1    3    3    0    0  0.22092865206E+01 -0.58629920829E+02  0.11076621447E+02  0.59708050296E+02  0.10566000000E+00 0.  1.
         23    2    1    0    0    0 -0.18043655127E+01 -0.23550346693E+02  0.17510119219E+02  0.95597978992E+02  0.90964249835E+02 0.  0.
         13    1    3    3    0    0 -0.40136520333E+01  0.35079574136E+02  0.64334977718E+01  0.35889928696E+02  0.10566000000E+00 0. -1.
         22    1    1    0    0    0  0.18043655127E+01  0.23550346693E+02 -0.17510119219E+02  0.29402021008E+02  0.00000000000E+00 0.  1.
</event>
<event>
 5    1  0.8943113E-005  0.9118800E+02  0.7818608E-02  0.1130116E+00
         25   -1    0    0    0    0  0.00000000000E+00  0.00000000000E+00  0.99999998245E-14  0.12500000000E+03  0.12500000000E+03 0.  0.
        -13    1    3    3    0    0  0.31458172729E+02 -0.28227284322E+02 -0.27535722723E+02  0.50444260344E+02  0.10566000000E+00 0. -1.
         23    2    1    0    0    0 -0.35160612561E+01 -0.30484758032E+02 -0.11888985454E+01  0.94290121479E+02  0.89148922427E+02 0.  0.
         13    1    3    3    0    0 -0.34974233986E+02 -0.22574737095E+01  0.26346824178E+02  0.43845861136E+02  0.10566000000E+00 0.  1.
         22    1    1    0    0    0  0.35160612561E+01  0.30484758032E+02  0.11888985454E+01  0.30709878521E+02  0.00000000000E+00 0. -1.
</event>
<event>
 5    1  0.8943113E-005  0.9118800E+02  0.7818608E-02  0.1130116E+00
         25   -1    0    0    0    0  0.00000000000E+00  0.00000000000E+00  0.99999998245E-14  0.12500000000E+03  0.12500000000E+03 0.  0.
        -13    1    3    3    0    0 -0.26518559149E+01 -0.31862882249E+02 -0.46070466623E+02  0.56078290486E+02  0.10566000000E+00 0.  1.
         23    2    1    0    0    0  0.16174903582E+02 -0.44346123825E+01 -0.22878649850E+02  0.96632308662E+02  0.92374656511E+02 0.  0.
         13    1    3    3    0    0  0.18826759497E+02  0.27428269866E+02  0.23191816773E+02  0.40554018176E+02  0.10566000000E+00 0. -1.
         22    1    1    0    0    0 -0.16174903582E+02  0.44346123825E+01  0.22878649850E+02  0.28367691338E+02  0.00000000000E+00 0.  1.
</event>
<event>
 5    1  0.8943113E-005  0.9118800E+02  0.7818608E-02  0.1130116E+00
         25   -1    0    0    0    0  0.00000000000E+00  0.00000000000E+00  0.99999998245E-14  0.12500000000E+03  0.12500000000E+03 0.  0.
        -13    1    3    3    0    0  0.18929505647E+02 -0.19946969626E+02 -0.23043222685E+02  0.35877695816E+02  0.10566000000E+00 0.  1.
         23    2    1    0    0    0 -0.24261288029E+01  0.29916793672E+02  0.42685656913E+00  0.94981957906E+02  0.90113758531E+02 0.  0.
         13    1    3    3    0    0 -0.21355634450E+02  0.49863763299E+02  0.23470079254E+02  0.59104262091E+02  0.10566000000E+00 0. -1.
         22    1    1    0    0    0  0.24261288029E+01 -0.29916793672E+02 -0.42685656913E+00  0.30018042094E+02  0.00000000000E+00 0. -1.
</event>
<event>
 5    1  0.8943113E-005  0.9118800E+02  0.7818608E-02  0.1130116E+00
         25   -1    0    0    0    0  0.00000000000E+00  0.00000000000E+00  0.99999998245E-14  0.12500000000E+03  0.12500000000E+03 0.  0.
        -13    1    3    3    0    0  0.43837111675E+02 -0.11066682613E+02 -0.25248544457E+02  0.51784785269E+02  0.10566000000E+00 0.  1.
         23    2    1    0    0    0  0.11053598031E+02 -0.27590381270E+02 -0.20617075327E+01  0.95206346212E+02  0.90424479833E+02 0.  0.
         13    1    3    3    0    0 -0.32783513644E+02 -0.16523698657E+02  0.23186836924E+02  0.43421560943E+02  0.10566000000E+00 0. -1.
         22    1    1    0    0    0 -0.11053598031E+02  0.27590381270E+02  0.20617075327E+01  0.29793653788E+02  0.00000000000E+00 0.  1.
</event>
<event>
 5    1  0.8943113E-005  0.9118800E+02  0.7818608E-02  0.1130116E+00
         25   -1    0    0    0    0  0.00000000000E+00  0.00000000000E+00  0.99999998245E-14  0.12500000000E+03  0.12500000000E+03 0.  0.
        -13    1    3    3    0    0 -0.87480752308E+01  0.15361484759E+02 -0.49613484163E+02  0.52668899828E+02  0.10566000000E+00 0. -1.
         23    2    1    0    0    0 -0.16202131498E+02 -0.14446132659E+02 -0.23681159809E+02  0.92875287646E+02  0.87142537899E+02 0.  0.
         13    1    3    3    0    0 -0.74540562676E+01 -0.29807617418E+02  0.25932324354E+02  0.40206387818E+02  0.10566000000E+00 0.  1.
         22    1    1    0    0    0  0.16202131498E+02  0.14446132659E+02  0.23681159809E+02  0.32124712354E+02  0.00000000000E+00 0.  1.
</event>
<event>
 5    1  0.8943113E-005  0.9118800E+02  0.7818608E-02  0.1130116E+00
         25   -1    0    0    0    0  0.00000000000E+00  0.00000000000E+00  0.99999998245E-14  0.12500000000E+03  0.12500000000E+03 0.  0.
        -13    1    3    3    0    0 -0.21920016526E+02  0.25449113998E+02 -0.18311733811E+02  0.38255395528E+02  0.10566000000E+00 0. -1.
         23    2    1    0    0    0  0.22052863030E+02  0.23950862952E+00  0.14473097475E+02  0.98620904437E+02  0.95027501857E+02 0.  0.
         13    1    3    3    0    0  0.43972879556E+02 -0.25209605368E+02  0.32784831287E+02  0.60365508909E+02  0.10566000000E+00 0.  1.
         22    1    1    0    0    0 -0.22052863030E+02 -0.23950862952E+00 -0.14473097475E+02  0.26379095563E+02  0.00000000000E+00 0.  1.
</event>
<event>
 5    1  0.8943113E-005  0.9118800E+02  0.7818608E-02  0.1130116E+00
         25   -1    0    0    0    0  0.00000000000E+00  0.00000000000E+00  0.99999998245E-14  0.12500000000E+03  0.12500000000E+03 0.  0.
        -13    1    3    3    0    0 -0.15628465214E+02  0.32392983800E+02 -0.11143183052E+02  0.37652835444E+02  0.10566000000E+00 0. -1.
         23    2    1    0    0    0  0.35247985572E+01 -0.78835032096E+01  0.27196141302E+02  0.96465741127E+02  0.92148984161E+02 0.  0.
         13    1    3    3    0    0  0.19153263772E+02 -0.40276487010E+02  0.38339324354E+02  0.58812905683E+02  0.10566000000E+00 0.  1.
         22    1    1    0    0    0 -0.35247985572E+01  0.78835032096E+01 -0.27196141302E+02  0.28534258873E+02  0.00000000000E+00 0.  1.
</event>
<event>
 5    1  0.8943113E-005  0.9118800E+02  0.7818608E-02  0.1130116E+00
         25   -1    0    0    0    0  0.00000000000E+00  0.00000000000E+00  0.99999998245E-14  0.12500000000E+03  0.12500000000E+03 0.  0.
        -13    1    3    3    0    0 -0.45760048703E+02  0.69964054425E+01 -0.33100183410E+01  0.46410118852E+02  0.10566000000E+00 0. -1.
         23    2    1    0    0    0 -0.11684444502E+02 -0.16649280116E+02 -0.24639635804E+02  0.93049469108E+02  0.87392032114E+02 0.  0.
         13    1    3    3    0    0  0.34075604201E+02 -0.23645685559E+02 -0.21329617463E+02  0.46639350256E+02  0.10566000000E+00 0.  1.
         22    1    1    0    0    0  0.11684444502E+02  0.16649280116E+02  0.24639635804E+02  0.31950530892E+02  0.00000000000E+00 0.  1.
</event>
<event>
 5    1  0.8943113E-005  0.9118800E+02  0.7818608E-02  0.1130116E+00
         25   -1    0    0    0    0  0.00000000000E+00  0.00000000000E+00  0.99999998245E-14  0.12500000000E+03  0.12500000000E+03 0.  0.
        -13    1    3    3    0    0  0.36490560823E+02  0.38601416500E+02  0.31324764024E+02  0.61667514870E+02  0.10566000000E+00 0.  1.
         23    2    1    0    0    0  0.18017122608E+02  0.15132756183E+02  0.21549763152E+02  0.93093741857E+02  0.87455334110E+02 0.  0.
         13    1    3    3    0    0 -0.18473438215E+02 -0.23468660317E+02 -0.97750008715E+01  0.31426226987E+02  0.10566000000E+00 0. -1.
         22    1    1    0    0    0 -0.18017122608E+02 -0.15132756183E+02 -0.21549763152E+02  0.31906258143E+02  0.00000000000E+00 0.  1.
</event>
<event>
 5    1  0.8943113E-005  0.9118800E+02  0.7818608E-02  0.1130116E+00
         25   -1    0    0    0    0  0.00000000000E+00  0.00000000000E+00  0.99999998245E-14  0.12500000000E+03  0.12500000000E+03 0.  0.
        -13    1    3    3    0    0  0.31288468131E+02 -0.32286791534E+02 -0.58176036916E+01  0.45334984529E+02  0.10566000000E+00 0.  1.
         23    2    1    0    0    0 -0.88968712025E+01 -0.22372726654E+02  0.19640914477E+02  0.93928168116E+02  0.88639957294E+02 0.  0.
         13    1    3    3    0    0 -0.40185339333E+02  0.99140648803E+01  0.25458518168E+02  0.48593183587E+02  0.10566000000E+00 0. -1.
         22    1    1    0    0    0  0.88968712025E+01  0.22372726654E+02 -0.19640914477E+02  0.31071831884E+02  0.00000000000E+00 0. -1.
</event>
<event>
 5    1  0.8943113E-005  0.9118800E+02  0.7818608E-02  0.1130116E+00
         25   -1    0    0    0    0  0.00000000000E+00  0.00000000000E+00  0.99999998245E-14  0.12500000000E+03  0.12500000000E+03 0.  0.
        -13    1    3    3    0    0  0.25676253187E+02  0.38974790502E+02 -0.12815524923E+02  0.48399928879E+02  0.10566000000E+00 0. -1.
         23    2    1    0    0    0  0.30337477814E+02 -0.17637787801E+01  0.68077793763E+01  0.93858077520E+02  0.88541060419E+02 0.  0.
         13    1    3    3    0    0  0.46612246269E+01 -0.40738569282E+02  0.19623304300E+02  0.45458148641E+02  0.10566000000E+00 0.  1.
         22    1    1    0    0    0 -0.30337477814E+02  0.17637787801E+01 -0.68077793763E+01  0.31141922480E+02  0.00000000000E+00 0. -1.
</event>
<event>
 5    1  0.8943113E-005  0.9118800E+02  0.7818608E-02  0.1130116E+00
         25   -1    0    0    0    0  0.00000000000E+00  0.00000000000E+00  0.99999998245E-14  0.12500000000E+03  0.12500000000E+03 0.  0.
        -13    1    3    3    0    0  0.10395599022E+02  0.55595129915E+02 -0.23912376988E+02  0.61406024839E+02  0.10566000000E+00 0.  1.
         23    2    1    0    0    0 -0.34960604711E+01  0.24894113756E+02 -0.11967961203E+02  0.97158099312E+02  0.93083429396E+02 0.  0.
         13    1    3    3    0    0 -0.13891659493E+02 -0.30701016159E+02  0.11944415785E+02  0.35752074473E+02  0.10566000000E+00 0. -1.
         22    1    1    0    0    0  0.34960604711E+01 -0.24894113756E+02  0.11967961203E+02  0.27841900688E+02  0.00000000000E+00 0.  1.
</event>
<event>
 5    1  0.8943113E-005  0.9118800E+02  0.7818608E-02  0.1130116E+00
         25   -1    0    0    0    0  0.00000000000E+00  0.00000000000E+00  0.99999998245E-14  0.12500000000E+03  0.12500000000E+03 0.  0.
        -13    1    3    3    0    0 -0.18943928903E+02  0.44134665545E+02 -0.34620182224E+02  0.59205652824E+02  0.10566000000E+00 0.  1.
         23    2    1    0    0    0  0.10774642766E+01  0.28092562890E+02 -0.89550440260E+01  0.95494986316E+02  0.90822610505E+02 0.  0.
         13    1    3    3    0    0  0.20021393180E+02 -0.16042102655E+02  0.25665138198E+02  0.36289333491E+02  0.10566000000E+00 0. -1.
         22    1    1    0    0    0 -0.10774642766E+01 -0.28092562890E+02  0.89550440260E+01  0.29505013684E+02  0.00000000000E+00 0.  1.
</event>
<event>
 5    1  0.8943113E-005  0.9118800E+02  0.7818608E-02  0.1130116E+00
         25   -1    0    0    0    0  0.00000000000E+00  0.00000000000E+00  0.99999998245E-14  0.12500000000E+03  0.12500000000E+03 0.  0.
        -13    1    3    3    0    0  0.20962475447E+02  0.44657447662E+02  0.51048710914E+01  0.49596208338E+02  0.10566000000E+00 0. -1.
         23    2    1    0    0    0  0.21791690347E+02 -0.27369083612E+01  0.15492496176E+02  0.98122762915E+02  0.94369967303E+02 0.  0.
         13    1    3    3    0    0  0.82921490018E+00 -0.47394356023E+02  0.10387625084E+02  0.48526554577E+02  0.10566000000E+00 0.  1.
         22    1    1    0    0    0 -0.21791690347E+02  0.27369083612E+01 -0.15492496176E+02  0.26877237085E+02  0.00000000000E+00 0.  1.
</event>
<event>
 5    1  0.8943113E-005  0.9118800E+02  0.7818608E-02  0.1130116E+00
         25   -1    0    0    0    0  0.00000000000E+00  0.00000000000E+00  0.99999998245E-14  0.12500000000E+03  0.12500000000E+03 0.  0.
        -13    1    3    3    0    0  0.44173610055E+02 -0.31072813215E+02  0.30688290635E+02  0.62117709975E+02  0.10566000000E+00 0.  1.
         23    2    1    0    0    0  0.20805035500E+02 -0.10654470864E+02  0.17324171946E+02  0.95905426878E+02  0.91385757750E+02 0.  0.
         13    1    3    3    0    0 -0.23368574555E+02  0.20418342351E+02 -0.13364118690E+02  0.33787716903E+02  0.10566000000E+00 0. -1.
         22    1    1    0    0    0 -0.20805035500E+02  0.10654470864E+02 -0.17324171946E+02  0.29094573122E+02  0.00000000000E+00 0.  1.
</event>
<event>
 5    1  0.8943113E-005  0.9118800E+02  0.7818608E-02  0.1130116E+00
         25   -1    0    0    0    0  0.00000000000E+00  0.00000000000E+00  0.99999998245E-14  0.12500000000E+03  0.12500000000E+03 0.  0.
        -13    1    3    3    0    0 -0.50660247639E+02 -0.65724020258E+00 -0.15393505831E+02  0.52951523504E+02  0.10566000000E+00 0.  1.
         23    2    1    0    0    0 -0.16871101023E+02 -0.23750834612E+02 -0.98198441438E+01  0.94256455418E+02  0.89101705115E+02 0.  0.
         13    1    3    3    0    0  0.33789146616E+02 -0.23093594409E+02  0.55736616874E+01  0.41304931914E+02  0.10566000000E+00 0. -1.
         22    1    1    0    0    0  0.16871101023E+02  0.23750834612E+02  0.98198441438E+01  0.30743544582E+02  0.00000000000E+00 0. -1.
</event>
<event>
 5    1  0.8943113E-005  0.9118800E+02  0.7818608E-02  0.1130116E+00
         25   -1    0    0    0    0  0.00000000000E+00  0.00000000000E+00  0.99999998245E-14  0.12500000000E+03  0.12500000000E+03 0.  0.
        -13    1    3    3    0    0 -0.10333373336E+01  0.37725065896E+02  0.12879069283E+02  0.39876433799E+02  0.10566000000E+00 0.  1.
         23    2    1    0    0    0 -0.15516105592E+02 -0.17760739685E+02  0.14628078615E+02  0.97247989426E+02  0.93204062983E+02 0.  0.
         13    1    3    3    0    0 -0.14482768259E+02 -0.55485805581E+02  0.17490093313E+01  0.57371555627E+02  0.10566000000E+00 0. -1.
         22    1    1    0    0    0  0.15516105592E+02  0.17760739685E+02 -0.14628078615E+02  0.27752010574E+02  0.00000000000E+00 0. -1.
</event>
<event>
 5    1  0.8943113E-005  0.9118800E+02  0.7818608E-02  0.1130116E+00
         25   -1    0    0    0    0  0.00000000000E+00  0.00000000000E+00  0.99999998245E-14  0.12500000000E+03  0.12500000000E+03 0.  0.
        -13    1    3    3    0    0  0.12064312708E+02  0.26406832360E+02 -0.19595692710E+02  0.35026715136E+02  0.10566000000E+00 0.  1.
         23    2    1    0    0    0 -0.17442462184E+02 -0.22046835308E+02  0.42548933468E+01  0.96567508876E+02  0.92286928755E+02 0.  0.
         13    1    3    3    0    0 -0.29506774891E+02 -0.48453667667E+02  0.23850586057E+02  0.61540793740E+02  0.10566000000E+00 0. -1.
         22    1    1    0    0    0  0.17442462184E+02  0.22046835308E+02 -0.42548933468E+01  0.28432491124E+02  0.00000000000E+00 0. -1.
</event>
<event>
 5    1  0.8943113E-005  0.9118800E+02  0.7818608E-02  0.1130116E+00
         25   -1    0    0    0    0  0.00000000000E+00  0.00000000000E+00  0.99999998245E-14  0.12500000000E+03  0.12500000000E+03 0.  0.
        -13    1    3    3    0    0 -0.53382503940E+02  0.97632434055E+01  0.25677216289E+02  0.60036182833E+02  0.10566000000E+00 0.  1.
         23    2    1    0    0    0 -0.17127401548E+02  0.28230871445E+00  0.21150314359E+02  0.97783031405E+02  0.93918889747E+02 0.  0.
         13    1    3    3    0    0  0.36255102392E+02 -0.94809346910E+01 -0.45269019308E+01  0.37746848573E+02  0.10566000000E+00 0. -1.
         22    1    1    0    0    0  0.17127401548E+02 -0.28230871445E+00 -0.21150314359E+02  0.27216968595E+02  0.00000000000E+00 0.  1.
</event>
<event>
 5    1  0.8943113E-005  0.9118800E+02  0.7818608E-02  0.1130116E+00
         25   -1    0    0    0    0  0.00000000000E+00  0.00000000000E+00  0.99999998245E-14  0.12500000000E+03  0.12500000000E+03 0.  0.
        -13    1    3    3    0    0 -0.19870576857E+02  0.22609367312E+02 -0.93234543363E+01  0.31511288132E+02  0.10566000000E+00 0. -1.
         23    2    1    0    0    0  0.19082247771E+02 -0.24212744422E+02  0.41584343764E+01  0.93892416537E+02  0.88589526098E+02 0.  0.
         13    1    3    3    0    0  0.38952824629E+02 -0.46822111734E+02  0.13481888713E+02  0.62381128405E+02  0.10566000000E+00 0.  1.
         22    1    1    0    0    0 -0.19082247771E+02  0.24212744422E+02 -0.41584343764E+01  0.31107583463E+02  0.00000000000E+00 0.  1.
</event>
<event>
 5    1  0.8943113E-005  0.9118800E+02  0.7818608E-02  0.1130116E+00
         25   -1    0    0    0    0  0.00000000000E+00  0.00000000000E+00  0.99999998245E-14  0.12500000000E+03  0.12500000000E+03 0.  0.
        -13    1    3    3    0    0 -0.47704496627E+02 -0.50610516001E+01 -0.24115997931E+02  0.53692883718E+02  0.10566000000E+00 0.  1.
         23    2    1    0    0    0 -0.25959812084E+02  0.10665420510E+02  0.82595441207E+01  0.95744520049E+02  0.91165399205E+02 0.  0.
         13    1    3    3    0    0  0.21744684543E+02  0.15726472110E+02  0.32375542051E+02  0.42051636331E+02  0.10566000000E+00 0. -1.
         22    1    1    0    0    0  0.25959812084E+02 -0.10665420510E+02 -0.82595441207E+01  0.29255479951E+02  0.00000000000E+00 0.  1.
</event>
<event>
 5    1  0.8943113E-005  0.9118800E+02  0.7818608E-02  0.1130116E+00
         25   -1    0    0    0    0  0.00000000000E+00  0.00000000000E+00  0.99999998245E-14  0.12500000000E+03  0.12500000000E+03 0.  0.
        -13    1    3    3    0    0  0.21240052532E+01  0.29398700279E+02 -0.16044137861E+02  0.33559208872E+02  0.10566000000E+00 0.  1.
         23    2    1    0    0    0 -0.42342014508E+01 -0.23670975146E+02  0.16222491950E+02  0.95992884125E+02  0.91505306028E+02 0.  0.
         13    1    3    3    0    0 -0.63582067040E+01 -0.53069675425E+02  0.32266629810E+02  0.62433675253E+02  0.10566000000E+00 0. -1.
         22    1    1    0    0    0  0.42342014508E+01  0.23670975146E+02 -0.16222491950E+02  0.29007115875E+02  0.00000000000E+00 0. -1.
</event>
<event>
 5    1  0.8943113E-005  0.9118800E+02  0.7818608E-02  0.1130116E+00
         25   -1    0    0    0    0  0.00000000000E+00  0.00000000000E+00  0.99999998245E-14  0.12500000000E+03  0.12500000000E+03 0.  0.
        -13    1    3    3    0    0  0.29897506916E+02  0.13425694895E+02  0.49645109858E+02  0.59487463385E+02  0.10566000000E+00 0. -1.
         23    2    1    0    0    0  0.37888004658E+01  0.14762765929E+02  0.26625324224E+02  0.94320981814E+02  0.89192182693E+02 0.  0.
         13    1    3    3    0    0 -0.26108706450E+02  0.13370710339E+01 -0.23019785634E+02  0.34833518429E+02  0.10566000000E+00 0.  1.
         22    1    1    0    0    0 -0.37888004658E+01 -0.14762765929E+02 -0.26625324224E+02  0.30679018186E+02  0.00000000000E+00 0. -1.
</event>
<event>
 5    1  0.8943113E-005  0.9118800E+02  0.7818608E-02  0.1130116E+00
         25   -1    0    0    0    0  0.00000000000E+00  0.00000000000E+00  0.99999998245E-14  0.12500000000E+03  0.12500000000E+03 0.  0.
        -13    1    3    3    0    0 -0.36234796017E+02 -0.17970831275E+02  0.26138401176E+02  0.48157433478E+02  0.10566000000E+00 0.  1.
         23    2    1    0    0    0  0.11261029984E+02 -0.18624771655E+02  0.18837241547E+02  0.96215723309E+02  0.91809208837E+02 0.  0.
         13    1    3    3    0    0  0.47495826001E+02 -0.65394038048E+00 -0.73011596290E+01  0.48058289831E+02  0.10566000000E+00 0. -1.
         22    1    1    0    0    0 -0.11261029984E+02  0.18624771655E+02 -0.18837241547E+02  0.28784276691E+02  0.00000000000E+00 0.  1.
</event>
<event>
 5    1  0.8943113E-005  0.9118800E+02  0.7818608E-02  0.1130116E+00
         25   -1    0    0    0    0  0.00000000000E+00  0.00000000000E+00  0.99999998245E-14  0.12500000000E+03  0.12500000000E+03 0.  0.
        -13    1    3    3    0    0  0.17662706011E+02 -0.31148756224E+02 -0.26360216543E+02  0.44464461969E+02  0.10566000000E+00 0. -1.
         23    2    1    0    0    0 -0.23533218507E+02 -0.19932731718E+02 -0.95909171801E+00  0.94144756945E+02  0.88944866273E+02 0.  0.
         13    1    3    3    0    0 -0.41195924517E+02  0.11216024506E+02  0.25401124825E+02  0.49680294977E+02  0.10566000000E+00 0.  1.
         22    1    1    0    0    0  0.23533218507E+02  0.19932731718E+02  0.95909171801E+00  0.30855243055E+02  0.00000000000E+00 0. -1.
</event>
<event>
 5    1  0.8943113E-005  0.9118800E+02  0.7818608E-02  0.1130116E+00
         25   -1    0    0    0    0  0.00000000000E+00  0.00000000000E+00  0.99999998245E-14  0.12500000000E+03  0.12500000000E+03 0.  0.
        -13    1    3    3    0    0 -0.54460885022E+02 -0.11399819065E+02  0.10456713772E+02  0.56615350383E+02  0.10566000000E+00 0.  1.
         23    2    1    0    0    0 -0.23327271876E+02  0.93858851894E+01  0.17041138006E+02  0.94624733112E+02  0.89616869383E+02 0.  0.
         13    1    3    3    0    0  0.31133613146E+02  0.20785704254E+02  0.65844242345E+01  0.38009382729E+02  0.10566000000E+00 0. -1.
         22    1    1    0    0    0  0.23327271876E+02 -0.93858851894E+01 -0.17041138006E+02  0.30375266888E+02  0.00000000000E+00 0.  1.
</event>
<event>
 5    1  0.8943113E-005  0.9118800E+02  0.7818608E-02  0.1130116E+00
         25   -1    0    0    0    0  0.00000000000E+00  0.00000000000E+00  0.99999998245E-14  0.12500000000E+03  0.12500000000E+03 0.  0.
        -13    1    3    3    0    0  0.18381339090E+02 -0.55113900894E+02 -0.92367282445E+01  0.58828088624E+02  0.10566000000E+00 0. -1.
         23    2    1    0    0    0 -0.37473570809E+01 -0.25614567478E+02 -0.13243298585E+02  0.95921937657E+02  0.91408338867E+02 0.  0.
         13    1    3    3    0    0 -0.22128696171E+02  0.29499333415E+02 -0.40065703407E+01  0.37093849033E+02  0.10566000000E+00 0.  1.
         22    1    1    0    0    0  0.37473570809E+01  0.25614567478E+02  0.13243298585E+02  0.29078062343E+02  0.00000000000E+00 0. -1.
</event>
<event>
 5    1  0.8943113E-005  0.9118800E+02  0.7818608E-02  0.1130116E+00
         25   -1    0    0    0    0  0.00000000000E+00  0.00000000000E+00  0.99999998245E-14  0.12500000000E+03  0.12500000000E+03 0.  0.
        -13    1    3    3    0    0 -0.44930926271E+02  0.13329093290E+02 -0.32585943086E+02  0.57081588225E+02  0.10566000000E+00 0.  1.
         23    2    1    0    0    0 -0.63150532769E+01  0.15710805543E+02 -0.22085399341E+02  0.97170623925E+02  0.93100246945E+02 0.  0.
         13    1    3    3    0    0  0.38615872994E+02  0.23817122525E+01  0.10500543745E+02  0.40089035700E+02  0.10566000000E+00 0. -1.
         22    1    1    0    0    0  0.63150532769E+01 -0.15710805543E+02  0.22085399341E+02  0.27829376075E+02  0.00000000000E+00 0.  1.
</event>
<event>
 5    1  0.8943113E-005  0.9118800E+02  0.7818608E-02  0.1130116E+00
         25   -1    0    0    0    0  0.00000000000E+00  0.00000000000E+00  0.99999998245E-14  0.12500000000E+03  0.12500000000E+03 0.  0.
        -13    1    3    3    0    0 -0.15785954263E+02  0.52977958596E+02  0.28279616570E+02  0.62093544965E+02  0.10566000000E+00 0. -1.
         23    2    1    0    0    0 -0.27760957364E+01  0.26353705251E+02  0.14789931656E+02  0.94652569031E+02  0.89655687259E+02 0.  0.
         13    1    3    3    0    0  0.13009858527E+02 -0.26624253345E+02 -0.13489684913E+02  0.32559024066E+02  0.10566000000E+00 0.  1.
         22    1    1    0    0    0  0.27760957364E+01 -0.26353705251E+02 -0.14789931656E+02  0.30347430969E+02  0.00000000000E+00 0. -1.
</event>
<event>
 5    1  0.8943113E-005  0.9118800E+02  0.7818608E-02  0.1130116E+00
         25   -1    0    0    0    0  0.00000000000E+00  0.00000000000E+00  0.99999998245E-14  0.12500000000E+03  0.12500000000E+03 0.  0.
        -13    1    3    3    0    0 -0.21415044000E+02 -0.21779303956E+02  0.66829468325E+01  0.31266837587E+02  0.10566000000E+00 0. -1.
         23    2    1    0    0    0  0.26241944225E+02  0.12791943778E+02 -0.12576208128E+02  0.93212668039E+02  0.87625150555E+02 0.  0.
         13    1    3    3    0    0  0.47656988225E+02  0.34571247734E+02 -0.19259154960E+02  0.61945830452E+02  0.10566000000E+00 0.  1.
         22    1    1    0    0    0 -0.26241944225E+02 -0.12791943778E+02  0.12576208128E+02  0.31787331961E+02  0.00000000000E+00 0.  1.
</event>
<event>
 5    1  0.8943113E-005  0.9118800E+02  0.7818608E-02  0.1130116E+00
         25   -1    0    0    0    0  0.00000000000E+00  0.00000000000E+00  0.99999998245E-14  0.12500000000E+03  0.12500000000E+03 0.  0.
        -13    1    3    3    0    0  0.18762657771E+02  0.13847535854E+02  0.25604896703E+02  0.34632549358E+02  0.10566000000E+00 0.  1.
         23    2    1    0    0    0 -0.11485853531E+01 -0.31979044925E+01 -0.29316143462E+02  0.95487593982E+02  0.90812435798E+02 0.  0.
         13    1    3    3    0    0 -0.19911243125E+02 -0.17045440346E+02 -0.54921040165E+02  0.60855044624E+02  0.10566000000E+00 0. -1.
         22    1    1    0    0    0  0.11485853531E+01  0.31979044925E+01  0.29316143462E+02  0.29512406018E+02  0.00000000000E+00 0. -1.
</event>
<event>
 5    1  0.8943113E-005  0.9118800E+02  0.7818608E-02  0.1130116E+00
         25   -1    0    0    0    0  0.00000000000E+00  0.00000000000E+00  0.99999998245E-14  0.12500000000E+03  0.12500000000E+03 0.  0.
        -13    1    3    3    0    0 -0.38697326072E+02 -0.25012568120E+02  0.39927159469E+02  0.60969671447E+02  0.10566000000E+00 0. -1.
         23    2    1    0    0    0 -0.21136353557E+02 -0.25915142820E+01  0.20475632633E+02  0.95458285092E+02  0.90772084217E+02 0.  0.
         13    1    3    3    0    0  0.17560972515E+02  0.22421053838E+02 -0.19451526836E+02  0.34488613645E+02  0.10566000000E+00 0.  1.
         22    1    1    0    0    0  0.21136353557E+02  0.25915142820E+01 -0.20475632633E+02  0.29541714908E+02  0.00000000000E+00 0. -1.
</event>
<event>
 5    1  0.8943113E-005  0.9118800E+02  0.7818608E-02  0.1130116E+00
         25   -1    0    0    0    0  0.00000000000E+00  0.00000000000E+00  0.99999998245E-14  0.12500000000E+03  0.12500000000E+03 0.  0.
        -13    1    3    3    0    0  0.18343423261E+02  0.32392135264E+02 -0.16459370513E+02  0.40702010339E+02  0.10566000000E+00 0. -1.
         23    2    1    0    0    0 -0.63339121347E+01  0.72256042830E+01  0.26815666908E+02  0.96514779412E+02  0.92215480550E+02 0.  0.
         13    1    3    3    0    0 -0.24677335395E+02 -0.25166530981E+02  0.43275037421E+02  0.55812769074E+02  0.10566000000E+00 0.  1.
         22    1    1    0    0    0  0.63339121347E+01 -0.72256042830E+01 -0.26815666908E+02  0.28485220588E+02  0.00000000000E+00 0.  1.
</event>
<event>
 5    1  0.8943113E-005  0.9118800E+02  0.7818608E-02  0.1130116E+00
         25   -1    0    0    0    0  0.00000000000E+00  0.00000000000E+00  0.99999998245E-14  0.12500000000E+03  0.12500000000E+03 0.  0.
        -13    1    3    3    0    0  0.35163122695E+02 -0.51891563548E+01 -0.41104680529E+02  0.54341314548E+02  0.10566000000E+00 0. -1.
         23    2    1    0    0    0  0.39561232861E+02 -0.83625770900E+01 -0.13656027378E+02  0.82320837346E+02  0.70393247805E+02 0.  0.
         13    1    3    3    0    0  0.43981101657E+01 -0.31734207352E+01  0.27448653151E+02  0.27979522798E+02  0.10566000000E+00 0.  1.
         22    1    1    0    0    0 -0.39561232861E+02  0.83625770900E+01  0.13656027378E+02  0.42679162654E+02  0.00000000000E+00 0. -1.
</event>
<event>
 5    1  0.8943113E-005  0.9118800E+02  0.7818608E-02  0.1130116E+00
         25   -1    0    0    0    0  0.00000000000E+00  0.00000000000E+00  0.99999998245E-14  0.12500000000E+03  0.12500000000E+03 0.  0.
        -13    1    3    3    0    0 -0.28038381972E+02 -0.45001846853E+02 -0.32778612715E+02  0.62335910191E+02  0.10566000000E+00 0. -1.
         23    2    1    0    0    0 -0.10286236650E+02 -0.22378625160E+02 -0.14246292895E+02  0.96547119835E+02  0.92259308249E+02 0.  0.
         13    1    3    3    0    0  0.17752145322E+02  0.22623221693E+02  0.18532319820E+02  0.34211209644E+02  0.10566000000E+00 0.  1.
         22    1    1    0    0    0  0.10286236650E+02  0.22378625160E+02  0.14246292895E+02  0.28452880165E+02  0.00000000000E+00 0. -1.
</event>
<event>
 5    1  0.8943113E-005  0.9118800E+02  0.7818608E-02  0.1130116E+00
         25   -1    0    0    0    0  0.00000000000E+00  0.00000000000E+00  0.99999998245E-14  0.12500000000E+03  0.12500000000E+03 0.  0.
        -13    1    3    3    0    0  0.81903645734E+00  0.23536938925E+01 -0.29800844172E+02  0.29905052634E+02  0.10566000000E+00 0.  1.
         23    2    1    0    0    0 -0.23971253590E+01 -0.59425278249E+01  0.32010917586E+02  0.92354040194E+02  0.86391608669E+02 0.  0.
         13    1    3    3    0    0 -0.32161618163E+01 -0.82962217175E+01  0.61811761758E+02  0.62448987560E+02  0.10566000000E+00 0. -1.
         22    1    1    0    0    0  0.23971253590E+01  0.59425278249E+01 -0.32010917586E+02  0.32645959806E+02  0.00000000000E+00 0. -1.
</event>
<event>
 5    1  0.8943113E-005  0.9118800E+02  0.7818608E-02  0.1130116E+00
         25   -1    0    0    0    0  0.00000000000E+00  0.00000000000E+00  0.99999998245E-14  0.12500000000E+03  0.12500000000E+03 0.  0.
        -13    1    3    3    0    0 -0.42846487405E+01  0.11894938133E+02  0.30763052096E+02  0.33259950486E+02  0.10566000000E+00 0. -1.
         23    2    1    0    0    0  0.51775960033E+01 -0.73225929606E+01 -0.27890711915E+02  0.95702906643E+02  0.91108323773E+02 0.  0.
         13    1    3    3    0    0  0.94622447438E+01 -0.19217531094E+02 -0.58653764011E+02  0.62442956157E+02  0.10566000000E+00 0.  1.
         22    1    1    0    0    0 -0.51775960033E+01  0.73225929606E+01  0.27890711915E+02  0.29297093357E+02  0.00000000000E+00 0.  1.
</event>
<event>
 5    1  0.8943113E-005  0.9118800E+02  0.7818608E-02  0.1130116E+00
         25   -1    0    0    0    0  0.00000000000E+00  0.00000000000E+00  0.99999998245E-14  0.12500000000E+03  0.12500000000E+03 0.  0.
        -13    1    3    3    0    0 -0.30167949500E+02  0.12552132278E+01 -0.31178080353E+02  0.43402357031E+02  0.10566000000E+00 0.  1.
         23    2    1    0    0    0  0.75594717760E+01 -0.26674752895E+02 -0.61416952840E+01  0.96602667792E+02  0.92334538219E+02 0.  0.
         13    1    3    3    0    0  0.37727421276E+02 -0.27929966123E+02  0.25036385069E+02  0.53200310762E+02  0.10566000000E+00 0. -1.
         22    1    1    0    0    0 -0.75594717760E+01  0.26674752895E+02  0.61416952840E+01  0.28397332208E+02  0.00000000000E+00 0.  1.
</event>
<event>
 5    1  0.8943113E-005  0.9118800E+02  0.7818608E-02  0.1130116E+00
         25   -1    0    0    0    0  0.00000000000E+00  0.00000000000E+00  0.99999998245E-14  0.12500000000E+03  0.12500000000E+03 0.  0.
        -13    1    3    3    0    0 -0.59304198681E+02  0.16091165877E+02  0.10886931154E+02  0.62405528877E+02  0.10566000000E+00 0. -1.
         23    2    1    0    0    0 -0.27276466836E+02  0.97937451472E+01  0.43683701994E+01  0.95691200208E+02  0.91092261208E+02 0.  0.
         13    1    3    3    0    0  0.32027731845E+02 -0.62974207301E+01 -0.65185609545E+01  0.33285671331E+02  0.10566000000E+00 0.  1.
         22    1    1    0    0    0  0.27276466836E+02 -0.97937451472E+01 -0.43683701994E+01  0.29308799792E+02  0.00000000000E+00 0. -1.
</event>
<event>
 5    1  0.8943113E-005  0.9118800E+02  0.7818608E-02  0.1130116E+00
         25   -1    0    0    0    0  0.00000000000E+00  0.00000000000E+00  0.99999998245E-14  0.12500000000E+03  0.12500000000E+03 0.  0.
        -13    1    3    3    0    0  0.53865773137E+02  0.10020582845E+02 -0.76970619103E+01  0.55328017516E+02  0.10566000000E+00 0.  1.
         23    2    1    0    0    0  0.15877035004E+02  0.19420736772E+02 -0.15883096012E+02  0.95309631254E+02  0.90567145332E+02 0.  0.
         13    1    3    3    0    0 -0.37988738132E+02  0.94001539273E+01 -0.81860341021E+01  0.39981613738E+02  0.10566000000E+00 0. -1.
         22    1    1    0    0    0 -0.15877035004E+02 -0.19420736772E+02  0.15883096012E+02  0.29690368746E+02  0.00000000000E+00 0.  1.
</event>
<event>
 5    1  0.8943113E-005  0.9118800E+02  0.7818608E-02  0.1130116E+00
         25   -1    0    0    0    0  0.00000000000E+00  0.00000000000E+00  0.99999998245E-14  0.12500000000E+03  0.12500000000E+03 0.  0.
        -13    1    3    3    0    0 -0.28902302008E+02  0.19647862234E+02  0.14746130661E+02  0.37932058805E+02  0.10566000000E+00 0. -1.
         23    2    1    0    0    0  0.84978697067E+01 -0.22441469598E+02 -0.94415256536E+01  0.99212876199E+02  0.95803022132E+02 0.  0.
         13    1    3    3    0    0  0.37400171714E+02 -0.42089331832E+02 -0.24187656314E+02  0.61280817393E+02  0.10566000000E+00 0.  1.
         22    1    1    0    0    0 -0.84978697067E+01  0.22441469598E+02  0.94415256536E+01  0.25787123801E+02  0.00000000000E+00 0.  1.
</event>
<event>
 5    1  0.8943113E-005  0.9118800E+02  0.7818608E-02  0.1130116E+00
         25   -1    0    0    0    0  0.00000000000E+00  0.00000000000E+00  0.99999998245E-14  0.12500000000E+03  0.12500000000E+03 0.  0.
        -13    1    3    3    0    0  0.57871792429E+02 -0.20078354698E+02  0.61648748421E+01  0.61565424811E+02  0.10566000000E+00 0. -1.
         23    2    1    0    0    0  0.24528513843E+02 -0.16572295224E+02  0.32831910981E+01  0.95216308084E+02  0.90438249768E+02 0.  0.
         13    1    3    3    0    0 -0.33343278585E+02  0.35060594748E+01 -0.28816837440E+01  0.33650883274E+02  0.10566000000E+00 0.  1.
         22    1    1    0    0    0 -0.24528513843E+02  0.16572295224E+02 -0.32831910981E+01  0.29783691916E+02  0.00000000000E+00 0. -1.
</event>
<event>
 5    1  0.8943113E-005  0.9118800E+02  0.7818608E-02  0.1130116E+00
         25   -1    0    0    0    0  0.00000000000E+00  0.00000000000E+00  0.99999998245E-14  0.12500000000E+03  0.12500000000E+03 0.  0.
        -13    1    3    3    0    0 -0.27764106539E+02 -0.29267802836E+02 -0.30944948421E+02  0.50843395752E+02  0.10566000000E+00 0.  1.
         23    2    1    0    0    0 -0.31850101670E+02 -0.22780698734E+02  0.30790391647E+01  0.85720619997E+02  0.76191567771E+02 0.  0.
         13    1    3    3    0    0 -0.40859951310E+01  0.64871041021E+01  0.34023987585E+02  0.34877224246E+02  0.10566000000E+00 0. -1.
         22    1    1    0    0    0  0.31850101670E+02  0.22780698734E+02 -0.30790391647E+01  0.39279380003E+02  0.00000000000E+00 0. -1.
</event>
<event>
 5    1  0.8943113E-005  0.9118800E+02  0.7818608E-02  0.1130116E+00
         25   -1    0    0    0    0  0.00000000000E+00  0.00000000000E+00  0.99999998245E-14  0.12500000000E+03  0.12500000000E+03 0.  0.
        -13    1    3    3    0    0 -0.45621445803E+00  0.36289092605E+02  0.39312131030E+02  0.53502908182E+02  0.10566000000E+00 0.  1.
         23    2    1    0    0    0  0.23084549821E+02  0.12919114293E+02  0.15453745708E+02  0.94363123348E+02  0.89251223168E+02 0.  0.
         13    1    3    3    0    0  0.23540764280E+02 -0.23369978312E+02 -0.23858385322E+02  0.40860215166E+02  0.10566000000E+00 0. -1.
         22    1    1    0    0    0 -0.23084549821E+02 -0.12919114293E+02 -0.15453745708E+02  0.30636876652E+02  0.00000000000E+00 0.  1.
</event>
<event>
 5    1  0.8943113E-005  0.9118800E+02  0.7818608E-02  0.1130116E+00
         25   -1    0    0    0    0  0.00000000000E+00  0.00000000000E+00  0.99999998245E-14  0.12500000000E+03  0.12500000000E+03 0.  0.
        -13    1    3    3    0    0  0.24660834620E+02 -0.42203487977E+02 -0.13216853219E+02  0.50635832516E+02  0.10566000000E+00 0. -1.
         23    2    1    0    0    0  0.21868247304E+02  0.48083593631E+01  0.64902279153E+01  0.10168769384E+03  0.98979409278E+02 0.  0.
         13    1    3    3    0    0 -0.27925873163E+01  0.47011847340E+02  0.19707081134E+02  0.51051861328E+02  0.10566000000E+00 0.  1.
         22    1    1    0    0    0 -0.21868247304E+02 -0.48083593631E+01 -0.64902279153E+01  0.23312306156E+02  0.00000000000E+00 0. -1.
</event>
<event>
 5    1  0.8943113E-005  0.9118800E+02  0.7818608E-02  0.1130116E+00
         25   -1    0    0    0    0  0.00000000000E+00  0.00000000000E+00  0.99999998245E-14  0.12500000000E+03  0.12500000000E+03 0.  0.
        -13    1    3    3    0    0  0.22520714403E+02  0.18075904451E+02  0.13605665579E+02  0.31922503016E+02  0.10566000000E+00 0. -1.
         23    2    1    0    0    0 -0.21642141421E+02 -0.15844955816E+02 -0.14724999389E+02  0.94401462173E+02  0.89304902124E+02 0.  0.
         13    1    3    3    0    0 -0.44162855824E+02 -0.33920860267E+02 -0.28330664968E+02  0.62478959157E+02  0.10566000000E+00 0.  1.
         22    1    1    0    0    0  0.21642141421E+02  0.15844955816E+02  0.14724999389E+02  0.30598537827E+02  0.00000000000E+00 0.  1.
</event>
<event>
 5    1  0.8943113E-005  0.9118800E+02  0.7818608E-02  0.1130116E+00
         25   -1    0    0    0    0  0.00000000000E+00  0.00000000000E+00  0.99999998245E-14  0.12500000000E+03  0.12500000000E+03 0.  0.
        -13    1    3    3    0    0 -0.22085925747E+02  0.53137387363E+02 -0.23432594885E+02  0.62132662256E+02  0.10566000000E+00 0.  1.
         23    2    1    0    0    0 -0.14213806609E+02  0.22455729078E+02 -0.12386355147E+02  0.95679122445E+02  0.91075686170E+02 0.  0.
         13    1    3    3    0    0  0.78721191384E+01 -0.30681658285E+02  0.11046239738E+02  0.33546460189E+02  0.10566000000E+00 0. -1.
         22    1    1    0    0    0  0.14213806609E+02 -0.22455729078E+02  0.12386355147E+02  0.29320877555E+02  0.00000000000E+00 0.  1.
</event>
<event>
 5    1  0.8943113E-005  0.9118800E+02  0.7818608E-02  0.1130116E+00
         25   -1    0    0    0    0  0.00000000000E+00  0.00000000000E+00  0.99999998245E-14  0.12500000000E+03  0.12500000000E+03 0.  0.
        -13    1    3    3    0    0 -0.17328902901E+02 -0.12582952721E+02  0.32756110960E+02  0.39135604559E+02  0.10566000000E+00 0. -1.
         23    2    1    0    0    0  0.26803894149E+02 -0.12740846361E+02 -0.19171463384E+01  0.95260239449E+02  0.90498949509E+02 0.  0.
         13    1    3    3    0    0  0.44132797050E+02 -0.15789364009E+00 -0.34673257298E+02  0.56124634890E+02  0.10566000000E+00 0.  1.
         22    1    1    0    0    0 -0.26803894149E+02  0.12740846361E+02  0.19171463384E+01  0.29739760551E+02  0.00000000000E+00 0.  1.
</event>
<event>
 5    1  0.8943113E-005  0.9118800E+02  0.7818608E-02  0.1130116E+00
         25   -1    0    0    0    0  0.00000000000E+00  0.00000000000E+00  0.99999998245E-14  0.12500000000E+03  0.12500000000E+03 0.  0.
        -13    1    3    3    0    0 -0.32349805993E+02 -0.65220579097E+01 -0.16911107583E+02  0.37081584525E+02  0.10566000000E+00 0. -1.
         23    2    1    0    0    0  0.42058067767E+01  0.16097246612E+02  0.23583150405E+02  0.96138691261E+02  0.91704268249E+02 0.  0.
         13    1    3    3    0    0  0.36555612770E+02  0.22619304522E+02  0.40494257987E+02  0.59057106736E+02  0.10566000000E+00 0.  1.
         22    1    1    0    0    0 -0.42058067767E+01 -0.16097246612E+02 -0.23583150405E+02  0.28861308739E+02  0.00000000000E+00 0.  1.
</event>
<event>
 5    1  0.8943113E-005  0.9118800E+02  0.7818608E-02  0.1130116E+00
         25   -1    0    0    0    0  0.00000000000E+00  0.00000000000E+00  0.99999998245E-14  0.12500000000E+03  0.12500000000E+03 0.  0.
        -13    1    3    3    0    0  0.16161897336E+02 -0.46892666197E+02 -0.27039642305E+02  0.56491437303E+02  0.10566000000E+00 0.  1.
         23    2    1    0    0    0  0.24467840823E+02 -0.15411842545E+02 -0.54057506790E+01  0.95581939806E+02  0.90942206656E+02 0.  0.
         13    1    3    3    0    0  0.83059434876E+01  0.31480823651E+02  0.21633891626E+02  0.39090502503E+02  0.10566000000E+00 0. -1.
         22    1    1    0    0    0 -0.24467840823E+02  0.15411842545E+02  0.54057506790E+01  0.29418060194E+02  0.00000000000E+00 0.  1.
</event>
<event>
 4    1  0.8943113E-005  0.9118800E+02  0.7818608E-02  0.1130116E+00
         25   -1    0    0    0    0  0.00000000000E+00  0.00000000000E+00  0.99999998245E-14  0.12500000000E+03  0.12500000000E+03 0.  0.
        -13    1    1    0    0    0 -0.46385754013E+01 -0.27196430550E+02  0.89556317656E+01  0.29006494458E+02  0.10566000000E+00 0.  1.
         13    1    1    0    0    0  0.39886759878E+02 -0.11203237889E+02 -0.13741232225E+02  0.43649728291E+02  0.10566000000E+00 0. -1.
         22    1    1    0    0    0 -0.35248184477E+02  0.38399668439E+02  0.47856004596E+01  0.52343777251E+02  0.00000000000E+00 0. -1.
</event>
<event>
 5    1  0.8943113E-005  0.9118800E+02  0.7818608E-02  0.1130116E+00
         25   -1    0    0    0    0  0.00000000000E+00  0.00000000000E+00  0.99999998245E-14  0.12500000000E+03  0.12500000000E+03 0.  0.
        -13    1    3    3    0    0  0.17746674306E+02  0.30696889204E+02 -0.15349753925E+02  0.38637670288E+02  0.10566000000E+00 0.  1.
         23    2    1    0    0    0  0.22194806910E+01 -0.25430086423E+02 -0.11506934588E+02  0.96999554760E+02  0.92870278830E+02 0.  0.
         13    1    3    3    0    0 -0.15527193615E+02 -0.56126975627E+02  0.38428193377E+01  0.58361884472E+02  0.10566000000E+00 0. -1.
         22    1    1    0    0    0 -0.22194806910E+01  0.25430086423E+02  0.11506934588E+02  0.28000445240E+02  0.00000000000E+00 0. -1.
</event>
<event>
 5    1  0.8943113E-005  0.9118800E+02  0.7818608E-02  0.1130116E+00
         25   -1    0    0    0    0  0.00000000000E+00  0.00000000000E+00  0.99999998245E-14  0.12500000000E+03  0.12500000000E+03 0.  0.
        -13    1    3    3    0    0 -0.99236882200E+01  0.96802051891E+01  0.59227885543E+02  0.60828772389E+02  0.10566000000E+00 0.  1.
         23    2    1    0    0    0  0.27844161464E+01  0.71159905715E+01  0.41561615361E+02  0.82741768062E+02  0.71136783843E+02 0.  0.
         13    1    3    3    0    0  0.12708104366E+02 -0.25642146176E+01 -0.17666270182E+02  0.21912995673E+02  0.10566000000E+00 0. -1.
         22    1    1    0    0    0 -0.27844161464E+01 -0.71159905715E+01 -0.41561615361E+02  0.42258231938E+02  0.00000000000E+00 0.  1.
</event>
<event>
 5    1  0.8943113E-005  0.9118800E+02  0.7818608E-02  0.1130116E+00
         25   -1    0    0    0    0  0.00000000000E+00  0.00000000000E+00  0.99999998245E-14  0.12500000000E+03  0.12500000000E+03 0.  0.
        -13    1    3    3    0    0 -0.24564484784E+02 -0.22168325461E+02 -0.99319257674E+01  0.34547111021E+02  0.10566000000E+00 0.  1.
         23    2    1    0    0    0  0.24539993290E+02  0.77903129895E+01  0.12613297127E+02  0.96329535902E+02  0.91964036316E+02 0.  0.
         13    1    3    3    0    0  0.49104478074E+02  0.29958638451E+02  0.22545222895E+02  0.61782424881E+02  0.10566000000E+00 0. -1.
         22    1    1    0    0    0 -0.24539993290E+02 -0.77903129895E+01 -0.12613297127E+02  0.28670464098E+02  0.00000000000E+00 0. -1.
</event>
<event>
 5    1  0.8943113E-005  0.9118800E+02  0.7818608E-02  0.1130116E+00
         25   -1    0    0    0    0  0.00000000000E+00  0.00000000000E+00  0.99999998245E-14  0.12500000000E+03  0.12500000000E+03 0.  0.
        -13    1    3    3    0    0 -0.85295725978E+01  0.35077038606E+02 -0.12721258065E+02  0.38275237646E+02  0.10566000000E+00 0. -1.
         23    2    1    0    0    0  0.47742400952E+01 -0.23093941511E+02 -0.13249471829E+02  0.97950563651E+02  0.94141600331E+02 0.  0.
         13    1    3    3    0    0  0.13303812693E+02 -0.58170980118E+02 -0.52821376421E+00  0.59675326005E+02  0.10566000000E+00 0.  1.
         22    1    1    0    0    0 -0.47742400952E+01  0.23093941511E+02  0.13249471829E+02  0.27049436349E+02  0.00000000000E+00 0.  1.
</event>
<event>
 5    1  0.8943113E-005  0.9118800E+02  0.7818608E-02  0.1130116E+00
         25   -1    0    0    0    0  0.00000000000E+00  0.00000000000E+00  0.99999998245E-14  0.12500000000E+03  0.12500000000E+03 0.  0.
        -13    1    3    3    0    0 -0.32837333780E+02  0.11055002354E+02 -0.19457096199E+02  0.39737807229E+02  0.10566000000E+00 0.  1.
         23    2    1    0    0    0 -0.42781906495E+01 -0.24166886955E+02  0.14595063527E+02  0.96445539408E+02  0.92121576474E+02 0.  0.
         13    1    3    3    0    0  0.28559143130E+02 -0.35221889309E+02  0.34052159726E+02  0.56707732179E+02  0.10566000000E+00 0. -1.
         22    1    1    0    0    0  0.42781906495E+01  0.24166886955E+02 -0.14595063527E+02  0.28554460592E+02  0.00000000000E+00 0. -1.
</event>
<event>
 5    1  0.8943113E-005  0.9118800E+02  0.7818608E-02  0.1130116E+00
         25   -1    0    0    0    0  0.00000000000E+00  0.00000000000E+00  0.99999998245E-14  0.12500000000E+03  0.12500000000E+03 0.  0.
        -13    1    3    3    0    0 -0.14615418739E+01 -0.11958224622E+02  0.59241551641E+02  0.60454179720E+02  0.10566000000E+00 0. -1.
         23    2    1    0    0    0 -0.79228582446E+01  0.25369433555E+00  0.40463287601E+02  0.83767565109E+02  0.72917016376E+02 0.  0.
         13    1    3    3    0    0 -0.64613163708E+01  0.12211918957E+02 -0.18778264041E+02  0.23313385388E+02  0.10566000000E+00 0.  1.
         22    1    1    0    0    0  0.79228582446E+01 -0.25369433555E+00 -0.40463287601E+02  0.41232434891E+02  0.00000000000E+00 0. -1.
</event>
<event>
 5    1  0.8943113E-005  0.9118800E+02  0.7818608E-02  0.1130116E+00
         25   -1    0    0    0    0  0.00000000000E+00  0.00000000000E+00  0.99999998245E-14  0.12500000000E+03  0.12500000000E+03 0.  0.
        -13    1    3    3    0    0 -0.98382504291E+01 -0.59565423789E+02  0.19377194181E+01  0.60403615813E+02  0.10566000000E+00 0. -1.
         23    2    1    0    0    0 -0.71026663135E+01 -0.25239746377E+02 -0.10129223444E+02  0.96891392181E+02  0.92724581667E+02 0.  0.
         13    1    3    3    0    0  0.27355841156E+01  0.34325677412E+02 -0.12066942862E+02  0.36487776369E+02  0.10566000000E+00 0.  1.
         22    1    1    0    0    0  0.71026663135E+01  0.25239746377E+02  0.10129223444E+02  0.28108607819E+02  0.00000000000E+00 0. -1.
</event>
<event>
 5    1  0.8943113E-005  0.9118800E+02  0.7818608E-02  0.1130116E+00
         25   -1    0    0    0    0  0.00000000000E+00  0.00000000000E+00  0.99999998245E-14  0.12500000000E+03  0.12500000000E+03 0.  0.
        -13    1    3    3    0    0  0.47531247352E+02 -0.71516109748E+01 -0.21618850650E+02  0.52704372512E+02  0.10566000000E+00 0.  1.
         23    2    1    0    0    0  0.21195169848E+02 -0.16380727346E+02  0.11357725689E+02  0.95904272030E+02  0.91384178102E+02 0.  0.
         13    1    3    3    0    0 -0.26336077504E+02 -0.92291163710E+01  0.32976576339E+02  0.43199899518E+02  0.10566000000E+00 0. -1.
         22    1    1    0    0    0 -0.21195169848E+02  0.16380727346E+02 -0.11357725689E+02  0.29095727970E+02  0.00000000000E+00 0. -1.
</event>
<event>
 5    1  0.8943113E-005  0.9118800E+02  0.7818608E-02  0.1130116E+00
         25   -1    0    0    0    0  0.00000000000E+00  0.00000000000E+00  0.99999998245E-14  0.12500000000E+03  0.12500000000E+03 0.  0.
        -13    1    3    3    0    0 -0.17174587128E+02 -0.10833656268E+00 -0.28691025491E+02  0.33438963614E+02  0.10566000000E+00 0.  1.
         23    2    1    0    0    0  0.33270112136E+01 -0.96024275423E+01  0.28399173569E+02  0.94837296578E+02  0.89912869738E+02 0.  0.
         13    1    3    3    0    0  0.20501598341E+02 -0.94940909796E+01  0.57090199060E+02  0.61398332964E+02  0.10566000000E+00 0. -1.
         22    1    1    0    0    0 -0.33270112136E+01  0.96024275423E+01 -0.28399173569E+02  0.30162703422E+02  0.00000000000E+00 0. -1.
</event>
<event>
 5    1  0.8943113E-005  0.9118800E+02  0.7818608E-02  0.1130116E+00
         25   -1    0    0    0    0  0.00000000000E+00  0.00000000000E+00  0.99999998245E-14  0.12500000000E+03  0.12500000000E+03 0.  0.
        -13    1    3    3    0    0 -0.21510380626E+02 -0.46562680419E+01 -0.25933791880E+02  0.34013968190E+02  0.10566000000E+00 0. -1.
         23    2    1    0    0    0  0.23179404988E+02  0.96618453962E+01  0.14537941269E+02  0.95982973819E+02  0.91491767142E+02 0.  0.
         13    1    3    3    0    0  0.44689785613E+02  0.14318113438E+02  0.40471733148E+02  0.61969005629E+02  0.10566000000E+00 0.  1.
         22    1    1    0    0    0 -0.23179404988E+02 -0.96618453962E+01 -0.14537941269E+02  0.29017026181E+02  0.00000000000E+00 0.  1.
</event>
<event>
 5    1  0.8943113E-005  0.9118800E+02  0.7818608E-02  0.1130116E+00
         25   -1    0    0    0    0  0.00000000000E+00  0.00000000000E+00  0.99999998245E-14  0.12500000000E+03  0.12500000000E+03 0.  0.
        -13    1    3    3    0    0  0.42745674170E+02  0.28138442400E+02  0.26612651260E+02  0.57681964011E+02  0.10566000000E+00 0.  1.
         23    2    1    0    0    0  0.27353188533E+02 -0.23511507641E+01  0.90151021056E+01  0.96103687107E+02  0.91656542466E+02 0.  0.
         13    1    3    3    0    0 -0.15392485637E+02 -0.30489593164E+02 -0.17597549154E+02  0.38421723096E+02  0.10566000000E+00 0. -1.
         22    1    1    0    0    0 -0.27353188533E+02  0.23511507641E+01 -0.90151021056E+01  0.28896312893E+02  0.00000000000E+00 0.  1.
</event>
<event>
 5    1  0.8943113E-005  0.9118800E+02  0.7818608E-02  0.1130116E+00
         25   -1    0    0    0    0  0.00000000000E+00  0.00000000000E+00  0.99999998245E-14  0.12500000000E+03  0.12500000000E+03 0.  0.
        -13    1    3    3    0    0 -0.34149218933E+02 -0.28155826446E+02 -0.27729362928E+01  0.44346590132E+02  0.10566000000E+00 0.  1.
         23    2    1    0    0    0  0.15872127323E+02 -0.16476912202E+02 -0.15623136075E+02  0.97296291904E+02  0.93268821028E+02 0.  0.
         13    1    3    3    0    0  0.50021346257E+02  0.11678914245E+02 -0.12850199782E+02  0.52949701772E+02  0.10566000000E+00 0. -1.
         22    1    1    0    0    0 -0.15872127323E+02  0.16476912202E+02  0.15623136075E+02  0.27703708096E+02  0.00000000000E+00 0.  1.
</event>
<event>
 5    1  0.8943113E-005  0.9118800E+02  0.7818608E-02  0.1130116E+00
         25   -1    0    0    0    0  0.00000000000E+00  0.00000000000E+00  0.99999998245E-14  0.12500000000E+03  0.12500000000E+03 0.  0.
        -13    1    3    3    0    0  0.47499997102E+02 -0.21338232133E+02 -0.45880478007E+01  0.52274575291E+02  0.10566000000E+00 0.  1.
         23    2    1    0    0    0  0.20664333617E+02  0.10283863627E+02 -0.17853998958E+02  0.95818879156E+02  0.91267298574E+02 0.  0.
         13    1    3    3    0    0 -0.26835663485E+02  0.31622095760E+02 -0.13265951157E+02  0.43544303865E+02  0.10566000000E+00 0. -1.
         22    1    1    0    0    0 -0.20664333617E+02 -0.10283863627E+02  0.17853998958E+02  0.29181120844E+02  0.00000000000E+00 0.  1.
</event>
<event>
 5    1  0.8943113E-005  0.9118800E+02  0.7818608E-02  0.1130116E+00
         25   -1    0    0    0    0  0.00000000000E+00  0.00000000000E+00  0.99999998245E-14  0.12500000000E+03  0.12500000000E+03 0.  0.
        -13    1    3    3    0    0 -0.25417319305E+02  0.35107575666E+02 -0.33604999061E+02  0.54844225911E+02  0.10566000000E+00 0.  1.
         23    2    1    0    0    0 -0.24793922564E+02 -0.15601059274E+01 -0.15189430796E+02  0.95881426297E+02  0.91352923184E+02 0.  0.
         13    1    3    3    0    0  0.62339674150E+00 -0.36667681594E+02  0.18415568265E+02  0.41037200386E+02  0.10566000000E+00 0. -1.
         22    1    1    0    0    0  0.24793922564E+02  0.15601059274E+01  0.15189430796E+02  0.29118573703E+02  0.00000000000E+00 0.  1.
</event>
<event>
 5    1  0.8943113E-005  0.9118800E+02  0.7818608E-02  0.1130116E+00
         25   -1    0    0    0    0  0.00000000000E+00  0.00000000000E+00  0.99999998245E-14  0.12500000000E+03  0.12500000000E+03 0.  0.
        -13    1    3    3    0    0  0.20994765937E+02 -0.32985034646E+02  0.18812701552E+02  0.43390340066E+02  0.10566000000E+00 0. -1.
         23    2    1    0    0    0  0.19795324492E+02 -0.63597577457E+01 -0.23640874171E+02  0.93516793017E+02  0.88057925563E+02 0.  0.
         13    1    3    3    0    0 -0.11994414452E+01  0.26625276900E+02 -0.42453575723E+02  0.50126452951E+02  0.10566000000E+00 0.  1.
         22    1    1    0    0    0 -0.19795324492E+02  0.63597577457E+01  0.23640874171E+02  0.31483206983E+02  0.00000000000E+00 0.  1.
</event>
<event>
 5    1  0.8943113E-005  0.9118800E+02  0.7818608E-02  0.1130116E+00
         25   -1    0    0    0    0  0.00000000000E+00  0.00000000000E+00  0.99999998245E-14  0.12500000000E+03  0.12500000000E+03 0.  0.
        -13    1    3    3    0    0 -0.11155550994E+02  0.46225457235E+02 -0.26579959598E+02  0.54477010113E+02  0.10566000000E+00 0.  1.
         23    2    1    0    0    0 -0.23869721972E+02  0.90739606051E+01 -0.14855792069E+02  0.95456896810E+02  0.90770172428E+02 0.  0.
         13    1    3    3    0    0 -0.12714170978E+02 -0.37151496630E+02  0.11724167529E+02  0.40979886698E+02  0.10566000000E+00 0. -1.
         22    1    1    0    0    0  0.23869721972E+02 -0.90739606051E+01  0.14855792069E+02  0.29543103190E+02  0.00000000000E+00 0.  1.
</event>
<event>
 5    1  0.8943113E-005  0.9118800E+02  0.7818608E-02  0.1130116E+00
         25   -1    0    0    0    0  0.00000000000E+00  0.00000000000E+00  0.99999998245E-14  0.12500000000E+03  0.12500000000E+03 0.  0.
        -13    1    3    3    0    0 -0.27214345385E+02  0.18936271609E+02 -0.33559520758E+02  0.47174734495E+02  0.10566000000E+00 0.  1.
         23    2    1    0    0    0  0.17939370993E+02  0.17326112195E+02 -0.13886253585E+02  0.96454540921E+02  0.92133789839E+02 0.  0.
         13    1    3    3    0    0  0.45153716378E+02 -0.16101594138E+01  0.19673267172E+02  0.49279806425E+02  0.10566000000E+00 0. -1.
         22    1    1    0    0    0 -0.17939370993E+02 -0.17326112195E+02  0.13886253585E+02  0.28545459079E+02  0.00000000000E+00 0.  1.
</event>
<event>
 5    1  0.8943113E-005  0.9118800E+02  0.7818608E-02  0.1130116E+00
         25   -1    0    0    0    0  0.00000000000E+00  0.00000000000E+00  0.99999998245E-14  0.12500000000E+03  0.12500000000E+03 0.  0.
        -13    1    3    3    0    0  0.18294706457E+02  0.14492661016E+02 -0.12458754120E+02  0.26456855934E+02  0.10566000000E+00 0. -1.
         23    2    1    0    0    0 -0.39438942418E+01 -0.15936656729E+02  0.34572963971E+02  0.86727017790E+02  0.77825153052E+02 0.  0.
         13    1    3    3    0    0 -0.22238600699E+02 -0.30429317746E+02  0.47031718091E+02  0.60270161856E+02  0.10566000000E+00 0.  1.
         22    1    1    0    0    0  0.39438942418E+01  0.15936656729E+02 -0.34572963971E+02  0.38272982210E+02  0.00000000000E+00 0.  1.
</event>
<event>
 5    1  0.8943113E-005  0.9118800E+02  0.7818608E-02  0.1130116E+00
         25   -1    0    0    0    0  0.00000000000E+00  0.00000000000E+00  0.99999998245E-14  0.12500000000E+03  0.12500000000E+03 0.  0.
        -13    1    3    3    0    0 -0.23436866449E+02 -0.29177967876E+02  0.45221679007E+02  0.58699675762E+02  0.10566000000E+00 0. -1.
         23    2    1    0    0    0 -0.14615226152E+02 -0.23024421497E+02  0.93169086963E+01  0.96181019997E+02  0.91761947447E+02 0.  0.
         13    1    3    3    0    0  0.88216402976E+01  0.61535463785E+01 -0.35904770311E+02  0.37481344235E+02  0.10566000000E+00 0.  1.
         22    1    1    0    0    0  0.14615226152E+02  0.23024421497E+02 -0.93169086963E+01  0.28818980003E+02  0.00000000000E+00 0.  1.
</event>
<event>
 5    1  0.8943113E-005  0.9118800E+02  0.7818608E-02  0.1130116E+00
         25   -1    0    0    0    0  0.00000000000E+00  0.00000000000E+00  0.99999998245E-14  0.12500000000E+03  0.12500000000E+03 0.  0.
        -13    1    3    3    0    0  0.40237383416E+02  0.15111461285E+01  0.40834434097E+02  0.57347996991E+02  0.10566000000E+00 0.  1.
         23    2    1    0    0    0  0.35727908437E+01 -0.32489901690E+01  0.28154489689E+02  0.96434355229E+02  0.92106399382E+02 0.  0.
         13    1    3    3    0    0 -0.36664592572E+02 -0.47601362975E+01 -0.12679944408E+02  0.39086358238E+02  0.10566000000E+00 0. -1.
         22    1    1    0    0    0 -0.35727908437E+01  0.32489901690E+01 -0.28154489689E+02  0.28565644771E+02  0.00000000000E+00 0.  1.
</event>
<event>
 5    1  0.8943113E-005  0.9118800E+02  0.7818608E-02  0.1130116E+00
         25   -1    0    0    0    0  0.00000000000E+00  0.00000000000E+00  0.99999998245E-14  0.12500000000E+03  0.12500000000E+03 0.  0.
        -13    1    3    3    0    0 -0.94224804312E+01  0.21930106297E+02  0.38874906638E+02  0.45617784140E+02  0.10566000000E+00 0.  1.
         23    2    1    0    0    0  0.27071216521E+02  0.12324339755E+02  0.84882575814E+01  0.94067967556E+02  0.88836883607E+02 0.  0.
         13    1    3    3    0    0  0.36493696952E+02 -0.96057665417E+01 -0.30386649057E+02  0.48450183416E+02  0.10566000000E+00 0. -1.
         22    1    1    0    0    0 -0.27071216521E+02 -0.12324339755E+02 -0.84882575814E+01  0.30932032444E+02  0.00000000000E+00 0. -1.
</event>
<event>
 5    1  0.8943113E-005  0.9118800E+02  0.7818608E-02  0.1130116E+00
         25   -1    0    0    0    0  0.00000000000E+00  0.00000000000E+00  0.99999998245E-14  0.12500000000E+03  0.12500000000E+03 0.  0.
        -13    1    3    3    0    0 -0.12660288994E+02  0.20348666036E+02  0.28896402690E+02  0.37541502092E+02  0.10566000000E+00 0.  1.
         23    2    1    0    0    0 -0.38225867070E+01 -0.29800551539E+02  0.26257996666E+01  0.94840758215E+02  0.89917682098E+02 0.  0.
         13    1    3    3    0    0  0.88377022866E+01 -0.50149217575E+02 -0.26270603023E+02  0.57299256124E+02  0.10566000000E+00 0. -1.
         22    1    1    0    0    0  0.38225867070E+01  0.29800551539E+02 -0.26257996666E+01  0.30159241785E+02  0.00000000000E+00 0. -1.
</event>
<event>
 5    1  0.8943113E-005  0.9118800E+02  0.7818608E-02  0.1130116E+00
         25   -1    0    0    0    0  0.00000000000E+00  0.00000000000E+00  0.99999998245E-14  0.12500000000E+03  0.12500000000E+03 0.  0.
        -13    1    3    3    0    0 -0.14314104301E+01  0.15482933150E+02  0.32962953522E+02  0.36446366399E+02  0.10566000000E+00 0.  1.
         23    2    1    0    0    0 -0.11731710860E+01  0.10712776584E+02 -0.26651539926E+02  0.96252052369E+02  0.91858658233E+02 0.  0.
         13    1    3    3    0    0  0.25823934408E+00 -0.47701565655E+01 -0.59614493449E+02  0.59805685970E+02  0.10566000000E+00 0. -1.
         22    1    1    0    0    0  0.11731710860E+01 -0.10712776584E+02  0.26651539926E+02  0.28747947631E+02  0.00000000000E+00 0. -1.
</event>
<event>
 5    1  0.8943113E-005  0.9118800E+02  0.7818608E-02  0.1130116E+00
         25   -1    0    0    0    0  0.00000000000E+00  0.00000000000E+00  0.99999998245E-14  0.12500000000E+03  0.12500000000E+03 0.  0.
        -13    1    3    3    0    0 -0.34089422872E+02 -0.34800812219E+02  0.46844637766E+01  0.48940174169E+02  0.10566000000E+00 0.  1.
         23    2    1    0    0    0  0.10587111031E+02 -0.26980165872E+02 -0.56807795966E+01  0.95465485829E+02  0.90781999633E+02 0.  0.
         13    1    3    3    0    0  0.44676533903E+02  0.78206463465E+01 -0.10365243373E+02  0.46525311660E+02  0.10566000000E+00 0. -1.
         22    1    1    0    0    0 -0.10587111031E+02  0.26980165872E+02  0.56807795966E+01  0.29534514171E+02  0.00000000000E+00 0. -1.
</event>
<event>
 5    1  0.8943113E-005  0.9118800E+02  0.7818608E-02  0.1130116E+00
         25   -1    0    0    0    0  0.00000000000E+00  0.00000000000E+00  0.99999998245E-14  0.12500000000E+03  0.12500000000E+03 0.  0.
        -13    1    3    3    0    0  0.17677310875E+02 -0.24687697952E+02 -0.35503847690E+02  0.46717278547E+02  0.10566000000E+00 0. -1.
         23    2    1    0    0    0 -0.12226953377E+02 -0.20678348786E+02  0.80177120625E+01  0.99674593703E+02  0.96403570607E+02 0.  0.
         13    1    3    3    0    0 -0.29904264252E+02  0.40093491665E+01  0.43521559753E+02  0.52957315156E+02  0.10566000000E+00 0.  1.
         22    1    1    0    0    0  0.12226953377E+02  0.20678348786E+02 -0.80177120625E+01  0.25325406297E+02  0.00000000000E+00 0.  1.
</event>
<event>
 5    1  0.8943113E-005  0.9118800E+02  0.7818608E-02  0.1130116E+00
         25   -1    0    0    0    0  0.00000000000E+00  0.00000000000E+00  0.99999998245E-14  0.12500000000E+03  0.12500000000E+03 0.  0.
        -13    1    3    3    0    0  0.32592099667E+02 -0.46493310681E+02  0.16808948602E+02  0.59215072540E+02  0.10566000000E+00 0. -1.
         23    2    1    0    0    0  0.20239598550E+02 -0.12800226642E+02  0.17874593006E+02  0.95117091395E+02  0.90301012447E+02 0.  0.
         13    1    3    3    0    0 -0.12352501117E+02  0.33693084039E+02  0.10656444044E+01  0.35902018856E+02  0.10566000000E+00 0.  1.
         22    1    1    0    0    0 -0.20239598550E+02  0.12800226642E+02 -0.17874593006E+02  0.29882908605E+02  0.00000000000E+00 0. -1.
</event>
<event>
 5    1  0.8943113E-005  0.9118800E+02  0.7818608E-02  0.1130116E+00
         25   -1    0    0    0    0  0.00000000000E+00  0.00000000000E+00  0.99999998245E-14  0.12500000000E+03  0.12500000000E+03 0.  0.
        -13    1    3    3    0    0  0.93449540974E+01  0.29142704405E+02 -0.23306986912E+02  0.38468847007E+02  0.10566000000E+00 0. -1.
         23    2    1    0    0    0 -0.46668041236E+01 -0.25425023878E+02 -0.14101593763E+02  0.95554018159E+02  0.90903820271E+02 0.  0.
         13    1    3    3    0    0 -0.14011758221E+02 -0.54567728283E+02  0.92053931496E+01  0.57085171152E+02  0.10566000000E+00 0.  1.
         22    1    1    0    0    0  0.46668041236E+01  0.25425023878E+02  0.14101593763E+02  0.29445981841E+02  0.00000000000E+00 0.  1.
</event>
<event>
 5    1  0.8943113E-005  0.9118800E+02  0.7818608E-02  0.1130116E+00
         25   -1    0    0    0    0  0.00000000000E+00  0.00000000000E+00  0.99999998245E-14  0.12500000000E+03  0.12500000000E+03 0.  0.
        -13    1    3    3    0    0 -0.14534500840E+02 -0.44224170819E+02 -0.35332749225E+02  0.58441794387E+02  0.10566000000E+00 0. -1.
         23    2    1    0    0    0  0.85603153130E+01 -0.18831285164E+02 -0.20638278747E+02  0.95779547422E+02  0.91213413792E+02 0.  0.
         13    1    3    3    0    0  0.23094816153E+02  0.25392885655E+02  0.14694470478E+02  0.37337753035E+02  0.10566000000E+00 0.  1.
         22    1    1    0    0    0 -0.85603153130E+01  0.18831285164E+02  0.20638278747E+02  0.29220452578E+02  0.00000000000E+00 0. -1.
</event>
<event>
 5    1  0.8943113E-005  0.9118800E+02  0.7818608E-02  0.1130116E+00
         25   -1    0    0    0    0  0.00000000000E+00  0.00000000000E+00  0.99999998245E-14  0.12500000000E+03  0.12500000000E+03 0.  0.
        -13    1    3    3    0    0 -0.15795973034E+02  0.34350598675E+02  0.55346722000E+01  0.38211518601E+02  0.10566000000E+00 0. -1.
         23    2    1    0    0    0 -0.61437925404E+01 -0.21751107047E+02 -0.14020136408E+02  0.98402611605E+02  0.94739922425E+02 0.  0.
         13    1    3    3    0    0  0.96521804935E+01 -0.56101705722E+02 -0.19554808608E+02  0.60191093003E+02  0.10566000000E+00 0.  1.
         22    1    1    0    0    0  0.61437925404E+01  0.21751107047E+02  0.14020136408E+02  0.26597388395E+02  0.00000000000E+00 0.  1.
</event>
<event>
 5    1  0.8943113E-005  0.9118800E+02  0.7818608E-02  0.1130116E+00
         25   -1    0    0    0    0  0.00000000000E+00  0.00000000000E+00  0.99999998245E-14  0.12500000000E+03  0.12500000000E+03 0.  0.
        -13    1    3    3    0    0  0.15965084176E+02  0.45120640714E+02  0.28716579860E+02  0.55815851280E+02  0.10566000000E+00 0.  1.
         23    2    1    0    0    0  0.20798144684E+02  0.76988705368E+01  0.21260016524E+02  0.94278285653E+02  0.89132325299E+02 0.  0.
         13    1    3    3    0    0  0.48330605080E+01 -0.37421770177E+02 -0.74565633367E+01  0.38462434373E+02  0.10566000000E+00 0. -1.
         22    1    1    0    0    0 -0.20798144684E+02 -0.76988705368E+01 -0.21260016524E+02  0.30721714347E+02  0.00000000000E+00 0.  1.
</event>
<event>
 5    1  0.8943113E-005  0.9118800E+02  0.7818608E-02  0.1130116E+00
         25   -1    0    0    0    0  0.00000000000E+00  0.00000000000E+00  0.99999998245E-14  0.12500000000E+03  0.12500000000E+03 0.  0.
        -13    1    3    3    0    0  0.39673666713E+02 -0.22981700294E+02 -0.34643275002E+02  0.57465868528E+02  0.10566000000E+00 0.  1.
         23    2    1    0    0    0  0.26626127977E+02  0.49564364100E+01 -0.14758757817E+02  0.94156234257E+02  0.88960994622E+02 0.  0.
         13    1    3    3    0    0 -0.13047538736E+02  0.27938136704E+02  0.19884517185E+02  0.36690365728E+02  0.10566000000E+00 0. -1.
         22    1    1    0    0    0 -0.26626127977E+02 -0.49564364100E+01  0.14758757817E+02  0.30843765743E+02  0.00000000000E+00 0.  1.
</event>
<event>
 5    1  0.8943113E-005  0.9118800E+02  0.7818608E-02  0.1130116E+00
         25   -1    0    0    0    0  0.00000000000E+00  0.00000000000E+00  0.99999998245E-14  0.12500000000E+03  0.12500000000E+03 0.  0.
        -13    1    3    3    0    0  0.79638471097E+01 -0.41871328470E+02  0.10593370300E+02  0.43918807668E+02  0.10566000000E+00 0.  1.
         23    2    1    0    0    0 -0.65299715495E+01 -0.13283605666E+02 -0.27540523239E+02  0.93733802146E+02  0.88365437455E+02 0.  0.
         13    1    3    3    0    0 -0.14493818659E+02  0.28587722804E+02 -0.38133893539E+02  0.49814994479E+02  0.10566000000E+00 0. -1.
         22    1    1    0    0    0  0.65299715495E+01  0.13283605666E+02  0.27540523239E+02  0.31266197854E+02  0.00000000000E+00 0. -1.
</event>
<event>
 5    1  0.8943113E-005  0.9118800E+02  0.7818608E-02  0.1130116E+00
         25   -1    0    0    0    0  0.00000000000E+00  0.00000000000E+00  0.99999998245E-14  0.12500000000E+03  0.12500000000E+03 0.  0.
        -13    1    3    3    0    0  0.21011797223E+02  0.32375546046E+02 -0.44249945738E+02  0.58717463043E+02  0.10566000000E+00 0. -1.
         23    2    1    0    0    0  0.22755194562E+02  0.14114015498E+02 -0.12358602135E+02  0.95508656189E+02  0.90841422530E+02 0.  0.
         13    1    3    3    0    0  0.17433973396E+01 -0.18261530549E+02  0.31891343603E+02  0.36791193146E+02  0.10566000000E+00 0.  1.
         22    1    1    0    0    0 -0.22755194562E+02 -0.14114015498E+02  0.12358602135E+02  0.29491343811E+02  0.00000000000E+00 0. -1.
</event>
<event>
 5    1  0.8943113E-005  0.9118800E+02  0.7818608E-02  0.1130116E+00
         25   -1    0    0    0    0  0.00000000000E+00  0.00000000000E+00  0.99999998245E-14  0.12500000000E+03  0.12500000000E+03 0.  0.
        -13    1    3    3    0    0 -0.28790099238E+02 -0.27766380847E+02  0.41622201128E+02  0.57725735251E+02  0.10566000000E+00 0. -1.
         23    2    1    0    0    0 -0.28521658420E+02 -0.98997489182E+01  0.11611950935E+02  0.92653015099E+02  0.86823117744E+02 0.  0.
         13    1    3    3    0    0  0.26844081835E+00  0.17866631929E+02 -0.30010250193E+02  0.34927279849E+02  0.10566000000E+00 0.  1.
         22    1    1    0    0    0  0.28521658420E+02  0.98997489182E+01 -0.11611950935E+02  0.32346984901E+02  0.00000000000E+00 0. -1.
</event>
<event>
 5    1  0.8943113E-005  0.9118800E+02  0.7818608E-02  0.1130116E+00
         25   -1    0    0    0    0  0.00000000000E+00  0.00000000000E+00  0.99999998245E-14  0.12500000000E+03  0.12500000000E+03 0.  0.
        -13    1    3    3    0    0 -0.21373418049E+02 -0.45544353409E+00  0.57955496201E+02  0.61772818714E+02  0.10566000000E+00 0.  1.
         23    2    1    0    0    0 -0.16369379548E+02 -0.41553933740E+01  0.28558552872E+02  0.91821470451E+02  0.85617566029E+02 0.  0.
         13    1    3    3    0    0  0.50040385011E+01 -0.36999498399E+01 -0.29396943329E+02  0.30048651737E+02  0.10566000000E+00 0. -1.
         22    1    1    0    0    0  0.16369379548E+02  0.41553933740E+01 -0.28558552872E+02  0.33178529549E+02  0.00000000000E+00 0.  1.
</event>
<event>
 5    1  0.8943113E-005  0.9118800E+02  0.7818608E-02  0.1130116E+00
         25   -1    0    0    0    0  0.00000000000E+00  0.00000000000E+00  0.99999998245E-14  0.12500000000E+03  0.12500000000E+03 0.  0.
        -13    1    3    3    0    0  0.43383091357E+02  0.59533369399E+01 -0.17373121920E+02  0.47110204476E+02  0.10566000000E+00 0.  1.
         23    2    1    0    0    0  0.83389032937E+01  0.28053528492E+02  0.66295435269E+01  0.94991857499E+02  0.90127489562E+02 0.  0.
         13    1    3    3    0    0 -0.35044188064E+02  0.22100191552E+02  0.24002665447E+02  0.47881653024E+02  0.10566000000E+00 0. -1.
         22    1    1    0    0    0 -0.83389032937E+01 -0.28053528492E+02 -0.66295435269E+01  0.30008142501E+02  0.00000000000E+00 0. -1.
</event>
<event>
 5    1  0.8943113E-005  0.9118800E+02  0.7818608E-02  0.1130116E+00
         25   -1    0    0    0    0  0.00000000000E+00  0.00000000000E+00  0.99999998245E-14  0.12500000000E+03  0.12500000000E+03 0.  0.
        -13    1    3    3    0    0  0.28331754691E+02  0.49473547400E+02  0.20115709990E-01  0.57011681127E+02  0.10566000000E+00 0.  1.
         23    2    1    0    0    0 -0.27107736935E+01  0.26839562552E+02 -0.91596462708E+01  0.96511238500E+02  0.92210680645E+02 0.  0.
         13    1    3    3    0    0 -0.31042528384E+02 -0.22633984849E+02 -0.91797619808E+01  0.39499557373E+02  0.10566000000E+00 0. -1.
         22    1    1    0    0    0  0.27107736935E+01 -0.26839562552E+02  0.91596462708E+01  0.28488761500E+02  0.00000000000E+00 0.  1.
</event>
<event>
 4    1  0.8943113E-005  0.9118800E+02  0.7818608E-02  0.1130116E+00
         25   -1    0    0    0    0  0.00000000000E+00  0.00000000000E+00  0.99999998245E-14  0.12500000000E+03  0.12500000000E+03 0.  0.
        -13    1    1    0    0    0 -0.18231508801E+02 -0.92884641717E+01 -0.16395128469E+02  0.26219742207E+02  0.10566000000E+00 0. -1.
         13    1    1    0    0    0 -0.31461194317E+02 -0.22403543945E+01  0.32497035728E+02  0.45286801949E+02  0.10566000000E+00 0.  1.
         22    1    1    0    0    0  0.49692703118E+02  0.11528818566E+02 -0.16101907259E+02  0.53493455844E+02  0.00000000000E+00 0.  1.
</event>
<event>
 5    1  0.8943113E-005  0.9118800E+02  0.7818608E-02  0.1130116E+00
         25   -1    0    0    0    0  0.00000000000E+00  0.00000000000E+00  0.99999998245E-14  0.12500000000E+03  0.12500000000E+03 0.  0.
        -13    1    3    3    0    0 -0.15660912392E+02 -0.40983065682E+02  0.42897130883E+02  0.61360010200E+02  0.10566000000E+00 0.  1.
         23    2    1    0    0    0 -0.14842155613E+02 -0.20069222305E+02  0.16370977526E+02  0.95149167980E+02  0.90345403840E+02 0.  0.
         13    1    3    3    0    0  0.81875677943E+00  0.20913843378E+02 -0.26526153357E+02  0.33789157780E+02  0.10566000000E+00 0. -1.
         22    1    1    0    0    0  0.14842155613E+02  0.20069222305E+02 -0.16370977526E+02  0.29850832020E+02  0.00000000000E+00 0.  1.
</event>
<event>
 5    1  0.8943113E-005  0.9118800E+02  0.7818608E-02  0.1130116E+00
         25   -1    0    0    0    0  0.00000000000E+00  0.00000000000E+00  0.99999998245E-14  0.12500000000E+03  0.12500000000E+03 0.  0.
        -13    1    3    3    0    0  0.20525547604E+02  0.24603454211E+02 -0.20451050984E+02  0.38011639191E+02  0.10566000000E+00 0.  1.
         23    2    1    0    0    0 -0.12954893033E+02  0.61288020652E+01  0.24246591023E+02  0.96834619753E+02  0.92648016374E+02 0.  0.
         13    1    3    3    0    0 -0.33480440637E+02 -0.18474652146E+02  0.44697642007E+02  0.58822980562E+02  0.10566000000E+00 0. -1.
         22    1    1    0    0    0  0.12954893033E+02 -0.61288020652E+01 -0.24246591023E+02  0.28165380247E+02  0.00000000000E+00 0. -1.
</event>
<event>
 5    1  0.8943113E-005  0.9118800E+02  0.7818608E-02  0.1130116E+00
         25   -1    0    0    0    0  0.00000000000E+00  0.00000000000E+00  0.99999998245E-14  0.12500000000E+03  0.12500000000E+03 0.  0.
        -13    1    3    3    0    0  0.48343179672E+02 -0.34868414014E+02  0.12674313713E+02  0.60938647087E+02  0.10566000000E+00 0. -1.
         23    2    1    0    0    0  0.14315450730E+02 -0.20313045688E+02 -0.27213843427E+00  0.10014791731E+03  0.97015356142E+02 0.  0.
         13    1    3    3    0    0 -0.34027728943E+02  0.14555368326E+02 -0.12946452147E+02  0.39209270222E+02  0.10566000000E+00 0.  1.
         22    1    1    0    0    0 -0.14315450730E+02  0.20313045688E+02  0.27213843427E+00  0.24852082690E+02  0.00000000000E+00 0. -1.
</event>
<event>
 5    1  0.8943113E-005  0.9118800E+02  0.7818608E-02  0.1130116E+00
         25   -1    0    0    0    0  0.00000000000E+00  0.00000000000E+00  0.99999998245E-14  0.12500000000E+03  0.12500000000E+03 0.  0.
        -13    1    3    3    0    0 -0.32429882648E+02  0.31883146092E+01  0.89152220960E+01  0.33783945709E+02  0.10566000000E+00 0. -1.
         23    2    1    0    0    0  0.22956499024E+02  0.12644948315E+01 -0.18383761350E+02  0.95562566756E+02  0.90915574513E+02 0.  0.
         13    1    3    3    0    0  0.55386381672E+02 -0.19238197777E+01 -0.27298983446E+02  0.61778621047E+02  0.10566000000E+00 0.  1.
         22    1    1    0    0    0 -0.22956499024E+02 -0.12644948315E+01  0.18383761350E+02  0.29437433244E+02  0.00000000000E+00 0.  1.
</event>
<event>
 5    1  0.8943113E-005  0.9118800E+02  0.7818608E-02  0.1130116E+00
         25   -1    0    0    0    0  0.00000000000E+00  0.00000000000E+00  0.99999998245E-14  0.12500000000E+03  0.12500000000E+03 0.  0.
        -13    1    3    3    0    0  0.48623260495E+01 -0.55424651706E+02  0.18253129694E+02  0.58555291299E+02  0.10566000000E+00 0.  1.
         23    2    1    0    0    0 -0.63818740533E+01 -0.29563491869E+02 -0.40187860375E+01  0.94489690118E+02  0.89428309441E+02 0.  0.
         13    1    3    3    0    0 -0.11244200103E+02  0.25861159838E+02 -0.22271915732E+02  0.35934398819E+02  0.10566000000E+00 0. -1.
         22    1    1    0    0    0  0.63818740533E+01  0.29563491869E+02  0.40187860375E+01  0.30510309882E+02  0.00000000000E+00 0.  1.
</event>
<event>
 5    1  0.8943113E-005  0.9118800E+02  0.7818608E-02  0.1130116E+00
         25   -1    0    0    0    0  0.00000000000E+00  0.00000000000E+00  0.99999998245E-14  0.12500000000E+03  0.12500000000E+03 0.  0.
        -13    1    3    3    0    0 -0.43725451547E+02 -0.32917662770E+01  0.21750427358E+02  0.48947350209E+02  0.10566000000E+00 0.  1.
         23    2    1    0    0    0 -0.21415711431E+02 -0.40946582811E+01 -0.19433507545E+02  0.95792806742E+02  0.91231582719E+02 0.  0.
         13    1    3    3    0    0  0.22309740116E+02 -0.80289200413E+00 -0.41183934903E+02  0.46845456532E+02  0.10566000000E+00 0. -1.
         22    1    1    0    0    0  0.21415711431E+02  0.40946582811E+01  0.19433507545E+02  0.29207193258E+02  0.00000000000E+00 0. -1.
</event>
<event>
 5    1  0.8943113E-005  0.9118800E+02  0.7818608E-02  0.1130116E+00
         25   -1    0    0    0    0  0.00000000000E+00  0.00000000000E+00  0.99999998245E-14  0.12500000000E+03  0.12500000000E+03 0.  0.
        -13    1    3    3    0    0 -0.42690633097E+02  0.14220088333E+02  0.34310876940E+02  0.56585762404E+02  0.10566000000E+00 0. -1.
         23    2    1    0    0    0 -0.29869458090E+02  0.96200728149E+00  0.48736849067E+00  0.95111080437E+02  0.90292691340E+02 0.  0.
         13    1    3    3    0    0  0.12821175007E+02 -0.13258081051E+02 -0.33823508450E+02  0.38525318034E+02  0.10566000000E+00 0.  1.
         22    1    1    0    0    0  0.29869458090E+02 -0.96200728149E+00 -0.48736849067E+00  0.29888919563E+02  0.00000000000E+00 0. -1.
</event>
<event>
 5    1  0.8943113E-005  0.9118800E+02  0.7818608E-02  0.1130116E+00
         25   -1    0    0    0    0  0.00000000000E+00  0.00000000000E+00  0.99999998245E-14  0.12500000000E+03  0.12500000000E+03 0.  0.
        -13    1    3    3    0    0 -0.97765589149E+01  0.30884402705E+02  0.14452554400E+01  0.32427262635E+02  0.10566000000E+00 0. -1.
         23    2    1    0    0    0  0.78651439561E+00 -0.30209393325E+02 -0.32553751986E+01  0.94605534753E+02  0.89590086998E+02 0.  0.
         13    1    3    3    0    0  0.10563073311E+02 -0.61093796030E+02 -0.47006306386E+01  0.62178272118E+02  0.10566000000E+00 0.  1.
         22    1    1    0    0    0 -0.78651439561E+00  0.30209393325E+02  0.32553751986E+01  0.30394465247E+02  0.00000000000E+00 0.  1.
</event>
<event>
 5    1  0.8943113E-005  0.9118800E+02  0.7818608E-02  0.1130116E+00
         25   -1    0    0    0    0  0.00000000000E+00  0.00000000000E+00  0.99999998245E-14  0.12500000000E+03  0.12500000000E+03 0.  0.
        -13    1    3    3    0    0  0.26968531716E+02 -0.17903244929E+02  0.76317993788E+01  0.33257832276E+02  0.10566000000E+00 0.  1.
         23    2    1    0    0    0  0.24597026377E+01 -0.50256703504E+02 -0.63181739102E+00  0.74679173523E+02  0.55179646436E+02 0.  0.
         13    1    3    3    0    0 -0.24508829079E+02 -0.32353458574E+02 -0.82636167698E+01  0.41421341247E+02  0.10566000000E+00 0. -1.
         22    1    1    0    0    0 -0.24597026377E+01  0.50256703504E+02  0.63181739102E+00  0.50320826477E+02  0.00000000000E+00 0.  1.
</event>
<event>
 5    1  0.8943113E-005  0.9118800E+02  0.7818608E-02  0.1130116E+00
         25   -1    0    0    0    0  0.00000000000E+00  0.00000000000E+00  0.99999998245E-14  0.12500000000E+03  0.12500000000E+03 0.  0.
        -13    1    3    3    0    0 -0.60743918827E+01  0.60039832621E+02  0.10828348194E+02  0.61310227748E+02  0.10566000000E+00 0.  1.
         23    2    1    0    0    0 -0.10977237533E+02  0.26343466540E+02  0.25923137714E+01  0.96343446406E+02  0.91982941905E+02 0.  0.
         13    1    3    3    0    0 -0.49028456499E+01 -0.33696366080E+02 -0.82360344223E+01  0.35033218658E+02  0.10566000000E+00 0. -1.
         22    1    1    0    0    0  0.10977237533E+02 -0.26343466540E+02 -0.25923137714E+01  0.28656553594E+02  0.00000000000E+00 0.  1.
</event>
<event>
 5    1  0.8943113E-005  0.9118800E+02  0.7818608E-02  0.1130116E+00
         25   -1    0    0    0    0  0.00000000000E+00  0.00000000000E+00  0.99999998245E-14  0.12500000000E+03  0.12500000000E+03 0.  0.
        -13    1    3    3    0    0 -0.58144629901E+02  0.21446927742E+02  0.20163324096E+01  0.62006817821E+02  0.10566000000E+00 0.  1.
         23    2    1    0    0    0 -0.29792534738E+02  0.70113422100E+01 -0.31218942327E+01  0.94234755498E+02  0.89071257286E+02 0.  0.
         13    1    3    3    0    0  0.28352095164E+02 -0.14435585532E+02 -0.51382266423E+01  0.32227937676E+02  0.10566000000E+00 0. -1.
         22    1    1    0    0    0  0.29792534738E+02 -0.70113422100E+01  0.31218942327E+01  0.30765244502E+02  0.00000000000E+00 0.  1.
</event>
<event>
 5    1  0.8943113E-005  0.9118800E+02  0.7818608E-02  0.1130116E+00
         25   -1    0    0    0    0  0.00000000000E+00  0.00000000000E+00  0.99999998245E-14  0.12500000000E+03  0.12500000000E+03 0.  0.
        -13    1    3    3    0    0  0.37720677622E+02  0.40477112693E+02  0.70517967187E+01  0.55776206156E+02  0.10566000000E+00 0. -1.
         23    2    1    0    0    0  0.25810829660E+01  0.32605003091E+02  0.11074905594E+01  0.92274249417E+02  0.86276082169E+02 0.  0.
         13    1    3    3    0    0 -0.35139594656E+02 -0.78721096016E+01 -0.59443061593E+01  0.36498043261E+02  0.10566000000E+00 0.  1.
         22    1    1    0    0    0 -0.25810829660E+01 -0.32605003091E+02 -0.11074905594E+01  0.32725750583E+02  0.00000000000E+00 0. -1.
</event>
<event>
 5    1  0.8943113E-005  0.9118800E+02  0.7818608E-02  0.1130116E+00
         25   -1    0    0    0    0  0.00000000000E+00  0.00000000000E+00  0.99999998245E-14  0.12500000000E+03  0.12500000000E+03 0.  0.
        -13    1    3    3    0    0 -0.73923594541E+01  0.23348613673E+02 -0.45844084424E+02  0.51975917302E+02  0.10566000000E+00 0.  1.
         23    2    1    0    0    0  0.13347488293E+02 -0.90224890796E+01 -0.23699822928E+02  0.96342673542E+02  0.91981891617E+02 0.  0.
         13    1    3    3    0    0  0.20739847747E+02 -0.32371102752E+02  0.22144261496E+02  0.44366756240E+02  0.10566000000E+00 0. -1.
         22    1    1    0    0    0 -0.13347488293E+02  0.90224890796E+01  0.23699822928E+02  0.28657326458E+02  0.00000000000E+00 0.  1.
</event>
<event>
 5    1  0.8943113E-005  0.9118800E+02  0.7818608E-02  0.1130116E+00
         25   -1    0    0    0    0  0.00000000000E+00  0.00000000000E+00  0.99999998245E-14  0.12500000000E+03  0.12500000000E+03 0.  0.
        -13    1    3    3    0    0  0.50615599172E+02  0.22367908820E+02  0.38145019253E+01  0.55469124867E+02  0.10566000000E+00 0.  1.
         23    2    1    0    0    0  0.22051784817E+02 -0.14129622754E+01  0.19230349831E+02  0.95706928625E+02  0.91113841737E+02 0.  0.
         13    1    3    3    0    0 -0.28563814355E+02 -0.23780871095E+02  0.15415847905E+02  0.40237803758E+02  0.10566000000E+00 0. -1.
         22    1    1    0    0    0 -0.22051784817E+02  0.14129622754E+01 -0.19230349831E+02  0.29293071375E+02  0.00000000000E+00 0.  1.
</event>
<event>
 5    1  0.8943113E-005  0.9118800E+02  0.7818608E-02  0.1130116E+00
         25   -1    0    0    0    0  0.00000000000E+00  0.00000000000E+00  0.99999998245E-14  0.12500000000E+03  0.12500000000E+03 0.  0.
        -13    1    3    3    0    0  0.12808158207E+02 -0.15196053619E+02  0.36429602688E+02  0.41498145480E+02  0.10566000000E+00 0.  1.
         23    2    1    0    0    0  0.87537497475E+01  0.27003947415E+02  0.12548256304E+01  0.96584935369E+02  0.92310529423E+02 0.  0.
         13    1    3    3    0    0 -0.40544084597E+01  0.42200001034E+02 -0.35174777057E+02  0.55086789889E+02  0.10566000000E+00 0. -1.
         22    1    1    0    0    0 -0.87537497475E+01 -0.27003947415E+02 -0.12548256304E+01  0.28415064631E+02  0.00000000000E+00 0.  1.
</event>
<event>
 5    1  0.8943113E-005  0.9118800E+02  0.7818608E-02  0.1130116E+00
         25   -1    0    0    0    0  0.00000000000E+00  0.00000000000E+00  0.99999998245E-14  0.12500000000E+03  0.12500000000E+03 0.  0.
        -13    1    3    3    0    0  0.48539687686E+02 -0.22591787342E+02  0.13925103076E+02  0.55320970669E+02  0.10566000000E+00 0.  1.
         23    2    1    0    0    0  0.96271820295E+01 -0.27221108817E+02  0.86323043682E+01  0.94863841025E+02  0.89949765182E+02 0.  0.
         13    1    3    3    0    0 -0.38912505657E+02 -0.46293214753E+01 -0.52927987081E+01  0.39542870356E+02  0.10566000000E+00 0. -1.
         22    1    1    0    0    0 -0.96271820295E+01  0.27221108817E+02 -0.86323043682E+01  0.30136158975E+02  0.00000000000E+00 0.  1.
</event>
<event>
 5    1  0.8943113E-005  0.9118800E+02  0.7818608E-02  0.1130116E+00
         25   -1    0    0    0    0  0.00000000000E+00  0.00000000000E+00  0.99999998245E-14  0.12500000000E+03  0.12500000000E+03 0.  0.
        -13    1    3    3    0    0  0.23194089724E+01 -0.27496466040E+02  0.41766339170E+02  0.50058701085E+02  0.10566000000E+00 0.  1.
         23    2    1    0    0    0  0.16936868583E+02  0.10188888816E+02  0.23147716019E+02  0.94561739051E+02  0.89528960469E+02 0.  0.
         13    1    3    3    0    0  0.14617459611E+02  0.37685354856E+02 -0.18618623150E+02  0.44503037965E+02  0.10566000000E+00 0. -1.
         22    1    1    0    0    0 -0.16936868583E+02 -0.10188888816E+02 -0.23147716019E+02  0.30438260949E+02  0.00000000000E+00 0. -1.
</event>
<event>
 5    1  0.8943113E-005  0.9118800E+02  0.7818608E-02  0.1130116E+00
         25   -1    0    0    0    0  0.00000000000E+00  0.00000000000E+00  0.99999998245E-14  0.12500000000E+03  0.12500000000E+03 0.  0.
        -13    1    3    3    0    0 -0.25929042171E+02 -0.31389839401E+01 -0.43788032762E+02  0.50985992442E+02  0.10566000000E+00 0. -1.
         23    2    1    0    0    0 -0.28278193017E+02 -0.51049423809E+01  0.13548324497E+01  0.96232792836E+02  0.91832446385E+02 0.  0.
         13    1    3    3    0    0 -0.23491508464E+01 -0.19659584408E+01  0.45142865212E+02  0.45246800394E+02  0.10566000000E+00 0.  1.
         22    1    1    0    0    0  0.28278193017E+02  0.51049423809E+01 -0.13548324497E+01  0.28767207164E+02  0.00000000000E+00 0. -1.
</event>
<event>
 5    1  0.8943113E-005  0.9118800E+02  0.7818608E-02  0.1130116E+00
         25   -1    0    0    0    0  0.00000000000E+00  0.00000000000E+00  0.99999998245E-14  0.12500000000E+03  0.12500000000E+03 0.  0.
        -13    1    3    3    0    0  0.20009482696E+02  0.17324964648E+02  0.21003740940E+02  0.33789082487E+02  0.10566000000E+00 0.  1.
         23    2    1    0    0    0 -0.16770243586E+02 -0.19258377206E+02 -0.13522309674E+02  0.96103996445E+02  0.91656964336E+02 0.  0.
         13    1    3    3    0    0 -0.36779726282E+02 -0.36583341854E+02 -0.34526050613E+02  0.62314913958E+02  0.10566000000E+00 0. -1.
         22    1    1    0    0    0  0.16770243586E+02  0.19258377206E+02  0.13522309674E+02  0.28896003555E+02  0.00000000000E+00 0. -1.
</event>
<event>
 5    1  0.8943113E-005  0.9118800E+02  0.7818608E-02  0.1130116E+00
         25   -1    0    0    0    0  0.00000000000E+00  0.00000000000E+00  0.99999998245E-14  0.12500000000E+03  0.12500000000E+03 0.  0.
        -13    1    3    3    0    0 -0.39431773845E+02 -0.12062007940E+02 -0.16062382133E+02  0.44253453062E+02  0.10566000000E+00 0.  1.
         23    2    1    0    0    0 -0.54445595557E+01 -0.15944308316E+02  0.23199829212E+02  0.96327778742E+02  0.91961647905E+02 0.  0.
         13    1    3    3    0    0  0.33987214289E+02 -0.38823003764E+01  0.39262211344E+02  0.52074325680E+02  0.10566000000E+00 0. -1.
         22    1    1    0    0    0  0.54445595557E+01  0.15944308316E+02 -0.23199829212E+02  0.28672221258E+02  0.00000000000E+00 0. -1.
</event>
<event>
 5    1  0.8943113E-005  0.9118800E+02  0.7818608E-02  0.1130116E+00
         25   -1    0    0    0    0  0.00000000000E+00  0.00000000000E+00  0.99999998245E-14  0.12500000000E+03  0.12500000000E+03 0.  0.
        -13    1    3    3    0    0 -0.19105054823E+02  0.20996067279E+02 -0.17184667161E+02  0.33183759740E+02  0.10566000000E+00 0. -1.
         23    2    1    0    0    0  0.15355176639E+02 -0.35675567737E+01  0.26601665351E+02  0.94078203312E+02  0.88851284898E+02 0.  0.
         13    1    3    3    0    0  0.34460231462E+02 -0.24563624053E+02  0.43786332512E+02  0.60894443572E+02  0.10566000000E+00 0.  1.
         22    1    1    0    0    0 -0.15355176639E+02  0.35675567737E+01 -0.26601665351E+02  0.30921796688E+02  0.00000000000E+00 0.  1.
</event>
<event>
 5    1  0.8943113E-005  0.9118800E+02  0.7818608E-02  0.1130116E+00
         25   -1    0    0    0    0  0.00000000000E+00  0.00000000000E+00  0.99999998245E-14  0.12500000000E+03  0.12500000000E+03 0.  0.
        -13    1    3    3    0    0  0.21594691703E+02 -0.18168251045E+02  0.45455778821E+02  0.53503785362E+02  0.10566000000E+00 0. -1.
         23    2    1    0    0    0 -0.13679741607E+02 -0.13339128815E+02  0.20460940425E+02  0.97005040256E+02  0.92877661813E+02 0.  0.
         13    1    3    3    0    0 -0.35274433310E+02  0.48291222296E+01 -0.24994838396E+02  0.43501254894E+02  0.10566000000E+00 0.  1.
         22    1    1    0    0    0  0.13679741607E+02  0.13339128815E+02 -0.20460940425E+02  0.27994959744E+02  0.00000000000E+00 0.  1.
</event>
<event>
 5    1  0.8943113E-005  0.9118800E+02  0.7818608E-02  0.1130116E+00
         25   -1    0    0    0    0  0.00000000000E+00  0.00000000000E+00  0.99999998245E-14  0.12500000000E+03  0.12500000000E+03 0.  0.
        -13    1    3    3    0    0 -0.20427740665E+02  0.22244384258E+02 -0.20908234277E+02  0.36732419527E+02  0.10566000000E+00 0. -1.
         23    2    1    0    0    0  0.25090697697E+02 -0.10489321570E+02 -0.16986691953E+02  0.92935741371E+02  0.87229211522E+02 0.  0.
         13    1    3    3    0    0  0.45518438362E+02 -0.32733705828E+02  0.39215423237E+01  0.56203321844E+02  0.10566000000E+00 0.  1.
         22    1    1    0    0    0 -0.25090697697E+02  0.10489321570E+02  0.16986691953E+02  0.32064258629E+02  0.00000000000E+00 0. -1.
</event>
<event>
 5    1  0.8943113E-005  0.9118800E+02  0.7818608E-02  0.1130116E+00
         25   -1    0    0    0    0  0.00000000000E+00  0.00000000000E+00  0.99999998245E-14  0.12500000000E+03  0.12500000000E+03 0.  0.
        -13    1    3    3    0    0  0.18932612502E+02  0.45223034740E+01  0.45932816635E+02  0.49887171226E+02  0.10566000000E+00 0. -1.
         23    2    1    0    0    0  0.24331520507E+02  0.16533860311E+02  0.22675508818E+01  0.95495200153E+02  0.90822904811E+02 0.  0.
         13    1    3    3    0    0  0.53989080057E+01  0.12011556837E+02 -0.43665265753E+02  0.45608028927E+02  0.10566000000E+00 0.  1.
         22    1    1    0    0    0 -0.24331520507E+02 -0.16533860311E+02 -0.22675508818E+01  0.29504799847E+02  0.00000000000E+00 0. -1.
</event>
<event>
 5    1  0.8943113E-005  0.9118800E+02  0.7818608E-02  0.1130116E+00
         25   -1    0    0    0    0  0.00000000000E+00  0.00000000000E+00  0.99999998245E-14  0.12500000000E+03  0.12500000000E+03 0.  0.
        -13    1    3    3    0    0 -0.56177934743E+02  0.21252871344E+02  0.12811071070E+02  0.61414815788E+02  0.10566000000E+00 0.  1.
         23    2    1    0    0    0 -0.22269679523E+02  0.11626710022E+02  0.13106817499E+02  0.96664374421E+02  0.92418037229E+02 0.  0.
         13    1    3    3    0    0  0.33908255220E+02 -0.96261613221E+01  0.29574642960E+00  0.35249558633E+02  0.10566000000E+00 0. -1.
         22    1    1    0    0    0  0.22269679523E+02 -0.11626710022E+02 -0.13106817499E+02  0.28335625579E+02  0.00000000000E+00 0.  1.
</event>
<event>
 5    1  0.8943113E-005  0.9118800E+02  0.7818608E-02  0.1130116E+00
         25   -1    0    0    0    0  0.00000000000E+00  0.00000000000E+00  0.99999998245E-14  0.12500000000E+03  0.12500000000E+03 0.  0.
        -13    1    3    3    0    0 -0.33598460588E+02 -0.21212801627E+02  0.91953629760E+01  0.40784866937E+02  0.10566000000E+00 0. -1.
         23    2    1    0    0    0  0.84406838723E+01  0.72782346013E+01  0.27940812584E+02  0.94918330316E+02  0.90025455172E+02 0.  0.
         13    1    3    3    0    0  0.42039144461E+02  0.28491036228E+02  0.18745449608E+02  0.54133463379E+02  0.10566000000E+00 0.  1.
         22    1    1    0    0    0 -0.84406838723E+01 -0.72782346013E+01 -0.27940812584E+02  0.30081669684E+02  0.00000000000E+00 0.  1.
</event>
<event>
 5    1  0.8943113E-005  0.9118800E+02  0.7818608E-02  0.1130116E+00
         25   -1    0    0    0    0  0.00000000000E+00  0.00000000000E+00  0.99999998245E-14  0.12500000000E+03  0.12500000000E+03 0.  0.
        -13    1    3    3    0    0  0.65892722062E+01  0.47772191676E+02 -0.15859360512E+02  0.50765453663E+02  0.10566000000E+00 0.  1.
         23    2    1    0    0    0 -0.24968957498E+01  0.67553698739E+01 -0.29263481996E+02  0.94863296646E+02  0.89949008674E+02 0.  0.
         13    1    3    3    0    0 -0.90861679560E+01 -0.41016821802E+02 -0.13404121485E+02  0.44097842982E+02  0.10566000000E+00 0. -1.
         22    1    1    0    0    0  0.24968957498E+01 -0.67553698739E+01  0.29263481996E+02  0.30136703354E+02  0.00000000000E+00 0. -1.
</event>
<event>
 5    1  0.8943113E-005  0.9118800E+02  0.7818608E-02  0.1130116E+00
         25   -1    0    0    0    0  0.00000000000E+00  0.00000000000E+00  0.99999998245E-14  0.12500000000E+03  0.12500000000E+03 0.  0.
        -13    1    3    3    0    0  0.36510214373E+02  0.55207561567E+01 -0.35154910882E+02  0.50983854555E+02  0.10566000000E+00 0. -1.
         23    2    1    0    0    0  0.24630060208E+02 -0.17354552980E+02  0.36086087351E+00  0.94867781436E+02  0.89955240865E+02 0.  0.
         13    1    3    3    0    0 -0.11880154165E+02 -0.22875309137E+02  0.35515771755E+02  0.43883926881E+02  0.10566000000E+00 0.  1.
         22    1    1    0    0    0 -0.24630060208E+02  0.17354552980E+02 -0.36086087351E+00  0.30132218564E+02  0.00000000000E+00 0.  1.
</event>
<event>
 5    1  0.8943113E-005  0.9118800E+02  0.7818608E-02  0.1130116E+00
         25   -1    0    0    0    0  0.00000000000E+00  0.00000000000E+00  0.99999998245E-14  0.12500000000E+03  0.12500000000E+03 0.  0.
        -13    1    3    3    0    0  0.34706522490E+02 -0.23047228792E+02  0.44740949181E+02  0.61134942185E+02  0.10566000000E+00 0.  1.
         23    2    1    0    0    0  0.15343821174E+02 -0.17384122709E+02  0.13969732409E+02  0.97929832026E+02  0.94114069121E+02 0.  0.
         13    1    3    3    0    0 -0.19362701316E+02  0.56631060830E+01 -0.30771216772E+02  0.36794889841E+02  0.10566000000E+00 0. -1.
         22    1    1    0    0    0 -0.15343821174E+02  0.17384122709E+02 -0.13969732409E+02  0.27070167974E+02  0.00000000000E+00 0.  1.
</event>
<event>
 5    1  0.8943113E-005  0.9118800E+02  0.7818608E-02  0.1130116E+00
         25   -1    0    0    0    0  0.00000000000E+00  0.00000000000E+00  0.99999998245E-14  0.12500000000E+03  0.12500000000E+03 0.  0.
        -13    1    3    3    0    0 -0.90051871528E+01 -0.27203094041E+02  0.33296491178E+02  0.43929138506E+02  0.10566000000E+00 0.  1.
         23    2    1    0    0    0 -0.26460243727E+02  0.62240237549E+01 -0.46453838284E+01  0.97423514352E+02  0.93439170523E+02 0.  0.
         13    1    3    3    0    0 -0.17455056574E+02  0.33427117796E+02 -0.37941875006E+02  0.53494375846E+02  0.10566000000E+00 0. -1.
         22    1    1    0    0    0  0.26460243727E+02 -0.62240237549E+01  0.46453838284E+01  0.27576485648E+02  0.00000000000E+00 0. -1.
</event>
<event>
 5    1  0.8943113E-005  0.9118800E+02  0.7818608E-02  0.1130116E+00
         25   -1    0    0    0    0  0.00000000000E+00  0.00000000000E+00  0.99999998245E-14  0.12500000000E+03  0.12500000000E+03 0.  0.
        -13    1    3    3    0    0 -0.51149313424E+02 -0.34288925362E+02 -0.60413815055E+01  0.61874810066E+02  0.10566000000E+00 0. -1.
         23    2    1    0    0    0 -0.22867134898E+02 -0.18936979985E+02 -0.84081157605E+01  0.94142075895E+02  0.88941098339E+02 0.  0.
         13    1    3    3    0    0  0.28282178526E+02  0.15351945376E+02 -0.23667342550E+01  0.32267265829E+02  0.10566000000E+00 0.  1.
         22    1    1    0    0    0  0.22867134898E+02  0.18936979985E+02  0.84081157605E+01  0.30857924105E+02  0.00000000000E+00 0. -1.
</event>
<event>
 5    1  0.8943113E-005  0.9118800E+02  0.7818608E-02  0.1130116E+00
         25   -1    0    0    0    0  0.00000000000E+00  0.00000000000E+00  0.99999998245E-14  0.12500000000E+03  0.12500000000E+03 0.  0.
        -13    1    3    3    0    0  0.26245786519E+02  0.10728123807E+02 -0.18533114208E+02  0.33873609739E+02  0.10566000000E+00 0.  1.
         23    2    1    0    0    0 -0.30957620957E+02  0.34289795756E+01 -0.23710172264E+01  0.93762939976E+02  0.88406645644E+02 0.  0.
         13    1    3    3    0    0 -0.57203407476E+02 -0.72991442311E+01  0.16162096982E+02  0.59889330238E+02  0.10566000000E+00 0. -1.
         22    1    1    0    0    0  0.30957620957E+02 -0.34289795756E+01  0.23710172264E+01  0.31237060024E+02  0.00000000000E+00 0. -1.
</event>
<event>
 5    1  0.8943113E-005  0.9118800E+02  0.7818608E-02  0.1130116E+00
         25   -1    0    0    0    0  0.00000000000E+00  0.00000000000E+00  0.99999998245E-14  0.12500000000E+03  0.12500000000E+03 0.  0.
        -13    1    3    3    0    0  0.22802602870E+02  0.56170102285E+01  0.48351139896E+02  0.53752705930E+02  0.10566000000E+00 0.  1.
         23    2    1    0    0    0 -0.16057744399E+01 -0.17314366035E+02  0.24866008234E+02  0.94657222470E+02  0.89662174954E+02 0.  0.
         13    1    3    3    0    0 -0.24408377309E+02 -0.22931376263E+02 -0.23485131662E+02  0.40904516540E+02  0.10566000000E+00 0. -1.
         22    1    1    0    0    0  0.16057744399E+01  0.17314366035E+02 -0.24866008234E+02  0.30342777530E+02  0.00000000000E+00 0.  1.
</event>
<event>
 5    1  0.8943113E-005  0.9118800E+02  0.7818608E-02  0.1130116E+00
         25   -1    0    0    0    0  0.00000000000E+00  0.00000000000E+00  0.99999998245E-14  0.12500000000E+03  0.12500000000E+03 0.  0.
        -13    1    3    3    0    0  0.52234141306E+01 -0.52985326929E+02 -0.28330475926E+02  0.60310496227E+02  0.10566000000E+00 0.  1.
         23    2    1    0    0    0 -0.74737024316E+01 -0.28800217438E+02 -0.85316373058E+01  0.94046848502E+02  0.88807162580E+02 0.  0.
         13    1    3    3    0    0 -0.12697116562E+02  0.24185109490E+02  0.19798838621E+02  0.33736352275E+02  0.10566000000E+00 0. -1.
         22    1    1    0    0    0  0.74737024316E+01  0.28800217438E+02  0.85316373058E+01  0.30953151498E+02  0.00000000000E+00 0.  1.
</event>
<event>
 5    1  0.8943113E-005  0.9118800E+02  0.7818608E-02  0.1130116E+00
         25   -1    0    0    0    0  0.00000000000E+00  0.00000000000E+00  0.99999998245E-14  0.12500000000E+03  0.12500000000E+03 0.  0.
        -13    1    3    3    0    0  0.29097455406E+01 -0.52841658492E+02 -0.28061685361E+02  0.59901392643E+02  0.10566000000E+00 0.  1.
         23    2    1    0    0    0  0.85899689033E+01 -0.17991135777E+02 -0.21247973755E+02  0.95863340600E+02  0.91328172816E+02 0.  0.
         13    1    3    3    0    0  0.56802233627E+01  0.34850522715E+02  0.68137116055E+01  0.35961947957E+02  0.10566000000E+00 0. -1.
         22    1    1    0    0    0 -0.85899689033E+01  0.17991135777E+02  0.21247973755E+02  0.29136659400E+02  0.00000000000E+00 0.  1.
</event>
<event>
 5    1  0.8943113E-005  0.9118800E+02  0.7818608E-02  0.1130116E+00
         25   -1    0    0    0    0  0.00000000000E+00  0.00000000000E+00  0.99999998245E-14  0.12500000000E+03  0.12500000000E+03 0.  0.
        -13    1    3    3    0    0 -0.26619168480E+02 -0.24591036502E+02  0.14044990717E+02  0.38866079492E+02  0.10566000000E+00 0. -1.
         23    2    1    0    0    0  0.71679909752E+01  0.17064807060E+02  0.25282538852E+02  0.93666399737E+02  0.88270039846E+02 0.  0.
         13    1    3    3    0    0  0.33787159455E+02  0.41655843561E+02  0.11237548135E+02  0.54800320245E+02  0.10566000000E+00 0.  1.
         22    1    1    0    0    0 -0.71679909752E+01 -0.17064807060E+02 -0.25282538852E+02  0.31333600263E+02  0.00000000000E+00 0.  1.
</event>
<event>
 5    1  0.8943113E-005  0.9118800E+02  0.7818608E-02  0.1130116E+00
         25   -1    0    0    0    0  0.00000000000E+00  0.00000000000E+00  0.99999998245E-14  0.12500000000E+03  0.12500000000E+03 0.  0.
        -13    1    3    3    0    0 -0.10118555334E+02  0.30136259717E+02  0.16275322399E+02  0.35713815184E+02  0.10566000000E+00 0.  1.
         23    2    1    0    0    0  0.24343081406E+02 -0.54511526530E+01 -0.16479729138E+02  0.95102138036E+02  0.90280310749E+02 0.  0.
         13    1    3    3    0    0  0.34461636739E+02 -0.35587412370E+02 -0.32755051537E+02  0.59388322852E+02  0.10566000000E+00 0. -1.
         22    1    1    0    0    0 -0.24343081406E+02  0.54511526530E+01  0.16479729138E+02  0.29897861964E+02  0.00000000000E+00 0. -1.
</event>
<event>
 5    1  0.8943113E-005  0.9118800E+02  0.7818608E-02  0.1130116E+00
         25   -1    0    0    0    0  0.00000000000E+00  0.00000000000E+00  0.99999998245E-14  0.12500000000E+03  0.12500000000E+03 0.  0.
        -13    1    3    3    0    0  0.45579135449E+01 -0.34405895121E+02 -0.72365373098E+01  0.35453051085E+02  0.10566000000E+00 0.  1.
         23    2    1    0    0    0 -0.25389395505E+02  0.12097925775E+02 -0.17732006201E+02  0.91752364655E+02  0.85516613378E+02 0.  0.
         13    1    3    3    0    0 -0.29947309050E+02  0.46503820895E+02 -0.10495468891E+02  0.56299313570E+02  0.10566000000E+00 0. -1.
         22    1    1    0    0    0  0.25389395505E+02 -0.12097925775E+02  0.17732006201E+02  0.33247635345E+02  0.00000000000E+00 0. -1.
</event>
<event>
 5    1  0.8943113E-005  0.9118800E+02  0.7818608E-02  0.1130116E+00
         25   -1    0    0    0    0  0.00000000000E+00  0.00000000000E+00  0.99999998245E-14  0.12500000000E+03  0.12500000000E+03 0.  0.
        -13    1    3    3    0    0 -0.49469248104E+02 -0.43452646781E+01 -0.34067909801E+01  0.49776552933E+02  0.10566000000E+00 0.  1.
         23    2    1    0    0    0 -0.97767996532E+01 -0.43167314851E+01 -0.27006991843E+02  0.95955248485E+02  0.91453879750E+02 0.  0.
         13    1    3    3    0    0  0.39692448450E+02  0.28533193043E-01 -0.23600200863E+02  0.46178695552E+02  0.10566000000E+00 0. -1.
         22    1    1    0    0    0  0.97767996532E+01  0.43167314851E+01  0.27006991843E+02  0.29044751515E+02  0.00000000000E+00 0.  1.
</event>
<event>
 5    1  0.8943113E-005  0.9118800E+02  0.7818608E-02  0.1130116E+00
         25   -1    0    0    0    0  0.00000000000E+00  0.00000000000E+00  0.99999998245E-14  0.12500000000E+03  0.12500000000E+03 0.  0.
        -13    1    3    3    0    0  0.27815421172E+02 -0.32838302782E+02 -0.40246577175E+02  0.58922405949E+02  0.10566000000E+00 0. -1.
         23    2    1    0    0    0 -0.68139734235E+00 -0.15757412594E+02 -0.24912913747E+02  0.95514179249E+02  0.90849022077E+02 0.  0.
         13    1    3    3    0    0 -0.28496818515E+02  0.17080890188E+02  0.15333663428E+02  0.36591773300E+02  0.10566000000E+00 0.  1.
         22    1    1    0    0    0  0.68139734235E+00  0.15757412594E+02  0.24912913747E+02  0.29485820751E+02  0.00000000000E+00 0. -1.
</event>
<event>
 5    1  0.8943113E-005  0.9118800E+02  0.7818608E-02  0.1130116E+00
         25   -1    0    0    0    0  0.00000000000E+00  0.00000000000E+00  0.99999998245E-14  0.12500000000E+03  0.12500000000E+03 0.  0.
        -13    1    3    3    0    0 -0.28762379732E+02 -0.76838985136E+01 -0.49534938485E+02  0.57793062551E+02  0.10566000000E+00 0. -1.
         23    2    1    0    0    0 -0.89798936454E+01  0.13024176528E+02 -0.24526129920E+02  0.95814409155E+02  0.91261176240E+02 0.  0.
         13    1    3    3    0    0  0.19782486087E+02  0.20708075042E+02  0.25008808565E+02  0.38021346604E+02  0.10566000000E+00 0.  1.
         22    1    1    0    0    0  0.89798936454E+01 -0.13024176528E+02  0.24526129920E+02  0.29185590845E+02  0.00000000000E+00 0. -1.
</event>
<event>
 5    1  0.8943113E-005  0.9118800E+02  0.7818608E-02  0.1130116E+00
         25   -1    0    0    0    0  0.00000000000E+00  0.00000000000E+00  0.99999998245E-14  0.12500000000E+03  0.12500000000E+03 0.  0.
        -13    1    3    3    0    0  0.21723527092E+02 -0.18147880924E+02  0.29173454088E+02  0.40649216460E+02  0.10566000000E+00 0.  1.
         23    2    1    0    0    0 -0.16972706915E+02  0.18563830018E+02  0.14482325110E+02  0.95975418943E+02  0.91481444762E+02 0.  0.
         13    1    3    3    0    0 -0.38696234006E+02  0.36711710942E+02 -0.14691128978E+02  0.55326202483E+02  0.10566000000E+00 0. -1.
         22    1    1    0    0    0  0.16972706915E+02 -0.18563830018E+02 -0.14482325110E+02  0.29024581057E+02  0.00000000000E+00 0. -1.
</event>
<event>
 5    1  0.8943113E-005  0.9118800E+02  0.7818608E-02  0.1130116E+00
         25   -1    0    0    0    0  0.00000000000E+00  0.00000000000E+00  0.99999998245E-14  0.12500000000E+03  0.12500000000E+03 0.  0.
        -13    1    3    3    0    0  0.18688163080E+02  0.25850583332E+02  0.30801726025E+02  0.44342503178E+02  0.10566000000E+00 0. -1.
         23    2    1    0    0    0  0.21192413489E+02  0.14185996631E+02 -0.17483702925E+02  0.94080091238E+02  0.88853940877E+02 0.  0.
         13    1    3    3    0    0  0.25042504086E+01 -0.11664586701E+02 -0.48285428950E+02  0.49737588060E+02  0.10566000000E+00 0.  1.
         22    1    1    0    0    0 -0.21192413489E+02 -0.14185996631E+02  0.17483702925E+02  0.30919908762E+02  0.00000000000E+00 0.  1.
</event>
<event>
 5    1  0.8943113E-005  0.9118800E+02  0.7818608E-02  0.1130116E+00
         25   -1    0    0    0    0  0.00000000000E+00  0.00000000000E+00  0.99999998245E-14  0.12500000000E+03  0.12500000000E+03 0.  0.
        -13    1    3    3    0    0 -0.95998770581E+01 -0.34295645936E+00  0.41610232299E+02  0.42704775549E+02  0.10566000000E+00 0. -1.
         23    2    1    0    0    0 -0.18172354444E+02  0.24641518187E+02 -0.26711976201E+01  0.94266074424E+02  0.89115198513E+02 0.  0.
         13    1    3    3    0    0 -0.85724773863E+01  0.24984474646E+02 -0.44281429920E+02  0.51561298875E+02  0.10566000000E+00 0.  1.
         22    1    1    0    0    0  0.18172354444E+02 -0.24641518187E+02  0.26711976201E+01  0.30733925576E+02  0.00000000000E+00 0.  1.
</event>
<event>
 5    1  0.8943113E-005  0.9118800E+02  0.7818608E-02  0.1130116E+00
         25   -1    0    0    0    0  0.00000000000E+00  0.00000000000E+00  0.99999998245E-14  0.12500000000E+03  0.12500000000E+03 0.  0.
        -13    1    3    3    0    0 -0.10397888143E+02  0.37288753029E+02  0.16290198427E+02  0.41999391771E+02  0.10566000000E+00 0.  1.
         23    2    1    0    0    0  0.25096731521E+02  0.76228496026E+01 -0.11928061119E+02  0.96186246146E+02  0.91769066338E+02 0.  0.
         13    1    3    3    0    0  0.35494619664E+02 -0.29665903426E+02 -0.28218259546E+02  0.54186854375E+02  0.10566000000E+00 0. -1.
         22    1    1    0    0    0 -0.25096731521E+02 -0.76228496026E+01  0.11928061119E+02  0.28813753854E+02  0.00000000000E+00 0. -1.
</event>
<event>
 5    1  0.8943113E-005  0.9118800E+02  0.7818608E-02  0.1130116E+00
         25   -1    0    0    0    0  0.00000000000E+00  0.00000000000E+00  0.99999998245E-14  0.12500000000E+03  0.12500000000E+03 0.  0.
        -13    1    3    3    0    0  0.36087025116E+02 -0.94169532053E+01  0.17489578743E+02  0.41192826051E+02  0.10566000000E+00 0. -1.
         23    2    1    0    0    0  0.21649939177E+02  0.31687299377E+02  0.90855492655E+01  0.85562048562E+02  0.75930969574E+02 0.  0.
         13    1    3    3    0    0 -0.14437085939E+02  0.41104252582E+02 -0.84040294773E+01  0.44369222511E+02  0.10566000000E+00 0.  1.
         22    1    1    0    0    0 -0.21649939177E+02 -0.31687299377E+02 -0.90855492655E+01  0.39437951438E+02  0.00000000000E+00 0. -1.
</event>
<event>
 5    1  0.8943113E-005  0.9118800E+02  0.7818608E-02  0.1130116E+00
         25   -1    0    0    0    0  0.00000000000E+00  0.00000000000E+00  0.99999998245E-14  0.12500000000E+03  0.12500000000E+03 0.  0.
        -13    1    3    3    0    0  0.20081861040E+02  0.12403341707E+02  0.34727328942E+02  0.41989553080E+02  0.10566000000E+00 0.  1.
         23    2    1    0    0    0 -0.20056885862E+02  0.22359397287E+02  0.16993663685E+01  0.94914967782E+02  0.90020786186E+02 0.  0.
         13    1    3    3    0    0 -0.40138746902E+02  0.99560555796E+01 -0.33027962574E+02  0.52925414702E+02  0.10566000000E+00 0. -1.
         22    1    1    0    0    0  0.20056885862E+02 -0.22359397287E+02 -0.16993663685E+01  0.30085032218E+02  0.00000000000E+00 0. -1.
</event>
<event>
 5    1  0.8943113E-005  0.9118800E+02  0.7818608E-02  0.1130116E+00
         25   -1    0    0    0    0  0.00000000000E+00  0.00000000000E+00  0.99999998245E-14  0.12500000000E+03  0.12500000000E+03 0.  0.
        -13    1    3    3    0    0 -0.11316986865E+02 -0.38557738504E+02  0.45548335674E+02  0.60740723052E+02  0.10566000000E+00 0. -1.
         23    2    1    0    0    0 -0.51502904696E+01 -0.90051711952E+01  0.26761204715E+02  0.96298420288E+02  0.91921733404E+02 0.  0.
         13    1    3    3    0    0  0.61666963954E+01  0.29552567309E+02 -0.18787130958E+02  0.35557697235E+02  0.10566000000E+00 0.  1.
         22    1    1    0    0    0  0.51502904696E+01  0.90051711952E+01 -0.26761204715E+02  0.28701579712E+02  0.00000000000E+00 0. -1.
</event>
<event>
 5    1  0.8943113E-005  0.9118800E+02  0.7818608E-02  0.1130116E+00
         25   -1    0    0    0    0  0.00000000000E+00  0.00000000000E+00  0.99999998245E-14  0.12500000000E+03  0.12500000000E+03 0.  0.
        -13    1    3    3    0    0  0.18762828382E+02  0.36166222587E+02 -0.77821098541E+01  0.41480257749E+02  0.10566000000E+00 0. -1.
         23    2    1    0    0    0  0.10344427827E+02 -0.37504258938E+01  0.27477582445E+02  0.95401175387E+02  0.90693405752E+02 0.  0.
         13    1    3    3    0    0 -0.84184005547E+01 -0.39916648481E+02  0.35259692299E+02  0.53920917638E+02  0.10566000000E+00 0.  1.
         22    1    1    0    0    0 -0.10344427827E+02  0.37504258938E+01 -0.27477582445E+02  0.29598824613E+02  0.00000000000E+00 0.  1.
</event>
<event>
 5    1  0.8943113E-005  0.9118800E+02  0.7818608E-02  0.1130116E+00
         25   -1    0    0    0    0  0.00000000000E+00  0.00000000000E+00  0.99999998245E-14  0.12500000000E+03  0.12500000000E+03 0.  0.
        -13    1    3    3    0    0 -0.51260905555E+02 -0.31419970719E+02 -0.12862895055E+02  0.61484634109E+02  0.10566000000E+00 0. -1.
         23    2    1    0    0    0 -0.21216499000E+02 -0.16324239772E+02 -0.13293656107E+02  0.95111173883E+02  0.90292820705E+02 0.  0.
         13    1    3    3    0    0  0.30044406555E+02  0.15095730947E+02 -0.43076105240E+00  0.33626539774E+02  0.10566000000E+00 0.  1.
         22    1    1    0    0    0  0.21216499000E+02  0.16324239772E+02  0.13293656107E+02  0.29888826117E+02  0.00000000000E+00 0. -1.
</event>
<event>
 5    1  0.8943113E-005  0.9118800E+02  0.7818608E-02  0.1130116E+00
         25   -1    0    0    0    0  0.00000000000E+00  0.00000000000E+00  0.99999998245E-14  0.12500000000E+03  0.12500000000E+03 0.  0.
        -13    1    3    3    0    0  0.11000217452E+02 -0.37232350550E+02 -0.34523350254E+02  0.51953109515E+02  0.10566000000E+00 0. -1.
         23    2    1    0    0    0  0.22308363388E+02  0.21902400967E+01 -0.18319635855E+02  0.96050573639E+02  0.91584078364E+02 0.  0.
         13    1    3    3    0    0  0.11308145937E+02  0.39422590647E+02  0.16203714399E+02  0.44097464124E+02  0.10566000000E+00 0.  1.
         22    1    1    0    0    0 -0.22308363388E+02 -0.21902400967E+01  0.18319635855E+02  0.28949426361E+02  0.00000000000E+00 0.  1.
</event>
<event>
 5    1  0.8943113E-005  0.9118800E+02  0.7818608E-02  0.1130116E+00
         25   -1    0    0    0    0  0.00000000000E+00  0.00000000000E+00  0.99999998245E-14  0.12500000000E+03  0.12500000000E+03 0.  0.
        -13    1    3    3    0    0  0.41561619739E+02  0.16028581004E+02 -0.14023445539E+02  0.46700662021E+02  0.10566000000E+00 0.  1.
         23    2    1    0    0    0 -0.19504795558E+01  0.28828113894E+02  0.46206413440E+01  0.95738850884E+02  0.91157625688E+02 0.  0.
         13    1    3    3    0    0 -0.43512099295E+02  0.12799532889E+02  0.18644086883E+02  0.49038188863E+02  0.10566000000E+00 0. -1.
         22    1    1    0    0    0  0.19504795558E+01 -0.28828113894E+02 -0.46206413440E+01  0.29261149116E+02  0.00000000000E+00 0.  1.
</event>
<event>
 5    1  0.8943113E-005  0.9118800E+02  0.7818608E-02  0.1130116E+00
         25   -1    0    0    0    0  0.00000000000E+00  0.00000000000E+00  0.99999998245E-14  0.12500000000E+03  0.12500000000E+03 0.  0.
        -13    1    3    3    0    0 -0.49118848206E+00  0.46019393451E+02 -0.21883502299E+02  0.50960030186E+02  0.10566000000E+00 0. -1.
         23    2    1    0    0    0  0.23555371725E+02  0.89619391077E+01 -0.15006661944E+02  0.95667905080E+02  0.91060289205E+02 0.  0.
         13    1    3    3    0    0  0.24046560208E+02 -0.37057454343E+02  0.68768403556E+01  0.44707874894E+02  0.10566000000E+00 0.  1.
         22    1    1    0    0    0 -0.23555371725E+02 -0.89619391077E+01  0.15006661944E+02  0.29332094920E+02  0.00000000000E+00 0.  1.
</event>
<event>
 5    1  0.8943113E-005  0.9118800E+02  0.7818608E-02  0.1130116E+00
         25   -1    0    0    0    0  0.00000000000E+00  0.00000000000E+00  0.99999998245E-14  0.12500000000E+03  0.12500000000E+03 0.  0.
        -13    1    3    3    0    0 -0.13524635680E+02 -0.21791734552E+02  0.26431657485E+02  0.36829867587E+02  0.10566000000E+00 0.  1.
         23    2    1    0    0    0  0.24378104973E+02 -0.86456573608E+01 -0.15486827621E+02  0.94852342993E+02  0.89933785354E+02 0.  0.
         13    1    3    3    0    0  0.37902740654E+02  0.13146077191E+02 -0.41918485106E+02  0.58022475405E+02  0.10566000000E+00 0. -1.
         22    1    1    0    0    0 -0.24378104973E+02  0.86456573608E+01  0.15486827621E+02  0.30147657007E+02  0.00000000000E+00 0. -1.
</event>
<event>
 5    1  0.8943113E-005  0.9118800E+02  0.7818608E-02  0.1130116E+00
         25   -1    0    0    0    0  0.00000000000E+00  0.00000000000E+00  0.99999998245E-14  0.12500000000E+03  0.12500000000E+03 0.  0.
        -13    1    3    3    0    0  0.12497553269E+02 -0.70629682519E+01 -0.45324571272E+02  0.47543688153E+02  0.10566000000E+00 0. -1.
         23    2    1    0    0    0 -0.19227949319E+01  0.25828000856E+02 -0.12319390392E+02  0.96319864921E+02  0.91950890317E+02 0.  0.
         13    1    3    3    0    0 -0.14420348201E+02  0.32890969108E+02  0.33005180880E+02  0.48776176767E+02  0.10566000000E+00 0.  1.
         22    1    1    0    0    0  0.19227949319E+01 -0.25828000856E+02  0.12319390392E+02  0.28680135079E+02  0.00000000000E+00 0.  1.
</event>
<event>
 5    1  0.8943113E-005  0.9118800E+02  0.7818608E-02  0.1130116E+00
         25   -1    0    0    0    0  0.00000000000E+00  0.00000000000E+00  0.99999998245E-14  0.12500000000E+03  0.12500000000E+03 0.  0.
        -13    1    3    3    0    0 -0.13252211216E+01 -0.22139064224E+02 -0.40426676552E+02  0.46110971762E+02  0.10566000000E+00 0. -1.
         23    2    1    0    0    0  0.13416743000E+02 -0.28928066582E+02  0.34811791062E+01  0.92922583694E+02  0.87210354452E+02 0.  0.
         13    1    3    3    0    0  0.14741964121E+02 -0.67890023572E+01  0.43907855658E+02  0.46811611932E+02  0.10566000000E+00 0.  1.
         22    1    1    0    0    0 -0.13416743000E+02  0.28928066582E+02 -0.34811791062E+01  0.32077416306E+02  0.00000000000E+00 0. -1.
</event>
<event>
 5    1  0.8943113E-005  0.9118800E+02  0.7818608E-02  0.1130116E+00
         25   -1    0    0    0    0  0.00000000000E+00  0.00000000000E+00  0.99999998245E-14  0.12500000000E+03  0.12500000000E+03 0.  0.
        -13    1    3    3    0    0 -0.27374631238E+02  0.77465338209E+01 -0.28720234111E+02  0.40425761998E+02  0.10566000000E+00 0. -1.
         23    2    1    0    0    0 -0.90099781745E+00  0.23434018802E+02  0.17350089651E+02  0.95828256048E+02  0.91280140294E+02 0.  0.
         13    1    3    3    0    0  0.26473633420E+02  0.15687484981E+02  0.46070323762E+02  0.55402494051E+02  0.10566000000E+00 0.  1.
         22    1    1    0    0    0  0.90099781745E+00 -0.23434018802E+02 -0.17350089651E+02  0.29171743952E+02  0.00000000000E+00 0.  1.
</event>
<event>
 5    1  0.8943113E-005  0.9118800E+02  0.7818608E-02  0.1130116E+00
         25   -1    0    0    0    0  0.00000000000E+00  0.00000000000E+00  0.99999998245E-14  0.12500000000E+03  0.12500000000E+03 0.  0.
        -13    1    3    3    0    0  0.24766337313E+01  0.48349259151E+02 -0.56336234347E+01  0.48739444520E+02  0.10566000000E+00 0. -1.
         23    2    1    0    0    0  0.20924064548E+02  0.47290401792E+01 -0.17213968471E+02  0.97495436583E+02  0.93535336348E+02 0.  0.
         13    1    3    3    0    0  0.18447430817E+02 -0.43620218971E+02 -0.11580345036E+02  0.48755992063E+02  0.10566000000E+00 0.  1.
         22    1    1    0    0    0 -0.20924064548E+02 -0.47290401792E+01  0.17213968471E+02  0.27504563417E+02  0.00000000000E+00 0. -1.
</event>
<event>
 5    1  0.8943113E-005  0.9118800E+02  0.7818608E-02  0.1130116E+00
         25   -1    0    0    0    0  0.00000000000E+00  0.00000000000E+00  0.99999998245E-14  0.12500000000E+03  0.12500000000E+03 0.  0.
        -13    1    3    3    0    0 -0.30135351556E+02 -0.45632381803E+02 -0.11217750747E+02  0.55823854922E+02  0.10566000000E+00 0. -1.
         23    2    1    0    0    0 -0.22366646811E+02 -0.52265008266E+01 -0.15647097786E+02  0.97207647282E+02  0.93149942676E+02 0.  0.
         13    1    3    3    0    0  0.77687047452E+01  0.40405880977E+02 -0.44293470388E+01  0.41383792361E+02  0.10566000000E+00 0.  1.
         22    1    1    0    0    0  0.22366646811E+02  0.52265008266E+01  0.15647097786E+02  0.27792352718E+02  0.00000000000E+00 0. -1.
</event>
<event>
 5    1  0.8943113E-005  0.9118800E+02  0.7818608E-02  0.1130116E+00
         25   -1    0    0    0    0  0.00000000000E+00  0.00000000000E+00  0.99999998245E-14  0.12500000000E+03  0.12500000000E+03 0.  0.
        -13    1    3    3    0    0  0.99687484464E+01 -0.37318934238E+02  0.48177764862E+02  0.61751008003E+02  0.10566000000E+00 0.  1.
         23    2    1    0    0    0  0.79531895612E+01 -0.12006049209E+02  0.25088355453E+02  0.96072089236E+02  0.91613439565E+02 0.  0.
         13    1    3    3    0    0 -0.20155588852E+01  0.25312885029E+02 -0.23089409409E+02  0.34321081233E+02  0.10566000000E+00 0. -1.
         22    1    1    0    0    0 -0.79531895612E+01  0.12006049209E+02 -0.25088355453E+02  0.28927910764E+02  0.00000000000E+00 0.  1.
</event>
<event>
 5    1  0.8943113E-005  0.9118800E+02  0.7818608E-02  0.1130116E+00
         25   -1    0    0    0    0  0.00000000000E+00  0.00000000000E+00  0.99999998245E-14  0.12500000000E+03  0.12500000000E+03 0.  0.
        -13    1    3    3    0    0  0.36085283538E+02 -0.42411141662E+01  0.32456548442E+02  0.48719333310E+02  0.10566000000E+00 0. -1.
         23    2    1    0    0    0  0.11749496661E+02 -0.28302333650E+02  0.24086374646E+01  0.94261192341E+02  0.89108350256E+02 0.  0.
         13    1    3    3    0    0 -0.24335786876E+02 -0.24061219484E+02 -0.30047910977E+02  0.45541859032E+02  0.10566000000E+00 0.  1.
         22    1    1    0    0    0 -0.11749496661E+02  0.28302333650E+02 -0.24086374646E+01  0.30738807659E+02  0.00000000000E+00 0. -1.
</event>
<event>
 5    1  0.8943113E-005  0.9118800E+02  0.7818608E-02  0.1130116E+00
         25   -1    0    0    0    0  0.00000000000E+00  0.00000000000E+00  0.99999998245E-14  0.12500000000E+03  0.12500000000E+03 0.  0.
        -13    1    3    3    0    0 -0.13718134185E+02  0.33632512569E+02 -0.44755610250E+02  0.57640341082E+02  0.10566000000E+00 0. -1.
         23    2    1    0    0    0 -0.21869183231E+02  0.90359226181E+01 -0.15542736731E+02  0.96689476553E+02  0.92451982879E+02 0.  0.
         13    1    3    3    0    0 -0.81510490460E+01 -0.24596589951E+02  0.29212873519E+02  0.39049135471E+02  0.10566000000E+00 0.  1.
         22    1    1    0    0    0  0.21869183231E+02 -0.90359226181E+01  0.15542736731E+02  0.28310523447E+02  0.00000000000E+00 0. -1.
</event>
<event>
 5    1  0.8943113E-005  0.9118800E+02  0.7818608E-02  0.1130116E+00
         25   -1    0    0    0    0  0.00000000000E+00  0.00000000000E+00  0.99999998245E-14  0.12500000000E+03  0.12500000000E+03 0.  0.
        -13    1    3    3    0    0 -0.34685369152E+02  0.37269987915E+02 -0.71023286150E+01  0.51406041164E+02  0.10566000000E+00 0.  1.
         23    2    1    0    0    0 -0.24942608144E+02  0.41340968376E+01  0.17880714949E+02  0.94033172187E+02  0.88787910477E+02 0.  0.
         13    1    3    3    0    0  0.97427610077E+01 -0.33135891077E+02  0.24983043564E+02  0.42627131023E+02  0.10566000000E+00 0. -1.
         22    1    1    0    0    0  0.24942608144E+02 -0.41340968376E+01 -0.17880714949E+02  0.30966827813E+02  0.00000000000E+00 0.  1.
</event>
<event>
 5    1  0.8943113E-005  0.9118800E+02  0.7818608E-02  0.1130116E+00
         25   -1    0    0    0    0  0.00000000000E+00  0.00000000000E+00  0.99999998245E-14  0.12500000000E+03  0.12500000000E+03 0.  0.
        -13    1    3    3    0    0  0.28258828741E+02 -0.50669754898E+02  0.17677834755E+02  0.60650659262E+02  0.10566000000E+00 0. -1.
         23    2    1    0    0    0  0.50470252714E+01 -0.26871924171E+02  0.14514725636E+02  0.94044386082E+02  0.88803696547E+02 0.  0.
         13    1    3    3    0    0 -0.23211803469E+02  0.23797830727E+02 -0.31631091188E+01  0.33393726820E+02  0.10566000000E+00 0.  1.
         22    1    1    0    0    0 -0.50470252714E+01  0.26871924171E+02 -0.14514725636E+02  0.30955613918E+02  0.00000000000E+00 0. -1.
</event>
<event>
 5    1  0.8943113E-005  0.9118800E+02  0.7818608E-02  0.1130116E+00
         25   -1    0    0    0    0  0.00000000000E+00  0.00000000000E+00  0.99999998245E-14  0.12500000000E+03  0.12500000000E+03 0.  0.
        -13    1    3    3    0    0 -0.39537797498E+02 -0.12522816783E+02  0.38332816710E+02  0.56475431579E+02  0.10566000000E+00 0. -1.
         23    2    1    0    0    0 -0.29202568026E+02 -0.77664163248E+01  0.18113893886E+01  0.94728093332E+02  0.89760923196E+02 0.  0.
         13    1    3    3    0    0  0.10335229472E+02  0.47564004579E+01 -0.36521427321E+02  0.38252661753E+02  0.10566000000E+00 0.  1.
         22    1    1    0    0    0  0.29202568026E+02  0.77664163248E+01 -0.18113893886E+01  0.30271906668E+02  0.00000000000E+00 0. -1.
</event>
<event>
 5    1  0.8943113E-005  0.9118800E+02  0.7818608E-02  0.1130116E+00
         25   -1    0    0    0    0  0.00000000000E+00  0.00000000000E+00  0.99999998245E-14  0.12500000000E+03  0.12500000000E+03 0.  0.
        -13    1    3    3    0    0 -0.24298598808E+02 -0.39611512299E+02  0.25506710199E+02  0.53010350309E+02  0.10566000000E+00 0. -1.
         23    2    1    0    0    0 -0.22958461922E+02 -0.13556507096E+02 -0.95230452994E+01  0.96688195921E+02  0.92450251380E+02 0.  0.
         13    1    3    3    0    0  0.13401368860E+01  0.26055005203E+02 -0.35029755498E+02  0.43677845612E+02  0.10566000000E+00 0.  1.
         22    1    1    0    0    0  0.22958461922E+02  0.13556507096E+02  0.95230452994E+01  0.28311804079E+02  0.00000000000E+00 0. -1.
</event>
<event>
 5    1  0.8943113E-005  0.9118800E+02  0.7818608E-02  0.1130116E+00
         25   -1    0    0    0    0  0.00000000000E+00  0.00000000000E+00  0.99999998245E-14  0.12500000000E+03  0.12500000000E+03 0.  0.
        -13    1    3    3    0    0 -0.45589278363E+02 -0.27959040184E+02 -0.19694182671E+02  0.56990895982E+02  0.10566000000E+00 0.  1.
         23    2    1    0    0    0 -0.98702113721E+01 -0.26580657216E+02 -0.28607646533E+01  0.96501993316E+02  0.92198147101E+02 0.  0.
         13    1    3    3    0    0  0.35719066991E+02  0.13783829682E+01  0.16833418017E+02  0.39511097334E+02  0.10566000000E+00 0. -1.
         22    1    1    0    0    0  0.98702113721E+01  0.26580657216E+02  0.28607646533E+01  0.28498006684E+02  0.00000000000E+00 0.  1.
</event>
<event>
 5    1  0.8943113E-005  0.9118800E+02  0.7818608E-02  0.1130116E+00
         25   -1    0    0    0    0  0.00000000000E+00  0.00000000000E+00  0.99999998245E-14  0.12500000000E+03  0.12500000000E+03 0.  0.
        -13    1    3    3    0    0 -0.54289080701E+01 -0.42110748312E+02 -0.31321394713E+02  0.52762004293E+02  0.10566000000E+00 0. -1.
         23    2    1    0    0    0 -0.25362845963E+02 -0.13262032313E+02 -0.67095075023E+01  0.95603181340E+02  0.90971398444E+02 0.  0.
         13    1    3    3    0    0 -0.19933937893E+02  0.28848715999E+02  0.24611887210E+02  0.42841177047E+02  0.10566000000E+00 0.  1.
         22    1    1    0    0    0  0.25362845963E+02  0.13262032313E+02  0.67095075023E+01  0.29396818660E+02  0.00000000000E+00 0. -1.
</event>
<event>
 5    1  0.8943113E-005  0.9118800E+02  0.7818608E-02  0.1130116E+00
         25   -1    0    0    0    0  0.00000000000E+00  0.00000000000E+00  0.99999998245E-14  0.12500000000E+03  0.12500000000E+03 0.  0.
        -13    1    3    3    0    0  0.45585433486E+02 -0.19420696931E+02  0.30325810747E+02  0.58093555382E+02  0.10566000000E+00 0. -1.
         23    2    1    0    0    0  0.20198451795E+02  0.71988153304E+01  0.18346232392E+02  0.96779712261E+02  0.92573905963E+02 0.  0.
         13    1    3    3    0    0 -0.25386981691E+02  0.26619512262E+02 -0.11979578355E+02  0.38686156879E+02  0.10566000000E+00 0.  1.
         22    1    1    0    0    0 -0.20198451795E+02 -0.71988153304E+01 -0.18346232392E+02  0.28220287739E+02  0.00000000000E+00 0. -1.
</event>
<event>
 5    1  0.8943113E-005  0.9118800E+02  0.7818608E-02  0.1130116E+00
         25   -1    0    0    0    0  0.00000000000E+00  0.00000000000E+00  0.99999998245E-14  0.12500000000E+03  0.12500000000E+03 0.  0.
        -13    1    3    3    0    0  0.32679056805E+02  0.15734644332E+02  0.21798691610E+02  0.42316591378E+02  0.10566000000E+00 0. -1.
         23    2    1    0    0    0  0.23427687924E+01 -0.26601952708E+02  0.13566580809E+02  0.95046626762E+02  0.90203418397E+02 0.  0.
         13    1    3    3    0    0 -0.30336288012E+02 -0.42336597041E+02 -0.82321108013E+01  0.52730035384E+02  0.10566000000E+00 0.  1.
         22    1    1    0    0    0 -0.23427687924E+01  0.26601952708E+02 -0.13566580809E+02  0.29953373238E+02  0.00000000000E+00 0.  1.
</event>
<event>
 5    1  0.8943113E-005  0.9118800E+02  0.7818608E-02  0.1130116E+00
         25   -1    0    0    0    0  0.00000000000E+00  0.00000000000E+00  0.99999998245E-14  0.12500000000E+03  0.12500000000E+03 0.  0.
        -13    1    3    3    0    0 -0.56693022314E+01 -0.52321120535E+02  0.45348441166E+01  0.52822501049E+02  0.10566000000E+00 0. -1.
         23    2    1    0    0    0 -0.14400334338E+02 -0.22362503695E+02 -0.19340590889E+02  0.92113685879E+02  0.86043137261E+02 0.  0.
         13    1    3    3    0    0 -0.87310321068E+01  0.29958616840E+02 -0.23875435005E+02  0.39291184830E+02  0.10566000000E+00 0.  1.
         22    1    1    0    0    0  0.14400334338E+02  0.22362503695E+02  0.19340590889E+02  0.32886314121E+02  0.00000000000E+00 0. -1.
</event>
<event>
 5    1  0.8943113E-005  0.9118800E+02  0.7818608E-02  0.1130116E+00
         25   -1    0    0    0    0  0.00000000000E+00  0.00000000000E+00  0.99999998245E-14  0.12500000000E+03  0.12500000000E+03 0.  0.
        -13    1    3    3    0    0  0.35171975984E+02  0.10885851591E+02 -0.33172292848E+02  0.49557863516E+02  0.10566000000E+00 0.  1.
         23    2    1    0    0    0 -0.34019380853E+01 -0.15065234587E+02 -0.23236780669E+02  0.97098701611E+02  0.93003631127E+02 0.  0.
         13    1    3    3    0    0 -0.38573914070E+02 -0.25951086178E+02  0.99355121787E+01  0.47540838095E+02  0.10566000000E+00 0. -1.
         22    1    1    0    0    0  0.34019380853E+01  0.15065234587E+02  0.23236780669E+02  0.27901298389E+02  0.00000000000E+00 0.  1.
</event>
<event>
 5    1  0.8943113E-005  0.9118800E+02  0.7818608E-02  0.1130116E+00
         25   -1    0    0    0    0  0.00000000000E+00  0.00000000000E+00  0.99999998245E-14  0.12500000000E+03  0.12500000000E+03 0.  0.
        -13    1    3    3    0    0  0.17153787347E+02  0.24817528540E+02 -0.17101612894E+02  0.34679078287E+02  0.10566000000E+00 0. -1.
         23    2    1    0    0    0  0.17585950436E+02 -0.16863654571E+02 -0.36865295098E+02  0.80810651952E+02  0.67658428802E+02 0.  0.
         13    1    3    3    0    0  0.43216308889E+00 -0.41681183112E+02 -0.19763682204E+02  0.46131573665E+02  0.10566000000E+00 0.  1.
         22    1    1    0    0    0 -0.17585950436E+02  0.16863654571E+02  0.36865295098E+02  0.44189348048E+02  0.00000000000E+00 0.  1.
</event>
<event>
 5    1  0.8943113E-005  0.9118800E+02  0.7818608E-02  0.1130116E+00
         25   -1    0    0    0    0  0.00000000000E+00  0.00000000000E+00  0.99999998245E-14  0.12500000000E+03  0.12500000000E+03 0.  0.
        -13    1    3    3    0    0 -0.20065073843E+01 -0.27148614996E+02  0.35412891179E+02  0.44667184753E+02  0.10566000000E+00 0.  1.
         23    2    1    0    0    0 -0.15862975606E+02 -0.36884915795E+02 -0.10112565340E+01  0.84835915944E+02  0.74726026162E+02 0.  0.
         13    1    3    3    0    0 -0.13856468222E+02 -0.97363007987E+01 -0.36424147713E+02  0.40168731191E+02  0.10566000000E+00 0. -1.
         22    1    1    0    0    0  0.15862975606E+02  0.36884915795E+02  0.10112565340E+01  0.40164084056E+02  0.00000000000E+00 0.  1.
</event>
<event>
 5    1  0.8943113E-005  0.9118800E+02  0.7818608E-02  0.1130116E+00
         25   -1    0    0    0    0  0.00000000000E+00  0.00000000000E+00  0.99999998245E-14  0.12500000000E+03  0.12500000000E+03 0.  0.
        -13    1    3    3    0    0  0.25078451859E+02  0.20592898365E+02  0.50469773164E+02  0.60001711459E+02  0.10566000000E+00 0.  1.
         23    2    1    0    0    0  0.23128142205E+02  0.15345444927E+02  0.20489050373E+02  0.90500799617E+02  0.83667197301E+02 0.  0.
         13    1    3    3    0    0 -0.19503096538E+01 -0.52474534379E+01 -0.29980722791E+02  0.30499088158E+02  0.10566000000E+00 0. -1.
         22    1    1    0    0    0 -0.23128142205E+02 -0.15345444927E+02 -0.20489050373E+02  0.34499200383E+02  0.00000000000E+00 0.  1.
</event>
<event>
 5    1  0.8943113E-005  0.9118800E+02  0.7818608E-02  0.1130116E+00
         25   -1    0    0    0    0  0.00000000000E+00  0.00000000000E+00  0.99999998245E-14  0.12500000000E+03  0.12500000000E+03 0.  0.
        -13    1    3    3    0    0  0.10783225642E+02  0.52484009166E+02  0.16344885911E+02  0.56017993831E+02  0.10566000000E+00 0.  1.
         23    2    1    0    0    0  0.23220933071E+02  0.18447454709E+02  0.11263762421E+01  0.95321909742E+02  0.90584090411E+02 0.  0.
         13    1    3    3    0    0  0.12437707428E+02 -0.34036554457E+02 -0.15218509669E+02  0.39303915911E+02  0.10566000000E+00 0. -1.
         22    1    1    0    0    0 -0.23220933071E+02 -0.18447454709E+02 -0.11263762421E+01  0.29678090258E+02  0.00000000000E+00 0.  1.
</event>
<event>
 5    1  0.8943113E-005  0.9118800E+02  0.7818608E-02  0.1130116E+00
         25   -1    0    0    0    0  0.00000000000E+00  0.00000000000E+00  0.99999998245E-14  0.12500000000E+03  0.12500000000E+03 0.  0.
        -13    1    3    3    0    0  0.34903984849E+02 -0.28204627096E+02  0.16716075060E+02  0.47887654750E+02  0.10566000000E+00 0.  1.
         23    2    1    0    0    0  0.60288055762E+01  0.73520991150E+01  0.28309318311E+02  0.95136688708E+02  0.90328136132E+02 0.  0.
         13    1    3    3    0    0 -0.28875179273E+02  0.35556726211E+02  0.11593243251E+02  0.47249033959E+02  0.10566000000E+00 0. -1.
         22    1    1    0    0    0 -0.60288055762E+01 -0.73520991150E+01 -0.28309318311E+02  0.29863311292E+02  0.00000000000E+00 0. -1.
</event>
<event>
 5    1  0.8943113E-005  0.9118800E+02  0.7818608E-02  0.1130116E+00
         25   -1    0    0    0    0  0.00000000000E+00  0.00000000000E+00  0.99999998245E-14  0.12500000000E+03  0.12500000000E+03 0.  0.
        -13    1    3    3    0    0  0.59141662680E+02  0.11148407963E+02  0.89107548337E+01  0.60839427844E+02  0.10566000000E+00 0. -1.
         23    2    1    0    0    0  0.27889440911E+02 -0.49333819074E+01  0.24911244662E+01  0.96568241833E+02  0.92287921519E+02 0.  0.
         13    1    3    3    0    0 -0.31252221769E+02 -0.16081789871E+02 -0.64196303674E+01  0.35728813989E+02  0.10566000000E+00 0.  1.
         22    1    1    0    0    0 -0.27889440911E+02  0.49333819074E+01 -0.24911244662E+01  0.28431758167E+02  0.00000000000E+00 0. -1.
</event>
<event>
 5    1  0.8943113E-005  0.9118800E+02  0.7818608E-02  0.1130116E+00
         25   -1    0    0    0    0  0.00000000000E+00  0.00000000000E+00  0.99999998245E-14  0.12500000000E+03  0.12500000000E+03 0.  0.
        -13    1    3    3    0    0 -0.28660753506E+02 -0.10667668240E+02  0.45430384073E+02  0.54764668339E+02  0.10566000000E+00 0.  1.
         23    2    1    0    0    0 -0.83784341757E+01 -0.25913783840E+02  0.16890817437E+02  0.92952815009E+02  0.87253674721E+02 0.  0.
         13    1    3    3    0    0  0.20282319330E+02 -0.15246115600E+02 -0.28539566636E+02  0.38188146671E+02  0.10566000000E+00 0. -1.
         22    1    1    0    0    0  0.83784341757E+01  0.25913783840E+02 -0.16890817437E+02  0.32047184991E+02  0.00000000000E+00 0.  1.
</event>
<event>
 5    1  0.8943113E-005  0.9118800E+02  0.7818608E-02  0.1130116E+00
         25   -1    0    0    0    0  0.00000000000E+00  0.00000000000E+00  0.99999998245E-14  0.12500000000E+03  0.12500000000E+03 0.  0.
        -13    1    3    3    0    0 -0.13715402078E+02 -0.31646221217E+02 -0.23158580149E+02  0.41544272410E+02  0.10566000000E+00 0.  1.
         23    2    1    0    0    0 -0.12351542603E+02 -0.12072337849E+02  0.25608937968E+02  0.94111172738E+02  0.88897655674E+02 0.  0.
         13    1    3    3    0    0  0.13638594749E+01  0.19573883368E+02  0.48767518117E+02  0.52566900328E+02  0.10566000000E+00 0. -1.
         22    1    1    0    0    0  0.12351542603E+02  0.12072337849E+02 -0.25608937968E+02  0.30888827262E+02  0.00000000000E+00 0. -1.
</event>
<event>
 5    1  0.8943113E-005  0.9118800E+02  0.7818608E-02  0.1130116E+00
         25   -1    0    0    0    0  0.00000000000E+00  0.00000000000E+00  0.99999998245E-14  0.12500000000E+03  0.12500000000E+03 0.  0.
        -13    1    3    3    0    0 -0.26551751128E+02  0.92034597916E+01 -0.35730086662E-01  0.28101807785E+02  0.10566000000E+00 0.  1.
         23    2    1    0    0    0  0.33086403055E+02  0.84033851481E+01 -0.11774312202E+02  0.88889594617E+02  0.81224372292E+02 0.  0.
         13    1    3    3    0    0  0.59638154183E+02 -0.80007464350E+00 -0.11738582116E+02  0.60787786832E+02  0.10566000000E+00 0. -1.
         22    1    1    0    0    0 -0.33086403055E+02 -0.84033851481E+01  0.11774312202E+02  0.36110405383E+02  0.00000000000E+00 0. -1.
</event>
<event>
 5    1  0.8943113E-005  0.9118800E+02  0.7818608E-02  0.1130116E+00
         25   -1    0    0    0    0  0.00000000000E+00  0.00000000000E+00  0.99999998245E-14  0.12500000000E+03  0.12500000000E+03 0.  0.
        -13    1    3    3    0    0  0.17239202802E+01 -0.44722270862E+02 -0.53204880186E+01  0.45070746266E+02  0.10566000000E+00 0. -1.
         23    2    1    0    0    0  0.95738984854E+01  0.76292756548E+01 -0.21356844656E+02  0.10038333506E+03  0.97318208802E+02 0.  0.
         13    1    3    3    0    0  0.78499782052E+01  0.52351546517E+02 -0.16036356637E+02  0.55312588791E+02  0.10566000000E+00 0.  1.
         22    1    1    0    0    0 -0.95738984854E+01 -0.76292756548E+01  0.21356844656E+02  0.24616664942E+02  0.00000000000E+00 0.  1.
</event>
<event>
 5    1  0.8943113E-005  0.9118800E+02  0.7818608E-02  0.1130116E+00
         25   -1    0    0    0    0  0.00000000000E+00  0.00000000000E+00  0.99999998245E-14  0.12500000000E+03  0.12500000000E+03 0.  0.
        -13    1    3    3    0    0 -0.25156675246E+02  0.28050068439E+02  0.28925084368E+02  0.47500908608E+02  0.10566000000E+00 0. -1.
         23    2    1    0    0    0 -0.12526676848E+02  0.19084841719E+02 -0.17367463913E+02  0.96315899543E+02  0.91945499540E+02 0.  0.
         13    1    3    3    0    0  0.12629998398E+02 -0.89652267196E+01 -0.46292548280E+02  0.48814990935E+02  0.10566000000E+00 0.  1.
         22    1    1    0    0    0  0.12526676848E+02 -0.19084841719E+02  0.17367463913E+02  0.28684100457E+02  0.00000000000E+00 0. -1.
</event>
<event>
 5    1  0.8943113E-005  0.9118800E+02  0.7818608E-02  0.1130116E+00
         25   -1    0    0    0    0  0.00000000000E+00  0.00000000000E+00  0.99999998245E-14  0.12500000000E+03  0.12500000000E+03 0.  0.
        -13    1    3    3    0    0 -0.11610270391E+02 -0.76450742203E+01 -0.58453733046E+02  0.60084071179E+02  0.10566000000E+00 0. -1.
         23    2    1    0    0    0  0.67575053481E+01 -0.21339130857E+01 -0.28354932113E+02  0.95772963908E+02  0.91204391216E+02 0.  0.
         13    1    3    3    0    0  0.18367775739E+02  0.55111611346E+01  0.30098800933E+02  0.35688892730E+02  0.10566000000E+00 0.  1.
         22    1    1    0    0    0 -0.67575053481E+01  0.21339130857E+01  0.28354932113E+02  0.29227036092E+02  0.00000000000E+00 0. -1.
</event>
<event>
 5    1  0.8943113E-005  0.9118800E+02  0.7818608E-02  0.1130116E+00
         25   -1    0    0    0    0  0.00000000000E+00  0.00000000000E+00  0.99999998245E-14  0.12500000000E+03  0.12500000000E+03 0.  0.
        -13    1    3    3    0    0  0.20517294311E+02  0.45242938948E+02 -0.19584281817E+02  0.53398859059E+02  0.10566000000E+00 0. -1.
         23    2    1    0    0    0  0.86001598875E+01  0.46368959744E+01 -0.26931696422E+02  0.96350744747E+02  0.91992859434E+02 0.  0.
         13    1    3    3    0    0 -0.11917134423E+02 -0.40606042973E+02 -0.73474146048E+01  0.42951885689E+02  0.10566000000E+00 0.  1.
         22    1    1    0    0    0 -0.86001598875E+01 -0.46368959744E+01  0.26931696422E+02  0.28649255253E+02  0.00000000000E+00 0. -1.
</event>
<event>
 5    1  0.8943113E-005  0.9118800E+02  0.7818608E-02  0.1130116E+00
         25   -1    0    0    0    0  0.00000000000E+00  0.00000000000E+00  0.99999998245E-14  0.12500000000E+03  0.12500000000E+03 0.  0.
        -13    1    3    3    0    0 -0.46397567747E+02  0.27365944577E+01  0.28398485138E+02  0.54467498237E+02  0.10566000000E+00 0. -1.
         23    2    1    0    0    0 -0.24888053309E+02  0.12094550345E+02 -0.65555127662E+01  0.96562909902E+02  0.92280699367E+02 0.  0.
         13    1    3    3    0    0  0.21509514438E+02  0.93579558876E+01 -0.34953997904E+02  0.42095411665E+02  0.10566000000E+00 0.  1.
         22    1    1    0    0    0  0.24888053309E+02 -0.12094550345E+02  0.65555127662E+01  0.28437090098E+02  0.00000000000E+00 0. -1.
</event>
<event>
 5    1  0.8943113E-005  0.9118800E+02  0.7818608E-02  0.1130116E+00
         25   -1    0    0    0    0  0.00000000000E+00  0.00000000000E+00  0.99999998245E-14  0.12500000000E+03  0.12500000000E+03 0.  0.
        -13    1    3    3    0    0 -0.17962657251E+02 -0.11579143601E+02 -0.25020720846E+02  0.32905641731E+02  0.10566000000E+00 0.  1.
         23    2    1    0    0    0  0.12701758862E+01  0.62711264041E+01  0.30245615368E+02  0.94084993577E+02  0.88860837236E+02 0.  0.
         13    1    3    3    0    0  0.19232833137E+02  0.17850270005E+02  0.55266336214E+02  0.61179351846E+02  0.10566000000E+00 0. -1.
         22    1    1    0    0    0 -0.12701758862E+01 -0.62711264041E+01 -0.30245615368E+02  0.30915006423E+02  0.00000000000E+00 0. -1.
</event>
<event>
 5    1  0.8943113E-005  0.9118800E+02  0.7818608E-02  0.1130116E+00
         25   -1    0    0    0    0  0.00000000000E+00  0.00000000000E+00  0.99999998245E-14  0.12500000000E+03  0.12500000000E+03 0.  0.
        -13    1    3    3    0    0  0.15106248506E+02  0.24285432166E+02  0.22658000663E+02  0.36488040746E+02  0.10566000000E+00 0. -1.
         23    2    1    0    0    0 -0.31464475957E+01 -0.28960838728E+02  0.10168823752E+02  0.94144930906E+02  0.88945110751E+02 0.  0.
         13    1    3    3    0    0 -0.18252696101E+02 -0.53246270893E+02 -0.12489176911E+02  0.57656890160E+02  0.10566000000E+00 0.  1.
         22    1    1    0    0    0  0.31464475957E+01  0.28960838728E+02 -0.10168823752E+02  0.30855069094E+02  0.00000000000E+00 0.  1.
</event>
<event>
 5    1  0.8943113E-005  0.9118800E+02  0.7818608E-02  0.1130116E+00
         25   -1    0    0    0    0  0.00000000000E+00  0.00000000000E+00  0.99999998245E-14  0.12500000000E+03  0.12500000000E+03 0.  0.
        -13    1    3    3    0    0  0.35216172744E+02 -0.24083531800E+02  0.67957653626E+01  0.43201723549E+02  0.10566000000E+00 0. -1.
         23    2    1    0    0    0 -0.19580505717E+02 -0.17519431010E+02  0.35706658225E+01  0.98484413613E+02  0.94847790713E+02 0.  0.
         13    1    3    3    0    0 -0.54796678461E+02  0.65641007906E+01 -0.32250995401E+01  0.55282690064E+02  0.10566000000E+00 0.  1.
         22    1    1    0    0    0  0.19580505717E+02  0.17519431010E+02 -0.35706658225E+01  0.26515586387E+02  0.00000000000E+00 0.  1.
</event>
<event>
 5    1  0.8943113E-005  0.9118800E+02  0.7818608E-02  0.1130116E+00
         25   -1    0    0    0    0  0.00000000000E+00  0.00000000000E+00  0.99999998245E-14  0.12500000000E+03  0.12500000000E+03 0.  0.
        -13    1    3    3    0    0 -0.84635969297E+01  0.18184483199E+02 -0.43294632607E+02  0.47715241578E+02  0.10566000000E+00 0.  1.
         23    2    1    0    0    0  0.24318819391E+02  0.14004315779E+02 -0.85577716970E+01  0.95661266329E+02  0.91051175622E+02 0.  0.
         13    1    3    3    0    0  0.32782416321E+02 -0.41801674203E+01  0.34736860910E+02  0.47946024751E+02  0.10566000000E+00 0. -1.
         22    1    1    0    0    0 -0.24318819391E+02 -0.14004315779E+02  0.85577716970E+01  0.29338733671E+02  0.00000000000E+00 0.  1.
</event>
<event>
 5    1  0.8943113E-005  0.9118800E+02  0.7818608E-02  0.1130116E+00
         25   -1    0    0    0    0  0.00000000000E+00  0.00000000000E+00  0.99999998245E-14  0.12500000000E+03  0.12500000000E+03 0.  0.
        -13    1    3    3    0    0  0.31900342967E+02 -0.83452896615E+01  0.22362449502E+02  0.39841762671E+02  0.10566000000E+00 0.  1.
         23    2    1    0    0    0 -0.15041175068E+02  0.21194258271E+02  0.12448054090E+02  0.96183553625E+02  0.91765398741E+02 0.  0.
         13    1    3    3    0    0 -0.46941518035E+02  0.29539547932E+02 -0.99143954121E+01  0.56341790954E+02  0.10566000000E+00 0. -1.
         22    1    1    0    0    0  0.15041175068E+02 -0.21194258271E+02 -0.12448054090E+02  0.28816446375E+02  0.00000000000E+00 0. -1.
</event>
<event>
 5    1  0.8943113E-005  0.9118800E+02  0.7818608E-02  0.1130116E+00
         25   -1    0    0    0    0  0.00000000000E+00  0.00000000000E+00  0.99999998245E-14  0.12500000000E+03  0.12500000000E+03 0.  0.
        -13    1    3    3    0    0  0.59630791540E+01  0.32016067965E+02  0.27846766257E+01  0.32685662130E+02  0.10566000000E+00 0.  1.
         23    2    1    0    0    0 -0.33334019140E+01 -0.27764393129E+02 -0.11360973444E+02  0.94816481124E+02  0.89883926711E+02 0.  0.
         13    1    3    3    0    0 -0.92964810680E+01 -0.59780461094E+02 -0.14145650070E+02  0.62130818994E+02  0.10566000000E+00 0. -1.
         22    1    1    0    0    0  0.33334019140E+01  0.27764393129E+02  0.11360973444E+02  0.30183518876E+02  0.00000000000E+00 0. -1.
</event>
<event>
 5    1  0.8943113E-005  0.9118800E+02  0.7818608E-02  0.1130116E+00
         25   -1    0    0    0    0  0.00000000000E+00  0.00000000000E+00  0.99999998245E-14  0.12500000000E+03  0.12500000000E+03 0.  0.
        -13    1    3    3    0    0 -0.87995454836E+01  0.32102594041E+02 -0.17687514277E+02  0.37694401046E+02  0.10566000000E+00 0. -1.
         23    2    1    0    0    0 -0.21625343216E+02 -0.11010861901E+02  0.17730392349E+02  0.94945693123E+02  0.90063440312E+02 0.  0.
         13    1    3    3    0    0 -0.12825797732E+02 -0.43113455942E+02  0.35417906626E+02  0.57251292077E+02  0.10566000000E+00 0.  1.
         22    1    1    0    0    0  0.21625343216E+02  0.11010861901E+02 -0.17730392349E+02  0.30054306877E+02  0.00000000000E+00 0.  1.
</event>
<event>
 5    1  0.8943113E-005  0.9118800E+02  0.7818608E-02  0.1130116E+00
         25   -1    0    0    0    0  0.00000000000E+00  0.00000000000E+00  0.99999998245E-14  0.12500000000E+03  0.12500000000E+03 0.  0.
        -13    1    3    3    0    0  0.38163022707E+02  0.33202610386E+02  0.18237573358E+02  0.53772203643E+02  0.10566000000E+00 0.  1.
         23    2    1    0    0    0  0.42494601058E+00  0.30269054818E+02  0.29872365258E+01  0.94580929653E+02  0.89555750308E+02 0.  0.
         13    1    3    3    0    0 -0.37738076697E+02 -0.29335555674E+01 -0.15250336833E+02  0.40808726010E+02  0.10566000000E+00 0. -1.
         22    1    1    0    0    0 -0.42494601058E+00 -0.30269054818E+02 -0.29872365258E+01  0.30419070347E+02  0.00000000000E+00 0.  1.
</event>
<event>
 5    1  0.8943113E-005  0.9118800E+02  0.7818608E-02  0.1130116E+00
         25   -1    0    0    0    0  0.00000000000E+00  0.00000000000E+00  0.99999998245E-14  0.12500000000E+03  0.12500000000E+03 0.  0.
        -13    1    3    3    0    0 -0.32709812631E+02 -0.46374818169E+02  0.11917240080E+02  0.57987820943E+02  0.10566000000E+00 0.  1.
         23    2    1    0    0    0 -0.33698570171E+01 -0.25104700272E+02  0.16874097657E+02  0.94564213765E+02  0.89532415589E+02 0.  0.
         13    1    3    3    0    0  0.29339955614E+02  0.21270117897E+02  0.49568575764E+01  0.36576392822E+02  0.10566000000E+00 0. -1.
         22    1    1    0    0    0  0.33698570171E+01  0.25104700272E+02 -0.16874097657E+02  0.30435786235E+02  0.00000000000E+00 0.  1.
</event>
<event>
 5    1  0.8943113E-005  0.9118800E+02  0.7818608E-02  0.1130116E+00
         25   -1    0    0    0    0  0.00000000000E+00  0.00000000000E+00  0.99999998245E-14  0.12500000000E+03  0.12500000000E+03 0.  0.
        -13    1    3    3    0    0 -0.17979711485E+02  0.54538443094E+02 -0.24072241822E+02  0.62267132506E+02  0.10566000000E+00 0.  1.
         23    2    1    0    0    0 -0.11916276997E+02  0.23999629628E+02 -0.11218693842E+02  0.95951093458E+02  0.91448200444E+02 0.  0.
         13    1    3    3    0    0  0.60634344873E+01 -0.30538813466E+02  0.12853547980E+02  0.33683960952E+02  0.10566000000E+00 0. -1.
         22    1    1    0    0    0  0.11916276997E+02 -0.23999629628E+02  0.11218693842E+02  0.29048906542E+02  0.00000000000E+00 0.  1.
</event>
<event>
 5    1  0.8943113E-005  0.9118800E+02  0.7818608E-02  0.1130116E+00
         25   -1    0    0    0    0  0.00000000000E+00  0.00000000000E+00  0.99999998245E-14  0.12500000000E+03  0.12500000000E+03 0.  0.
        -13    1    3    3    0    0  0.58886282136E+01 -0.24099276190E+02  0.29233508931E+02  0.38341364915E+02  0.10566000000E+00 0.  1.
         23    2    1    0    0    0 -0.75987684828E+01 -0.18161794453E+02 -0.24219256540E+02  0.93788392423E+02  0.88442626068E+02 0.  0.
         13    1    3    3    0    0 -0.13487396696E+02  0.59374817369E+01 -0.53452765470E+02  0.55447027508E+02  0.10566000000E+00 0. -1.
         22    1    1    0    0    0  0.75987684828E+01  0.18161794453E+02  0.24219256540E+02  0.31211607577E+02  0.00000000000E+00 0. -1.
</event>
<event>
 5    1  0.8943113E-005  0.9118800E+02  0.7818608E-02  0.1130116E+00
         25   -1    0    0    0    0  0.00000000000E+00  0.00000000000E+00  0.99999998245E-14  0.12500000000E+03  0.12500000000E+03 0.  0.
        -13    1    3    3    0    0  0.18442465864E+01 -0.36331245049E+02  0.10190149539E+02  0.37778445229E+02  0.10566000000E+00 0.  1.
         23    2    1    0    0    0 -0.11810651766E+02  0.21115397167E+02  0.14173639554E+02  0.96959965213E+02  0.92816977451E+02 0.  0.
         13    1    3    3    0    0 -0.13654898352E+02  0.57446642215E+02  0.39834900152E+01  0.59181519984E+02  0.10566000000E+00 0. -1.
         22    1    1    0    0    0  0.11810651766E+02 -0.21115397167E+02 -0.14173639554E+02  0.28040034787E+02  0.00000000000E+00 0. -1.
</event>
<event>
 5    1  0.8943113E-005  0.9118800E+02  0.7818608E-02  0.1130116E+00
         25   -1    0    0    0    0  0.00000000000E+00  0.00000000000E+00  0.99999998245E-14  0.12500000000E+03  0.12500000000E+03 0.  0.
        -13    1    3    3    0    0  0.24921623204E+02  0.10406325255E+02  0.22778071604E+02  0.35330307364E+02  0.10566000000E+00 0.  1.
         23    2    1    0    0    0 -0.22379936430E+02 -0.17421916803E+02 -0.39348100946E+01  0.96366672038E+02  0.92014498909E+02 0.  0.
         13    1    3    3    0    0 -0.47301559634E+02 -0.27828242058E+02 -0.26712881698E+02  0.61036364673E+02  0.10566000000E+00 0. -1.
         22    1    1    0    0    0  0.22379936430E+02  0.17421916803E+02  0.39348100946E+01  0.28633327962E+02  0.00000000000E+00 0. -1.
</event>
<event>
 5    1  0.8943113E-005  0.9118800E+02  0.7818608E-02  0.1130116E+00
         25   -1    0    0    0    0  0.00000000000E+00  0.00000000000E+00  0.99999998245E-14  0.12500000000E+03  0.12500000000E+03 0.  0.
        -13    1    3    3    0    0 -0.21415558980E+02 -0.32930816960E+02 -0.30160538697E+02  0.49525085872E+02  0.10566000000E+00 0. -1.
         23    2    1    0    0    0 -0.15451174343E+02 -0.26716128461E+02  0.11498254522E+02  0.92065213443E+02  0.85972689622E+02 0.  0.
         13    1    3    3    0    0  0.59643846371E+01  0.62146884994E+01  0.41658793219E+02  0.42540127571E+02  0.10566000000E+00 0.  1.
         22    1    1    0    0    0  0.15451174343E+02  0.26716128461E+02 -0.11498254522E+02  0.32934786557E+02  0.00000000000E+00 0. -1.
</event>
<event>
 5    1  0.8943113E-005  0.9118800E+02  0.7818608E-02  0.1130116E+00
         25   -1    0    0    0    0  0.00000000000E+00  0.00000000000E+00  0.99999998245E-14  0.12500000000E+03  0.12500000000E+03 0.  0.
        -13    1    3    3    0    0  0.38512173959E+02 -0.11772186905E+02 -0.13583711059E+02  0.42500591734E+02  0.10566000000E+00 0. -1.
         23    2    1    0    0    0  0.78312778223E+01  0.27287712955E+02  0.61605922634E+01  0.95950024308E+02  0.91446739018E+02 0.  0.
         13    1    3    3    0    0 -0.30680896136E+02  0.39059899860E+02  0.19744303322E+02  0.53449432575E+02  0.10566000000E+00 0.  1.
         22    1    1    0    0    0 -0.78312778223E+01 -0.27287712955E+02 -0.61605922634E+01  0.29049975692E+02  0.00000000000E+00 0.  1.
</event>
<event>
 5    1  0.8943113E-005  0.9118800E+02  0.7818608E-02  0.1130116E+00
         25   -1    0    0    0    0  0.00000000000E+00  0.00000000000E+00  0.99999998245E-14  0.12500000000E+03  0.12500000000E+03 0.  0.
        -13    1    3    3    0    0  0.26053658049E+02  0.83147868587E+01  0.22663750039E+02  0.35518804993E+02  0.10566000000E+00 0. -1.
         23    2    1    0    0    0 -0.12947500518E+02  0.12648965397E+02 -0.23002831489E+02  0.95729462735E+02  0.91144751268E+02 0.  0.
         13    1    3    3    0    0 -0.39001158567E+02  0.43341785384E+01 -0.45666581528E+02  0.60210657742E+02  0.10566000000E+00 0.  1.
         22    1    1    0    0    0  0.12947500518E+02 -0.12648965397E+02  0.23002831489E+02  0.29270537265E+02  0.00000000000E+00 0. -1.
</event>
<event>
 5    1  0.8943113E-005  0.9118800E+02  0.7818608E-02  0.1130116E+00
         25   -1    0    0    0    0  0.00000000000E+00  0.00000000000E+00  0.99999998245E-14  0.12500000000E+03  0.12500000000E+03 0.  0.
        -13    1    3    3    0    0  0.42232544610E+01 -0.61868400988E+01 -0.38713861142E+02  0.39432056467E+02  0.10566000000E+00 0.  1.
         23    2    1    0    0    0 -0.15912877290E+02  0.25167733365E+02  0.26502598820E+01  0.95105881117E+02  0.90285493182E+02 0.  0.
         13    1    3    3    0    0 -0.20136131751E+02  0.31354573464E+02  0.41364121024E+02  0.55673824650E+02  0.10566000000E+00 0. -1.
         22    1    1    0    0    0  0.15912877290E+02 -0.25167733365E+02 -0.26502598820E+01  0.29894118883E+02  0.00000000000E+00 0. -1.
</event>
<event>
 5    1  0.8943113E-005  0.9118800E+02  0.7818608E-02  0.1130116E+00
         25   -1    0    0    0    0  0.00000000000E+00  0.00000000000E+00  0.99999998245E-14  0.12500000000E+03  0.12500000000E+03 0.  0.
        -13    1    3    3    0    0  0.20718019875E+02  0.40460172290E+02  0.10204414336E+02  0.46587585527E+02  0.10566000000E+00 0.  1.
         23    2    1    0    0    0 -0.22793569166E+02  0.14895869199E+02  0.49258580439E+01  0.97328755142E+02  0.93312318509E+02 0.  0.
         13    1    3    3    0    0 -0.43511589041E+02 -0.25564303091E+02 -0.52785562917E+01  0.50741169616E+02  0.10566000000E+00 0. -1.
         22    1    1    0    0    0  0.22793569166E+02 -0.14895869199E+02 -0.49258580439E+01  0.27671244858E+02  0.00000000000E+00 0. -1.
</event>
<event>
 5    1  0.8943113E-005  0.9118800E+02  0.7818608E-02  0.1130116E+00
         25   -1    0    0    0    0  0.00000000000E+00  0.00000000000E+00  0.99999998245E-14  0.12500000000E+03  0.12500000000E+03 0.  0.
        -13    1    3    3    0    0  0.27302331870E+02 -0.25756133256E+02  0.36566680183E+02  0.52401612470E+02  0.10566000000E+00 0.  1.
         23    2    1    0    0    0  0.19067546613E+02  0.12373200787E+02  0.19778327391E+02  0.94869456262E+02  0.89957568139E+02 0.  0.
         13    1    3    3    0    0 -0.82347852563E+01  0.38129334044E+02 -0.16788352792E+02  0.42467843792E+02  0.10566000000E+00 0. -1.
         22    1    1    0    0    0 -0.19067546613E+02 -0.12373200787E+02 -0.19778327391E+02  0.30130543738E+02  0.00000000000E+00 0.  1.
</event>
<event>
 5    1  0.8943113E-005  0.9118800E+02  0.7818608E-02  0.1130116E+00
         25   -1    0    0    0    0  0.00000000000E+00  0.00000000000E+00  0.99999998245E-14  0.12500000000E+03  0.12500000000E+03 0.  0.
        -13    1    3    3    0    0 -0.10039999635E+02  0.10141256399E+02  0.40306973152E+02  0.42758740893E+02  0.10566000000E+00 0.  1.
         23    2    1    0    0    0 -0.67921888999E+01  0.16793647085E+02 -0.16770132906E+02  0.10031401673E+03  0.97229132372E+02 0.  0.
         13    1    3    3    0    0  0.32478107349E+01  0.66523906860E+01 -0.57077106058E+02  0.57555275834E+02  0.10566000000E+00 0. -1.
         22    1    1    0    0    0  0.67921888999E+01 -0.16793647085E+02  0.16770132906E+02  0.24685983273E+02  0.00000000000E+00 0. -1.
</event>
<event>
 5    1  0.8943113E-005  0.9118800E+02  0.7818608E-02  0.1130116E+00
         25   -1    0    0    0    0  0.00000000000E+00  0.00000000000E+00  0.99999998245E-14  0.12500000000E+03  0.12500000000E+03 0.  0.
        -13    1    3    3    0    0  0.22913037968E+01 -0.18374322008E+02 -0.32009116469E+02  0.36979189871E+02  0.10566000000E+00 0.  1.
         23    2    1    0    0    0  0.35027014578E+02  0.11820281760E+02 -0.97436447300E+01  0.86769783891E+02  0.77893812159E+02 0.  0.
         13    1    3    3    0    0  0.32735710781E+02  0.30194603767E+02  0.22265471739E+02  0.49790594020E+02  0.10566000000E+00 0. -1.
         22    1    1    0    0    0 -0.35027014578E+02 -0.11820281760E+02  0.97436447300E+01  0.38230216109E+02  0.00000000000E+00 0. -1.
</event>
<event>
 5    1  0.8943113E-005  0.9118800E+02  0.7818608E-02  0.1130116E+00
         25   -1    0    0    0    0  0.00000000000E+00  0.00000000000E+00  0.99999998245E-14  0.12500000000E+03  0.12500000000E+03 0.  0.
        -13    1    3    3    0    0 -0.27399285469E+02  0.51008795307E+02  0.23530685664E+01  0.57949686268E+02  0.10566000000E+00 0.  1.
         23    2    1    0    0    0  0.27639765896E+01  0.29206596391E+02 -0.28300270356E+01  0.95526725795E+02  0.90866283345E+02 0.  0.
         13    1    3    3    0    0  0.30163262058E+02 -0.21802198916E+02 -0.51830956021E+01  0.37577039527E+02  0.10566000000E+00 0. -1.
         22    1    1    0    0    0 -0.27639765896E+01 -0.29206596391E+02  0.28300270356E+01  0.29473274205E+02  0.00000000000E+00 0.  1.
</event>
<event>
 5    1  0.8943113E-005  0.9118800E+02  0.7818608E-02  0.1130116E+00
         25   -1    0    0    0    0  0.00000000000E+00  0.00000000000E+00  0.99999998245E-14  0.12500000000E+03  0.12500000000E+03 0.  0.
        -13    1    3    3    0    0 -0.52380473963E+02 -0.11106655316E+02  0.91085515533E+00  0.53552895963E+02  0.10566000000E+00 0.  1.
         23    2    1    0    0    0 -0.17208881587E+02 -0.47499557595E+01 -0.22499122057E+02  0.96278611132E+02  0.91894791925E+02 0.  0.
         13    1    3    3    0    0  0.35171592377E+02  0.63566995562E+01 -0.23409977212E+02  0.42725715169E+02  0.10566000000E+00 0. -1.
         22    1    1    0    0    0  0.17208881587E+02  0.47499557595E+01  0.22499122057E+02  0.28721388868E+02  0.00000000000E+00 0. -1.
</event>
<event>
 5    1  0.8943113E-005  0.9118800E+02  0.7818608E-02  0.1130116E+00
         25   -1    0    0    0    0  0.00000000000E+00  0.00000000000E+00  0.99999998245E-14  0.12500000000E+03  0.12500000000E+03 0.  0.
        -13    1    3    3    0    0 -0.31896180703E+02  0.16275931821E+02  0.10416777538E+02  0.37293333431E+02  0.10566000000E+00 0.  1.
         23    2    1    0    0    0  0.13665303923E+02 -0.23112154353E+02  0.26251358649E+01  0.98022165609E+02  0.94236624527E+02 0.  0.
         13    1    3    3    0    0  0.45561484626E+02 -0.39388086174E+02 -0.77916416735E+01  0.60728832178E+02  0.10566000000E+00 0. -1.
         22    1    1    0    0    0 -0.13665303923E+02  0.23112154353E+02 -0.26251358649E+01  0.26977834391E+02  0.00000000000E+00 0. -1.
</event>
<event>
 5    1  0.8943113E-005  0.9118800E+02  0.7818608E-02  0.1130116E+00
         25   -1    0    0    0    0  0.00000000000E+00  0.00000000000E+00  0.99999998245E-14  0.12500000000E+03  0.12500000000E+03 0.  0.
        -13    1    3    3    0    0  0.31943945973E+02 -0.32385430120E+02  0.30241297979E+02  0.54623978580E+02  0.10566000000E+00 0.  1.
         23    2    1    0    0    0  0.11049321283E+01 -0.58807380001E+01  0.29086613595E+02  0.95304292484E+02  0.90559776507E+02 0.  0.
         13    1    3    3    0    0 -0.30839013845E+02  0.26504692120E+02 -0.11546843837E+01  0.40680313904E+02  0.10566000000E+00 0. -1.
         22    1    1    0    0    0 -0.11049321283E+01  0.58807380001E+01 -0.29086613595E+02  0.29695707516E+02  0.00000000000E+00 0.  1.
</event>
<event>
 5    1  0.8943113E-005  0.9118800E+02  0.7818608E-02  0.1130116E+00
         25   -1    0    0    0    0  0.00000000000E+00  0.00000000000E+00  0.99999998245E-14  0.12500000000E+03  0.12500000000E+03 0.  0.
        -13    1    3    3    0    0 -0.25794087385E+02 -0.42394138981E+02 -0.37934630058E+02  0.62463151423E+02  0.10566000000E+00 0.  1.
         23    2    1    0    0    0 -0.12538862861E+02 -0.19043203753E+02 -0.19026812069E+02  0.95303430020E+02  0.90558586037E+02 0.  0.
         13    1    3    3    0    0  0.13255224523E+02  0.23350935228E+02  0.18907817989E+02  0.32840278597E+02  0.10566000000E+00 0. -1.
         22    1    1    0    0    0  0.12538862861E+02  0.19043203753E+02  0.19026812069E+02  0.29696569980E+02  0.00000000000E+00 0.  1.
</event>
<event>
 5    1  0.8943113E-005  0.9118800E+02  0.7818608E-02  0.1130116E+00
         25   -1    0    0    0    0  0.00000000000E+00  0.00000000000E+00  0.99999998245E-14  0.12500000000E+03  0.12500000000E+03 0.  0.
        -13    1    3    3    0    0 -0.95147395632E+01 -0.39573151410E+02  0.32240297657E+02  0.51923140684E+02  0.10566000000E+00 0.  1.
         23    2    1    0    0    0 -0.21590932350E+02 -0.15315138066E+02 -0.50821671682E+01  0.98045404161E+02  0.94267444223E+02 0.  0.
         13    1    3    3    0    0 -0.12076192786E+02  0.24258013344E+02 -0.37322464825E+02  0.46122263477E+02  0.10566000000E+00 0. -1.
         22    1    1    0    0    0  0.21590932350E+02  0.15315138066E+02  0.50821671682E+01  0.26954595839E+02  0.00000000000E+00 0. -1.
</event>
<event>
 5    1  0.8943113E-005  0.9118800E+02  0.7818608E-02  0.1130116E+00
         25   -1    0    0    0    0  0.00000000000E+00  0.00000000000E+00  0.99999998245E-14  0.12500000000E+03  0.12500000000E+03 0.  0.
        -13    1    3    3    0    0 -0.32089733819E+02 -0.34621775063E+01 -0.31465759557E+02  0.45075967856E+02  0.10566000000E+00 0.  1.
         23    2    1    0    0    0  0.13084332331E+02 -0.20986704307E+02 -0.13993391793E+02  0.96584220509E+02  0.92309561408E+02 0.  0.
         13    1    3    3    0    0  0.45174066149E+02 -0.17524526800E+02  0.17472367764E+02  0.51508252653E+02  0.10566000000E+00 0. -1.
         22    1    1    0    0    0 -0.13084332331E+02  0.20986704307E+02  0.13993391793E+02  0.28415779491E+02  0.00000000000E+00 0. -1.
</event>
<event>
 5    1  0.8943113E-005  0.9118800E+02  0.7818608E-02  0.1130116E+00
         25   -1    0    0    0    0  0.00000000000E+00  0.00000000000E+00  0.99999998245E-14  0.12500000000E+03  0.12500000000E+03 0.  0.
        -13    1    3    3    0    0 -0.18970729314E+02 -0.23624991193E+02 -0.51243717296E+02  0.59531155758E+02  0.10566000000E+00 0.  1.
         23    2    1    0    0    0 -0.11325508728E+02  0.12137659180E+01 -0.29365116924E+02  0.93503167340E+02  0.88038581514E+02 0.  0.
         13    1    3    3    0    0  0.76452205861E+01  0.24838757111E+02  0.21878600372E+02  0.33972011582E+02  0.10566000000E+00 0. -1.
         22    1    1    0    0    0  0.11325508728E+02 -0.12137659180E+01  0.29365116924E+02  0.31496832660E+02  0.00000000000E+00 0.  1.
</event>
<event>
 5    1  0.8943113E-005  0.9118800E+02  0.7818608E-02  0.1130116E+00
         25   -1    0    0    0    0  0.00000000000E+00  0.00000000000E+00  0.99999998245E-14  0.12500000000E+03  0.12500000000E+03 0.  0.
        -13    1    3    3    0    0  0.10924123659E+02 -0.30912420428E+02  0.48420368412E+02  0.58476127228E+02  0.10566000000E+00 0.  1.
         23    2    1    0    0    0  0.34527298585E+01  0.92812402032E+00  0.27429841645E+02  0.97338131475E+02  0.93324878080E+02 0.  0.
         13    1    3    3    0    0 -0.74713938007E+01  0.31840544448E+02 -0.20990526767E+02  0.38862004247E+02  0.10566000000E+00 0. -1.
         22    1    1    0    0    0 -0.34527298585E+01 -0.92812402032E+00 -0.27429841645E+02  0.27661868525E+02  0.00000000000E+00 0.  1.
</event>
<event>
 5    1  0.8943113E-005  0.9118800E+02  0.7818608E-02  0.1130116E+00
         25   -1    0    0    0    0  0.00000000000E+00  0.00000000000E+00  0.99999998245E-14  0.12500000000E+03  0.12500000000E+03 0.  0.
        -13    1    3    3    0    0  0.14422463657E+02  0.22857546720E+02 -0.31831952989E+02  0.41758344018E+02  0.10566000000E+00 0. -1.
         23    2    1    0    0    0  0.23964983188E+02 -0.40589288035E+00  0.16266653148E+02  0.96032964030E+02  0.91560040452E+02 0.  0.
         13    1    3    3    0    0  0.95425195313E+01 -0.23263439600E+02  0.48098606137E+02  0.54274620012E+02  0.10566000000E+00 0.  1.
         22    1    1    0    0    0 -0.23964983188E+02  0.40589288035E+00 -0.16266653148E+02  0.28967035970E+02  0.00000000000E+00 0. -1.
</event>
<event>
 5    1  0.8943113E-005  0.9118800E+02  0.7818608E-02  0.1130116E+00
         25   -1    0    0    0    0  0.00000000000E+00  0.00000000000E+00  0.99999998245E-14  0.12500000000E+03  0.12500000000E+03 0.  0.
        -13    1    3    3    0    0  0.49426352627E+02  0.15802535832E+02  0.22209746282E+01  0.51938698146E+02  0.10566000000E+00 0. -1.
         23    2    1    0    0    0  0.13278987458E+02  0.10043219813E+02  0.24935349308E+02  0.95017181300E+02  0.90162604914E+02 0.  0.
         13    1    3    3    0    0 -0.36147365170E+02 -0.57593160189E+01  0.22714374680E+02  0.43078483154E+02  0.10566000000E+00 0.  1.
         22    1    1    0    0    0 -0.13278987458E+02 -0.10043219813E+02 -0.24935349308E+02  0.29982818700E+02  0.00000000000E+00 0.  1.
</event>
<event>
 5    1  0.8943113E-005  0.9118800E+02  0.7818608E-02  0.1130116E+00
         25   -1    0    0    0    0  0.00000000000E+00  0.00000000000E+00  0.99999998245E-14  0.12500000000E+03  0.12500000000E+03 0.  0.
        -13    1    3    3    0    0  0.95469810525E+01 -0.34658450522E+02 -0.28254775358E+01  0.36060331767E+02  0.10566000000E+00 0. -1.
         23    2    1    0    0    0  0.93833968084E+01  0.25159516443E+02  0.82784716040E+01  0.96900489410E+02  0.92736844633E+02 0.  0.
         13    1    3    3    0    0 -0.16358424411E+00  0.59817966964E+02  0.11103949140E+02  0.60840157643E+02  0.10566000000E+00 0.  1.
         22    1    1    0    0    0 -0.93833968084E+01 -0.25159516443E+02 -0.82784716040E+01  0.28099510590E+02  0.00000000000E+00 0.  1.
</event>
<event>
 5    1  0.8943113E-005  0.9118800E+02  0.7818608E-02  0.1130116E+00
         25   -1    0    0    0    0  0.00000000000E+00  0.00000000000E+00  0.99999998245E-14  0.12500000000E+03  0.12500000000E+03 0.  0.
        -13    1    3    3    0    0  0.44412153448E+02 -0.30886130210E+02  0.56304746947E+01  0.54388471412E+02  0.10566000000E+00 0.  1.
         23    2    1    0    0    0  0.18299475380E+02 -0.39603251926E+01  0.22680128776E+02  0.95590083031E+02  0.90953398825E+02 0.  0.
         13    1    3    3    0    0 -0.26112678068E+02  0.26925805017E+02  0.17049654082E+02  0.41201611619E+02  0.10566000000E+00 0. -1.
         22    1    1    0    0    0 -0.18299475380E+02  0.39603251926E+01 -0.22680128776E+02  0.29409916969E+02  0.00000000000E+00 0.  1.
</event>
<event>
 5    1  0.8943113E-005  0.9118800E+02  0.7818608E-02  0.1130116E+00
         25   -1    0    0    0    0  0.00000000000E+00  0.00000000000E+00  0.99999998245E-14  0.12500000000E+03  0.12500000000E+03 0.  0.
        -13    1    3    3    0    0 -0.44052599841E+02  0.67066905257E+01  0.36179806947E+02  0.57398613619E+02  0.10566000000E+00 0.  1.
         23    2    1    0    0    0 -0.13609545532E+02 -0.12487608635E+02  0.22475530394E+02  0.95908599802E+02  0.91390097660E+02 0.  0.
         13    1    3    3    0    0  0.30443054309E+02 -0.19194299161E+02 -0.13704276553E+02  0.38509986183E+02  0.10566000000E+00 0. -1.
         22    1    1    0    0    0  0.13609545532E+02  0.12487608635E+02 -0.22475530394E+02  0.29091400198E+02  0.00000000000E+00 0.  1.
</event>
<event>
 5    1  0.8943113E-005  0.9118800E+02  0.7818608E-02  0.1130116E+00
         25   -1    0    0    0    0  0.00000000000E+00  0.00000000000E+00  0.99999998245E-14  0.12500000000E+03  0.12500000000E+03 0.  0.
        -13    1    3    3    0    0  0.46788629955E+02 -0.31683687863E+02  0.33395895379E+01  0.56605618025E+02  0.10566000000E+00 0.  1.
         23    2    1    0    0    0  0.72754255231E+01 -0.25800644463E+02  0.84800268780E+01  0.96883884922E+02  0.92714460741E+02 0.  0.
         13    1    3    3    0    0 -0.39513204432E+02  0.58830433999E+01  0.51404373400E+01  0.40278266897E+02  0.10566000000E+00 0. -1.
         22    1    1    0    0    0 -0.72754255231E+01  0.25800644463E+02 -0.84800268780E+01  0.28116115078E+02  0.00000000000E+00 0.  1.
</event>
<event>
 5    1  0.8943113E-005  0.9118800E+02  0.7818608E-02  0.1130116E+00
         25   -1    0    0    0    0  0.00000000000E+00  0.00000000000E+00  0.99999998245E-14  0.12500000000E+03  0.12500000000E+03 0.  0.
        -13    1    3    3    0    0  0.32024830167E+02 -0.12375837832E+02 -0.29043230565E+02  0.44969673281E+02  0.10566000000E+00 0.  1.
         23    2    1    0    0    0  0.12002027179E+02  0.23569881066E+02 -0.28497324474E+02  0.86119600670E+02  0.76843348232E+02 0.  0.
         13    1    3    3    0    0 -0.20022802988E+02  0.35945718899E+02  0.54590609109E+00  0.41149927389E+02  0.10566000000E+00 0. -1.
         22    1    1    0    0    0 -0.12002027179E+02 -0.23569881066E+02  0.28497324474E+02  0.38880399330E+02  0.00000000000E+00 0.  1.
</event>
<event>
 5    1  0.8943113E-005  0.9118800E+02  0.7818608E-02  0.1130116E+00
         25   -1    0    0    0    0  0.00000000000E+00  0.00000000000E+00  0.99999998245E-14  0.12500000000E+03  0.12500000000E+03 0.  0.
        -13    1    3    3    0    0  0.35900266184E+02  0.10069834835E+02  0.14852698930E+02  0.40135327521E+02  0.10566000000E+00 0.  1.
         23    2    1    0    0    0 -0.15865932129E+02  0.12943577545E+02  0.24708606267E+02  0.92909826650E+02  0.87192067659E+02 0.  0.
         13    1    3    3    0    0 -0.51766198313E+02  0.28737427094E+01  0.98559073370E+01  0.52774499129E+02  0.10566000000E+00 0. -1.
         22    1    1    0    0    0  0.15865932129E+02 -0.12943577545E+02 -0.24708606267E+02  0.32090173350E+02  0.00000000000E+00 0. -1.
</event>
<event>
 5    1  0.8943113E-005  0.9118800E+02  0.7818608E-02  0.1130116E+00
         25   -1    0    0    0    0  0.00000000000E+00  0.00000000000E+00  0.99999998245E-14  0.12500000000E+03  0.12500000000E+03 0.  0.
        -13    1    3    3    0    0 -0.20976988882E+02 -0.14981448468E+02  0.25781359897E+02  0.36457750107E+02  0.10566000000E+00 0. -1.
         23    2    1    0    0    0 -0.92317527697E+01  0.56622388246E+01 -0.27852899672E+02  0.95115719386E+02  0.90299113209E+02 0.  0.
         13    1    3    3    0    0  0.11745236112E+02  0.20643687292E+02 -0.53634259569E+02  0.58657969278E+02  0.10566000000E+00 0.  1.
         22    1    1    0    0    0  0.92317527697E+01 -0.56622388246E+01  0.27852899672E+02  0.29884280614E+02  0.00000000000E+00 0.  1.
</event>
<event>
 5    1  0.8943113E-005  0.9118800E+02  0.7818608E-02  0.1130116E+00
         25   -1    0    0    0    0  0.00000000000E+00  0.00000000000E+00  0.99999998245E-14  0.12500000000E+03  0.12500000000E+03 0.  0.
        -13    1    3    3    0    0 -0.31517139838E+02 -0.74868517024E+01  0.16015444518E+02  0.36137081774E+02  0.10566000000E+00 0. -1.
         23    2    1    0    0    0  0.26798385893E+02 -0.13035064120E+01  0.13817870637E+02  0.94820766008E+02  0.89889885426E+02 0.  0.
         13    1    3    3    0    0  0.58315525731E+02  0.61833452904E+01 -0.21975738808E+01  0.58683684234E+02  0.10566000000E+00 0.  1.
         22    1    1    0    0    0 -0.26798385893E+02  0.13035064120E+01 -0.13817870637E+02  0.30179233992E+02  0.00000000000E+00 0.  1.
</event>
<event>
 5    1  0.8943113E-005  0.9118800E+02  0.7818608E-02  0.1130116E+00
         25   -1    0    0    0    0  0.00000000000E+00  0.00000000000E+00  0.99999998245E-14  0.12500000000E+03  0.12500000000E+03 0.  0.
        -13    1    3    3    0    0  0.24262409302E+02  0.32659350158E+02 -0.44111056430E+02  0.60009116984E+02  0.10566000000E+00 0.  1.
         23    2    1    0    0    0  0.17656473292E+00  0.19152375621E+02 -0.24608409852E+02  0.93816374450E+02  0.88482165505E+02 0.  0.
         13    1    3    3    0    0 -0.24085844569E+02 -0.13506974537E+02  0.19502646578E+02  0.33807257465E+02  0.10566000000E+00 0. -1.
         22    1    1    0    0    0 -0.17656473292E+00 -0.19152375621E+02  0.24608409852E+02  0.31183625550E+02  0.00000000000E+00 0.  1.
</event>
<event>
 5    1  0.8943113E-005  0.9118800E+02  0.7818608E-02  0.1130116E+00
         25   -1    0    0    0    0  0.00000000000E+00  0.00000000000E+00  0.99999998245E-14  0.12500000000E+03  0.12500000000E+03 0.  0.
        -13    1    3    3    0    0  0.16800309424E+02  0.52562698902E+02 -0.10007311769E+02  0.56082485372E+02  0.10566000000E+00 0.  1.
         23    2    1    0    0    0  0.24420398546E+02  0.13658349036E+02 -0.85082355242E+01  0.95754548469E+02  0.91179148478E+02 0.  0.
         13    1    3    3    0    0  0.76200891221E+01 -0.38904349866E+02  0.14990762452E+01  0.39672063097E+02  0.10566000000E+00 0. -1.
         22    1    1    0    0    0 -0.24420398546E+02 -0.13658349036E+02  0.85082355242E+01  0.29245451531E+02  0.00000000000E+00 0.  1.
</event>
<event>
 5    1  0.8943113E-005  0.9118800E+02  0.7818608E-02  0.1130116E+00
         25   -1    0    0    0    0  0.00000000000E+00  0.00000000000E+00  0.99999998245E-14  0.12500000000E+03  0.12500000000E+03 0.  0.
        -13    1    3    3    0    0  0.22715963922E+02 -0.21199486072E+02 -0.20405262370E+02  0.37172827752E+02  0.10566000000E+00 0. -1.
         23    2    1    0    0    0  0.30649267253E+00  0.55586977541E+00  0.29200754760E+02  0.95792346765E+02  0.91230952485E+02 0.  0.
         13    1    3    3    0    0 -0.22409471250E+02  0.21755355848E+02  0.49606017130E+02  0.58619519013E+02  0.10566000000E+00 0.  1.
         22    1    1    0    0    0 -0.30649267253E+00 -0.55586977541E+00 -0.29200754760E+02  0.29207653235E+02  0.00000000000E+00 0.  1.
</event>
<event>
 5    1  0.8943113E-005  0.9118800E+02  0.7818608E-02  0.1130116E+00
         25   -1    0    0    0    0  0.00000000000E+00  0.00000000000E+00  0.99999998245E-14  0.12500000000E+03  0.12500000000E+03 0.  0.
        -13    1    3    3    0    0 -0.30530683949E+02  0.25920413002E+01 -0.22532083443E+02  0.38033502189E+02  0.10566000000E+00 0.  1.
         23    2    1    0    0    0  0.90419574139E+01  0.27669220697E+02  0.90295986806E+01  0.94522526020E+02  0.89474194632E+02 0.  0.
         13    1    3    3    0    0  0.39572641363E+02  0.25077179397E+02  0.31561682123E+02  0.56489023831E+02  0.10566000000E+00 0. -1.
         22    1    1    0    0    0 -0.90419574139E+01 -0.27669220697E+02 -0.90295986806E+01  0.30477473980E+02  0.00000000000E+00 0. -1.
</event>
<event>
 5    1  0.8943113E-005  0.9118800E+02  0.7818608E-02  0.1130116E+00
         25   -1    0    0    0    0  0.00000000000E+00  0.00000000000E+00  0.99999998245E-14  0.12500000000E+03  0.12500000000E+03 0.  0.
        -13    1    3    3    0    0 -0.28952480782E+02  0.25900000386E+02  0.46963300925E+02  0.60947673961E+02  0.10566000000E+00 0. -1.
         23    2    1    0    0    0 -0.67058043852E+01  0.19146665944E+02  0.20919742044E+02  0.95858993902E+02  0.91322223339E+02 0.  0.
         13    1    3    3    0    0  0.22246676397E+02 -0.67533344427E+01 -0.26043558881E+02  0.34911319941E+02  0.10566000000E+00 0.  1.
         22    1    1    0    0    0  0.67058043852E+01 -0.19146665944E+02 -0.20919742044E+02  0.29141006098E+02  0.00000000000E+00 0. -1.
</event>
<event>
 5    1  0.8943113E-005  0.9118800E+02  0.7818608E-02  0.1130116E+00
         25   -1    0    0    0    0  0.00000000000E+00  0.00000000000E+00  0.99999998245E-14  0.12500000000E+03  0.12500000000E+03 0.  0.
        -13    1    3    3    0    0 -0.16524280477E+02  0.29097007187E+02  0.93056275338E+01  0.34731736788E+02  0.10566000000E+00 0.  1.
         23    2    1    0    0    0  0.37985021674E+01 -0.27552646502E+02 -0.53538449489E+01  0.96676147795E+02  0.92433959932E+02 0.  0.
         13    1    3    3    0    0  0.20322782644E+02 -0.56649653689E+02 -0.14659472483E+02  0.61944411007E+02  0.10566000000E+00 0. -1.
         22    1    1    0    0    0 -0.37985021674E+01  0.27552646502E+02  0.53538449489E+01  0.28323852205E+02  0.00000000000E+00 0. -1.
</event>
<event>
 5    1  0.8943113E-005  0.9118800E+02  0.7818608E-02  0.1130116E+00
         25   -1    0    0    0    0  0.00000000000E+00  0.00000000000E+00  0.99999998245E-14  0.12500000000E+03  0.12500000000E+03 0.  0.
        -13    1    3    3    0    0  0.30120152738E+02 -0.11304635501E+02 -0.31877185453E+02  0.45290004429E+02  0.10566000000E+00 0. -1.
         23    2    1    0    0    0  0.12650645757E+02 -0.28833317738E+02  0.82642423312E+01  0.92447016248E+02  0.86526031124E+02 0.  0.
         13    1    3    3    0    0 -0.17469506981E+02 -0.17528682237E+02  0.40141427784E+02  0.47157011819E+02  0.10566000000E+00 0.  1.
         22    1    1    0    0    0 -0.12650645757E+02  0.28833317738E+02 -0.82642423312E+01  0.32552983752E+02  0.00000000000E+00 0.  1.
</event>
<event>
 5    1  0.8943113E-005  0.9118800E+02  0.7818608E-02  0.1130116E+00
         25   -1    0    0    0    0  0.00000000000E+00  0.00000000000E+00  0.99999998245E-14  0.12500000000E+03  0.12500000000E+03 0.  0.
        -13    1    3    3    0    0  0.29548268015E+02 -0.12815650821E+02  0.33730289789E+02  0.46637802928E+02  0.10566000000E+00 0. -1.
         23    2    1    0    0    0 -0.14483088542E+02 -0.94701793626E+01  0.29239089482E+02  0.91024001050E+02  0.84445250088E+02 0.  0.
         13    1    3    3    0    0 -0.44031356557E+02  0.33454714584E+01 -0.44912003067E+01  0.44386198122E+02  0.10566000000E+00 0.  1.
         22    1    1    0    0    0  0.14483088542E+02  0.94701793626E+01 -0.29239089482E+02  0.33975998950E+02  0.00000000000E+00 0. -1.
</event>
<event>
 5    1  0.8943113E-005  0.9118800E+02  0.7818608E-02  0.1130116E+00
         25   -1    0    0    0    0  0.00000000000E+00  0.00000000000E+00  0.99999998245E-14  0.12500000000E+03  0.12500000000E+03 0.  0.
        -13    1    3    3    0    0 -0.23598514144E+02  0.43789611945E+02 -0.29455743942E+02  0.57810656451E+02  0.10566000000E+00 0. -1.
         23    2    1    0    0    0 -0.24856050140E+02  0.12400630408E+02 -0.72163940321E+01  0.96300257737E+02  0.91924232030E+02 0.  0.
         13    1    3    3    0    0 -0.12575359960E+01 -0.31388981537E+02  0.22239349910E+02  0.38489601286E+02  0.10566000000E+00 0.  1.
         22    1    1    0    0    0  0.24856050140E+02 -0.12400630408E+02  0.72163940321E+01  0.28699742263E+02  0.00000000000E+00 0. -1.
</event>
<event>
 5    1  0.8943113E-005  0.9118800E+02  0.7818608E-02  0.1130116E+00
         25   -1    0    0    0    0  0.00000000000E+00  0.00000000000E+00  0.99999998245E-14  0.12500000000E+03  0.12500000000E+03 0.  0.
        -13    1    3    3    0    0  0.31990218018E+02  0.12770870357E+02  0.14036016467E+02  0.37195296757E+02  0.10566000000E+00 0. -1.
         23    2    1    0    0    0 -0.88918515140E+01 -0.22380636077E+02 -0.13132135287E+02  0.97569891145E+02  0.93634784062E+02 0.  0.
         13    1    3    3    0    0 -0.40882069532E+02 -0.35151506434E+02 -0.27168151755E+02  0.60374594389E+02  0.10566000000E+00 0.  1.
         22    1    1    0    0    0  0.88918515140E+01  0.22380636077E+02  0.13132135287E+02  0.27430108855E+02  0.00000000000E+00 0.  1.
</event>
<event>
 5    1  0.8943113E-005  0.9118800E+02  0.7818608E-02  0.1130116E+00
         25   -1    0    0    0    0  0.00000000000E+00  0.00000000000E+00  0.99999998245E-14  0.12500000000E+03  0.12500000000E+03 0.  0.
        -13    1    3    3    0    0  0.14615823135E+02  0.39046713900E+01 -0.40075891687E+02  0.42836398111E+02  0.10566000000E+00 0.  1.
         23    2    1    0    0    0  0.20360982116E+02 -0.19567242160E+02  0.71359459261E+01  0.95873237688E+02  0.91341717863E+02 0.  0.
         13    1    3    3    0    0  0.57451589814E+01 -0.23471913550E+02  0.47211837614E+02  0.53036839577E+02  0.10566000000E+00 0. -1.
         22    1    1    0    0    0 -0.20360982116E+02  0.19567242160E+02 -0.71359459261E+01  0.29126762312E+02  0.00000000000E+00 0.  1.
</event>
<event>
 5    1  0.8943113E-005  0.9118800E+02  0.7818608E-02  0.1130116E+00
         25   -1    0    0    0    0  0.00000000000E+00  0.00000000000E+00  0.99999998245E-14  0.12500000000E+03  0.12500000000E+03 0.  0.
        -13    1    3    3    0    0 -0.99166240570E+01  0.49987161844E+02  0.27388298502E+02  0.57854868773E+02  0.10566000000E+00 0. -1.
         23    2    1    0    0    0  0.12363140736E+02  0.24095693713E+02  0.13652076494E+02  0.94671318905E+02  0.89681824949E+02 0.  0.
         13    1    3    3    0    0  0.22279764793E+02 -0.25891468131E+02 -0.13736222008E+02  0.36816450132E+02  0.10566000000E+00 0.  1.
         22    1    1    0    0    0 -0.12363140736E+02 -0.24095693713E+02 -0.13652076494E+02  0.30328681095E+02  0.00000000000E+00 0. -1.
</event>
<event>
 5    1  0.8943113E-005  0.9118800E+02  0.7818608E-02  0.1130116E+00
         25   -1    0    0    0    0  0.00000000000E+00  0.00000000000E+00  0.99999998245E-14  0.12500000000E+03  0.12500000000E+03 0.  0.
        -13    1    3    3    0    0 -0.36222260583E+02  0.59735643976E+00  0.13776893309E+02  0.38758520996E+02  0.10566000000E+00 0.  1.
         23    2    1    0    0    0  0.66052081622E+01 -0.41354315224E+01 -0.26279248666E+02  0.97589610013E+02  0.93661104538E+02 0.  0.
         13    1    3    3    0    0  0.42827468746E+02 -0.47327879621E+01 -0.40056141975E+02  0.58831089018E+02  0.10566000000E+00 0. -1.
         22    1    1    0    0    0 -0.66052081622E+01  0.41354315224E+01  0.26279248666E+02  0.27410389987E+02  0.00000000000E+00 0. -1.
</event>
<event>
 5    1  0.8943113E-005  0.9118800E+02  0.7818608E-02  0.1130116E+00
         25   -1    0    0    0    0  0.00000000000E+00  0.00000000000E+00  0.99999998245E-14  0.12500000000E+03  0.12500000000E+03 0.  0.
        -13    1    3    3    0    0 -0.96949669181E+01 -0.16798347416E+02 -0.33988009355E+02  0.39132758699E+02  0.10566000000E+00 0.  1.
         23    2    1    0    0    0  0.13690096797E+02  0.25610497232E+02 -0.51227193615E+01  0.95511721440E+02  0.90845640292E+02 0.  0.
         13    1    3    3    0    0  0.23385063715E+02  0.42408844648E+02  0.28865289993E+02  0.56378962741E+02  0.10566000000E+00 0. -1.
         22    1    1    0    0    0 -0.13690096797E+02 -0.25610497232E+02  0.51227193615E+01  0.29488278560E+02  0.00000000000E+00 0.  1.
</event>
<event>
 5    1  0.8943113E-005  0.9118800E+02  0.7818608E-02  0.1130116E+00
         25   -1    0    0    0    0  0.00000000000E+00  0.00000000000E+00  0.99999998245E-14  0.12500000000E+03  0.12500000000E+03 0.  0.
        -13    1    3    3    0    0  0.94131328426E-01  0.51154566425E+02 -0.35472435706E+01  0.51277603569E+02  0.10566000000E+00 0.  1.
         23    2    1    0    0    0  0.44360198681E+01  0.13619749986E+02  0.23313755631E+02  0.97637487988E+02  0.93724980646E+02 0.  0.
         13    1    3    3    0    0  0.43418885397E+01 -0.37534816439E+02  0.26860999202E+02  0.46359884419E+02  0.10566000000E+00 0. -1.
         22    1    1    0    0    0 -0.44360198681E+01 -0.13619749986E+02 -0.23313755631E+02  0.27362512012E+02  0.00000000000E+00 0.  1.
</event>
<event>
 5    1  0.8943113E-005  0.9118800E+02  0.7818608E-02  0.1130116E+00
         25   -1    0    0    0    0  0.00000000000E+00  0.00000000000E+00  0.99999998245E-14  0.12500000000E+03  0.12500000000E+03 0.  0.
        -13    1    3    3    0    0  0.16710987638E+02  0.17398248998E+02 -0.25438799363E+02  0.35058520406E+02  0.10566000000E+00 0. -1.
         23    2    1    0    0    0  0.90771733803E+01 -0.13695862224E+02  0.25168095050E+02  0.94943308115E+02  0.90060130073E+02 0.  0.
         13    1    3    3    0    0 -0.76338142573E+01 -0.31094111222E+02  0.50606894413E+02  0.59884787709E+02  0.10566000000E+00 0.  1.
         22    1    1    0    0    0 -0.90771733803E+01  0.13695862224E+02 -0.25168095050E+02  0.30056691885E+02  0.00000000000E+00 0.  1.
</event>
<event>
 5    1  0.8943113E-005  0.9118800E+02  0.7818608E-02  0.1130116E+00
         25   -1    0    0    0    0  0.00000000000E+00  0.00000000000E+00  0.99999998245E-14  0.12500000000E+03  0.12500000000E+03 0.  0.
        -13    1    3    3    0    0  0.58708156173E+01  0.39540909823E+01  0.26098308473E+02  0.27041342065E+02  0.10566000000E+00 0. -1.
         23    2    1    0    0    0 -0.27692871449E+02 -0.19338546830E+02 -0.17641806280E+02  0.86893467077E+02  0.78092040370E+02 0.  0.
         13    1    3    3    0    0 -0.33563687067E+02 -0.23292637812E+02 -0.43740114753E+02  0.59852125012E+02  0.10566000000E+00 0.  1.
         22    1    1    0    0    0  0.27692871449E+02  0.19338546830E+02  0.17641806280E+02  0.38106532923E+02  0.00000000000E+00 0.  1.
</event>
<event>
 5    1  0.8943113E-005  0.9118800E+02  0.7818608E-02  0.1130116E+00
         25   -1    0    0    0    0  0.00000000000E+00  0.00000000000E+00  0.99999998245E-14  0.12500000000E+03  0.12500000000E+03 0.  0.
        -13    1    3    3    0    0  0.27004063722E+02 -0.64213602289E+01  0.15881049482E+02  0.31979246730E+02  0.10566000000E+00 0.  1.
         23    2    1    0    0    0 -0.22587118480E+02  0.62603639462E+01 -0.19752611504E+02  0.94348152761E+02  0.89230253783E+02 0.  0.
         13    1    3    3    0    0 -0.49591182202E+02  0.12681724175E+02 -0.35633660986E+02  0.62368906031E+02  0.10566000000E+00 0. -1.
         22    1    1    0    0    0  0.22587118480E+02 -0.62603639462E+01  0.19752611504E+02  0.30651847239E+02  0.00000000000E+00 0. -1.
</event>
<event>
 5    1  0.8943113E-005  0.9118800E+02  0.7818608E-02  0.1130116E+00
         25   -1    0    0    0    0  0.00000000000E+00  0.00000000000E+00  0.99999998245E-14  0.12500000000E+03  0.12500000000E+03 0.  0.
        -13    1    3    3    0    0  0.14954389877E+02  0.26990880371E+02 -0.53153541407E+02  0.61460975651E+02  0.10566000000E+00 0. -1.
         23    2    1    0    0    0  0.88909949554E+01  0.71979889099E+01 -0.31815055606E+02  0.91190850368E+02  0.84691868512E+02 0.  0.
         13    1    3    3    0    0 -0.60633949217E+01 -0.19792891461E+02  0.21338485802E+02  0.29729874717E+02  0.10566000000E+00 0.  1.
         22    1    1    0    0    0 -0.88909949554E+01 -0.71979889099E+01  0.31815055606E+02  0.33809149632E+02  0.00000000000E+00 0. -1.
</event>
<event>
 5    1  0.8943113E-005  0.9118800E+02  0.7818608E-02  0.1130116E+00
         25   -1    0    0    0    0  0.00000000000E+00  0.00000000000E+00  0.99999998245E-14  0.12500000000E+03  0.12500000000E+03 0.  0.
        -13    1    3    3    0    0  0.67687902293E+01  0.39433937092E+02 -0.19345501018E+02  0.44442226423E+02  0.10566000000E+00 0.  1.
         23    2    1    0    0    0 -0.13611898212E+02  0.21952815360E+02  0.20177118496E+02  0.92223087608E+02  0.86201925164E+02 0.  0.
         13    1    3    3    0    0 -0.20380688442E+02 -0.17481121732E+02  0.39522619514E+02  0.47780861186E+02  0.10566000000E+00 0. -1.
         22    1    1    0    0    0  0.13611898212E+02 -0.21952815360E+02 -0.20177118496E+02  0.32776912392E+02  0.00000000000E+00 0. -1.
</event>
<event>
 5    1  0.8943113E-005  0.9118800E+02  0.7818608E-02  0.1130116E+00
         25   -1    0    0    0    0  0.00000000000E+00  0.00000000000E+00  0.99999998245E-14  0.12500000000E+03  0.12500000000E+03 0.  0.
        -13    1    3    3    0    0  0.86118059223E+01 -0.33758249743E+02 -0.20777407028E+02  0.40564694425E+02  0.10566000000E+00 0.  1.
         23    2    1    0    0    0 -0.59663157183E+01  0.20341698719E+02 -0.18858041326E+02  0.96627348509E+02  0.92367944262E+02 0.  0.
         13    1    3    3    0    0 -0.14578121641E+02  0.54099948462E+02  0.19193657025E+01  0.56062654083E+02  0.10566000000E+00 0. -1.
         22    1    1    0    0    0  0.59663157183E+01 -0.20341698719E+02  0.18858041326E+02  0.28372651491E+02  0.00000000000E+00 0. -1.
</event>
<event>
 5    1  0.8943113E-005  0.9118800E+02  0.7818608E-02  0.1130116E+00
         25   -1    0    0    0    0  0.00000000000E+00  0.00000000000E+00  0.99999998245E-14  0.12500000000E+03  0.12500000000E+03 0.  0.
        -13    1    3    3    0    0 -0.50879416800E+01 -0.60867834102E+02 -0.82050619513E+01  0.61628845393E+02  0.10566000000E+00 0. -1.
         23    2    1    0    0    0 -0.73761861786E+01 -0.27472115311E+02 -0.91591842831E+01  0.95116628388E+02  0.90300371522E+02 0.  0.
         13    1    3    3    0    0 -0.22882444985E+01  0.33395718791E+02 -0.95412233179E+00  0.33487782995E+02  0.10566000000E+00 0.  1.
         22    1    1    0    0    0  0.73761861786E+01  0.27472115311E+02  0.91591842831E+01  0.29883371612E+02  0.00000000000E+00 0. -1.
</event>
<event>
 5    1  0.8943113E-005  0.9118800E+02  0.7818608E-02  0.1130116E+00
         25   -1    0    0    0    0  0.00000000000E+00  0.00000000000E+00  0.99999998245E-14  0.12500000000E+03  0.12500000000E+03 0.  0.
        -13    1    3    3    0    0 -0.25061226007E+02 -0.16873665907E+02 -0.11295847812E+02  0.32255123499E+02  0.10566000000E+00 0.  1.
         23    2    1    0    0    0  0.29181733256E+02  0.97938551832E+01  0.20342695438E+01  0.94151476409E+02  0.88954309071E+02 0.  0.
         13    1    3    3    0    0  0.54242959263E+02  0.26667521090E+02  0.13330117356E+02  0.61896352909E+02  0.10566000000E+00 0. -1.
         22    1    1    0    0    0 -0.29181733256E+02 -0.97938551832E+01 -0.20342695438E+01  0.30848523591E+02  0.00000000000E+00 0. -1.
</event>
<event>
 5    1  0.8943113E-005  0.9118800E+02  0.7818608E-02  0.1130116E+00
         25   -1    0    0    0    0  0.00000000000E+00  0.00000000000E+00  0.99999998245E-14  0.12500000000E+03  0.12500000000E+03 0.  0.
        -13    1    3    3    0    0  0.34620203612E+02  0.71266020502E+01  0.11890027253E+02  0.37292504167E+02  0.10566000000E+00 0.  1.
         23    2    1    0    0    0 -0.23825873299E+02  0.32581499994E+01  0.16167979302E+02  0.96022571981E+02  0.91545851874E+02 0.  0.
         13    1    3    3    0    0 -0.58446076912E+02 -0.38684520508E+01  0.42779520482E+01  0.58730067814E+02  0.10566000000E+00 0. -1.
         22    1    1    0    0    0  0.23825873299E+02 -0.32581499994E+01 -0.16167979302E+02  0.28977428019E+02  0.00000000000E+00 0. -1.
</event>
<event>
 5    1  0.8943113E-005  0.9118800E+02  0.7818608E-02  0.1130116E+00
         25   -1    0    0    0    0  0.00000000000E+00  0.00000000000E+00  0.99999998245E-14  0.12500000000E+03  0.12500000000E+03 0.  0.
        -13    1    3    3    0    0  0.16852719904E+02 -0.60496130516E+01 -0.51298874324E+02  0.54334129764E+02  0.10566000000E+00 0.  1.
         23    2    1    0    0    0 -0.88847342964E+01  0.12734668951E+02 -0.24622786206E+02  0.95890003481E+02  0.91364658759E+02 0.  0.
         13    1    3    3    0    0 -0.25737454200E+02  0.18784282003E+02  0.26676088118E+02  0.41555873717E+02  0.10566000000E+00 0. -1.
         22    1    1    0    0    0  0.88847342964E+01 -0.12734668951E+02  0.24622786206E+02  0.29109996519E+02  0.00000000000E+00 0.  1.
</event>
<event>
 5    1  0.8943113E-005  0.9118800E+02  0.7818608E-02  0.1130116E+00
         25   -1    0    0    0    0  0.00000000000E+00  0.00000000000E+00  0.99999998245E-14  0.12500000000E+03  0.12500000000E+03 0.  0.
        -13    1    3    3    0    0 -0.42330066394E+02  0.66863932880E+01 -0.32097696132E+02  0.53542652504E+02  0.10566000000E+00 0.  1.
         23    2    1    0    0    0 -0.16822159553E+01 -0.29345748359E+01 -0.29405720643E+02  0.95400371852E+02  0.90692298256E+02 0.  0.
         13    1    3    3    0    0  0.40647850439E+02 -0.96209681239E+01  0.26919754895E+01  0.41857719348E+02  0.10566000000E+00 0. -1.
         22    1    1    0    0    0  0.16822159553E+01  0.29345748359E+01  0.29405720643E+02  0.29599628148E+02  0.00000000000E+00 0. -1.
</event>
<event>
 5    1  0.8943113E-005  0.9118800E+02  0.7818608E-02  0.1130116E+00
         25   -1    0    0    0    0  0.00000000000E+00  0.00000000000E+00  0.99999998245E-14  0.12500000000E+03  0.12500000000E+03 0.  0.
        -13    1    3    3    0    0 -0.17562675395E+02 -0.37724908251E+02  0.95652310167E+01  0.42698021945E+02  0.10566000000E+00 0. -1.
         23    2    1    0    0    0 -0.43089389301E+02 -0.11188048040E+02  0.11602010499E+01  0.80466709578E+02  0.67019977578E+02 0.  0.
         13    1    3    3    0    0 -0.25526713907E+02  0.26536860212E+02 -0.84050299668E+01  0.37768687633E+02  0.10566000000E+00 0.  1.
         22    1    1    0    0    0  0.43089389301E+02  0.11188048040E+02 -0.11602010499E+01  0.44533290422E+02  0.00000000000E+00 0.  1.
</event>
<event>
 5    1  0.8943113E-005  0.9118800E+02  0.7818608E-02  0.1130116E+00
         25   -1    0    0    0    0  0.00000000000E+00  0.00000000000E+00  0.99999998245E-14  0.12500000000E+03  0.12500000000E+03 0.  0.
        -13    1    3    3    0    0  0.26399243427E+02 -0.33282529892E+02 -0.44610099987E+02  0.61601290851E+02  0.10566000000E+00 0.  1.
         23    2    1    0    0    0  0.56627008946E+01 -0.13416046269E+02 -0.23920738951E+02  0.96995389114E+02  0.92864671854E+02 0.  0.
         13    1    3    3    0    0 -0.20736542533E+02  0.19866483623E+02  0.20689361036E+02  0.35394098264E+02  0.10566000000E+00 0. -1.
         22    1    1    0    0    0 -0.56627008946E+01  0.13416046269E+02  0.23920738951E+02  0.28004610886E+02  0.00000000000E+00 0.  1.
</event>
<event>
 5    1  0.8943113E-005  0.9118800E+02  0.7818608E-02  0.1130116E+00
         25   -1    0    0    0    0  0.00000000000E+00  0.00000000000E+00  0.99999998245E-14  0.12500000000E+03  0.12500000000E+03 0.  0.
        -13    1    3    3    0    0 -0.32907679911E+02  0.39110182068E+01  0.14083947750E+02  0.36008057554E+02  0.10566000000E+00 0. -1.
         23    2    1    0    0    0  0.12925060791E+02  0.32460070113E+01 -0.25276195290E+02  0.96425889230E+02  0.92094909237E+02 0.  0.
         13    1    3    3    0    0  0.45832740702E+02 -0.66501119547E+00 -0.39360143040E+02  0.60417831675E+02  0.10566000000E+00 0.  1.
         22    1    1    0    0    0 -0.12925060791E+02 -0.32460070113E+01  0.25276195290E+02  0.28574110770E+02  0.00000000000E+00 0.  1.
</event>
<event>
 5    1  0.8943113E-005  0.9118800E+02  0.7818608E-02  0.1130116E+00
         25   -1    0    0    0    0  0.00000000000E+00  0.00000000000E+00  0.99999998245E-14  0.12500000000E+03  0.12500000000E+03 0.  0.
        -13    1    3    3    0    0 -0.36030187784E+02  0.16411494906E+02  0.94198050888E+01  0.40697118924E+02  0.10566000000E+00 0.  1.
         23    2    1    0    0    0 -0.63905557937E+01  0.19190571790E+02 -0.29212185750E+02  0.89468759587E+02  0.82110839095E+02 0.  0.
         13    1    3    3    0    0  0.29639631990E+02  0.27790768844E+01 -0.38631990838E+02  0.48771640663E+02  0.10566000000E+00 0. -1.
         22    1    1    0    0    0  0.63905557937E+01 -0.19190571790E+02  0.29212185750E+02  0.35531240413E+02  0.00000000000E+00 0. -1.
</event>
<event>
 5    1  0.8943113E-005  0.9118800E+02  0.7818608E-02  0.1130116E+00
         25   -1    0    0    0    0  0.00000000000E+00  0.00000000000E+00  0.99999998245E-14  0.12500000000E+03  0.12500000000E+03 0.  0.
        -13    1    3    3    0    0 -0.23416801342E+02  0.30951813746E+02 -0.18948991654E+02  0.43190702796E+02  0.10566000000E+00 0. -1.
         23    2    1    0    0    0  0.13136990146E+02 -0.30915413961E+01 -0.27964555370E+02  0.93949162727E+02  0.88669558935E+02 0.  0.
         13    1    3    3    0    0  0.36553791487E+02 -0.34043355142E+02 -0.90155637162E+01  0.50758459931E+02  0.10566000000E+00 0.  1.
         22    1    1    0    0    0 -0.13136990146E+02  0.30915413961E+01  0.27964555370E+02  0.31050837273E+02  0.00000000000E+00 0.  1.
</event>
<event>
 5    1  0.8943113E-005  0.9118800E+02  0.7818608E-02  0.1130116E+00
         25   -1    0    0    0    0  0.00000000000E+00  0.00000000000E+00  0.99999998245E-14  0.12500000000E+03  0.12500000000E+03 0.  0.
        -13    1    3    3    0    0  0.18145053587E+02  0.27111948953E+02  0.42478533779E+02  0.53560598781E+02  0.10566000000E+00 0.  1.
         23    2    1    0    0    0 -0.92531825647E+01  0.57890328245E+01  0.33988903369E+02  0.89301542879E+02  0.81855883843E+02 0.  0.
         13    1    3    3    0    0 -0.27398236152E+02 -0.21322916129E+02 -0.84896304101E+01  0.35740944098E+02  0.10566000000E+00 0. -1.
         22    1    1    0    0    0  0.92531825647E+01 -0.57890328245E+01 -0.33988903369E+02  0.35698457121E+02  0.00000000000E+00 0.  1.
</event>
<event>
 5    1  0.8943113E-005  0.9118800E+02  0.7818608E-02  0.1130116E+00
         25   -1    0    0    0    0  0.00000000000E+00  0.00000000000E+00  0.99999998245E-14  0.12500000000E+03  0.12500000000E+03 0.  0.
        -13    1    3    3    0    0  0.54848339188E+02  0.12555825002E+02 -0.31013355215E+01  0.56352626374E+02  0.10566000000E+00 0. -1.
         23    2    1    0    0    0  0.16869429899E+02  0.12863607455E+02  0.15580456817E+02  0.98678892567E+02  0.95103749357E+02 0.  0.
         13    1    3    3    0    0 -0.37978909289E+02  0.30778245318E+00  0.18681792338E+02  0.42326266193E+02  0.10566000000E+00 0.  1.
         22    1    1    0    0    0 -0.16869429899E+02 -0.12863607455E+02 -0.15580456817E+02  0.26321107433E+02  0.00000000000E+00 0. -1.
</event>
<event>
 5    1  0.8943113E-005  0.9118800E+02  0.7818608E-02  0.1130116E+00
         25   -1    0    0    0    0  0.00000000000E+00  0.00000000000E+00  0.99999998245E-14  0.12500000000E+03  0.12500000000E+03 0.  0.
        -13    1    3    3    0    0  0.16154365830E+02 -0.89103868976E+00 -0.28828865810E+02  0.33058616928E+02  0.10566000000E+00 0. -1.
         23    2    1    0    0    0 -0.31556338193E+01 -0.10035281971E+02  0.28703096340E+02  0.94429873266E+02  0.89344660257E+02 0.  0.
         13    1    3    3    0    0 -0.19309999649E+02 -0.91442432811E+01  0.57531962150E+02  0.61371256338E+02  0.10566000000E+00 0.  1.
         22    1    1    0    0    0  0.31556338193E+01  0.10035281971E+02 -0.28703096340E+02  0.30570126734E+02  0.00000000000E+00 0.  1.
</event>
<event>
 5    1  0.8943113E-005  0.9118800E+02  0.7818608E-02  0.1130116E+00
         25   -1    0    0    0    0  0.00000000000E+00  0.00000000000E+00  0.99999998245E-14  0.12500000000E+03  0.12500000000E+03 0.  0.
        -13    1    3    3    0    0 -0.38577239044E+02 -0.27174805177E+02  0.25744868302E+02  0.53753909779E+02  0.10566000000E+00 0.  1.
         23    2    1    0    0    0 -0.11666910206E+02 -0.25022035576E+02 -0.73178900469E+01  0.96438302346E+02  0.92111755962E+02 0.  0.
         13    1    3    3    0    0  0.26910328838E+02  0.21527696010E+01 -0.33062758349E+02  0.42684392566E+02  0.10566000000E+00 0. -1.
         22    1    1    0    0    0  0.11666910206E+02  0.25022035576E+02  0.73178900469E+01  0.28561697654E+02  0.00000000000E+00 0.  1.
</event>
<event>
 5    1  0.8943113E-005  0.9118800E+02  0.7818608E-02  0.1130116E+00
         25   -1    0    0    0    0  0.00000000000E+00  0.00000000000E+00  0.99999998245E-14  0.12500000000E+03  0.12500000000E+03 0.  0.
        -13    1    3    3    0    0  0.32276238552E+02  0.25538262394E+02  0.41360629479E+02  0.58349560891E+02  0.10566000000E+00 0.  1.
         23    2    1    0    0    0  0.28590725124E+02  0.11750656183E+02  0.10494100061E+02  0.92355955828E+02  0.86394380355E+02 0.  0.
         13    1    3    3    0    0 -0.36855134285E+01 -0.13787606212E+02 -0.30866529418E+02  0.34006394937E+02  0.10566000000E+00 0. -1.
         22    1    1    0    0    0 -0.28590725124E+02 -0.11750656183E+02 -0.10494100061E+02  0.32644044172E+02  0.00000000000E+00 0.  1.
</event>
<event>
 5    1  0.8943113E-005  0.9118800E+02  0.7818608E-02  0.1130116E+00
         25   -1    0    0    0    0  0.00000000000E+00  0.00000000000E+00  0.99999998245E-14  0.12500000000E+03  0.12500000000E+03 0.  0.
        -13    1    3    3    0    0  0.13985315076E+02 -0.16328944361E+02 -0.48843982423E+02  0.53366368105E+02  0.10566000000E+00 0.  1.
         23    2    1    0    0    0  0.21735176672E+02 -0.18378130361E+02 -0.73840849196E+01  0.95594247320E+02  0.90959121753E+02 0.  0.
         13    1    3    3    0    0  0.77498615968E+01 -0.20491860002E+01  0.41459897503E+02  0.42227879216E+02  0.10566000000E+00 0. -1.
         22    1    1    0    0    0 -0.21735176672E+02  0.18378130361E+02  0.73840849196E+01  0.29405752680E+02  0.00000000000E+00 0.  1.
</event>
<event>
 5    1  0.8943113E-005  0.9118800E+02  0.7818608E-02  0.1130116E+00
         25   -1    0    0    0    0  0.00000000000E+00  0.00000000000E+00  0.99999998245E-14  0.12500000000E+03  0.12500000000E+03 0.  0.
        -13    1    3    3    0    0 -0.18213825376E+02  0.16992090276E+02 -0.40350734897E+02  0.47420117435E+02  0.10566000000E+00 0.  1.
         23    2    1    0    0    0 -0.13224646110E+02  0.36984823961E+02 -0.93835756279E+01  0.84616588063E+02  0.74358234350E+02 0.  0.
         13    1    3    3    0    0  0.49891792656E+01  0.19992733684E+02  0.30967159269E+02  0.37196470628E+02  0.10566000000E+00 0. -1.
         22    1    1    0    0    0  0.13224646110E+02 -0.36984823961E+02  0.93835756279E+01  0.40383411937E+02  0.00000000000E+00 0.  1.
</event>
<event>
 5    1  0.8943113E-005  0.9118800E+02  0.7818608E-02  0.1130116E+00
         25   -1    0    0    0    0  0.00000000000E+00  0.00000000000E+00  0.99999998245E-14  0.12500000000E+03  0.12500000000E+03 0.  0.
        -13    1    3    3    0    0 -0.40536618188E+01  0.25961878001E+02  0.42595129050E+02  0.50048051573E+02  0.10566000000E+00 0.  1.
         23    2    1    0    0    0 -0.25766047124E+02  0.13138707290E+02  0.45051632371E+01  0.95728660614E+02  0.91143651197E+02 0.  0.
         13    1    3    3    0    0 -0.21712385305E+02 -0.12823170711E+02 -0.38089965813E+02  0.45680609041E+02  0.10566000000E+00 0. -1.
         22    1    1    0    0    0  0.25766047124E+02 -0.13138707290E+02 -0.45051632371E+01  0.29271339386E+02  0.00000000000E+00 0.  1.
</event>
<event>
 5    1  0.8943113E-005  0.9118800E+02  0.7818608E-02  0.1130116E+00
         25   -1    0    0    0    0  0.00000000000E+00  0.00000000000E+00  0.99999998245E-14  0.12500000000E+03  0.12500000000E+03 0.  0.
        -13    1    3    3    0    0  0.21192175256E+02 -0.47166561636E+02 -0.51375872805E+01  0.51963437105E+02  0.10566000000E+00 0.  1.
         23    2    1    0    0    0  0.64936492228E+00 -0.17950338010E+02  0.21839754588E+02  0.96722602844E+02  0.92496760543E+02 0.  0.
         13    1    3    3    0    0 -0.20542810333E+02  0.29216223626E+02  0.26977341868E+02  0.44759165739E+02  0.10566000000E+00 0. -1.
         22    1    1    0    0    0 -0.64936492228E+00  0.17950338010E+02 -0.21839754588E+02  0.28277397156E+02  0.00000000000E+00 0.  1.
</event>
<event>
 5    1  0.8943113E-005  0.9118800E+02  0.7818608E-02  0.1130116E+00
         25   -1    0    0    0    0  0.00000000000E+00  0.00000000000E+00  0.99999998245E-14  0.12500000000E+03  0.12500000000E+03 0.  0.
        -13    1    3    3    0    0  0.21637727523E+02 -0.22179275702E+02 -0.36431219032E+02  0.47826315008E+02  0.10566000000E+00 0.  1.
         23    2    1    0    0    0 -0.13611737205E+02  0.64448098676E+01 -0.26820910962E+02  0.94240022289E+02  0.89078648240E+02 0.  0.
         13    1    3    3    0    0 -0.35249464728E+02  0.28624085570E+02  0.96103080706E+01  0.46413707281E+02  0.10566000000E+00 0. -1.
         22    1    1    0    0    0  0.13611737205E+02 -0.64448098676E+01  0.26820910962E+02  0.30759977711E+02  0.00000000000E+00 0.  1.
</event>
<event>
 5    1  0.8943113E-005  0.9118800E+02  0.7818608E-02  0.1130116E+00
         25   -1    0    0    0    0  0.00000000000E+00  0.00000000000E+00  0.99999998245E-14  0.12500000000E+03  0.12500000000E+03 0.  0.
        -13    1    3    3    0    0  0.79422354050E+01  0.33828404084E+02 -0.40072277493E+02  0.53039971848E+02  0.10566000000E+00 0. -1.
         23    2    1    0    0    0  0.19748790517E+02  0.22542618393E+02 -0.14255952771E+01  0.94996388671E+02  0.90133773735E+02 0.  0.
         13    1    3    3    0    0  0.11806555112E+02 -0.11285785691E+02  0.38646682216E+02  0.41956416823E+02  0.10566000000E+00 0.  1.
         22    1    1    0    0    0 -0.19748790517E+02 -0.22542618393E+02  0.14255952771E+01  0.30003611329E+02  0.00000000000E+00 0.  1.
</event>
<event>
 5    1  0.8943113E-005  0.9118800E+02  0.7818608E-02  0.1130116E+00
         25   -1    0    0    0    0  0.00000000000E+00  0.00000000000E+00  0.99999998245E-14  0.12500000000E+03  0.12500000000E+03 0.  0.
        -13    1    3    3    0    0 -0.24647106337E+02 -0.31222274756E+01  0.28805064363E+02  0.38039072704E+02  0.10566000000E+00 0.  1.
         23    2    1    0    0    0 -0.17664381065E+02  0.26017928714E+01 -0.25931817365E+02  0.93515736686E+02  0.88056426066E+02 0.  0.
         13    1    3    3    0    0  0.69827252724E+01  0.57240203470E+01 -0.54736881728E+02  0.55476663982E+02  0.10566000000E+00 0. -1.
         22    1    1    0    0    0  0.17664381065E+02 -0.26017928714E+01  0.25931817365E+02  0.31484263314E+02  0.00000000000E+00 0. -1.
</event>
<event>
 5    1  0.8943113E-005  0.9118800E+02  0.7818608E-02  0.1130116E+00
         25   -1    0    0    0    0  0.00000000000E+00  0.00000000000E+00  0.99999998245E-14  0.12500000000E+03  0.12500000000E+03 0.  0.
        -13    1    3    3    0    0  0.24820052894E+02 -0.21279139354E+02  0.53079373024E+02  0.62339937455E+02  0.10566000000E+00 0.  1.
         23    2    1    0    0    0  0.11915747974E+02 -0.65228530851E+01  0.24286939366E+02  0.97172170658E+02  0.93102323626E+02 0.  0.
         13    1    3    3    0    0 -0.12904304920E+02  0.14756286269E+02 -0.28792433658E+02  0.34832233203E+02  0.10566000000E+00 0. -1.
         22    1    1    0    0    0 -0.11915747974E+02  0.65228530851E+01 -0.24286939366E+02  0.27827829342E+02  0.00000000000E+00 0.  1.
</event>
<event>
 5    1  0.8943113E-005  0.9118800E+02  0.7818608E-02  0.1130116E+00
         25   -1    0    0    0    0  0.00000000000E+00  0.00000000000E+00  0.99999998245E-14  0.12500000000E+03  0.12500000000E+03 0.  0.
        -13    1    3    3    0    0 -0.23481283870E+02  0.30404780710E+02 -0.21340046032E+02  0.43945763287E+02  0.10566000000E+00 0. -1.
         23    2    1    0    0    0 -0.19867079466E+02 -0.19296761080E+02 -0.26138260914E+01  0.97180979141E+02  0.93114149222E+02 0.  0.
         13    1    3    3    0    0  0.36142044038E+01 -0.49701541790E+02  0.18726219941E+02  0.53235215854E+02  0.10566000000E+00 0.  1.
         22    1    1    0    0    0  0.19867079466E+02  0.19296761080E+02  0.26138260914E+01  0.27819020859E+02  0.00000000000E+00 0.  1.
</event>
<event>
 5    1  0.8943113E-005  0.9118800E+02  0.7818608E-02  0.1130116E+00
         25   -1    0    0    0    0  0.00000000000E+00  0.00000000000E+00  0.99999998245E-14  0.12500000000E+03  0.12500000000E+03 0.  0.
        -13    1    3    3    0    0 -0.36638462486E+02  0.18450660757E+02 -0.17662842967E+02  0.44663083206E+02  0.10566000000E+00 0.  1.
         23    2    1    0    0    0  0.15576533462E+02  0.48785054047E+01 -0.20628627920E+02  0.98694705865E+02  0.95124531359E+02 0.  0.
         13    1    3    3    0    0  0.52214995948E+02 -0.13572155353E+02 -0.29657849525E+01  0.54031622659E+02  0.10566000000E+00 0. -1.
         22    1    1    0    0    0 -0.15576533462E+02 -0.48785054047E+01  0.20628627920E+02  0.26305294135E+02  0.00000000000E+00 0. -1.
</event>
<event>
 5    1  0.8943113E-005  0.9118800E+02  0.7818608E-02  0.1130116E+00
         25   -1    0    0    0    0  0.00000000000E+00  0.00000000000E+00  0.99999998245E-14  0.12500000000E+03  0.12500000000E+03 0.  0.
        -13    1    3    3    0    0  0.23776700310E+02  0.17835469534E+02 -0.17882710449E+02  0.34687720423E+02  0.10566000000E+00 0.  1.
         23    2    1    0    0    0 -0.15038537345E+02 -0.25751977647E+01  0.24798719281E+02  0.95883583205E+02  0.91355874476E+02 0.  0.
         13    1    3    3    0    0 -0.38815237654E+02 -0.20410667299E+02  0.42681429731E+02  0.61195862782E+02  0.10566000000E+00 0. -1.
         22    1    1    0    0    0  0.15038537345E+02  0.25751977647E+01 -0.24798719281E+02  0.29116416795E+02  0.00000000000E+00 0. -1.
</event>
<event>
 5    1  0.8943113E-005  0.9118800E+02  0.7818608E-02  0.1130116E+00
         25   -1    0    0    0    0  0.00000000000E+00  0.00000000000E+00  0.99999998245E-14  0.12500000000E+03  0.12500000000E+03 0.  0.
        -13    1    3    3    0    0  0.28618326114E+02  0.22972773861E+01 -0.16907505440E+01  0.28760317703E+02  0.10566000000E+00 0. -1.
         23    2    1    0    0    0 -0.32291173813E+02 -0.52406288065E+01  0.90278407447E+01  0.91063500401E+02  0.84503698737E+02 0.  0.
         13    1    3    3    0    0 -0.60909499927E+02 -0.75379061926E+01  0.10718591289E+02  0.62303182698E+02  0.10566000000E+00 0.  1.
         22    1    1    0    0    0  0.32291173813E+02  0.52406288065E+01 -0.90278407447E+01  0.33936499599E+02  0.00000000000E+00 0.  1.
</event>
<event>
 5    1  0.8943113E-005  0.9118800E+02  0.7818608E-02  0.1130116E+00
         25   -1    0    0    0    0  0.00000000000E+00  0.00000000000E+00  0.99999998245E-14  0.12500000000E+03  0.12500000000E+03 0.  0.
        -13    1    3    3    0    0  0.21094068008E+02 -0.75533045488E+01 -0.28107628874E+02  0.35945265052E+02  0.10566000000E+00 0.  1.
         23    2    1    0    0    0 -0.34394464616E+01 -0.99227084659E+01  0.26845804404E+02  0.96173152282E+02  0.91751229259E+02 0.  0.
         13    1    3    3    0    0 -0.24533514469E+02 -0.23694039171E+01  0.54953433278E+02  0.60227887230E+02  0.10566000000E+00 0. -1.
         22    1    1    0    0    0  0.34394464616E+01  0.99227084659E+01 -0.26845804404E+02  0.28826847718E+02  0.00000000000E+00 0. -1.
</event>
<event>
 5    1  0.8943113E-005  0.9118800E+02  0.7818608E-02  0.1130116E+00
         25   -1    0    0    0    0  0.00000000000E+00  0.00000000000E+00  0.99999998245E-14  0.12500000000E+03  0.12500000000E+03 0.  0.
        -13    1    3    3    0    0  0.31791155282E+02 -0.36118158556E+02  0.30922982807E+02  0.57196511794E+02  0.10566000000E+00 0. -1.
         23    2    1    0    0    0  0.20670063230E+02 -0.21021528262E+00  0.19744748893E+02  0.96414150122E+02  0.92078974421E+02 0.  0.
         13    1    3    3    0    0 -0.11121092052E+02  0.35907943273E+02 -0.11178233914E+02  0.39217638328E+02  0.10566000000E+00 0.  1.
         22    1    1    0    0    0 -0.20670063230E+02  0.21021528262E+00 -0.19744748893E+02  0.28585849878E+02  0.00000000000E+00 0. -1.
</event>
<event>
 5    1  0.8943113E-005  0.9118800E+02  0.7818608E-02  0.1130116E+00
         25   -1    0    0    0    0  0.00000000000E+00  0.00000000000E+00  0.99999998245E-14  0.12500000000E+03  0.12500000000E+03 0.  0.
        -13    1    3    3    0    0  0.55491972764E+02  0.21253617711E+02  0.12245039238E+02  0.60671471526E+02  0.10566000000E+00 0. -1.
         23    2    1    0    0    0  0.24181536041E+02  0.16338433763E+02 -0.26598123781E+01  0.95695295514E+02  0.91097880757E+02 0.  0.
         13    1    3    3    0    0 -0.31310436723E+02 -0.49151839489E+01 -0.14904851616E+02  0.35023823988E+02  0.10566000000E+00 0.  1.
         22    1    1    0    0    0 -0.24181536041E+02 -0.16338433763E+02  0.26598123781E+01  0.29304704486E+02  0.00000000000E+00 0. -1.
</event>
<event>
 5    1  0.8943113E-005  0.9118800E+02  0.7818608E-02  0.1130116E+00
         25   -1    0    0    0    0  0.00000000000E+00  0.00000000000E+00  0.99999998245E-14  0.12500000000E+03  0.12500000000E+03 0.  0.
        -13    1    3    3    0    0 -0.28848234825E+02 -0.27878242039E+02 -0.23481242902E+01  0.40186339512E+02  0.10566000000E+00 0.  1.
         23    2    1    0    0    0  0.36413519324E+01  0.55662958591E+01 -0.29915801796E+02  0.94353657795E+02  0.89237965288E+02 0.  0.
         13    1    3    3    0    0  0.32489586757E+02  0.33444537898E+02 -0.27567677505E+02  0.54167318283E+02  0.10566000000E+00 0. -1.
         22    1    1    0    0    0 -0.36413519324E+01 -0.55662958591E+01  0.29915801796E+02  0.30646342205E+02  0.00000000000E+00 0. -1.
</event>
<event>
 5    1  0.8943113E-005  0.9118800E+02  0.7818608E-02  0.1130116E+00
         25   -1    0    0    0    0  0.00000000000E+00  0.00000000000E+00  0.99999998245E-14  0.12500000000E+03  0.12500000000E+03 0.  0.
        -13    1    3    3    0    0 -0.27728181402E+02 -0.91525371639E+01  0.54526262125E+02  0.61852610339E+02  0.10566000000E+00 0. -1.
         23    2    1    0    0    0 -0.10120152102E+02  0.11610578456E+01  0.27181758450E+02  0.95972193911E+02  0.91477037981E+02 0.  0.
         13    1    3    3    0    0  0.17608029300E+02  0.10313595010E+02 -0.27344503675E+02  0.34119583572E+02  0.10566000000E+00 0.  1.
         22    1    1    0    0    0  0.10120152102E+02 -0.11610578456E+01 -0.27181758450E+02  0.29027806089E+02  0.00000000000E+00 0. -1.
</event>
<event>
 5    1  0.8943113E-005  0.9118800E+02  0.7818608E-02  0.1130116E+00
         25   -1    0    0    0    0  0.00000000000E+00  0.00000000000E+00  0.99999998245E-14  0.12500000000E+03  0.12500000000E+03 0.  0.
        -13    1    3    3    0    0  0.59520073003E+02  0.17582134790E+02  0.73196963078E+01  0.62492876971E+02  0.10566000000E+00 0. -1.
         23    2    1    0    0    0  0.24215260374E+02  0.73683404278E+01  0.36107361903E+01  0.99432272461E+02  0.96088855313E+02 0.  0.
         13    1    3    3    0    0 -0.35304812629E+02 -0.10213794362E+02 -0.37089601175E+01  0.36939395490E+02  0.10566000000E+00 0.  1.
         22    1    1    0    0    0 -0.24215260374E+02 -0.73683404278E+01 -0.36107361903E+01  0.25567727539E+02  0.00000000000E+00 0. -1.
</event>
<event>
 5    1  0.8943113E-005  0.9118800E+02  0.7818608E-02  0.1130116E+00
         25   -1    0    0    0    0  0.00000000000E+00  0.00000000000E+00  0.99999998245E-14  0.12500000000E+03  0.12500000000E+03 0.  0.
        -13    1    3    3    0    0  0.12684161638E+02 -0.62510508395E+01  0.42689451263E+02  0.44970701643E+02  0.10566000000E+00 0. -1.
         23    2    1    0    0    0 -0.26868128624E+02 -0.57812186496E+01  0.12113439064E+02  0.94965782334E+02  0.90091318026E+02 0.  0.
         13    1    3    3    0    0 -0.39552290262E+02  0.46983218992E+00 -0.30576012199E+02  0.49995080691E+02  0.10566000000E+00 0.  1.
         22    1    1    0    0    0  0.26868128624E+02  0.57812186496E+01 -0.12113439064E+02  0.30034217666E+02  0.00000000000E+00 0.  1.
</event>
<event>
 5    1  0.8943113E-005  0.9118800E+02  0.7818608E-02  0.1130116E+00
         25   -1    0    0    0    0  0.00000000000E+00  0.00000000000E+00  0.99999998245E-14  0.12500000000E+03  0.12500000000E+03 0.  0.
        -13    1    3    3    0    0  0.35722714507E+02  0.19002885961E+02  0.98918447449E+01  0.41654312659E+02  0.10566000000E+00 0.  1.
         23    2    1    0    0    0  0.37316730068E+01 -0.26146957727E+02  0.93194447896E+01  0.96992129088E+02  0.92860283609E+02 0.  0.
         13    1    3    3    0    0 -0.31991041500E+02 -0.45149843689E+02 -0.57239995534E+00  0.55337816429E+02  0.10566000000E+00 0. -1.
         22    1    1    0    0    0 -0.37316730068E+01  0.26146957727E+02 -0.93194447896E+01  0.28007870912E+02  0.00000000000E+00 0. -1.
</event>
<event>
 5    1  0.8943113E-005  0.9118800E+02  0.7818608E-02  0.1130116E+00
         25   -1    0    0    0    0  0.00000000000E+00  0.00000000000E+00  0.99999998245E-14  0.12500000000E+03  0.12500000000E+03 0.  0.
        -13    1    3    3    0    0  0.38511892047E+02  0.27420608141E+01  0.48795600013E+02  0.62223038107E+02  0.10566000000E+00 0.  1.
         23    2    1    0    0    0  0.17935496096E+02 -0.28713362468E+01  0.22024052027E+02  0.96452049816E+02  0.92130410039E+02 0.  0.
         13    1    3    3    0    0 -0.20576395952E+02 -0.56133970609E+01 -0.26771547986E+02  0.34229011709E+02  0.10566000000E+00 0. -1.
         22    1    1    0    0    0 -0.17935496096E+02  0.28713362468E+01 -0.22024052027E+02  0.28547950184E+02  0.00000000000E+00 0.  1.
</event>
<event>
 5    1  0.8943113E-005  0.9118800E+02  0.7818608E-02  0.1130116E+00
         25   -1    0    0    0    0  0.00000000000E+00  0.00000000000E+00  0.99999998245E-14  0.12500000000E+03  0.12500000000E+03 0.  0.
        -13    1    3    3    0    0  0.17100351304E+02  0.26133837277E+02 -0.94409674258E+01  0.32627327434E+02  0.10566000000E+00 0.  1.
         23    2    1    0    0    0 -0.15519684597E+02 -0.94435172329E+01  0.26544875475E+02  0.92833697108E+02  0.87082858687E+02 0.  0.
         13    1    3    3    0    0 -0.32620035901E+02 -0.35577354509E+02  0.35985842901E+02  0.60206369675E+02  0.10566000000E+00 0. -1.
         22    1    1    0    0    0  0.15519684597E+02  0.94435172329E+01 -0.26544875475E+02  0.32166302892E+02  0.00000000000E+00 0. -1.
</event>
<event>
 5    1  0.8943113E-005  0.9118800E+02  0.7818608E-02  0.1130116E+00
         25   -1    0    0    0    0  0.00000000000E+00  0.00000000000E+00  0.99999998245E-14  0.12500000000E+03  0.12500000000E+03 0.  0.
        -13    1    3    3    0    0 -0.14645355203E+02  0.49946394605E+02 -0.42118962178E+00  0.52051103041E+02  0.10566000000E+00 0. -1.
         23    2    1    0    0    0 -0.20979937713E+02  0.10879516509E+02 -0.17936714132E+02  0.95331036759E+02  0.90596684209E+02 0.  0.
         13    1    3    3    0    0 -0.63345825108E+01 -0.39066878096E+02 -0.17515524511E+02  0.43279933718E+02  0.10566000000E+00 0.  1.
         22    1    1    0    0    0  0.20979937713E+02 -0.10879516509E+02  0.17936714132E+02  0.29668963241E+02  0.00000000000E+00 0.  1.
</event>
<event>
 5    1  0.8943113E-005  0.9118800E+02  0.7818608E-02  0.1130116E+00
         25   -1    0    0    0    0  0.00000000000E+00  0.00000000000E+00  0.99999998245E-14  0.12500000000E+03  0.12500000000E+03 0.  0.
        -13    1    3    3    0    0  0.12621075002E+02  0.20453874668E+02  0.37614425496E+02  0.44637525610E+02  0.10566000000E+00 0. -1.
         23    2    1    0    0    0 -0.93880368601E+01  0.28110570107E+02 -0.66182852385E+01  0.94633223955E+02  0.89628711855E+02 0.  0.
         13    1    3    3    0    0 -0.22009111862E+02  0.76566954390E+01 -0.44232710735E+02  0.49995698345E+02  0.10566000000E+00 0.  1.
         22    1    1    0    0    0  0.93880368601E+01 -0.28110570107E+02  0.66182852385E+01  0.30366776045E+02  0.00000000000E+00 0.  1.
</event>
<event>
 5    1  0.8943113E-005  0.9118800E+02  0.7818608E-02  0.1130116E+00
         25   -1    0    0    0    0  0.00000000000E+00  0.00000000000E+00  0.99999998245E-14  0.12500000000E+03  0.12500000000E+03 0.  0.
        -13    1    3    3    0    0  0.21099940846E+02 -0.29038318853E+02 -0.10129653115E+02  0.37296816242E+02  0.10566000000E+00 0. -1.
         23    2    1    0    0    0 -0.20234593648E+02  0.11785577061E+02 -0.17372831112E+02  0.95842601837E+02  0.91299783457E+02 0.  0.
         13    1    3    3    0    0 -0.41334534494E+02  0.40823895914E+02 -0.72431779966E+01  0.58545785595E+02  0.10566000000E+00 0.  1.
         22    1    1    0    0    0  0.20234593648E+02 -0.11785577061E+02  0.17372831112E+02  0.29157398163E+02  0.00000000000E+00 0.  1.
</event>
<event>
 5    1  0.8943113E-005  0.9118800E+02  0.7818608E-02  0.1130116E+00
         25   -1    0    0    0    0  0.00000000000E+00  0.00000000000E+00  0.99999998245E-14  0.12500000000E+03  0.12500000000E+03 0.  0.
        -13    1    3    3    0    0  0.56510830913E+01 -0.43511010502E+02 -0.35798715856E+02  0.56627749346E+02  0.10566000000E+00 0.  1.
         23    2    1    0    0    0 -0.12959070932E+02 -0.26210796241E+02 -0.71935948990E+01  0.94888687067E+02  0.89984286221E+02 0.  0.
         13    1    3    3    0    0 -0.18610154023E+02  0.17300214261E+02  0.28605120957E+02  0.38260937721E+02  0.10566000000E+00 0. -1.
         22    1    1    0    0    0  0.12959070932E+02  0.26210796241E+02  0.71935948990E+01  0.30111312933E+02  0.00000000000E+00 0.  1.
</event>
<event>
 5    1  0.8943113E-005  0.9118800E+02  0.7818608E-02  0.1130116E+00
         25   -1    0    0    0    0  0.00000000000E+00  0.00000000000E+00  0.99999998245E-14  0.12500000000E+03  0.12500000000E+03 0.  0.
        -13    1    3    3    0    0 -0.40505232208E+02  0.44773563089E+02 -0.61869507689E+01  0.60692959326E+02  0.10566000000E+00 0.  1.
         23    2    1    0    0    0 -0.25566530572E+02  0.13002577744E+02 -0.54204319052E+01  0.95809323483E+02  0.91254210153E+02 0.  0.
         13    1    3    3    0    0  0.14938701636E+02 -0.31770985345E+02  0.76651886373E+00  0.35116364157E+02  0.10566000000E+00 0. -1.
         22    1    1    0    0    0  0.25566530572E+02 -0.13002577744E+02  0.54204319052E+01  0.29190676517E+02  0.00000000000E+00 0.  1.
</event>
<event>
 5    1  0.8943113E-005  0.9118800E+02  0.7818608E-02  0.1130116E+00
         25   -1    0    0    0    0  0.00000000000E+00  0.00000000000E+00  0.99999998245E-14  0.12500000000E+03  0.12500000000E+03 0.  0.
        -13    1    3    3    0    0 -0.34799451987E+02  0.84425890545E+01  0.23632780666E+02  0.42904529535E+02  0.10566000000E+00 0.  1.
         23    2    1    0    0    0  0.44574818774E+01  0.24835816746E+02 -0.10719446258E+02  0.97584794981E+02  0.93654678181E+02 0.  0.
         13    1    3    3    0    0  0.39256933865E+02  0.16393227692E+02 -0.34352226924E+02  0.54680265446E+02  0.10566000000E+00 0. -1.
         22    1    1    0    0    0 -0.44574818774E+01 -0.24835816746E+02  0.10719446258E+02  0.27415205019E+02  0.00000000000E+00 0. -1.
</event>
<event>
 5    1  0.8943113E-005  0.9118800E+02  0.7818608E-02  0.1130116E+00
         25   -1    0    0    0    0  0.00000000000E+00  0.00000000000E+00  0.99999998245E-14  0.12500000000E+03  0.12500000000E+03 0.  0.
        -13    1    3    3    0    0  0.22090194236E+02  0.31641950978E+02 -0.43584167997E+02  0.58213233952E+02  0.10566000000E+00 0. -1.
         23    2    1    0    0    0  0.21614816700E+02  0.12811254317E+02 -0.77349759644E+01  0.98710108571E+02  0.95144769393E+02 0.  0.
         13    1    3    3    0    0 -0.47537753598E+00 -0.18830696661E+02  0.35849192033E+02  0.40496874620E+02  0.10566000000E+00 0.  1.
         22    1    1    0    0    0 -0.21614816700E+02 -0.12811254317E+02  0.77349759644E+01  0.26289891429E+02  0.00000000000E+00 0. -1.
</event>
<event>
 5    1  0.8943113E-005  0.9118800E+02  0.7818608E-02  0.1130116E+00
         25   -1    0    0    0    0  0.00000000000E+00  0.00000000000E+00  0.99999998245E-14  0.12500000000E+03  0.12500000000E+03 0.  0.
        -13    1    3    3    0    0 -0.22796612120E+02 -0.46540363265E+01  0.33169412088E+02  0.40516251561E+02  0.10566000000E+00 0.  1.
         23    2    1    0    0    0 -0.17062646729E+01  0.29100189298E+02 -0.47217581891E+01  0.95469890676E+02  0.90788064574E+02 0.  0.
         13    1    3    3    0    0  0.21090347447E+02  0.33754225624E+02 -0.37891170277E+02  0.54953639115E+02  0.10566000000E+00 0. -1.
         22    1    1    0    0    0  0.17062646729E+01 -0.29100189298E+02  0.47217581891E+01  0.29530109324E+02  0.00000000000E+00 0. -1.
</event>
<event>
 5    1  0.8943113E-005  0.9118800E+02  0.7818608E-02  0.1130116E+00
         25   -1    0    0    0    0  0.00000000000E+00  0.00000000000E+00  0.99999998245E-14  0.12500000000E+03  0.12500000000E+03 0.  0.
        -13    1    3    3    0    0 -0.57483337145E+02  0.20497937385E+00  0.74045703982E+01  0.57958734395E+02  0.10566000000E+00 0.  1.
         23    2    1    0    0    0 -0.22325275127E+02 -0.14397115152E+02  0.11103451900E+02  0.96207961547E+02  0.91798640440E+02 0.  0.
         13    1    3    3    0    0  0.35158062017E+02 -0.14602094525E+02  0.36988815017E+01  0.38249227152E+02  0.10566000000E+00 0. -1.
         22    1    1    0    0    0  0.22325275127E+02  0.14397115152E+02 -0.11103451900E+02  0.28792038453E+02  0.00000000000E+00 0.  1.
</event>
<event>
 5    1  0.8943113E-005  0.9118800E+02  0.7818608E-02  0.1130116E+00
         25   -1    0    0    0    0  0.00000000000E+00  0.00000000000E+00  0.99999998245E-14  0.12500000000E+03  0.12500000000E+03 0.  0.
        -13    1    3    3    0    0 -0.65394554205E+01  0.19740100714E+02  0.28123541743E+02  0.34976861175E+02  0.10566000000E+00 0. -1.
         23    2    1    0    0    0  0.29115291318E+02  0.28495743099E+01 -0.13893889547E+02  0.92613885243E+02  0.86766763861E+02 0.  0.
         13    1    3    3    0    0  0.35654746738E+02 -0.16890526404E+02 -0.42017431291E+02  0.57637024069E+02  0.10566000000E+00 0.  1.
         22    1    1    0    0    0 -0.29115291318E+02 -0.28495743099E+01  0.13893889547E+02  0.32386114757E+02  0.00000000000E+00 0.  1.
</event>
<event>
 5    1  0.8943113E-005  0.9118800E+02  0.7818608E-02  0.1130116E+00
         25   -1    0    0    0    0  0.00000000000E+00  0.00000000000E+00  0.99999998245E-14  0.12500000000E+03  0.12500000000E+03 0.  0.
        -13    1    3    3    0    0 -0.33235382256E+02 -0.12607920347E+02  0.11269623353E+02  0.37290291816E+02  0.10566000000E+00 0. -1.
         23    2    1    0    0    0  0.56488849393E+01  0.59147014097E+01 -0.28155529816E+02  0.95680595964E+02  0.91077708529E+02 0.  0.
         13    1    3    3    0    0  0.38884267195E+02  0.18522621756E+02 -0.39425153169E+02  0.58390304148E+02  0.10566000000E+00 0.  1.
         22    1    1    0    0    0 -0.56488849393E+01 -0.59147014097E+01  0.28155529816E+02  0.29319404036E+02  0.00000000000E+00 0.  1.
</event>
<event>
 5    1  0.8943113E-005  0.9118800E+02  0.7818608E-02  0.1130116E+00
         25   -1    0    0    0    0  0.00000000000E+00  0.00000000000E+00  0.99999998245E-14  0.12500000000E+03  0.12500000000E+03 0.  0.
        -13    1    3    3    0    0 -0.14347971640E+02 -0.27300789214E+02 -0.13962080326E+02  0.33854811076E+02  0.10566000000E+00 0.  1.
         23    2    1    0    0    0  0.15908288502E+02  0.25008761551E+02 -0.46611635686E+01  0.94996029543E+02  0.90133275685E+02 0.  0.
         13    1    3    3    0    0  0.30256260143E+02  0.52309550765E+02  0.93009167571E+01  0.61141218467E+02  0.10566000000E+00 0. -1.
         22    1    1    0    0    0 -0.15908288502E+02 -0.25008761551E+02  0.46611635686E+01  0.30003970457E+02  0.00000000000E+00 0. -1.
</event>
<event>
 5    1  0.8943113E-005  0.9118800E+02  0.7818608E-02  0.1130116E+00
         25   -1    0    0    0    0  0.00000000000E+00  0.00000000000E+00  0.99999998245E-14  0.12500000000E+03  0.12500000000E+03 0.  0.
        -13    1    3    3    0    0 -0.27023996974E+02  0.24512059342E+02 -0.36270669568E+02  0.51446186453E+02  0.10566000000E+00 0.  1.
         23    2    1    0    0    0  0.13181572984E+02  0.17849007133E+02 -0.19298052364E+02  0.95593270379E+02  0.90957779188E+02 0.  0.
         13    1    3    3    0    0  0.40205569958E+02 -0.66630522095E+01  0.16972617204E+02  0.44147083926E+02  0.10566000000E+00 0. -1.
         22    1    1    0    0    0 -0.13181572984E+02 -0.17849007133E+02  0.19298052364E+02  0.29406729621E+02  0.00000000000E+00 0. -1.
</event>
<event>
 5    1  0.8943113E-005  0.9118800E+02  0.7818608E-02  0.1130116E+00
         25   -1    0    0    0    0  0.00000000000E+00  0.00000000000E+00  0.99999998245E-14  0.12500000000E+03  0.12500000000E+03 0.  0.
        -13    1    3    3    0    0  0.98687772336E+01 -0.15206323088E+02  0.48989649985E+02  0.52236213450E+02  0.10566000000E+00 0. -1.
         23    2    1    0    0    0  0.25911084365E+02 -0.11325102422E+02  0.92820948561E+01  0.95237615641E+02  0.90467695395E+02 0.  0.
         13    1    3    3    0    0  0.16042307132E+02  0.38812206667E+01 -0.39707555129E+02  0.43001402190E+02  0.10566000000E+00 0.  1.
         22    1    1    0    0    0 -0.25911084365E+02  0.11325102422E+02 -0.92820948561E+01  0.29762384359E+02  0.00000000000E+00 0. -1.
</event>
<event>
 5    1  0.8943113E-005  0.9118800E+02  0.7818608E-02  0.1130116E+00
         25   -1    0    0    0    0  0.00000000000E+00  0.00000000000E+00  0.99999998245E-14  0.12500000000E+03  0.12500000000E+03 0.  0.
        -13    1    3    3    0    0 -0.30943805535E+02 -0.59403575068E+01  0.20783623651E+02  0.37746220001E+02  0.10566000000E+00 0.  1.
         23    2    1    0    0    0 -0.65311877777E+01  0.79770485381E+01 -0.28618280204E+02  0.94581326804E+02  0.89556304642E+02 0.  0.
         13    1    3    3    0    0  0.24412617757E+02  0.13917406045E+02 -0.49401903855E+02  0.56835106803E+02  0.10566000000E+00 0. -1.
         22    1    1    0    0    0  0.65311877777E+01 -0.79770485381E+01  0.28618280204E+02  0.30418673196E+02  0.00000000000E+00 0. -1.
</event>
<event>
 5    1  0.8943113E-005  0.9118800E+02  0.7818608E-02  0.1130116E+00
         25   -1    0    0    0    0  0.00000000000E+00  0.00000000000E+00  0.99999998245E-14  0.12500000000E+03  0.12500000000E+03 0.  0.
        -13    1    3    3    0    0  0.40490320745E+01 -0.38373831230E+02 -0.11577574940E+02  0.40286436794E+02  0.10566000000E+00 0.  1.
         23    2    1    0    0    0 -0.82039410022E+01  0.74119522152E+01  0.23351285346E+02  0.99163510089E+02  0.95738589514E+02 0.  0.
         13    1    3    3    0    0 -0.12252973077E+02  0.45785783445E+02  0.34928860286E+02  0.58877073295E+02  0.10566000000E+00 0. -1.
         22    1    1    0    0    0  0.82039410022E+01 -0.74119522152E+01 -0.23351285346E+02  0.25836489911E+02  0.00000000000E+00 0. -1.
</event>
<event>
 5    1  0.8943113E-005  0.9118800E+02  0.7818608E-02  0.1130116E+00
         25   -1    0    0    0    0  0.00000000000E+00  0.00000000000E+00  0.99999998245E-14  0.12500000000E+03  0.12500000000E+03 0.  0.
        -13    1    3    3    0    0  0.25277979486E+02 -0.33966873744E+02 -0.64680227367E+01  0.42831895137E+02  0.10566000000E+00 0.  1.
         23    2    1    0    0    0  0.82266939100E+01  0.10678008474E+02 -0.26981421206E+02  0.94838842065E+02  0.89915018303E+02 0.  0.
         13    1    3    3    0    0 -0.17051285576E+02  0.44644882218E+02 -0.20513398469E+02  0.52006946929E+02  0.10566000000E+00 0. -1.
         22    1    1    0    0    0 -0.82266939100E+01 -0.10678008474E+02  0.26981421206E+02  0.30161157935E+02  0.00000000000E+00 0.  1.
</event>
<event>
 5    1  0.8943113E-005  0.9118800E+02  0.7818608E-02  0.1130116E+00
         25   -1    0    0    0    0  0.00000000000E+00  0.00000000000E+00  0.99999998245E-14  0.12500000000E+03  0.12500000000E+03 0.  0.
        -13    1    3    3    0    0  0.26476993956E+02  0.16147632222E+02  0.37244738543E+02  0.48466059759E+02  0.10566000000E+00 0. -1.
         23    2    1    0    0    0 -0.15484715681E+02  0.13347296351E+01  0.26554114351E+02  0.94231852316E+02  0.89067182952E+02 0.  0.
         13    1    3    3    0    0 -0.41961709638E+02 -0.14812902587E+02 -0.10690624192E+02  0.45765792558E+02  0.10566000000E+00 0.  1.
         22    1    1    0    0    0  0.15484715681E+02 -0.13347296351E+01 -0.26554114351E+02  0.30768147684E+02  0.00000000000E+00 0.  1.
</event>
<event>
 5    1  0.8943113E-005  0.9118800E+02  0.7818608E-02  0.1130116E+00
         25   -1    0    0    0    0  0.00000000000E+00  0.00000000000E+00  0.99999998245E-14  0.12500000000E+03  0.12500000000E+03 0.  0.
        -13    1    3    3    0    0 -0.17162398081E+02  0.42196811882E+02  0.30549124610E+02  0.54848692048E+02  0.10566000000E+00 0.  1.
         23    2    1    0    0    0  0.12449590762E+02  0.19112083211E+02  0.21900224781E+02  0.93379059466E+02  0.87862192474E+02 0.  0.
         13    1    3    3    0    0  0.29611988844E+02 -0.23084728670E+02 -0.86488998291E+01  0.38530367418E+02  0.10566000000E+00 0. -1.
         22    1    1    0    0    0 -0.12449590762E+02 -0.19112083211E+02 -0.21900224781E+02  0.31620940534E+02  0.00000000000E+00 0.  1.
</event>
<event>
 5    1  0.8943113E-005  0.9118800E+02  0.7818608E-02  0.1130116E+00
         25   -1    0    0    0    0  0.00000000000E+00  0.00000000000E+00  0.99999998245E-14  0.12500000000E+03  0.12500000000E+03 0.  0.
        -13    1    3    3    0    0  0.37456813369E+02  0.15317418547E+02 -0.38637011575E+02  0.55950567523E+02  0.10566000000E+00 0.  1.
         23    2    1    0    0    0  0.13327892896E+00  0.35600392505E+01 -0.28370565056E+02  0.96406633561E+02  0.92068769896E+02 0.  0.
         13    1    3    3    0    0 -0.37323534441E+02 -0.11757379297E+02  0.10266446518E+02  0.40456066037E+02  0.10566000000E+00 0. -1.
         22    1    1    0    0    0 -0.13327892896E+00 -0.35600392505E+01  0.28370565056E+02  0.28593366439E+02  0.00000000000E+00 0. -1.
</event>
<event>
 5    1  0.8943113E-005  0.9118800E+02  0.7818608E-02  0.1130116E+00
         25   -1    0    0    0    0  0.00000000000E+00  0.00000000000E+00  0.99999998245E-14  0.12500000000E+03  0.12500000000E+03 0.  0.
        -13    1    3    3    0    0  0.23919428250E+01 -0.25738800165E+02 -0.56575172186E+02  0.62201032920E+02  0.10566000000E+00 0.  1.
         23    2    1    0    0    0 -0.23427851730E+01 -0.98556225889E+01 -0.27849283618E+02  0.95365484025E+02  0.90644200070E+02 0.  0.
         13    1    3    3    0    0 -0.47347279980E+01  0.15883177576E+02  0.28725888567E+02  0.33164451106E+02  0.10566000000E+00 0. -1.
         22    1    1    0    0    0  0.23427851730E+01  0.98556225889E+01  0.27849283618E+02  0.29634515975E+02  0.00000000000E+00 0.  1.
</event>
<event>
 5    1  0.8943113E-005  0.9118800E+02  0.7818608E-02  0.1130116E+00
         25   -1    0    0    0    0  0.00000000000E+00  0.00000000000E+00  0.99999998245E-14  0.12500000000E+03  0.12500000000E+03 0.  0.
        -13    1    3    3    0    0 -0.60376738736E+01 -0.30174217039E+02 -0.18001403953E+02  0.35651067137E+02  0.10566000000E+00 0. -1.
         23    2    1    0    0    0  0.61649816954E+01  0.31470196440E+01  0.29362039071E+02  0.94833129590E+02  0.89907076459E+02 0.  0.
         13    1    3    3    0    0  0.12202655569E+02  0.33321236683E+02  0.47363443024E+02  0.59182062453E+02  0.10566000000E+00 0.  1.
         22    1    1    0    0    0 -0.61649816954E+01 -0.31470196440E+01 -0.29362039071E+02  0.30166870410E+02  0.00000000000E+00 0.  1.
</event>
<event>
 5    1  0.8943113E-005  0.9118800E+02  0.7818608E-02  0.1130116E+00
         25   -1    0    0    0    0  0.00000000000E+00  0.00000000000E+00  0.99999998245E-14  0.12500000000E+03  0.12500000000E+03 0.  0.
        -13    1    3    3    0    0  0.33900980629E+02 -0.88052705938E+01 -0.49860361253E+02  0.60933373992E+02  0.10566000000E+00 0. -1.
         23    2    1    0    0    0  0.19882000952E+02  0.43829499151E+01 -0.19993763088E+02  0.96464850198E+02  0.92147775608E+02 0.  0.
         13    1    3    3    0    0 -0.14018979677E+02  0.13188220509E+02  0.29866598165E+02  0.35531476206E+02  0.10566000000E+00 0.  1.
         22    1    1    0    0    0 -0.19882000952E+02 -0.43829499151E+01  0.19993763088E+02  0.28535149802E+02  0.00000000000E+00 0. -1.
</event>
<event>
 5    1  0.8943113E-005  0.9118800E+02  0.7818608E-02  0.1130116E+00
         25   -1    0    0    0    0  0.00000000000E+00  0.00000000000E+00  0.99999998245E-14  0.12500000000E+03  0.12500000000E+03 0.  0.
        -13    1    3    3    0    0 -0.51440929408E+02 -0.24250167055E+02  0.16330319317E+02  0.59168659893E+02  0.10566000000E+00 0. -1.
         23    2    1    0    0    0 -0.19785449903E+02 -0.21771323275E+02  0.17179490643E+02  0.90932575035E+02  0.84309808200E+02 0.  0.
         13    1    3    3    0    0  0.31655479505E+02  0.24788437794E+01  0.84917132576E+00  0.31763915142E+02  0.10566000000E+00 0.  1.
         22    1    1    0    0    0  0.19785449903E+02  0.21771323275E+02 -0.17179490643E+02  0.34067424965E+02  0.00000000000E+00 0. -1.
</event>
<event>
 5    1  0.8943113E-005  0.9118800E+02  0.7818608E-02  0.1130116E+00
         25   -1    0    0    0    0  0.00000000000E+00  0.00000000000E+00  0.99999998245E-14  0.12500000000E+03  0.12500000000E+03 0.  0.
        -13    1    3    3    0    0 -0.31475954664E+02 -0.20569088205E+02  0.79112828227E+01  0.38424245881E+02  0.10566000000E+00 0. -1.
         23    2    1    0    0    0  0.88256711334E+00  0.27859482556E+02  0.65577047749E+00  0.97118828433E+02  0.93030678318E+02 0.  0.
         13    1    3    3    0    0  0.32358521777E+02  0.48428570761E+02 -0.72555123453E+01  0.58694582552E+02  0.10566000000E+00 0.  1.
         22    1    1    0    0    0 -0.88256711334E+00 -0.27859482556E+02 -0.65577047749E+00  0.27881171567E+02  0.00000000000E+00 0.  1.
</event>
<event>
 5    1  0.8943113E-005  0.9118800E+02  0.7818608E-02  0.1130116E+00
         25   -1    0    0    0    0  0.00000000000E+00  0.00000000000E+00  0.99999998245E-14  0.12500000000E+03  0.12500000000E+03 0.  0.
        -13    1    3    3    0    0 -0.42667783144E+02  0.51035418919E+01 -0.26754743488E+01  0.43055257348E+02  0.10566000000E+00 0.  1.
         23    2    1    0    0    0 -0.15796648145E+01 -0.71852722505E+01  0.28171821093E+02  0.95883424276E+02  0.91355657017E+02 0.  0.
         13    1    3    3    0    0  0.41088118329E+02 -0.12288814142E+02  0.30847295441E+02  0.52828166928E+02  0.10566000000E+00 0. -1.
         22    1    1    0    0    0  0.15796648145E+01  0.71852722505E+01 -0.28171821093E+02  0.29116575724E+02  0.00000000000E+00 0. -1.
</event>
<event>
 5    1  0.8943113E-005  0.9118800E+02  0.7818608E-02  0.1130116E+00
         25   -1    0    0    0    0  0.00000000000E+00  0.00000000000E+00  0.99999998245E-14  0.12500000000E+03  0.12500000000E+03 0.  0.
        -13    1    3    3    0    0 -0.14367450985E+02 -0.10995975661E+02 -0.59182168827E+02  0.61885987102E+02  0.10566000000E+00 0.  1.
         23    2    1    0    0    0 -0.11191592637E+02 -0.86515782175E+00 -0.27619464196E+02  0.95186663282E+02  0.90397266665E+02 0.  0.
         13    1    3    3    0    0  0.31758583479E+01  0.10130817839E+02  0.31562704631E+02  0.33300676180E+02  0.10566000000E+00 0. -1.
         22    1    1    0    0    0  0.11191592637E+02  0.86515782175E+00  0.27619464196E+02  0.29813336718E+02  0.00000000000E+00 0.  1.
</event>
<event>
 5    1  0.8943113E-005  0.9118800E+02  0.7818608E-02  0.1130116E+00
         25   -1    0    0    0    0  0.00000000000E+00  0.00000000000E+00  0.99999998245E-14  0.12500000000E+03  0.12500000000E+03 0.  0.
        -13    1    3    3    0    0  0.13025789713E+02  0.53861719277E+02 -0.16336244801E+01  0.55438577671E+02  0.10566000000E+00 0.  1.
         23    2    1    0    0    0 -0.56859802950E+01  0.23757990324E+02  0.16762155589E+02  0.95373283405E+02  0.90654954919E+02 0.  0.
         13    1    3    3    0    0 -0.18711770008E+02 -0.30103728953E+02  0.18395780070E+02  0.39934705735E+02  0.10566000000E+00 0. -1.
         22    1    1    0    0    0  0.56859802950E+01 -0.23757990324E+02 -0.16762155589E+02  0.29626716595E+02  0.00000000000E+00 0.  1.
</event>
<event>
 5    1  0.8943113E-005  0.9118800E+02  0.7818608E-02  0.1130116E+00
         25   -1    0    0    0    0  0.00000000000E+00  0.00000000000E+00  0.99999998245E-14  0.12500000000E+03  0.12500000000E+03 0.  0.
        -13    1    3    3    0    0  0.55537467778E+01  0.29324676815E+02  0.34107290798E+02  0.45322171431E+02  0.10566000000E+00 0. -1.
         23    2    1    0    0    0  0.29774718207E+02  0.16413005180E+01  0.45572692963E+00  0.95176596460E+02  0.90383345340E+02 0.  0.
         13    1    3    3    0    0  0.24220971429E+02 -0.27683376297E+02 -0.33651563868E+02  0.49854425029E+02  0.10566000000E+00 0.  1.
         22    1    1    0    0    0 -0.29774718207E+02 -0.16413005180E+01 -0.45572692963E+00  0.29823403540E+02  0.00000000000E+00 0.  1.
</event>
<event>
 5    1  0.8943113E-005  0.9118800E+02  0.7818608E-02  0.1130116E+00
         25   -1    0    0    0    0  0.00000000000E+00  0.00000000000E+00  0.99999998245E-14  0.12500000000E+03  0.12500000000E+03 0.  0.
        -13    1    3    3    0    0  0.10049092752E+00 -0.35591668184E+01  0.34614495543E+02  0.34797302088E+02  0.10566000000E+00 0.  1.
         23    2    1    0    0    0 -0.14040136439E+02  0.52779826846E+01 -0.24529990085E+02  0.96247557564E+02  0.91852541560E+02 0.  0.
         13    1    3    3    0    0 -0.14140627367E+02  0.88371495031E+01 -0.59144485629E+02  0.61450255476E+02  0.10566000000E+00 0. -1.
         22    1    1    0    0    0  0.14040136439E+02 -0.52779826846E+01  0.24529990085E+02  0.28752442436E+02  0.00000000000E+00 0. -1.
</event>
<event>
 5    1  0.8943113E-005  0.9118800E+02  0.7818608E-02  0.1130116E+00
         25   -1    0    0    0    0  0.00000000000E+00  0.00000000000E+00  0.99999998245E-14  0.12500000000E+03  0.12500000000E+03 0.  0.
        -13    1    3    3    0    0 -0.39317983880E+01  0.45618342945E+02 -0.28652172862E+02  0.54013428195E+02  0.10566000000E+00 0.  1.
         23    2    1    0    0    0 -0.45599266652E+01  0.25678684630E+02  0.96434070468E+01  0.97193830271E+02  0.93131399473E+02 0.  0.
         13    1    3    3    0    0 -0.62812827723E+00 -0.19939658315E+02  0.38295579909E+02  0.43180402076E+02  0.10566000000E+00 0. -1.
         22    1    1    0    0    0  0.45599266652E+01 -0.25678684630E+02 -0.96434070468E+01  0.27806169729E+02  0.00000000000E+00 0.  1.
</event>
<event>
 5    1  0.8943113E-005  0.9118800E+02  0.7818608E-02  0.1130116E+00
         25   -1    0    0    0    0  0.00000000000E+00  0.00000000000E+00  0.99999998245E-14  0.12500000000E+03  0.12500000000E+03 0.  0.
        -13    1    3    3    0    0  0.14426000036E+01  0.21451805990E+02  0.43977097217E+02  0.48951581370E+02  0.10566000000E+00 0.  1.
         23    2    1    0    0    0  0.88371206602E+01  0.30251233271E+02  0.96862816280E+00  0.93469537642E+02  0.87990820036E+02 0.  0.
         13    1    3    3    0    0  0.73945206566E+01  0.87994272811E+01 -0.43008469054E+02  0.44517956272E+02  0.10566000000E+00 0. -1.
         22    1    1    0    0    0 -0.88371206602E+01 -0.30251233271E+02 -0.96862816280E+00  0.31530462358E+02  0.00000000000E+00 0. -1.
</event>
<event>
 5    1  0.8943113E-005  0.9118800E+02  0.7818608E-02  0.1130116E+00
         25   -1    0    0    0    0  0.00000000000E+00  0.00000000000E+00  0.99999998245E-14  0.12500000000E+03  0.12500000000E+03 0.  0.
        -13    1    3    3    0    0  0.25116199860E+02  0.44650221174E+02  0.20685012654E+02  0.55248046652E+02  0.10566000000E+00 0.  1.
         23    2    1    0    0    0  0.16972892685E+02  0.37996048865E+02 -0.50796697262E+01  0.83076476055E+02  0.71722513994E+02 0.  0.
         13    1    3    3    0    0 -0.81433071753E+01 -0.66541723087E+01 -0.25764682380E+02  0.27828429403E+02  0.10566000000E+00 0. -1.
         22    1    1    0    0    0 -0.16972892685E+02 -0.37996048865E+02  0.50796697262E+01  0.41923523945E+02  0.00000000000E+00 0.  1.
</event>
<event>
 5    1  0.8943113E-005  0.9118800E+02  0.7818608E-02  0.1130116E+00
         25   -1    0    0    0    0  0.00000000000E+00  0.00000000000E+00  0.99999998245E-14  0.12500000000E+03  0.12500000000E+03 0.  0.
        -13    1    3    3    0    0  0.10913197544E+02  0.33699291064E+02 -0.22457697138E+01  0.35493587372E+02  0.10566000000E+00 0.  1.
         23    2    1    0    0    0  0.13147600009E+02 -0.26312613799E+02 -0.10509068931E+00  0.95585308518E+02  0.90946836831E+02 0.  0.
         13    1    3    3    0    0  0.22344024643E+01 -0.60011904863E+02  0.21406790245E+01  0.60091721147E+02  0.10566000000E+00 0. -1.
         22    1    1    0    0    0 -0.13147600009E+02  0.26312613799E+02  0.10509068931E+00  0.29414691482E+02  0.00000000000E+00 0. -1.
</event>
<event>
 5    1  0.8943113E-005  0.9118800E+02  0.7818608E-02  0.1130116E+00
         25   -1    0    0    0    0  0.00000000000E+00  0.00000000000E+00  0.99999998245E-14  0.12500000000E+03  0.12500000000E+03 0.  0.
        -13    1    3    3    0    0 -0.27700521808E+02  0.27526349953E+02  0.44377395069E+02  0.59113308208E+02  0.10566000000E+00 0.  1.
         23    2    1    0    0    0 -0.24716639971E+02  0.82452920682E+01  0.13457981935E+02  0.95673997706E+02  0.91068652272E+02 0.  0.
         13    1    3    3    0    0  0.29838818367E+01 -0.19281057885E+02 -0.30919413134E+02  0.36560689498E+02  0.10566000000E+00 0. -1.
         22    1    1    0    0    0  0.24716639971E+02 -0.82452920682E+01 -0.13457981935E+02  0.29326002294E+02  0.00000000000E+00 0.  1.
</event>
<event>
 5    1  0.8943113E-005  0.9118800E+02  0.7818608E-02  0.1130116E+00
         25   -1    0    0    0    0  0.00000000000E+00  0.00000000000E+00  0.99999998245E-14  0.12500000000E+03  0.12500000000E+03 0.  0.
        -13    1    3    3    0    0  0.33467484123E+02 -0.22535501411E+02 -0.15746355481E+02  0.43311432583E+02  0.10566000000E+00 0.  1.
         23    2    1    0    0    0 -0.19094427617E+02 -0.17550992131E+02 -0.12501802051E+02  0.96208863424E+02  0.91799868497E+02 0.  0.
         13    1    3    3    0    0 -0.52561911741E+02  0.49845092802E+01  0.32445534297E+01  0.52897430841E+02  0.10566000000E+00 0. -1.
         22    1    1    0    0    0  0.19094427617E+02  0.17550992131E+02  0.12501802051E+02  0.28791136576E+02  0.00000000000E+00 0. -1.
</event>
<event>
 5    1  0.8943113E-005  0.9118800E+02  0.7818608E-02  0.1130116E+00
         25   -1    0    0    0    0  0.00000000000E+00  0.00000000000E+00  0.99999998245E-14  0.12500000000E+03  0.12500000000E+03 0.  0.
        -13    1    3    3    0    0 -0.12403259687E+02 -0.34324041253E+02 -0.23275367905E+02  0.43286655841E+02  0.10566000000E+00 0.  1.
         23    2    1    0    0    0 -0.10458505300E+02 -0.98568652482E+01  0.24270277775E+02  0.96793892347E+02  0.92593050964E+02 0.  0.
         13    1    3    3    0    0  0.19447543873E+01  0.24467176004E+02  0.47545645681E+02  0.53507236506E+02  0.10566000000E+00 0. -1.
         22    1    1    0    0    0  0.10458505300E+02  0.98568652482E+01 -0.24270277775E+02  0.28206107653E+02  0.00000000000E+00 0. -1.
</event>
<event>
 5    1  0.8943113E-005  0.9118800E+02  0.7818608E-02  0.1130116E+00
         25   -1    0    0    0    0  0.00000000000E+00  0.00000000000E+00  0.99999998245E-14  0.12500000000E+03  0.12500000000E+03 0.  0.
        -13    1    3    3    0    0  0.46499293571E+02  0.35290172746E+01  0.13435934793E+02  0.48530132632E+02  0.10566000000E+00 0.  1.
         23    2    1    0    0    0  0.39383718497E+01  0.46640078708E+01  0.30126745498E+02  0.94261025773E+02  0.89108116595E+02 0.  0.
         13    1    3    3    0    0 -0.42560921721E+02  0.11349905962E+01  0.16690810706E+02  0.45730893141E+02  0.10566000000E+00 0. -1.
         22    1    1    0    0    0 -0.39383718497E+01 -0.46640078708E+01 -0.30126745498E+02  0.30738974227E+02  0.00000000000E+00 0.  1.
</event>
<event>
 5    1  0.8943113E-005  0.9118800E+02  0.7818608E-02  0.1130116E+00
         25   -1    0    0    0    0  0.00000000000E+00  0.00000000000E+00  0.99999998245E-14  0.12500000000E+03  0.12500000000E+03 0.  0.
        -13    1    3    3    0    0 -0.11388807740E+02 -0.47311202538E+02 -0.35413938461E+02  0.60184823907E+02  0.10566000000E+00 0.  1.
         23    2    1    0    0    0 -0.19657388021E+01 -0.28123470379E+02 -0.66295471146E+01  0.96038912138E+02  0.91568160593E+02 0.  0.
         13    1    3    3    0    0  0.94230689383E+01  0.19187732159E+02  0.28784391347E+02  0.35854088231E+02  0.10566000000E+00 0. -1.
         22    1    1    0    0    0  0.19657388021E+01  0.28123470379E+02  0.66295471146E+01  0.28961087862E+02  0.00000000000E+00 0.  1.
</event>
<event>
 5    1  0.8943113E-005  0.9118800E+02  0.7818608E-02  0.1130116E+00
         25   -1    0    0    0    0  0.00000000000E+00  0.00000000000E+00  0.99999998245E-14  0.12500000000E+03  0.12500000000E+03 0.  0.
        -13    1    3    3    0    0 -0.54823426320E+02  0.25419692830E+02  0.15137712447E+02  0.62297113570E+02  0.10566000000E+00 0.  1.
         23    2    1    0    0    0 -0.24536445332E+02  0.14490310619E+02  0.93318257218E+01  0.95015183464E+02  0.90159835105E+02 0.  0.
         13    1    3    3    0    0  0.30286980988E+02 -0.10929382211E+02 -0.58058867251E+01  0.32718069894E+02  0.10566000000E+00 0. -1.
         22    1    1    0    0    0  0.24536445332E+02 -0.14490310619E+02 -0.93318257218E+01  0.29984816536E+02  0.00000000000E+00 0.  1.
</event>
<event>
 5    1  0.8943113E-005  0.9118800E+02  0.7818608E-02  0.1130116E+00
         25   -1    0    0    0    0  0.00000000000E+00  0.00000000000E+00  0.99999998245E-14  0.12500000000E+03  0.12500000000E+03 0.  0.
        -13    1    3    3    0    0  0.12065193744E+02 -0.45013307570E+02  0.32747756240E+02  0.56957821774E+02  0.10566000000E+00 0.  1.
         23    2    1    0    0    0  0.22584025991E+02 -0.13570843067E+02  0.12194687492E+02  0.95966977172E+02  0.91469909222E+02 0.  0.
         13    1    3    3    0    0  0.10518832247E+02  0.31442464503E+02 -0.20553068747E+02  0.39009155398E+02  0.10566000000E+00 0. -1.
         22    1    1    0    0    0 -0.22584025991E+02  0.13570843067E+02 -0.12194687492E+02  0.29033022828E+02  0.00000000000E+00 0.  1.
</event>
<event>
 5    1  0.8943113E-005  0.9118800E+02  0.7818608E-02  0.1130116E+00
         25   -1    0    0    0    0  0.00000000000E+00  0.00000000000E+00  0.99999998245E-14  0.12500000000E+03  0.12500000000E+03 0.  0.
        -13    1    3    3    0    0 -0.34776202650E+01 -0.31562675826E+02 -0.10698415869E+02  0.33507665006E+02  0.10566000000E+00 0.  1.
         23    2    1    0    0    0  0.19049533536E+01  0.27088472674E+02  0.10184002636E+02  0.95997791312E+02  0.91512009202E+02 0.  0.
         13    1    3    3    0    0  0.53825736186E+01  0.58651148500E+02  0.20882418505E+02  0.62490126306E+02  0.10566000000E+00 0. -1.
         22    1    1    0    0    0 -0.19049533536E+01 -0.27088472674E+02 -0.10184002636E+02  0.29002208688E+02  0.00000000000E+00 0. -1.
</event>
<event>
 5    1  0.8943113E-005  0.9118800E+02  0.7818608E-02  0.1130116E+00
         25   -1    0    0    0    0  0.00000000000E+00  0.00000000000E+00  0.99999998245E-14  0.12500000000E+03  0.12500000000E+03 0.  0.
        -13    1    3    3    0    0 -0.31555124276E+02 -0.15879669974E+02  0.61538473711E+01  0.35857646159E+02  0.10566000000E+00 0.  1.
         23    2    1    0    0    0  0.43331248048E+01  0.15608214206E+02  0.31254293519E+02  0.89797398042E+02  0.82609621173E+02 0.  0.
         13    1    3    3    0    0  0.35888249081E+02  0.31487884181E+02  0.25100446147E+02  0.53939751882E+02  0.10566000000E+00 0. -1.
         22    1    1    0    0    0 -0.43331248048E+01 -0.15608214206E+02 -0.31254293519E+02  0.35202601958E+02  0.00000000000E+00 0. -1.
</event>
<event>
 5    1  0.8943113E-005  0.9118800E+02  0.7818608E-02  0.1130116E+00
         25   -1    0    0    0    0  0.00000000000E+00  0.00000000000E+00  0.99999998245E-14  0.12500000000E+03  0.12500000000E+03 0.  0.
        -13    1    3    3    0    0 -0.34394045910E+02 -0.32768505110E+02  0.17554183752E+02  0.50644702116E+02  0.10566000000E+00 0. -1.
         23    2    1    0    0    0 -0.18259720380E+02 -0.19251568509E+02 -0.18681062955E+02  0.92549693506E+02  0.86674237097E+02 0.  0.
         13    1    3    3    0    0  0.16134325530E+02  0.13516936600E+02 -0.36235246707E+02  0.41904991389E+02  0.10566000000E+00 0.  1.
         22    1    1    0    0    0  0.18259720380E+02  0.19251568509E+02  0.18681062955E+02  0.32450306494E+02  0.00000000000E+00 0. -1.
</event>
<event>
 5    1  0.8943113E-005  0.9118800E+02  0.7818608E-02  0.1130116E+00
         25   -1    0    0    0    0  0.00000000000E+00  0.00000000000E+00  0.99999998245E-14  0.12500000000E+03  0.12500000000E+03 0.  0.
        -13    1    3    3    0    0 -0.30607965956E+02 -0.54501273651E+01 -0.12357177960E+02  0.33455380426E+02  0.10566000000E+00 0.  1.
         23    2    1    0    0    0  0.29737528306E+02 -0.14476427701E+00 -0.96803619613E-01  0.95261961776E+02  0.90501328410E+02 0.  0.
         13    1    3    3    0    0  0.60345494262E+02  0.53053630881E+01  0.12260374341E+02  0.61806581351E+02  0.10566000000E+00 0. -1.
         22    1    1    0    0    0 -0.29737528306E+02  0.14476427701E+00  0.96803619613E-01  0.29738038224E+02  0.00000000000E+00 0. -1.
</event>
<event>
 5    1  0.8943113E-005  0.9118800E+02  0.7818608E-02  0.1130116E+00
         25   -1    0    0    0    0  0.00000000000E+00  0.00000000000E+00  0.99999998245E-14  0.12500000000E+03  0.12500000000E+03 0.  0.
        -13    1    3    3    0    0  0.39417098198E+02 -0.36265775472E+02 -0.26239775158E+02  0.59644371615E+02  0.10566000000E+00 0.  1.
         23    2    1    0    0    0  0.12109422393E+02 -0.24994714209E+02 -0.33332325149E+01  0.97027079379E+02  0.92907318575E+02 0.  0.
         13    1    3    3    0    0 -0.27307675805E+02  0.11271061263E+02  0.22906542643E+02  0.37382707764E+02  0.10566000000E+00 0. -1.
         22    1    1    0    0    0 -0.12109422393E+02  0.24994714209E+02  0.33332325149E+01  0.27972920621E+02  0.00000000000E+00 0.  1.
</event>
<event>
 5    1  0.8943113E-005  0.9118800E+02  0.7818608E-02  0.1130116E+00
         25   -1    0    0    0    0  0.00000000000E+00  0.00000000000E+00  0.99999998245E-14  0.12500000000E+03  0.12500000000E+03 0.  0.
        -13    1    3    3    0    0  0.46621016732E+02 -0.49171300631E+01  0.32214928903E+02  0.56881545139E+02  0.10566000000E+00 0. -1.
         23    2    1    0    0    0  0.10478940701E+02  0.90327628204E+01  0.25199541694E+02  0.96252549610E+02  0.91859334868E+02 0.  0.
         13    1    3    3    0    0 -0.36142076031E+02  0.13949892883E+02 -0.70153872098E+01  0.39371004470E+02  0.10566000000E+00 0.  1.
         22    1    1    0    0    0 -0.10478940701E+02 -0.90327628204E+01 -0.25199541694E+02  0.28747450390E+02  0.00000000000E+00 0. -1.
</event>
<event>
 5    1  0.8943113E-005  0.9118800E+02  0.7818608E-02  0.1130116E+00
         25   -1    0    0    0    0  0.00000000000E+00  0.00000000000E+00  0.99999998245E-14  0.12500000000E+03  0.12500000000E+03 0.  0.
        -13    1    3    3    0    0 -0.82100364800E+00  0.33685471552E+02 -0.34527960234E+02  0.48244960800E+02  0.10566000000E+00 0.  1.
         23    2    1    0    0    0  0.23690438230E+02  0.26630666208E+02 -0.23869786770E+01  0.89277081399E+02  0.81818520823E+02 0.  0.
         13    1    3    3    0    0  0.24511441878E+02 -0.70548053443E+01  0.32140981557E+02  0.41032120599E+02  0.10566000000E+00 0. -1.
         22    1    1    0    0    0 -0.23690438230E+02 -0.26630666208E+02  0.23869786770E+01  0.35722918601E+02  0.00000000000E+00 0.  1.
</event>
<event>
 5    1  0.8943113E-005  0.9118800E+02  0.7818608E-02  0.1130116E+00
         25   -1    0    0    0    0  0.00000000000E+00  0.00000000000E+00  0.99999998245E-14  0.12500000000E+03  0.12500000000E+03 0.  0.
        -13    1    3    3    0    0  0.28245881900E+02 -0.71600138011E+01  0.48970565090E+02  0.56984410598E+02  0.10566000000E+00 0. -1.
         23    2    1    0    0    0  0.25685484372E+02 -0.12430636011E+01  0.85733994041E+01  0.97892943873E+02  0.94065062421E+02 0.  0.
         13    1    3    3    0    0 -0.25603975285E+01  0.59169502001E+01 -0.40397165686E+02  0.40908533275E+02  0.10566000000E+00 0.  1.
         22    1    1    0    0    0 -0.25685484372E+02  0.12430636011E+01 -0.85733994041E+01  0.27107056127E+02  0.00000000000E+00 0. -1.
</event>
<event>
 5    1  0.8943113E-005  0.9118800E+02  0.7818608E-02  0.1130116E+00
         25   -1    0    0    0    0  0.00000000000E+00  0.00000000000E+00  0.99999998245E-14  0.12500000000E+03  0.12500000000E+03 0.  0.
        -13    1    3    3    0    0  0.21030068197E+02  0.26929749037E+02  0.11943817733E+02  0.36195871279E+02  0.10566000000E+00 0. -1.
         23    2    1    0    0    0 -0.27535392240E+02  0.39078308337E+01 -0.11592468116E+02  0.94869379617E+02  0.89957461638E+02 0.  0.
         13    1    3    3    0    0 -0.48565460437E+02 -0.23021918203E+02 -0.23536285849E+02  0.58673508339E+02  0.10566000000E+00 0.  1.
         22    1    1    0    0    0  0.27535392240E+02 -0.39078308337E+01  0.11592468116E+02  0.30130620383E+02  0.00000000000E+00 0.  1.
</event>
<event>
 5    1  0.8943113E-005  0.9118800E+02  0.7818608E-02  0.1130116E+00
         25   -1    0    0    0    0  0.00000000000E+00  0.00000000000E+00  0.99999998245E-14  0.12500000000E+03  0.12500000000E+03 0.  0.
        -13    1    3    3    0    0  0.21215296467E+02 -0.21018036736E+01 -0.44772933721E+02  0.49589647517E+02  0.10566000000E+00 0. -1.
         23    2    1    0    0    0  0.12327764076E+02 -0.25745724432E+02 -0.60529045650E+01  0.95820319616E+02  0.91269271412E+02 0.  0.
         13    1    3    3    0    0 -0.88875323909E+01 -0.23643920758E+02  0.38720029156E+02  0.46230672099E+02  0.10566000000E+00 0.  1.
         22    1    1    0    0    0 -0.12327764076E+02  0.25745724432E+02  0.60529045650E+01  0.29179680384E+02  0.00000000000E+00 0. -1.
</event>
<event>
 5    1  0.8943113E-005  0.9118800E+02  0.7818608E-02  0.1130116E+00
         25   -1    0    0    0    0  0.00000000000E+00  0.00000000000E+00  0.99999998245E-14  0.12500000000E+03  0.12500000000E+03 0.  0.
        -13    1    3    3    0    0 -0.42136714183E+02 -0.38213176934E+02  0.13993697867E+01  0.56900957579E+02  0.10566000000E+00 0.  1.
         23    2    1    0    0    0 -0.90801367617E+01 -0.24494387946E+02  0.14630570410E+02  0.95058765640E+02  0.90220238362E+02 0.  0.
         13    1    3    3    0    0  0.33056577421E+02  0.13718788988E+02  0.13231200623E+02  0.38157808062E+02  0.10566000000E+00 0. -1.
         22    1    1    0    0    0  0.90801367617E+01  0.24494387946E+02 -0.14630570410E+02  0.29941234360E+02  0.00000000000E+00 0.  1.
</event>
<event>
 5    1  0.8943113E-005  0.9118800E+02  0.7818608E-02  0.1130116E+00
         25   -1    0    0    0    0  0.00000000000E+00  0.00000000000E+00  0.99999998245E-14  0.12500000000E+03  0.12500000000E+03 0.  0.
        -13    1    3    3    0    0 -0.54132069681E+02 -0.80856171380E+01  0.17566486657E+02  0.57482612936E+02  0.10566000000E+00 0.  1.
         23    2    1    0    0    0 -0.23423929878E+02 -0.17694776637E+02 -0.27161694340E+01  0.95518426305E+02  0.90854865451E+02 0.  0.
         13    1    3    3    0    0  0.30708139804E+02 -0.96091594991E+01 -0.20282656091E+02  0.38035813368E+02  0.10566000000E+00 0. -1.
         22    1    1    0    0    0  0.23423929878E+02  0.17694776637E+02  0.27161694340E+01  0.29481573695E+02  0.00000000000E+00 0.  1.
</event>
<event>
 5    1  0.8943113E-005  0.9118800E+02  0.7818608E-02  0.1130116E+00
         25   -1    0    0    0    0  0.00000000000E+00  0.00000000000E+00  0.99999998245E-14  0.12500000000E+03  0.12500000000E+03 0.  0.
        -13    1    3    3    0    0  0.31985321098E+02 -0.15519578001E+02 -0.46513369827E+02  0.58544195304E+02  0.10566000000E+00 0. -1.
         23    2    1    0    0    0  0.11006884363E+02  0.79479677135E+01 -0.24613511380E+02  0.96890452928E+02  0.92723315471E+02 0.  0.
         13    1    3    3    0    0 -0.20978436735E+02  0.23467545715E+02  0.21899858447E+02  0.38346257624E+02  0.10566000000E+00 0.  1.
         22    1    1    0    0    0 -0.11006884363E+02 -0.79479677135E+01  0.24613511380E+02  0.28109547072E+02  0.00000000000E+00 0. -1.
</event>
<event>
 5    1  0.8943113E-005  0.9118800E+02  0.7818608E-02  0.1130116E+00
         25   -1    0    0    0    0  0.00000000000E+00  0.00000000000E+00  0.99999998245E-14  0.12500000000E+03  0.12500000000E+03 0.  0.
        -13    1    3    3    0    0 -0.37535455830E+01  0.55839786595E+01  0.41723781973E+02  0.42262927824E+02  0.10566000000E+00 0. -1.
         23    2    1    0    0    0 -0.10348145976E+02 -0.26507916710E+02 -0.15048131790E+01  0.96504066323E+02  0.92200957591E+02 0.  0.
         13    1    3    3    0    0 -0.65946003932E+01 -0.32091895369E+02 -0.43228595152E+02  0.54241138498E+02  0.10566000000E+00 0.  1.
         22    1    1    0    0    0  0.10348145976E+02  0.26507916710E+02  0.15048131790E+01  0.28495933677E+02  0.00000000000E+00 0. -1.
</event>
<event>
 5    1  0.8943113E-005  0.9118800E+02  0.7818608E-02  0.1130116E+00
         25   -1    0    0    0    0  0.00000000000E+00  0.00000000000E+00  0.99999998245E-14  0.12500000000E+03  0.12500000000E+03 0.  0.
        -13    1    3    3    0    0  0.18516924925E+02  0.25242074771E+02  0.77438541517E+01  0.32249299041E+02  0.10566000000E+00 0. -1.
         23    2    1    0    0    0  0.70160566216E+01 -0.20629855621E+02 -0.26539961321E+02  0.90660728890E+02  0.83905793736E+02 0.  0.
         13    1    3    3    0    0 -0.11500868304E+02 -0.45871930392E+02 -0.34283815473E+02  0.58411429849E+02  0.10566000000E+00 0.  1.
         22    1    1    0    0    0 -0.70160566216E+01  0.20629855621E+02  0.26539961321E+02  0.34339271110E+02  0.00000000000E+00 0.  1.
</event>
<event>
 5    1  0.8943113E-005  0.9118800E+02  0.7818608E-02  0.1130116E+00
         25   -1    0    0    0    0  0.00000000000E+00  0.00000000000E+00  0.99999998245E-14  0.12500000000E+03  0.12500000000E+03 0.  0.
        -13    1    3    3    0    0 -0.74200674404E+01  0.37993206958E+02 -0.89796292491E+01  0.39738974336E+02  0.10566000000E+00 0. -1.
         23    2    1    0    0    0  0.54521048827E+01 -0.22379674613E+02 -0.33181011765E+01  0.10172801945E+03  0.99030322941E+02 0.  0.
         13    1    3    3    0    0  0.12872172323E+02 -0.60372881572E+02  0.56615280726E+01  0.61989045111E+02  0.10566000000E+00 0.  1.
         22    1    1    0    0    0 -0.54521048827E+01  0.22379674613E+02  0.33181011765E+01  0.23271980553E+02  0.00000000000E+00 0.  1.
</event>
<event>
 5    1  0.8943113E-005  0.9118800E+02  0.7818608E-02  0.1130116E+00
         25   -1    0    0    0    0  0.00000000000E+00  0.00000000000E+00  0.99999998245E-14  0.12500000000E+03  0.12500000000E+03 0.  0.
        -13    1    3    3    0    0 -0.35733864844E+02 -0.29320059941E+02 -0.17872471705E+02  0.49558161997E+02  0.10566000000E+00 0. -1.
         23    2    1    0    0    0 -0.14035736735E+02  0.11694786234E+02 -0.22302458695E+02  0.96169987954E+02  0.91746918142E+02 0.  0.
         13    1    3    3    0    0  0.21698128110E+02  0.41014846175E+02 -0.44299869900E+01  0.46611825957E+02  0.10566000000E+00 0.  1.
         22    1    1    0    0    0  0.14035736735E+02 -0.11694786234E+02  0.22302458695E+02  0.28830012046E+02  0.00000000000E+00 0.  1.
</event>
<event>
 5    1  0.8943113E-005  0.9118800E+02  0.7818608E-02  0.1130116E+00
         25   -1    0    0    0    0  0.00000000000E+00  0.00000000000E+00  0.99999998245E-14  0.12500000000E+03  0.12500000000E+03 0.  0.
        -13    1    3    3    0    0  0.41707053059E+02  0.53976578873E+01  0.13795886910E+01  0.42077635563E+02  0.10566000000E+00 0.  1.
         23    2    1    0    0    0 -0.60953359885E+01  0.27334502292E+02  0.97711230490E+01  0.95338526975E+02  0.90607018181E+02 0.  0.
         13    1    3    3    0    0 -0.47802389048E+02  0.21936844405E+02  0.83915343581E+01  0.53260891412E+02  0.10566000000E+00 0. -1.
         22    1    1    0    0    0  0.60953359885E+01 -0.27334502292E+02 -0.97711230490E+01  0.29661473025E+02  0.00000000000E+00 0. -1.
</event>
<event>
 5    1  0.8943113E-005  0.9118800E+02  0.7818608E-02  0.1130116E+00
         25   -1    0    0    0    0  0.00000000000E+00  0.00000000000E+00  0.99999998245E-14  0.12500000000E+03  0.12500000000E+03 0.  0.
        -13    1    3    3    0    0 -0.11259170923E+02 -0.56342662622E+01 -0.60040728121E+02  0.61346671332E+02  0.10566000000E+00 0.  1.
         23    2    1    0    0    0 -0.13447120163E+02 -0.31350343845E+00 -0.27563802814E+02  0.94329386203E+02  0.89203960399E+02 0.  0.
         13    1    3    3    0    0 -0.21879492406E+01  0.53207628237E+01  0.32476925306E+02  0.32982714872E+02  0.10566000000E+00 0. -1.
         22    1    1    0    0    0  0.13447120163E+02  0.31350343845E+00  0.27563802814E+02  0.30670613797E+02  0.00000000000E+00 0.  1.
</event>
<event>
 5    1  0.8943113E-005  0.9118800E+02  0.7818608E-02  0.1130116E+00
         25   -1    0    0    0    0  0.00000000000E+00  0.00000000000E+00  0.99999998245E-14  0.12500000000E+03  0.12500000000E+03 0.  0.
        -13    1    3    3    0    0 -0.59381555205E+01 -0.18951155578E+02 -0.40487721863E+02  0.45096283377E+02  0.10566000000E+00 0.  1.
         23    2    1    0    0    0  0.86053948825E+01  0.22941709626E+02 -0.15690908511E+02  0.95903961239E+02  0.91383752986E+02 0.  0.
         13    1    3    3    0    0  0.14543550403E+02  0.41892865205E+02  0.24796813351E+02  0.50807677863E+02  0.10566000000E+00 0. -1.
         22    1    1    0    0    0 -0.86053948825E+01 -0.22941709626E+02  0.15690908511E+02  0.29096038761E+02  0.00000000000E+00 0. -1.
</event>
<event>
 5    1  0.8943113E-005  0.9118800E+02  0.7818608E-02  0.1130116E+00
         25   -1    0    0    0    0  0.00000000000E+00  0.00000000000E+00  0.99999998245E-14  0.12500000000E+03  0.12500000000E+03 0.  0.
        -13    1    3    3    0    0  0.33918659281E+01 -0.24227614622E+02 -0.24058461036E+02  0.34311846004E+02  0.10566000000E+00 0.  1.
         23    2    1    0    0    0 -0.20301093128E+01  0.12064440553E+02  0.25933467750E+02  0.96325676656E+02  0.91958790575E+02 0.  0.
         13    1    3    3    0    0 -0.54219752409E+01  0.36292055175E+02  0.49991928786E+02  0.62013830652E+02  0.10566000000E+00 0. -1.
         22    1    1    0    0    0  0.20301093128E+01 -0.12064440553E+02 -0.25933467750E+02  0.28674323344E+02  0.00000000000E+00 0. -1.
</event>
<event>
 5    1  0.8943113E-005  0.9118800E+02  0.7818608E-02  0.1130116E+00
         25   -1    0    0    0    0  0.00000000000E+00  0.00000000000E+00  0.99999998245E-14  0.12500000000E+03  0.12500000000E+03 0.  0.
        -13    1    3    3    0    0 -0.28151175756E+02 -0.41467195158E+02 -0.27279247897E+02  0.57062995896E+02  0.10566000000E+00 0.  1.
         23    2    1    0    0    0  0.29224550198E+01 -0.28026796141E+02 -0.97929290799E+01  0.95168079089E+02  0.90371565064E+02 0.  0.
         13    1    3    3    0    0  0.31073630776E+02  0.13440399017E+02  0.17486318817E+02  0.38105083193E+02  0.10566000000E+00 0. -1.
         22    1    1    0    0    0 -0.29224550198E+01  0.28026796141E+02  0.97929290799E+01  0.29831920911E+02  0.00000000000E+00 0.  1.
</event>
<event>
 5    1  0.8943113E-005  0.9118800E+02  0.7818608E-02  0.1130116E+00
         25   -1    0    0    0    0  0.00000000000E+00  0.00000000000E+00  0.99999998245E-14  0.12500000000E+03  0.12500000000E+03 0.  0.
        -13    1    3    3    0    0 -0.47576405278E+01  0.25885360697E+02  0.24097962356E+02  0.35684870681E+02  0.10566000000E+00 0. -1.
         23    2    1    0    0    0 -0.21182043696E+01 -0.12600348595E+02 -0.24281851198E+02  0.97561635032E+02  0.93623761717E+02 0.  0.
         13    1    3    3    0    0  0.26394361582E+01 -0.38485709292E+02 -0.48379813555E+02  0.61876764351E+02  0.10566000000E+00 0.  1.
         22    1    1    0    0    0  0.21182043696E+01  0.12600348595E+02  0.24281851198E+02  0.27438364968E+02  0.00000000000E+00 0.  1.
</event>
<event>
 5    1  0.8943113E-005  0.9118800E+02  0.7818608E-02  0.1130116E+00
         25   -1    0    0    0    0  0.00000000000E+00  0.00000000000E+00  0.99999998245E-14  0.12500000000E+03  0.12500000000E+03 0.  0.
        -13    1    3    3    0    0 -0.18554627664E+02  0.39695646917E+02  0.28321967954E+01  0.43909578621E+02  0.10566000000E+00 0.  1.
         23    2    1    0    0    0  0.22147349566E+02  0.45464357567E+01  0.13402243928E+02  0.98717014759E+02  0.95153842223E+02 0.  0.
         13    1    3    3    0    0  0.40701977230E+02 -0.35149211160E+02  0.10570047132E+02  0.54807436138E+02  0.10566000000E+00 0. -1.
         22    1    1    0    0    0 -0.22147349566E+02 -0.45464357567E+01 -0.13402243928E+02  0.26282985241E+02  0.00000000000E+00 0. -1.
</event>
<event>
 5    1  0.8943113E-005  0.9118800E+02  0.7818608E-02  0.1130116E+00
         25   -1    0    0    0    0  0.00000000000E+00  0.00000000000E+00  0.99999998245E-14  0.12500000000E+03  0.12500000000E+03 0.  0.
        -13    1    3    3    0    0 -0.18748148210E+02  0.34532786712E+02 -0.12889585983E+02  0.41354068847E+02  0.10566000000E+00 0. -1.
         23    2    1    0    0    0 -0.20421241720E+02 -0.64886413432E+01  0.21304123250E+02  0.94784188786E+02  0.89839007099E+02 0.  0.
         13    1    3    3    0    0 -0.16730935108E+01 -0.41021428055E+02  0.34193709232E+02  0.53430119939E+02  0.10566000000E+00 0.  1.
         22    1    1    0    0    0  0.20421241720E+02  0.64886413432E+01 -0.21304123250E+02  0.30215811214E+02  0.00000000000E+00 0. -1.
</event>
<event>
 5    1  0.8943113E-005  0.9118800E+02  0.7818608E-02  0.1130116E+00
         25   -1    0    0    0    0  0.00000000000E+00  0.00000000000E+00  0.99999998245E-14  0.12500000000E+03  0.12500000000E+03 0.  0.
        -13    1    3    3    0    0  0.35982093094E+02  0.27092441600E+02  0.86595711316E+01  0.45866226698E+02  0.10566000000E+00 0.  1.
         23    2    1    0    0    0 -0.11673787201E+02  0.14116029585E+02  0.21357181849E+02  0.96863390123E+02  0.92686825011E+02 0.  0.
         13    1    3    3    0    0 -0.47655880294E+02 -0.12976412016E+02  0.12697610718E+02  0.50997163425E+02  0.10566000000E+00 0. -1.
         22    1    1    0    0    0  0.11673787201E+02 -0.14116029585E+02 -0.21357181849E+02  0.28136609877E+02  0.00000000000E+00 0. -1.
</event>
<event>
 5    1  0.8943113E-005  0.9118800E+02  0.7818608E-02  0.1130116E+00
         25   -1    0    0    0    0  0.00000000000E+00  0.00000000000E+00  0.99999998245E-14  0.12500000000E+03  0.12500000000E+03 0.  0.
        -13    1    3    3    0    0 -0.20313752364E+02  0.42874373743E+02 -0.43949648988E+01  0.47646482970E+02  0.10566000000E+00 0.  1.
         23    2    1    0    0    0 -0.20169039986E+02  0.33497884501E+01  0.21838130570E+02  0.95084866649E+02  0.90256394025E+02 0.  0.
         13    1    3    3    0    0  0.14471237821E+00 -0.39524585292E+02  0.26233095468E+02  0.47438383679E+02  0.10566000000E+00 0. -1.
         22    1    1    0    0    0  0.20169039986E+02 -0.33497884501E+01 -0.21838130570E+02  0.29915133351E+02  0.00000000000E+00 0.  1.
</event>
<event>
 5    1  0.8943113E-005  0.9118800E+02  0.7818608E-02  0.1130116E+00
         25   -1    0    0    0    0  0.00000000000E+00  0.00000000000E+00  0.99999998245E-14  0.12500000000E+03  0.12500000000E+03 0.  0.
        -13    1    3    3    0    0  0.33661758053E+02 -0.32692341513E+02  0.18594180330E+02  0.50474328673E+02  0.10566000000E+00 0. -1.
         23    2    1    0    0    0 -0.83228796892E+01 -0.28801585547E+02  0.67790457459E+01  0.94263098439E+02  0.89111024064E+02 0.  0.
         13    1    3    3    0    0 -0.41984637742E+02  0.38907559656E+01 -0.11815134584E+02  0.43788769766E+02  0.10566000000E+00 0.  1.
         22    1    1    0    0    0  0.83228796892E+01  0.28801585547E+02 -0.67790457459E+01  0.30736901561E+02  0.00000000000E+00 0.  1.
</event>
<event>
 5    1  0.8943113E-005  0.9118800E+02  0.7818608E-02  0.1130116E+00
         25   -1    0    0    0    0  0.00000000000E+00  0.00000000000E+00  0.99999998245E-14  0.12500000000E+03  0.12500000000E+03 0.  0.
        -13    1    3    3    0    0 -0.47529889579E+02  0.12781393469E+02 -0.93097030602E+01  0.50091278258E+02  0.10566000000E+00 0.  1.
         23    2    1    0    0    0 -0.15087524074E+01  0.26274310420E+02 -0.46392781313E+01  0.98276627768E+02  0.94573553079E+02 0.  0.
         13    1    3    3    0    0  0.46021137171E+02  0.13492916951E+02  0.46704249290E+01  0.48185349511E+02  0.10566000000E+00 0. -1.
         22    1    1    0    0    0  0.15087524074E+01 -0.26274310420E+02  0.46392781313E+01  0.26723372232E+02  0.00000000000E+00 0.  1.
</event>
<event>
 5    1  0.8943113E-005  0.9118800E+02  0.7818608E-02  0.1130116E+00
         25   -1    0    0    0    0  0.00000000000E+00  0.00000000000E+00  0.99999998245E-14  0.12500000000E+03  0.12500000000E+03 0.  0.
        -13    1    3    3    0    0  0.97138344117E+01 -0.32651350260E+02  0.54896390270E+01  0.34505311960E+02  0.10566000000E+00 0.  1.
         23    2    1    0    0    0 -0.49272489484E+01  0.26738122450E+02  0.10447267668E+02  0.95873545082E+02  0.91342138526E+02 0.  0.
         13    1    3    3    0    0 -0.14641083360E+02  0.59389472710E+02  0.49576286406E+01  0.61368233122E+02  0.10566000000E+00 0. -1.
         22    1    1    0    0    0  0.49272489484E+01 -0.26738122450E+02 -0.10447267668E+02  0.29126454918E+02  0.00000000000E+00 0. -1.
</event>
<event>
 5    1  0.8943113E-005  0.9118800E+02  0.7818608E-02  0.1130116E+00
         25   -1    0    0    0    0  0.00000000000E+00  0.00000000000E+00  0.99999998245E-14  0.12500000000E+03  0.12500000000E+03 0.  0.
        -13    1    3    3    0    0  0.18627708706E+02  0.25667604992E+02  0.41967199831E+02  0.52602989490E+02  0.10566000000E+00 0. -1.
         23    2    1    0    0    0 -0.71343531236E+01  0.28049711085E+02  0.86375530137E+01  0.94795818029E+02  0.89855186313E+02 0.  0.
         13    1    3    3    0    0 -0.25762061829E+02  0.23821060937E+01 -0.33329646817E+02  0.42192828539E+02  0.10566000000E+00 0.  1.
         22    1    1    0    0    0  0.71343531236E+01 -0.28049711085E+02 -0.86375530137E+01  0.30204181971E+02  0.00000000000E+00 0.  1.
</event>
<event>
 5    1  0.8943113E-005  0.9118800E+02  0.7818608E-02  0.1130116E+00
         25   -1    0    0    0    0  0.00000000000E+00  0.00000000000E+00  0.99999998245E-14  0.12500000000E+03  0.12500000000E+03 0.  0.
        -13    1    3    3    0    0 -0.15313161636E+02 -0.55892492333E+02  0.87921773115E+01  0.58615502765E+02  0.10566000000E+00 0.  1.
         23    2    1    0    0    0  0.45852621839E+01 -0.27560844722E+02  0.14203621290E+02  0.93657255244E+02  0.88257089296E+02 0.  0.
         13    1    3    3    0    0  0.19898423820E+02  0.28331647611E+02  0.54114439782E+01  0.35041752479E+02  0.10566000000E+00 0. -1.
         22    1    1    0    0    0 -0.45852621839E+01  0.27560844722E+02 -0.14203621290E+02  0.31342744756E+02  0.00000000000E+00 0. -1.
</event>
<event>
 5    1  0.8943113E-005  0.9118800E+02  0.7818608E-02  0.1130116E+00
         25   -1    0    0    0    0  0.00000000000E+00  0.00000000000E+00  0.99999998245E-14  0.12500000000E+03  0.12500000000E+03 0.  0.
        -13    1    3    3    0    0  0.35693018016E+02 -0.22644073705E+02 -0.90802480498E+01  0.43234334478E+02  0.10566000000E+00 0. -1.
         23    2    1    0    0    0 -0.13439255603E+02 -0.22252018124E+02  0.11588352688E+02  0.96538520422E+02  0.92247656368E+02 0.  0.
         13    1    3    3    0    0 -0.49132273620E+02  0.39205558115E+00  0.20668600738E+02  0.53304185943E+02  0.10566000000E+00 0.  1.
         22    1    1    0    0    0  0.13439255603E+02  0.22252018124E+02 -0.11588352688E+02  0.28461479578E+02  0.00000000000E+00 0.  1.
</event>
<event>
 5    1  0.8943113E-005  0.9118800E+02  0.7818608E-02  0.1130116E+00
         25   -1    0    0    0    0  0.00000000000E+00  0.00000000000E+00  0.99999998245E-14  0.12500000000E+03  0.12500000000E+03 0.  0.
        -13    1    3    3    0    0  0.26550669753E+02  0.25775955081E+02  0.93397675164E+01  0.38165171897E+02  0.10566000000E+00 0.  1.
         23    2    1    0    0    0  0.79439648234E+01 -0.14783891261E+02 -0.25288459432E+02  0.94649115361E+02  0.89650871944E+02 0.  0.
         13    1    3    3    0    0 -0.18606704930E+02 -0.40559846342E+02 -0.34628226948E+02  0.56483943464E+02  0.10566000000E+00 0. -1.
         22    1    1    0    0    0 -0.79439648234E+01  0.14783891261E+02  0.25288459432E+02  0.30350884639E+02  0.00000000000E+00 0. -1.
</event>
<event>
 5    1  0.8943113E-005  0.9118800E+02  0.7818608E-02  0.1130116E+00
         25   -1    0    0    0    0  0.00000000000E+00  0.00000000000E+00  0.99999998245E-14  0.12500000000E+03  0.12500000000E+03 0.  0.
        -13    1    3    3    0    0 -0.24867041870E+02 -0.33307962940E+02  0.42076900485E+02  0.59146148523E+02  0.10566000000E+00 0. -1.
         23    2    1    0    0    0 -0.21549698493E+02 -0.50009597787E+01  0.19605693641E+02  0.95440190681E+02  0.90747163428E+02 0.  0.
         13    1    3    3    0    0  0.33173433771E+01  0.28307003162E+02 -0.22471206844E+02  0.36294042158E+02  0.10566000000E+00 0.  1.
         22    1    1    0    0    0  0.21549698493E+02  0.50009597787E+01 -0.19605693641E+02  0.29559809319E+02  0.00000000000E+00 0. -1.
</event>
<event>
 5    1  0.8943113E-005  0.9118800E+02  0.7818608E-02  0.1130116E+00
         25   -1    0    0    0    0  0.00000000000E+00  0.00000000000E+00  0.99999998245E-14  0.12500000000E+03  0.12500000000E+03 0.  0.
        -13    1    3    3    0    0 -0.20265309812E+02  0.76522324639E+00  0.27578313981E+02  0.34232191201E+02  0.10566000000E+00 0.  1.
         23    2    1    0    0    0  0.14347602688E+01 -0.19741795959E+01 -0.29521448629E+02  0.95377848639E+02  0.90661249494E+02 0.  0.
         13    1    3    3    0    0  0.21700070080E+02 -0.27394028423E+01 -0.57099762609E+02  0.61145657438E+02  0.10566000000E+00 0. -1.
         22    1    1    0    0    0 -0.14347602688E+01  0.19741795959E+01  0.29521448629E+02  0.29622151361E+02  0.00000000000E+00 0. -1.
</event>
<event>
 5    1  0.8943113E-005  0.9118800E+02  0.7818608E-02  0.1130116E+00
         25   -1    0    0    0    0  0.00000000000E+00  0.00000000000E+00  0.99999998245E-14  0.12500000000E+03  0.12500000000E+03 0.  0.
        -13    1    3    3    0    0 -0.14412854884E+02 -0.24088751920E+02  0.23107569657E+02  0.36358895672E+02  0.10566000000E+00 0. -1.
         23    2    1    0    0    0 -0.20480592513E+02  0.18465120211E+02 -0.14829110317E+02  0.93689972103E+02  0.88303414576E+02 0.  0.
         13    1    3    3    0    0 -0.60677376287E+01  0.42553872131E+02 -0.37936679974E+02  0.57331076431E+02  0.10566000000E+00 0.  1.
         22    1    1    0    0    0  0.20480592513E+02 -0.18465120211E+02  0.14829110317E+02  0.31310027897E+02  0.00000000000E+00 0.  1.
</event>
<event>
 5    1  0.8943113E-005  0.9118800E+02  0.7818608E-02  0.1130116E+00
         25   -1    0    0    0    0  0.00000000000E+00  0.00000000000E+00  0.99999998245E-14  0.12500000000E+03  0.12500000000E+03 0.  0.
        -13    1    3    3    0    0  0.29693576114E+02  0.99041360441E+01  0.62003349861E+01  0.31910118947E+02  0.10566000000E+00 0. -1.
         23    2    1    0    0    0 -0.27005565843E+02 -0.11930525167E+02  0.12388501361E+02  0.92982614360E+02  0.87296354964E+02 0.  0.
         13    1    3    3    0    0 -0.56699141957E+02 -0.21834661211E+02  0.61881663749E+01  0.61072495413E+02  0.10566000000E+00 0.  1.
         22    1    1    0    0    0  0.27005565843E+02  0.11930525167E+02 -0.12388501361E+02  0.32017385640E+02  0.00000000000E+00 0.  1.
</event>
<event>
 5    1  0.8943113E-005  0.9118800E+02  0.7818608E-02  0.1130116E+00
         25   -1    0    0    0    0  0.00000000000E+00  0.00000000000E+00  0.99999998245E-14  0.12500000000E+03  0.12500000000E+03 0.  0.
        -13    1    3    3    0    0 -0.41112828281E+02 -0.59263481573E+01  0.24849581090E+02  0.48403502933E+02  0.10566000000E+00 0.  1.
         23    2    1    0    0    0 -0.21812454592E+02  0.11111812389E+02 -0.15324685620E+02  0.96119183889E+02  0.91677674339E+02 0.  0.
         13    1    3    3    0    0  0.19300373690E+02  0.17038160546E+02 -0.40174266710E+02  0.47715680956E+02  0.10566000000E+00 0. -1.
         22    1    1    0    0    0  0.21812454592E+02 -0.11111812389E+02  0.15324685620E+02  0.28880816111E+02  0.00000000000E+00 0.  1.
</event>
<event>
 5    1  0.8943113E-005  0.9118800E+02  0.7818608E-02  0.1130116E+00
         25   -1    0    0    0    0  0.00000000000E+00  0.00000000000E+00  0.99999998245E-14  0.12500000000E+03  0.12500000000E+03 0.  0.
        -13    1    3    3    0    0 -0.38327655464E+02 -0.39034089410E+02 -0.16245177553E+02  0.57066507403E+02  0.10566000000E+00 0. -1.
         23    2    1    0    0    0 -0.29404688844E+02 -0.80506697994E+01  0.25825077281E+01  0.94403948680E+02  0.89308382417E+02 0.  0.
         13    1    3    3    0    0  0.89229666201E+01  0.30983419610E+02  0.18827685281E+02  0.37337441277E+02  0.10566000000E+00 0.  1.
         22    1    1    0    0    0  0.29404688844E+02  0.80506697994E+01 -0.25825077281E+01  0.30596051320E+02  0.00000000000E+00 0. -1.
</event>
<event>
 5    1  0.8943113E-005  0.9118800E+02  0.7818608E-02  0.1130116E+00
         25   -1    0    0    0    0  0.00000000000E+00  0.00000000000E+00  0.99999998245E-14  0.12500000000E+03  0.12500000000E+03 0.  0.
        -13    1    3    3    0    0 -0.56498142120E+02  0.32220763034E+01 -0.16523104580E+02  0.58952913310E+02  0.10566000000E+00 0.  1.
         23    2    1    0    0    0 -0.19923774764E+02  0.33747399383E+01 -0.21066078399E+02  0.95808814179E+02  0.91253512507E+02 0.  0.
         13    1    3    3    0    0  0.36574367356E+02  0.15266363482E+00 -0.45429738192E+01  0.36855900869E+02  0.10566000000E+00 0. -1.
         22    1    1    0    0    0  0.19923774764E+02 -0.33747399383E+01  0.21066078399E+02  0.29191185821E+02  0.00000000000E+00 0.  1.
</event>
<event>
 5    1  0.8943113E-005  0.9118800E+02  0.7818608E-02  0.1130116E+00
         25   -1    0    0    0    0  0.00000000000E+00  0.00000000000E+00  0.99999998245E-14  0.12500000000E+03  0.12500000000E+03 0.  0.
        -13    1    3    3    0    0  0.17179984425E+02  0.39318115715E+01 -0.36547070861E+02  0.40574752736E+02  0.10566000000E+00 0. -1.
         23    2    1    0    0    0  0.22654867611E+02  0.13160750797E+01  0.18356108483E+02  0.95812300558E+02  0.91258288059E+02 0.  0.
         13    1    3    3    0    0  0.54748831861E+01 -0.26157364918E+01  0.54903179344E+02  0.55237547822E+02  0.10566000000E+00 0.  1.
         22    1    1    0    0    0 -0.22654867611E+02 -0.13160750797E+01 -0.18356108483E+02  0.29187699442E+02  0.00000000000E+00 0. -1.
</event>
<event>
 5    1  0.8943113E-005  0.9118800E+02  0.7818608E-02  0.1130116E+00
         25   -1    0    0    0    0  0.00000000000E+00  0.00000000000E+00  0.99999998245E-14  0.12500000000E+03  0.12500000000E+03 0.  0.
        -13    1    3    3    0    0 -0.40895895925E+02 -0.19816926806E+02  0.21290066510E+02  0.50184290247E+02  0.10566000000E+00 0. -1.
         23    2    1    0    0    0 -0.15207750246E+02  0.17498339952E+02  0.18079400388E+02  0.95600471313E+02  0.90967674634E+02 0.  0.
         13    1    3    3    0    0  0.25688145679E+02  0.37315266758E+02 -0.32106661220E+01  0.45416181066E+02  0.10566000000E+00 0.  1.
         22    1    1    0    0    0  0.15207750246E+02 -0.17498339952E+02 -0.18079400388E+02  0.29399528687E+02  0.00000000000E+00 0. -1.
</event>
<event>
 5    1  0.8943113E-005  0.9118800E+02  0.7818608E-02  0.1130116E+00
         25   -1    0    0    0    0  0.00000000000E+00  0.00000000000E+00  0.99999998245E-14  0.12500000000E+03  0.12500000000E+03 0.  0.
        -13    1    3    3    0    0  0.10179070154E+02 -0.20373060144E+02 -0.52109478188E+02  0.56869006760E+02  0.10566000000E+00 0. -1.
         23    2    1    0    0    0  0.11472473443E+02 -0.23443443298E+02 -0.13512757323E+02  0.95609401316E+02  0.90979944652E+02 0.  0.
         13    1    3    3    0    0  0.12934032886E+01 -0.30703831538E+01  0.38596720865E+02  0.38740394555E+02  0.10566000000E+00 0.  1.
         22    1    1    0    0    0 -0.11472473443E+02  0.23443443298E+02  0.13512757323E+02  0.29390598684E+02  0.00000000000E+00 0. -1.
</event>
<event>
 5    1  0.8943113E-005  0.9118800E+02  0.7818608E-02  0.1130116E+00
         25   -1    0    0    0    0  0.00000000000E+00  0.00000000000E+00  0.99999998245E-14  0.12500000000E+03  0.12500000000E+03 0.  0.
        -13    1    3    3    0    0 -0.21570108019E+02 -0.21817109350E+02 -0.43173042802E+02  0.52963936873E+02  0.10566000000E+00 0. -1.
         23    2    1    0    0    0 -0.26087038763E+02 -0.88248195729E+01 -0.87022182745E+00  0.97446990764E+02  0.93470571257E+02 0.  0.
         13    1    3    3    0    0 -0.45169307444E+01  0.12992289777E+02  0.42302820974E+02  0.44483053891E+02  0.10566000000E+00 0.  1.
         22    1    1    0    0    0  0.26087038763E+02  0.88248195729E+01  0.87022182745E+00  0.27553009236E+02  0.00000000000E+00 0. -1.
</event>
<event>
 5    1  0.8943113E-005  0.9118800E+02  0.7818608E-02  0.1130116E+00
         25   -1    0    0    0    0  0.00000000000E+00  0.00000000000E+00  0.99999998245E-14  0.12500000000E+03  0.12500000000E+03 0.  0.
        -13    1    3    3    0    0  0.26606867964E+02 -0.49711926621E+02 -0.91158532424E+01  0.57116643945E+02  0.10566000000E+00 0.  1.
         23    2    1    0    0    0  0.21670637308E+02 -0.15860822336E+02  0.10046769947E+02  0.96327368574E+02  0.91961090378E+02 0.  0.
         13    1    3    3    0    0 -0.49362306561E+01  0.33851104285E+02  0.19162623189E+02  0.39210724629E+02  0.10566000000E+00 0. -1.
         22    1    1    0    0    0 -0.21670637308E+02  0.15860822336E+02 -0.10046769947E+02  0.28672631426E+02  0.00000000000E+00 0.  1.
</event>
<event>
 5    1  0.8943113E-005  0.9118800E+02  0.7818608E-02  0.1130116E+00
         25   -1    0    0    0    0  0.00000000000E+00  0.00000000000E+00  0.99999998245E-14  0.12500000000E+03  0.12500000000E+03 0.  0.
        -13    1    3    3    0    0 -0.16849489416E+02 -0.29715409057E+02  0.16092577964E+02  0.37760999173E+02  0.10566000000E+00 0. -1.
         23    2    1    0    0    0 -0.13803929533E+02  0.23096027999E+02 -0.94210394933E+01  0.96491563266E+02  0.92184005210E+02 0.  0.
         13    1    3    3    0    0  0.30455598825E+01  0.52811437056E+02 -0.25513617457E+02  0.58730564093E+02  0.10566000000E+00 0.  1.
         22    1    1    0    0    0  0.13803929533E+02 -0.23096027999E+02  0.94210394933E+01  0.28508436734E+02  0.00000000000E+00 0.  1.
</event>
<event>
 5    1  0.8943113E-005  0.9118800E+02  0.7818608E-02  0.1130116E+00
         25   -1    0    0    0    0  0.00000000000E+00  0.00000000000E+00  0.99999998245E-14  0.12500000000E+03  0.12500000000E+03 0.  0.
        -13    1    3    3    0    0 -0.82564447639E+01  0.53472421405E+02 -0.11184966506E+02  0.55250188876E+02  0.10566000000E+00 0. -1.
         23    2    1    0    0    0 -0.14430135155E+02  0.15399727124E+02 -0.21186548489E+02  0.95095982996E+02  0.90271788223E+02 0.  0.
         13    1    3    3    0    0 -0.61736903911E+01 -0.38072694281E+02 -0.10001581983E+02  0.39845794120E+02  0.10566000000E+00 0.  1.
         22    1    1    0    0    0  0.14430135155E+02 -0.15399727124E+02  0.21186548489E+02  0.29904017004E+02  0.00000000000E+00 0. -1.
</event>
<event>
 5    1  0.8943113E-005  0.9118800E+02  0.7818608E-02  0.1130116E+00
         25   -1    0    0    0    0  0.00000000000E+00  0.00000000000E+00  0.99999998245E-14  0.12500000000E+03  0.12500000000E+03 0.  0.
        -13    1    3    3    0    0 -0.11708730683E+02 -0.14637421210E+02 -0.48956699246E+02  0.52422495543E+02  0.10566000000E+00 0.  1.
         23    2    1    0    0    0  0.18854843906E+02 -0.10433522125E+02 -0.27776620078E+02  0.89844571605E+02  0.82680970612E+02 0.  0.
         13    1    3    3    0    0  0.30563574590E+02  0.42038990852E+01  0.21180079168E+02  0.37422076062E+02  0.10566000000E+00 0. -1.
         22    1    1    0    0    0 -0.18854843906E+02  0.10433522125E+02  0.27776620078E+02  0.35155428395E+02  0.00000000000E+00 0. -1.
</event>
<event>
 5    1  0.8943113E-005  0.9118800E+02  0.7818608E-02  0.1130116E+00
         25   -1    0    0    0    0  0.00000000000E+00  0.00000000000E+00  0.99999998245E-14  0.12500000000E+03  0.12500000000E+03 0.  0.
        -13    1    3    3    0    0 -0.76534896771E+00 -0.33259312507E+02  0.20794906471E+02  0.39232727749E+02  0.10566000000E+00 0. -1.
         23    2    1    0    0    0  0.72881427303E+01  0.17320318699E+02 -0.14356743947E+02  0.10135202839E+03  0.98554589435E+02 0.  0.
         13    1    3    3    0    0  0.80534916980E+01  0.50579631207E+02 -0.35151650417E+02  0.62119300645E+02  0.10566000000E+00 0.  1.
         22    1    1    0    0    0 -0.72881427303E+01 -0.17320318699E+02  0.14356743947E+02  0.23647971606E+02  0.00000000000E+00 0.  1.
</event>
<event>
 5    1  0.8943113E-005  0.9118800E+02  0.7818608E-02  0.1130116E+00
         25   -1    0    0    0    0  0.00000000000E+00  0.00000000000E+00  0.99999998245E-14  0.12500000000E+03  0.12500000000E+03 0.  0.
        -13    1    3    3    0    0  0.27195993410E+02 -0.23423615274E+02 -0.93954056249E+00  0.35905176654E+02  0.10566000000E+00 0.  1.
         23    2    1    0    0    0 -0.20440018404E+02  0.89154830566E+01 -0.18419888231E+02  0.96076437410E+02  0.91619372146E+02 0.  0.
         13    1    3    3    0    0 -0.47636011814E+02  0.32339098330E+02 -0.17480347668E+02  0.60171260756E+02  0.10566000000E+00 0. -1.
         22    1    1    0    0    0  0.20440018404E+02 -0.89154830566E+01  0.18419888231E+02  0.28923562590E+02  0.00000000000E+00 0. -1.
</event>
<event>
 5    1  0.8943113E-005  0.9118800E+02  0.7818608E-02  0.1130116E+00
         25   -1    0    0    0    0  0.00000000000E+00  0.00000000000E+00  0.99999998245E-14  0.12500000000E+03  0.12500000000E+03 0.  0.
        -13    1    3    3    0    0 -0.21207901762E+02 -0.10082652515E+02 -0.25410222747E+02  0.34599502352E+02  0.10566000000E+00 0. -1.
         23    2    1    0    0    0  0.15057535920E+02 -0.18947325175E+02  0.20154135641E+02  0.93505243251E+02  0.88041528910E+02 0.  0.
         13    1    3    3    0    0  0.36265437682E+02 -0.88646726597E+01  0.45564358387E+02  0.58905740899E+02  0.10566000000E+00 0.  1.
         22    1    1    0    0    0 -0.15057535920E+02  0.18947325175E+02 -0.20154135641E+02  0.31494756749E+02  0.00000000000E+00 0.  1.
</event>
<event>
 5    1  0.8943113E-005  0.9118800E+02  0.7818608E-02  0.1130116E+00
         25   -1    0    0    0    0  0.00000000000E+00  0.00000000000E+00  0.99999998245E-14  0.12500000000E+03  0.12500000000E+03 0.  0.
        -13    1    3    3    0    0 -0.29318661793E+02  0.74713398902E+01 -0.10577008182E+02  0.32051351222E+02  0.10566000000E+00 0.  1.
         23    2    1    0    0    0  0.30268659927E+02 -0.62143600916E+01  0.95909869312E-02  0.94099997781E+02  0.88881941052E+02 0.  0.
         13    1    3    3    0    0  0.59587321720E+02 -0.13685699982E+02  0.10586599168E+02  0.62048646559E+02  0.10566000000E+00 0. -1.
         22    1    1    0    0    0 -0.30268659927E+02  0.62143600916E+01 -0.95909869312E-02  0.30900002219E+02  0.00000000000E+00 0. -1.
</event>
<event>
 5    1  0.8943113E-005  0.9118800E+02  0.7818608E-02  0.1130116E+00
         25   -1    0    0    0    0  0.00000000000E+00  0.00000000000E+00  0.99999998245E-14  0.12500000000E+03  0.12500000000E+03 0.  0.
        -13    1    3    3    0    0  0.35044990859E+02 -0.32026972248E+02  0.10065539565E+01  0.47485815256E+02  0.10566000000E+00 0.  1.
         23    2    1    0    0    0  0.78286224973E+01 -0.19743479888E+01  0.27778336871E+02  0.96072134896E+02  0.91613501865E+02 0.  0.
         13    1    3    3    0    0 -0.27216368362E+02  0.30052624259E+02  0.26771782914E+02  0.48586319639E+02  0.10566000000E+00 0. -1.
         22    1    1    0    0    0 -0.78286224973E+01  0.19743479888E+01 -0.27778336871E+02  0.28927865104E+02  0.00000000000E+00 0. -1.
</event>
<event>
 5    1  0.8943113E-005  0.9118800E+02  0.7818608E-02  0.1130116E+00
         25   -1    0    0    0    0  0.00000000000E+00  0.00000000000E+00  0.99999998245E-14  0.12500000000E+03  0.12500000000E+03 0.  0.
        -13    1    3    3    0    0  0.29989505344E+02 -0.24100739211E+01 -0.24671258923E+02  0.38908367583E+02  0.10566000000E+00 0.  1.
         23    2    1    0    0    0  0.30331669145E+02  0.43852835905E+01  0.22760426252E+02  0.86825690989E+02  0.77983477399E+02 0.  0.
         13    1    3    3    0    0  0.34216380111E+00  0.67953575117E+01  0.47431685175E+02  0.47917323406E+02  0.10566000000E+00 0. -1.
         22    1    1    0    0    0 -0.30331669145E+02 -0.43852835905E+01 -0.22760426252E+02  0.38174309011E+02  0.00000000000E+00 0.  1.
</event>
<event>
 5    1  0.8943113E-005  0.9118800E+02  0.7818608E-02  0.1130116E+00
         25   -1    0    0    0    0  0.00000000000E+00  0.00000000000E+00  0.99999998245E-14  0.12500000000E+03  0.12500000000E+03 0.  0.
        -13    1    3    3    0    0 -0.41518613650E+02 -0.25455356130E+02  0.29063442299E+02  0.56713889634E+02  0.10566000000E+00 0. -1.
         23    2    1    0    0    0 -0.27494180837E+02  0.50162414778E+01  0.98743031607E+01  0.95358904855E+02  0.90635126821E+02 0.  0.
         13    1    3    3    0    0  0.14024432813E+02  0.30471597608E+02 -0.19189139138E+02  0.38645015221E+02  0.10566000000E+00 0.  1.
         22    1    1    0    0    0  0.27494180837E+02 -0.50162414778E+01 -0.98743031607E+01  0.29641095145E+02  0.00000000000E+00 0. -1.
</event>
<event>
 5    1  0.8943113E-005  0.9118800E+02  0.7818608E-02  0.1130116E+00
         25   -1    0    0    0    0  0.00000000000E+00  0.00000000000E+00  0.99999998245E-14  0.12500000000E+03  0.12500000000E+03 0.  0.
        -13    1    3    3    0    0  0.45750055513E+02 -0.18114624916E+01  0.13851888388E+02  0.47835498866E+02  0.10566000000E+00 0. -1.
         23    2    1    0    0    0  0.14255710915E+02  0.68108232945E+01 -0.23014994067E+02  0.97084008892E+02  0.92983881522E+02 0.  0.
         13    1    3    3    0    0 -0.31494344598E+02  0.86222857861E+01 -0.36866882455E+02  0.49248510026E+02  0.10566000000E+00 0.  1.
         22    1    1    0    0    0 -0.14255710915E+02 -0.68108232945E+01  0.23014994067E+02  0.27915991108E+02  0.00000000000E+00 0.  1.
</event>
<event>
 5    1  0.8943113E-005  0.9118800E+02  0.7818608E-02  0.1130116E+00
         25   -1    0    0    0    0  0.00000000000E+00  0.00000000000E+00  0.99999998245E-14  0.12500000000E+03  0.12500000000E+03 0.  0.
        -13    1    3    3    0    0  0.15585631114E+02 -0.35333909958E+02 -0.16284999638E+02  0.41911925121E+02  0.10566000000E+00 0.  1.
         23    2    1    0    0    0  0.14071577210E+02  0.16583149283E+02 -0.21877544430E+02  0.94151384543E+02  0.88954179979E+02 0.  0.
         13    1    3    3    0    0 -0.15140539038E+01  0.51917059241E+02 -0.55925447928E+01  0.52239459422E+02  0.10566000000E+00 0. -1.
         22    1    1    0    0    0 -0.14071577210E+02 -0.16583149283E+02  0.21877544430E+02  0.30848615457E+02  0.00000000000E+00 0.  1.
</event>
<event>
 5    1  0.8943113E-005  0.9118800E+02  0.7818608E-02  0.1130116E+00
         25   -1    0    0    0    0  0.00000000000E+00  0.00000000000E+00  0.99999998245E-14  0.12500000000E+03  0.12500000000E+03 0.  0.
        -13    1    3    3    0    0 -0.29565666903E+02  0.21620047842E+02  0.35571430503E+02  0.51057741432E+02  0.10566000000E+00 0. -1.
         23    2    1    0    0    0  0.67127388285E+01 -0.20820781677E-01  0.30693145725E+02  0.93581367143E+02  0.88149542176E+02 0.  0.
         13    1    3    3    0    0  0.36278405732E+02 -0.21640868624E+02 -0.48782847775E+01  0.42523625711E+02  0.10566000000E+00 0.  1.
         22    1    1    0    0    0 -0.67127388285E+01  0.20820781677E-01 -0.30693145725E+02  0.31418632857E+02  0.00000000000E+00 0. -1.
</event>
<event>
 5    1  0.8943113E-005  0.9118800E+02  0.7818608E-02  0.1130116E+00
         25   -1    0    0    0    0  0.00000000000E+00  0.00000000000E+00  0.99999998245E-14  0.12500000000E+03  0.12500000000E+03 0.  0.
        -13    1    3    3    0    0 -0.16891164889E+01 -0.26880125775E+02  0.34885764041E+02  0.44072916547E+02  0.10566000000E+00 0.  1.
         23    2    1    0    0    0  0.19045435025E+02  0.16214948382E+02  0.14741271332E+02  0.95966257100E+02  0.91468925187E+02 0.  0.
         13    1    3    3    0    0  0.20734551514E+02  0.43095074157E+02 -0.20144492709E+02  0.51893340552E+02  0.10566000000E+00 0. -1.
         22    1    1    0    0    0 -0.19045435025E+02 -0.16214948382E+02 -0.14741271332E+02  0.29033742900E+02  0.00000000000E+00 0. -1.
</event>
<event>
 5    1  0.8943113E-005  0.9118800E+02  0.7818608E-02  0.1130116E+00
         25   -1    0    0    0    0  0.00000000000E+00  0.00000000000E+00  0.99999998245E-14  0.12500000000E+03  0.12500000000E+03 0.  0.
        -13    1    3    3    0    0 -0.57178214024E+01  0.39492297287E+02  0.37323761589E+02  0.54638899786E+02  0.10566000000E+00 0. -1.
         23    2    1    0    0    0  0.90805207289E+01  0.27407681251E+01  0.28134316150E+02  0.95309809501E+02  0.90567391347E+02 0.  0.
         13    1    3    3    0    0  0.14798342131E+02 -0.36751529162E+02 -0.91894454395E+01  0.40670909716E+02  0.10566000000E+00 0.  1.
         22    1    1    0    0    0 -0.90805207289E+01 -0.27407681251E+01 -0.28134316150E+02  0.29690190499E+02  0.00000000000E+00 0. -1.
</event>
<event>
 5    1  0.8943113E-005  0.9118800E+02  0.7818608E-02  0.1130116E+00
         25   -1    0    0    0    0  0.00000000000E+00  0.00000000000E+00  0.99999998245E-14  0.12500000000E+03  0.12500000000E+03 0.  0.
        -13    1    3    3    0    0 -0.62197360585E+01 -0.50131661699E+02  0.36593462252E+02  0.62377570207E+02  0.10566000000E+00 0. -1.
         23    2    1    0    0    0 -0.13302877679E+01 -0.20678416711E+02  0.18016237256E+02  0.97541824750E+02  0.93597308655E+02 0.  0.
         13    1    3    3    0    0  0.48894482906E+01  0.29453244988E+02 -0.18577224996E+02  0.35164254542E+02  0.10566000000E+00 0.  1.
         22    1    1    0    0    0  0.13302877679E+01  0.20678416711E+02 -0.18016237256E+02  0.27458175250E+02  0.00000000000E+00 0. -1.
</event>
<event>
 5    1  0.8943113E-005  0.9118800E+02  0.7818608E-02  0.1130116E+00
         25   -1    0    0    0    0  0.00000000000E+00  0.00000000000E+00  0.99999998245E-14  0.12500000000E+03  0.12500000000E+03 0.  0.
        -13    1    3    3    0    0  0.41000089852E+01  0.58915487014E+02  0.15315963610E+02  0.61011757794E+02  0.10566000000E+00 0.  1.
         23    2    1    0    0    0 -0.53460777102E+01  0.24993786772E+02  0.13062635307E+02  0.96296300495E+02  0.91918850753E+02 0.  0.
         13    1    3    3    0    0 -0.94460866954E+01 -0.33921700242E+02 -0.22533283037E+01  0.35284542701E+02  0.10566000000E+00 0. -1.
         22    1    1    0    0    0  0.53460777102E+01 -0.24993786772E+02 -0.13062635307E+02  0.28703699505E+02  0.00000000000E+00 0.  1.
</event>
<event>
 5    1  0.8943113E-005  0.9118800E+02  0.7818608E-02  0.1130116E+00
         25   -1    0    0    0    0  0.00000000000E+00  0.00000000000E+00  0.99999998245E-14  0.12500000000E+03  0.12500000000E+03 0.  0.
        -13    1    3    3    0    0  0.32522808849E+02 -0.50346509920E+02  0.16781690216E+02  0.62242593512E+02  0.10566000000E+00 0.  1.
         23    2    1    0    0    0  0.18602797977E+02 -0.21437459519E+02  0.81584496935E+01  0.95467152785E+02  0.90784294877E+02 0.  0.
         13    1    3    3    0    0 -0.13920010872E+02  0.28909050401E+02 -0.86232405223E+01  0.33224559273E+02  0.10566000000E+00 0. -1.
         22    1    1    0    0    0 -0.18602797977E+02  0.21437459519E+02 -0.81584496935E+01  0.29532847215E+02  0.00000000000E+00 0.  1.
</event>
<event>
 5    1  0.8943113E-005  0.9118800E+02  0.7818608E-02  0.1130116E+00
         25   -1    0    0    0    0  0.00000000000E+00  0.00000000000E+00  0.99999998245E-14  0.12500000000E+03  0.12500000000E+03 0.  0.
        -13    1    3    3    0    0  0.32944093215E+02 -0.89760274721E+00 -0.39504059590E+02  0.51446096612E+02  0.10566000000E+00 0. -1.
         23    2    1    0    0    0 -0.56198720083E+01  0.17177442089E+02 -0.19211666153E+02  0.98623199692E+02  0.95030521008E+02 0.  0.
         13    1    3    3    0    0 -0.38563965224E+02  0.18075044836E+02  0.20292393437E+02  0.47177103080E+02  0.10566000000E+00 0.  1.
         22    1    1    0    0    0  0.56198720083E+01 -0.17177442089E+02  0.19211666153E+02  0.26376800308E+02  0.00000000000E+00 0. -1.
</event>
<event>
 4    1  0.8943113E-005  0.9118800E+02  0.7818608E-02  0.1130116E+00
         25   -1    0    0    0    0  0.00000000000E+00  0.00000000000E+00  0.99999998245E-14  0.12500000000E+03  0.12500000000E+03 0.  0.
        -13    1    1    0    0    0  0.82406882718E+01  0.24724496427E+02 -0.42659180746E+02  0.49990264379E+02  0.10566000000E+00 0.  1.
         13    1    1    0    0    0  0.40897239098E+01  0.16253181674E+02  0.37542948146E+01  0.17175495620E+02  0.10566000000E+00 0. -1.
         22    1    1    0    0    0 -0.12330412182E+02 -0.40977678102E+02  0.38904885931E+02  0.57834240001E+02  0.00000000000E+00 0.  1.
</event>
<event>
 5    1  0.8943113E-005  0.9118800E+02  0.7818608E-02  0.1130116E+00
         25   -1    0    0    0    0  0.00000000000E+00  0.00000000000E+00  0.99999998245E-14  0.12500000000E+03  0.12500000000E+03 0.  0.
        -13    1    3    3    0    0 -0.38117736338E+01 -0.36337108586E+02 -0.18789642820E+02  0.41084996288E+02  0.10566000000E+00 0.  1.
         23    2    1    0    0    0  0.23852954094E+02  0.77778718705E+01  0.66582370548E+01  0.99042518794E+02  0.95580488064E+02 0.  0.
         13    1    3    3    0    0  0.27664727728E+02  0.44114980456E+02  0.25447879875E+02  0.57957522507E+02  0.10566000000E+00 0. -1.
         22    1    1    0    0    0 -0.23852954094E+02 -0.77778718705E+01 -0.66582370548E+01  0.25957481206E+02  0.00000000000E+00 0. -1.
</event>
<event>
 5    1  0.8943113E-005  0.9118800E+02  0.7818608E-02  0.1130116E+00
         25   -1    0    0    0    0  0.00000000000E+00  0.00000000000E+00  0.99999998245E-14  0.12500000000E+03  0.12500000000E+03 0.  0.
        -13    1    3    3    0    0 -0.32885928089E+02  0.21701196909E+02  0.42078813158E+02  0.57646022364E+02  0.10566000000E+00 0. -1.
         23    2    1    0    0    0 -0.19865048196E+02  0.22510348362E+02  0.83078175827E+01  0.93849466198E+02  0.88528902339E+02 0.  0.
         13    1    3    3    0    0  0.13020879893E+02  0.80915145305E+00 -0.33770995575E+02  0.36203443834E+02  0.10566000000E+00 0.  1.
         22    1    1    0    0    0  0.19865048196E+02 -0.22510348362E+02 -0.83078175827E+01  0.31150533802E+02  0.00000000000E+00 0. -1.
</event>
<event>
 5    1  0.8943113E-005  0.9118800E+02  0.7818608E-02  0.1130116E+00
         25   -1    0    0    0    0  0.00000000000E+00  0.00000000000E+00  0.99999998245E-14  0.12500000000E+03  0.12500000000E+03 0.  0.
        -13    1    3    3    0    0  0.84363849167E+01  0.12651702394E+02 -0.31683948707E+02  0.35144301581E+02  0.10566000000E+00 0.  1.
         23    2    1    0    0    0 -0.49315995554E+01  0.78368298796E+01  0.27485919467E+02  0.95996339099E+02  0.91510025542E+02 0.  0.
         13    1    3    3    0    0 -0.13367984472E+02 -0.48148725141E+01  0.59169868174E+02  0.60852037517E+02  0.10566000000E+00 0. -1.
         22    1    1    0    0    0  0.49315995554E+01 -0.78368298796E+01 -0.27485919467E+02  0.29003660901E+02  0.00000000000E+00 0. -1.
</event>
<event>
 5    1  0.8943113E-005  0.9118800E+02  0.7818608E-02  0.1130116E+00
         25   -1    0    0    0    0  0.00000000000E+00  0.00000000000E+00  0.99999998245E-14  0.12500000000E+03  0.12500000000E+03 0.  0.
        -13    1    3    3    0    0  0.11019047513E+02  0.48930903307E+02  0.14664401100E+01  0.50177826948E+02  0.10566000000E+00 0.  1.
         23    2    1    0    0    0  0.18956557738E+02  0.13357451952E+02  0.22856704077E+02  0.92439264056E+02  0.86514831180E+02 0.  0.
         13    1    3    3    0    0  0.79375102249E+01 -0.35573451355E+02  0.21390263967E+02  0.42261437109E+02  0.10566000000E+00 0. -1.
         22    1    1    0    0    0 -0.18956557738E+02 -0.13357451952E+02 -0.22856704077E+02  0.32560735944E+02  0.00000000000E+00 0.  1.
</event>
<event>
 5    1  0.8943113E-005  0.9118800E+02  0.7818608E-02  0.1130116E+00
         25   -1    0    0    0    0  0.00000000000E+00  0.00000000000E+00  0.99999998245E-14  0.12500000000E+03  0.12500000000E+03 0.  0.
        -13    1    3    3    0    0  0.37385265852E+02 -0.31674348821E+02 -0.35317294295E+02  0.60400702946E+02  0.10566000000E+00 0. -1.
         23    2    1    0    0    0  0.13158167547E+02 -0.15046514682E+02 -0.27850477843E+02  0.90719041825E+02  0.83992621440E+02 0.  0.
         13    1    3    3    0    0 -0.24227098305E+02  0.16627834139E+02  0.74668164514E+01  0.30318338879E+02  0.10566000000E+00 0.  1.
         22    1    1    0    0    0 -0.13158167547E+02  0.15046514682E+02  0.27850477843E+02  0.34280958175E+02  0.00000000000E+00 0. -1.
</event>
<event>
 5    1  0.8943113E-005  0.9118800E+02  0.7818608E-02  0.1130116E+00
         25   -1    0    0    0    0  0.00000000000E+00  0.00000000000E+00  0.99999998245E-14  0.12500000000E+03  0.12500000000E+03 0.  0.
        -13    1    3    3    0    0  0.34042053335E+02 -0.18858541470E+02 -0.18555288931E+02  0.43113987208E+02  0.10566000000E+00 0. -1.
         23    2    1    0    0    0  0.22396446765E+02  0.19221893349E+02  0.11829198394E+02  0.93203585953E+02  0.87612193718E+02 0.  0.
         13    1    3    3    0    0 -0.11645606570E+02  0.38080434819E+02  0.30384487325E+02  0.50089598744E+02  0.10566000000E+00 0.  1.
         22    1    1    0    0    0 -0.22396446765E+02 -0.19221893349E+02 -0.11829198394E+02  0.31796414047E+02  0.00000000000E+00 0.  1.
</event>
<event>
 5    1  0.8943113E-005  0.9118800E+02  0.7818608E-02  0.1130116E+00
         25   -1    0    0    0    0  0.00000000000E+00  0.00000000000E+00  0.99999998245E-14  0.12500000000E+03  0.12500000000E+03 0.  0.
        -13    1    3    3    0    0  0.47573629882E+02 -0.68898276131E+00 -0.37438262195E+02  0.60542213352E+02  0.10566000000E+00 0.  1.
         23    2    1    0    0    0  0.24297570728E+02  0.10140694190E+02 -0.14649076743E+02  0.94870262673E+02  0.89958688676E+02 0.  0.
         13    1    3    3    0    0 -0.23276059153E+02  0.10829676951E+02  0.22789185452E+02  0.34328049321E+02  0.10566000000E+00 0. -1.
         22    1    1    0    0    0 -0.24297570728E+02 -0.10140694190E+02  0.14649076743E+02  0.30129737327E+02  0.00000000000E+00 0.  1.
</event>
<event>
 5    1  0.8943113E-005  0.9118800E+02  0.7818608E-02  0.1130116E+00
         25   -1    0    0    0    0  0.00000000000E+00  0.00000000000E+00  0.99999998245E-14  0.12500000000E+03  0.12500000000E+03 0.  0.
        -13    1    3    3    0    0 -0.15596190180E+02  0.10765870248E+02 -0.25382692460E+02  0.31677079267E+02  0.10566000000E+00 0.  1.
         23    2    1    0    0    0 -0.30759545982E+02  0.70307218214E+01  0.25202117611E+02  0.84617733465E+02  0.74360159806E+02 0.  0.
         13    1    3    3    0    0 -0.15163355802E+02 -0.37351484266E+01  0.50584810071E+02  0.52940654198E+02  0.10566000000E+00 0. -1.
         22    1    1    0    0    0  0.30759545982E+02 -0.70307218214E+01 -0.25202117611E+02  0.40382266535E+02  0.00000000000E+00 0. -1.
</event>
<event>
 5    1  0.8943113E-005  0.9118800E+02  0.7818608E-02  0.1130116E+00
         25   -1    0    0    0    0  0.00000000000E+00  0.00000000000E+00  0.99999998245E-14  0.12500000000E+03  0.12500000000E+03 0.  0.
        -13    1    3    3    0    0 -0.29388854317E+02 -0.15563973629E+02 -0.38557575001E+02  0.50917971161E+02  0.10566000000E+00 0.  1.
         23    2    1    0    0    0 -0.36653453519E+02 -0.17941689435E+02 -0.67436042854E+01  0.83637504023E+02  0.72693713661E+02 0.  0.
         13    1    3    3    0    0 -0.72645992026E+01 -0.23777158062E+01  0.31813970715E+02  0.32719532862E+02  0.10566000000E+00 0. -1.
         22    1    1    0    0    0  0.36653453519E+02  0.17941689435E+02  0.67436042854E+01  0.41362495977E+02  0.00000000000E+00 0.  1.
</event>
<event>
 5    1  0.8943113E-005  0.9118800E+02  0.7818608E-02  0.1130116E+00
         25   -1    0    0    0    0  0.00000000000E+00  0.00000000000E+00  0.99999998245E-14  0.12500000000E+03  0.12500000000E+03 0.  0.
        -13    1    3    3    0    0 -0.30483812646E+02  0.25824377014E+02 -0.66507957967E+01  0.40501920083E+02  0.10566000000E+00 0. -1.
         23    2    1    0    0    0  0.69800823320E+01  0.41891889193E+02  0.31049013352E+01  0.82417229519E+02  0.70564207497E+02 0.  0.
         13    1    3    3    0    0  0.37463894978E+02  0.16067512179E+02  0.97556971319E+01  0.41915309436E+02  0.10566000000E+00 0.  1.
         22    1    1    0    0    0 -0.69800823320E+01 -0.41891889193E+02 -0.31049013352E+01  0.42582770481E+02  0.00000000000E+00 0. -1.
</event>
<event>
 5    1  0.8943113E-005  0.9118800E+02  0.7818608E-02  0.1130116E+00
         25   -1    0    0    0    0  0.00000000000E+00  0.00000000000E+00  0.99999998245E-14  0.12500000000E+03  0.12500000000E+03 0.  0.
        -13    1    3    3    0    0 -0.26128720629E+02 -0.98508561628E+01 -0.30309197626E+02  0.41211746306E+02  0.10566000000E+00 0.  1.
         23    2    1    0    0    0  0.22736209550E+02 -0.16190573947E+02 -0.48670728454E+01  0.96667010261E+02  0.92421602265E+02 0.  0.
         13    1    3    3    0    0  0.48864930179E+02 -0.63397177845E+01  0.25442124780E+02  0.55455263955E+02  0.10566000000E+00 0. -1.
         22    1    1    0    0    0 -0.22736209550E+02  0.16190573947E+02  0.48670728454E+01  0.28332989739E+02  0.00000000000E+00 0. -1.
</event>
<event>
 5    1  0.8943113E-005  0.9118800E+02  0.7818608E-02  0.1130116E+00
         25   -1    0    0    0    0  0.00000000000E+00  0.00000000000E+00  0.99999998245E-14  0.12500000000E+03  0.12500000000E+03 0.  0.
        -13    1    3    3    0    0 -0.36555736694E+02  0.23768466843E+01 -0.18719930601E+02  0.41139011305E+02  0.10566000000E+00 0. -1.
         23    2    1    0    0    0 -0.24684930776E+01 -0.26291377559E+02  0.12751055750E+02  0.95675617402E+02  0.91070875424E+02 0.  0.
         13    1    3    3    0    0  0.34087243617E+02 -0.28668224243E+02  0.31470986351E+02  0.54536606097E+02  0.10566000000E+00 0.  1.
         22    1    1    0    0    0  0.24684930776E+01  0.26291377559E+02 -0.12751055750E+02  0.29324382598E+02  0.00000000000E+00 0.  1.
</event>
<event>
 5    1  0.8943113E-005  0.9118800E+02  0.7818608E-02  0.1130116E+00
         25   -1    0    0    0    0  0.00000000000E+00  0.00000000000E+00  0.99999998245E-14  0.12500000000E+03  0.12500000000E+03 0.  0.
        -13    1    3    3    0    0  0.15695949260E+02  0.22320842886E+02 -0.19730467838E+02  0.33673214510E+02  0.10566000000E+00 0.  1.
         23    2    1    0    0    0 -0.29106464776E+01 -0.13579895144E+02  0.26493059363E+02  0.95087333628E+02  0.90259810586E+02 0.  0.
         13    1    3    3    0    0 -0.18606595738E+02 -0.35900738031E+02  0.46223527201E+02  0.61414119118E+02  0.10566000000E+00 0. -1.
         22    1    1    0    0    0  0.29106464776E+01  0.13579895144E+02 -0.26493059363E+02  0.29912666372E+02  0.00000000000E+00 0. -1.
</event>
<event>
 5    1  0.8943113E-005  0.9118800E+02  0.7818608E-02  0.1130116E+00
         25   -1    0    0    0    0  0.00000000000E+00  0.00000000000E+00  0.99999998245E-14  0.12500000000E+03  0.12500000000E+03 0.  0.
        -13    1    3    3    0    0 -0.45049129166E+02 -0.19430516570E+02  0.71017340610E+01  0.49572318924E+02  0.10566000000E+00 0. -1.
         23    2    1    0    0    0 -0.17731763112E+02  0.58583735991E+01 -0.21503536997E+02  0.96519514265E+02  0.92221898518E+02 0.  0.
         13    1    3    3    0    0  0.27317366054E+02  0.25288890169E+02 -0.28605271058E+02  0.46947195341E+02  0.10566000000E+00 0.  1.
         22    1    1    0    0    0  0.17731763112E+02 -0.58583735991E+01  0.21503536997E+02  0.28480485735E+02  0.00000000000E+00 0.  1.
</event>
<event>
 5    1  0.8943113E-005  0.9118800E+02  0.7818608E-02  0.1130116E+00
         25   -1    0    0    0    0  0.00000000000E+00  0.00000000000E+00  0.99999998245E-14  0.12500000000E+03  0.12500000000E+03 0.  0.
        -13    1    3    3    0    0  0.10639011098E+02  0.15742015531E+02  0.49828493427E+02  0.53328130769E+02  0.10566000000E+00 0.  1.
         23    2    1    0    0    0 -0.13877135662E+02  0.20291440869E+02  0.14865058068E+02  0.96272183897E+02  0.91886048855E+02 0.  0.
         13    1    3    3    0    0 -0.24516146760E+02  0.45494253376E+01 -0.34963435359E+02  0.42944053127E+02  0.10566000000E+00 0. -1.
         22    1    1    0    0    0  0.13877135662E+02 -0.20291440869E+02 -0.14865058068E+02  0.28727816103E+02  0.00000000000E+00 0. -1.
</event>
<event>
 5    1  0.8943113E-005  0.9118800E+02  0.7818608E-02  0.1130116E+00
         25   -1    0    0    0    0  0.00000000000E+00  0.00000000000E+00  0.99999998245E-14  0.12500000000E+03  0.12500000000E+03 0.  0.
        -13    1    3    3    0    0  0.55163860773E+00  0.32842003601E+02 -0.20045895302E+02  0.38480522192E+02  0.10566000000E+00 0.  1.
         23    2    1    0    0    0 -0.98878303858E+01 -0.22741419094E+02  0.39013434764E+01  0.99896976018E+02  0.96691488790E+02 0.  0.
         13    1    3    3    0    0 -0.10439468994E+02 -0.55583422695E+02  0.23947238778E+02  0.61416453825E+02  0.10566000000E+00 0. -1.
         22    1    1    0    0    0  0.98878303858E+01  0.22741419094E+02 -0.39013434764E+01  0.25103023982E+02  0.00000000000E+00 0. -1.
</event>
<event>
 5    1  0.8943113E-005  0.9118800E+02  0.7818608E-02  0.1130116E+00
         25   -1    0    0    0    0  0.00000000000E+00  0.00000000000E+00  0.99999998245E-14  0.12500000000E+03  0.12500000000E+03 0.  0.
        -13    1    3    3    0    0 -0.12339885008E+02 -0.25327670102E+02 -0.20962139179E+02  0.35116749249E+02  0.10566000000E+00 0. -1.
         23    2    1    0    0    0 -0.76829637818E+00  0.15895336086E+02  0.23354956948E+02  0.96738612868E+02  0.92518393938E+02 0.  0.
         13    1    3    3    0    0  0.11571588630E+02  0.41223006189E+02  0.44317096127E+02  0.61621863618E+02  0.10566000000E+00 0.  1.
         22    1    1    0    0    0  0.76829637818E+00 -0.15895336086E+02 -0.23354956948E+02  0.28261387132E+02  0.00000000000E+00 0.  1.
</event>
<event>
 5    1  0.8943113E-005  0.9118800E+02  0.7818608E-02  0.1130116E+00
         25   -1    0    0    0    0  0.00000000000E+00  0.00000000000E+00  0.99999998245E-14  0.12500000000E+03  0.12500000000E+03 0.  0.
        -13    1    3    3    0    0  0.32319058725E+02 -0.25653460700E+02 -0.27829920441E+02  0.49770847276E+02  0.10566000000E+00 0. -1.
         23    2    1    0    0    0 -0.55795259947E+01 -0.59298452488E+00 -0.29238785634E+02  0.95227708749E+02  0.90454005922E+02 0.  0.
         13    1    3    3    0    0 -0.37898584720E+02  0.25060476175E+02 -0.14088651929E+01  0.45456861474E+02  0.10566000000E+00 0.  1.
         22    1    1    0    0    0  0.55795259947E+01  0.59298452488E+00  0.29238785634E+02  0.29772291251E+02  0.00000000000E+00 0.  1.
</event>
<event>
 5    1  0.8943113E-005  0.9118800E+02  0.7818608E-02  0.1130116E+00
         25   -1    0    0    0    0  0.00000000000E+00  0.00000000000E+00  0.99999998245E-14  0.12500000000E+03  0.12500000000E+03 0.  0.
        -13    1    3    3    0    0 -0.29773404547E+02 -0.24254021431E+02 -0.22873024373E+01  0.38470197431E+02  0.10566000000E+00 0.  1.
         23    2    1    0    0    0 -0.60999199996E+01  0.28243356199E+02  0.35997019468E-01  0.96105407268E+02  0.91658888369E+02 0.  0.
         13    1    3    3    0    0  0.23673484548E+02  0.52497377629E+02  0.23232994568E+01  0.57635209837E+02  0.10566000000E+00 0. -1.
         22    1    1    0    0    0  0.60999199996E+01 -0.28243356199E+02 -0.35997019468E-01  0.28894592732E+02  0.00000000000E+00 0. -1.
</event>
<event>
 5    1  0.8943113E-005  0.9118800E+02  0.7818608E-02  0.1130116E+00
         25   -1    0    0    0    0  0.00000000000E+00  0.00000000000E+00  0.99999998245E-14  0.12500000000E+03  0.12500000000E+03 0.  0.
        -13    1    3    3    0    0  0.75776507377E+01 -0.24923254298E+02  0.43702725300E+02  0.50877586010E+02  0.10566000000E+00 0.  1.
         23    2    1    0    0    0  0.16614153627E+02 -0.21369508373E+02 -0.22437130672E+01  0.97838994179E+02  0.93993343088E+02 0.  0.
         13    1    3    3    0    0  0.90365028897E+01  0.35537459248E+01 -0.45946438367E+02  0.46961408169E+02  0.10566000000E+00 0. -1.
         22    1    1    0    0    0 -0.16614153627E+02  0.21369508373E+02  0.22437130672E+01  0.27161005821E+02  0.00000000000E+00 0. -1.
</event>
<event>
 5    1  0.8943113E-005  0.9118800E+02  0.7818608E-02  0.1130116E+00
         25   -1    0    0    0    0  0.00000000000E+00  0.00000000000E+00  0.99999998245E-14  0.12500000000E+03  0.12500000000E+03 0.  0.
        -13    1    3    3    0    0  0.28342673229E+01  0.73815796317E+01 -0.39200853867E+02  0.39990485082E+02  0.10566000000E+00 0. -1.
         23    2    1    0    0    0  0.15215608259E+02 -0.29372917942E+02 -0.53083289382E+01  0.91496844936E+02  0.85142299910E+02 0.  0.
         13    1    3    3    0    0  0.12381340936E+02 -0.36754497574E+02  0.33892524929E+02  0.51506359854E+02  0.10566000000E+00 0.  1.
         22    1    1    0    0    0 -0.15215608259E+02  0.29372917942E+02  0.53083289382E+01  0.33503155064E+02  0.00000000000E+00 0.  1.
</event>
<event>
 4    1  0.8943113E-005  0.9118800E+02  0.7818608E-02  0.1130116E+00
         25   -1    0    0    0    0  0.00000000000E+00  0.00000000000E+00  0.99999998245E-14  0.12500000000E+03  0.12500000000E+03 0.  0.
        -13    1    1    0    0    0 -0.10377572926E+02 -0.34126863276E+02  0.12325387275E+02  0.37739411129E+02  0.10566000000E+00 0.  1.
         13    1    1    0    0    0 -0.84517261877E+01 -0.85353089216E+01 -0.33836617305E+02  0.35905584644E+02  0.10566000000E+00 0. -1.
         22    1    1    0    0    0  0.18829299114E+02  0.42662172197E+02  0.21511230030E+02  0.51355004226E+02  0.00000000000E+00 0. -1.
</event>
<event>
 5    1  0.8943113E-005  0.9118800E+02  0.7818608E-02  0.1130116E+00
         25   -1    0    0    0    0  0.00000000000E+00  0.00000000000E+00  0.99999998245E-14  0.12500000000E+03  0.12500000000E+03 0.  0.
        -13    1    3    3    0    0  0.42383210518E+02 -0.43233235266E+02  0.47261789136E+01  0.60727235212E+02  0.10566000000E+00 0. -1.
         23    2    1    0    0    0  0.19578048191E+02 -0.18705266468E+02  0.12603489080E+02  0.95133046663E+02  0.90323095971E+02 0.  0.
         13    1    3    3    0    0 -0.22805162327E+02  0.24527968798E+02  0.78773101668E+01  0.34405811451E+02  0.10566000000E+00 0.  1.
         22    1    1    0    0    0 -0.19578048191E+02  0.18705266468E+02 -0.12603489080E+02  0.29866953337E+02  0.00000000000E+00 0. -1.
</event>
<event>
 5    1  0.8943113E-005  0.9118800E+02  0.7818608E-02  0.1130116E+00
         25   -1    0    0    0    0  0.00000000000E+00  0.00000000000E+00  0.99999998245E-14  0.12500000000E+03  0.12500000000E+03 0.  0.
        -13    1    3    3    0    0  0.20575355539E+02  0.18740331036E+02  0.33419488119E+02  0.43490442779E+02  0.10566000000E+00 0.  1.
         23    2    1    0    0    0  0.15310990163E+02  0.10974302352E+02 -0.19881748672E+02  0.97611212839E+02  0.93689931207E+02 0.  0.
         13    1    3    3    0    0 -0.52643653760E+01 -0.77660286840E+01 -0.53301236792E+02  0.54120770060E+02  0.10566000000E+00 0. -1.
         22    1    1    0    0    0 -0.15310990163E+02 -0.10974302352E+02  0.19881748672E+02  0.27388787161E+02  0.00000000000E+00 0. -1.
</event>
<event>
 5    1  0.8943113E-005  0.9118800E+02  0.7818608E-02  0.1130116E+00
         25   -1    0    0    0    0  0.00000000000E+00  0.00000000000E+00  0.99999998245E-14  0.12500000000E+03  0.12500000000E+03 0.  0.
        -13    1    3    3    0    0  0.94803607004E+01  0.11646643552E+02 -0.23650162454E+01  0.15202829043E+02  0.10566000000E+00 0. -1.
         23    2    1    0    0    0 -0.35948026861E+01 -0.40414833071E+02  0.26878673228E+02  0.76330251562E+02  0.58801044979E+02 0.  0.
         13    1    3    3    0    0 -0.13075163386E+02 -0.52061476623E+02  0.29243689473E+02  0.61127422519E+02  0.10566000000E+00 0.  1.
         22    1    1    0    0    0  0.35948026861E+01  0.40414833071E+02 -0.26878673228E+02  0.48669748438E+02  0.00000000000E+00 0.  1.
</event>
<event>
 5    1  0.8943113E-005  0.9118800E+02  0.7818608E-02  0.1130116E+00
         25   -1    0    0    0    0  0.00000000000E+00  0.00000000000E+00  0.99999998245E-14  0.12500000000E+03  0.12500000000E+03 0.  0.
        -13    1    3    3    0    0  0.41024053030E+02  0.37117369804E+02  0.20210971210E+02  0.58899631489E+02  0.10566000000E+00 0. -1.
         23    2    1    0    0    0  0.10250684127E+02  0.26586951012E+02  0.14042518774E+01  0.96470814723E+02  0.92155866231E+02 0.  0.
         13    1    3    3    0    0 -0.30773368903E+02 -0.10530418792E+02 -0.18806719333E+02  0.37571183235E+02  0.10566000000E+00 0.  1.
         22    1    1    0    0    0 -0.10250684127E+02 -0.26586951012E+02 -0.14042518774E+01  0.28529185277E+02  0.00000000000E+00 0. -1.
</event>
<event>
 5    1  0.8943113E-005  0.9118800E+02  0.7818608E-02  0.1130116E+00
         25   -1    0    0    0    0  0.00000000000E+00  0.00000000000E+00  0.99999998245E-14  0.12500000000E+03  0.12500000000E+03 0.  0.
        -13    1    3    3    0    0 -0.25217891599E+02 -0.29850060147E+02  0.33747083232E+02  0.51631820985E+02  0.10566000000E+00 0.  1.
         23    2    1    0    0    0 -0.29558655882E+02  0.50241527997E+01  0.16445483738E+02  0.90803360044E+02  0.84118012405E+02 0.  0.
         13    1    3    3    0    0 -0.43407642827E+01  0.34874212947E+02 -0.17301599493E+02  0.39171539060E+02  0.10566000000E+00 0. -1.
         22    1    1    0    0    0  0.29558655882E+02 -0.50241527997E+01 -0.16445483738E+02  0.34196639956E+02  0.00000000000E+00 0.  1.
</event>
<event>
 5    1  0.8943113E-005  0.9118800E+02  0.7818608E-02  0.1130116E+00
         25   -1    0    0    0    0  0.00000000000E+00  0.00000000000E+00  0.99999998245E-14  0.12500000000E+03  0.12500000000E+03 0.  0.
        -13    1    3    3    0    0  0.15043193078E+02 -0.22624157712E+01  0.30436332111E+02  0.34026425900E+02  0.10566000000E+00 0.  1.
         23    2    1    0    0    0 -0.58662396407E+01  0.14306102145E+02 -0.25032363127E+02  0.95577278681E+02  0.90935799717E+02 0.  0.
         13    1    3    3    0    0 -0.20909432719E+02  0.16568517916E+02 -0.55468695238E+02  0.61550852781E+02  0.10566000000E+00 0. -1.
         22    1    1    0    0    0  0.58662396407E+01 -0.14306102145E+02  0.25032363127E+02  0.29422721319E+02  0.00000000000E+00 0. -1.
</event>
<event>
 5    1  0.8943113E-005  0.9118800E+02  0.7818608E-02  0.1130116E+00
         25   -1    0    0    0    0  0.00000000000E+00  0.00000000000E+00  0.99999998245E-14  0.12500000000E+03  0.12500000000E+03 0.  0.
        -13    1    3    3    0    0 -0.36049322247E+02 -0.39785805234E+02  0.16054175463E+02  0.56037591369E+02  0.10566000000E+00 0.  1.
         23    2    1    0    0    0 -0.16830400746E+02 -0.48850976173E+01  0.22586241682E+02  0.96412155007E+02  0.92076265953E+02 0.  0.
         13    1    3    3    0    0  0.19218921501E+02  0.34900707617E+02  0.65320662192E+01  0.40374563638E+02  0.10566000000E+00 0. -1.
         22    1    1    0    0    0  0.16830400746E+02  0.48850976173E+01 -0.22586241682E+02  0.28587844993E+02  0.00000000000E+00 0.  1.
</event>
<event>
 5    1  0.8943113E-005  0.9118800E+02  0.7818608E-02  0.1130116E+00
         25   -1    0    0    0    0  0.00000000000E+00  0.00000000000E+00  0.99999998245E-14  0.12500000000E+03  0.12500000000E+03 0.  0.
        -13    1    3    3    0    0 -0.55244012457E+02  0.70451017333E+00  0.76834453985E+01  0.55780316816E+02  0.10566000000E+00 0.  1.
         23    2    1    0    0    0 -0.22999824070E+02 -0.19036720753E+02 -0.27955686488E+01  0.95013272130E+02  0.90157185141E+02 0.  0.
         13    1    3    3    0    0  0.32244188387E+02 -0.19741230926E+02 -0.10479014047E+02  0.39232955314E+02  0.10566000000E+00 0. -1.
         22    1    1    0    0    0  0.22999824070E+02  0.19036720753E+02  0.27955686488E+01  0.29986727870E+02  0.00000000000E+00 0.  1.
</event>
<event>
 5    1  0.8943113E-005  0.9118800E+02  0.7818608E-02  0.1130116E+00
         25   -1    0    0    0    0  0.00000000000E+00  0.00000000000E+00  0.99999998245E-14  0.12500000000E+03  0.12500000000E+03 0.  0.
        -13    1    3    3    0    0  0.34312806379E+01  0.56823206660E+02 -0.60498824439E+01  0.57247381980E+02  0.10566000000E+00 0.  1.
         23    2    1    0    0    0  0.87882488592E+01  0.25038596375E+02  0.13787674942E+02  0.95095742665E+02  0.90271455434E+02 0.  0.
         13    1    3    3    0    0  0.53569682212E+01 -0.31784610285E+02  0.19837557386E+02  0.37848360685E+02  0.10566000000E+00 0. -1.
         22    1    1    0    0    0 -0.87882488592E+01 -0.25038596375E+02 -0.13787674942E+02  0.29904257335E+02  0.00000000000E+00 0. -1.
</event>
<event>
 5    1  0.8943113E-005  0.9118800E+02  0.7818608E-02  0.1130116E+00
         25   -1    0    0    0    0  0.00000000000E+00  0.00000000000E+00  0.99999998245E-14  0.12500000000E+03  0.12500000000E+03 0.  0.
        -13    1    3    3    0    0  0.14398952179E+02  0.25184077606E+02 -0.26470565745E+02  0.39271740522E+02  0.10566000000E+00 0. -1.
         23    2    1    0    0    0  0.76939851465E+01 -0.11447296084E+02  0.21165674075E+02  0.99736909252E+02  0.96484337138E+02 0.  0.
         13    1    3    3    0    0 -0.67049670321E+01 -0.36631373690E+02  0.47636239820E+02  0.60465168730E+02  0.10566000000E+00 0.  1.
         22    1    1    0    0    0 -0.76939851465E+01  0.11447296084E+02 -0.21165674075E+02  0.25263090748E+02  0.00000000000E+00 0.  1.
</event>
<event>
 5    1  0.8943113E-005  0.9118800E+02  0.7818608E-02  0.1130116E+00
         25   -1    0    0    0    0  0.00000000000E+00  0.00000000000E+00  0.99999998245E-14  0.12500000000E+03  0.12500000000E+03 0.  0.
        -13    1    3    3    0    0  0.44584987266E+02 -0.67337470927E+01  0.23849698434E+02  0.51009643391E+02  0.10566000000E+00 0. -1.
         23    2    1    0    0    0 -0.57571225954E-01 -0.80768322903E+01  0.27993693531E+02  0.95864361827E+02  0.91329570549E+02 0.  0.
         13    1    3    3    0    0 -0.44642558492E+02 -0.13430851977E+01  0.41439950969E+01  0.44854718436E+02  0.10566000000E+00 0.  1.
         22    1    1    0    0    0  0.57571225954E-01  0.80768322903E+01 -0.27993693531E+02  0.29135638173E+02  0.00000000000E+00 0. -1.
</event>
<event>
 5    1  0.8943113E-005  0.9118800E+02  0.7818608E-02  0.1130116E+00
         25   -1    0    0    0    0  0.00000000000E+00  0.00000000000E+00  0.99999998245E-14  0.12500000000E+03  0.12500000000E+03 0.  0.
        -13    1    3    3    0    0  0.45071655528E+01 -0.43473460207E+02  0.31461188404E+02  0.53852333501E+02  0.10566000000E+00 0.  1.
         23    2    1    0    0    0  0.26597612699E+01 -0.28469516252E+02 -0.73271951884E+01  0.95482624186E+02  0.90805594797E+02 0.  0.
         13    1    3    3    0    0 -0.18474042829E+01  0.15003943955E+02 -0.38788383592E+02  0.41630290685E+02  0.10566000000E+00 0. -1.
         22    1    1    0    0    0 -0.26597612699E+01  0.28469516252E+02  0.73271951884E+01  0.29517375814E+02  0.00000000000E+00 0.  1.
</event>
<event>
 5    1  0.8943113E-005  0.9118800E+02  0.7818608E-02  0.1130116E+00
         25   -1    0    0    0    0  0.00000000000E+00  0.00000000000E+00  0.99999998245E-14  0.12500000000E+03  0.12500000000E+03 0.  0.
        -13    1    3    3    0    0  0.26867495307E+02  0.35868946569E+02 -0.25668818517E+02  0.51646326492E+02  0.10566000000E+00 0. -1.
         23    2    1    0    0    0  0.25789124579E+02 -0.61931245921E+01 -0.78457151877E+01  0.97341565742E+02  0.93329477849E+02 0.  0.
         13    1    3    3    0    0 -0.10783707279E+01 -0.42062071161E+02  0.17823103329E+02  0.45695239250E+02  0.10566000000E+00 0.  1.
         22    1    1    0    0    0 -0.25789124579E+02  0.61931245921E+01  0.78457151877E+01  0.27658434258E+02  0.00000000000E+00 0. -1.
</event>
<event>
 5    1  0.8943113E-005  0.9118800E+02  0.7818608E-02  0.1130116E+00
         25   -1    0    0    0    0  0.00000000000E+00  0.00000000000E+00  0.99999998245E-14  0.12500000000E+03  0.12500000000E+03 0.  0.
        -13    1    3    3    0    0 -0.16391170389E+02  0.41685370105E+00  0.30967884393E+02  0.35040908401E+02  0.10566000000E+00 0.  1.
         23    2    1    0    0    0 -0.35252850573E+01  0.39218439787E+01 -0.28515634519E+02  0.96000863686E+02  0.91516205786E+02 0.  0.
         13    1    3    3    0    0  0.12865885332E+02  0.35049902776E+01 -0.59483518912E+02  0.60959955285E+02  0.10566000000E+00 0. -1.
         22    1    1    0    0    0  0.35252850573E+01 -0.39218439787E+01  0.28515634519E+02  0.28999136314E+02  0.00000000000E+00 0. -1.
</event>
<event>
 5    1  0.8943113E-005  0.9118800E+02  0.7818608E-02  0.1130116E+00
         25   -1    0    0    0    0  0.00000000000E+00  0.00000000000E+00  0.99999998245E-14  0.12500000000E+03  0.12500000000E+03 0.  0.
        -13    1    3    3    0    0 -0.92726278505E+01 -0.15920544385E+02 -0.41102664531E+02  0.45043152158E+02  0.10566000000E+00 0. -1.
         23    2    1    0    0    0 -0.23830137406E+02 -0.14603006204E+02  0.77181470691E+01  0.96005293015E+02  0.91522255510E+02 0.  0.
         13    1    3    3    0    0 -0.14557509555E+02  0.13175381810E+01  0.48820811600E+02  0.50962140856E+02  0.10566000000E+00 0.  1.
         22    1    1    0    0    0  0.23830137406E+02  0.14603006204E+02 -0.77181470691E+01  0.28994706985E+02  0.00000000000E+00 0. -1.
</event>
<event>
 5    1  0.8943113E-005  0.9118800E+02  0.7818608E-02  0.1130116E+00
         25   -1    0    0    0    0  0.00000000000E+00  0.00000000000E+00  0.99999998245E-14  0.12500000000E+03  0.12500000000E+03 0.  0.
        -13    1    3    3    0    0 -0.68123691322E+01  0.44842273880E+02  0.28397296689E+02  0.53513134119E+02  0.10566000000E+00 0.  1.
         23    2    1    0    0    0  0.13954688246E+01  0.28308367837E+02 -0.90370757264E+01  0.95251390612E+02  0.90486726392E+02 0.  0.
         13    1    3    3    0    0  0.82078379568E+01 -0.16533906043E+02 -0.37434372415E+02  0.41738256494E+02  0.10566000000E+00 0. -1.
         22    1    1    0    0    0 -0.13954688246E+01 -0.28308367837E+02  0.90370757264E+01  0.29748609388E+02  0.00000000000E+00 0. -1.
</event>
<event>
 5    1  0.8943113E-005  0.9118800E+02  0.7818608E-02  0.1130116E+00
         25   -1    0    0    0    0  0.00000000000E+00  0.00000000000E+00  0.99999998245E-14  0.12500000000E+03  0.12500000000E+03 0.  0.
        -13    1    3    3    0    0  0.45965360282E+02 -0.37490939557E+02 -0.18520658748E+02  0.62140251522E+02  0.10566000000E+00 0.  1.
         23    2    1    0    0    0  0.24052691515E+02 -0.13524784683E+02 -0.86984562239E+01  0.96067061841E+02  0.91606579787E+02 0.  0.
         13    1    3    3    0    0 -0.21912668767E+02  0.23966154875E+02  0.98222025237E+01  0.33926810319E+02  0.10566000000E+00 0. -1.
         22    1    1    0    0    0 -0.24052691515E+02  0.13524784683E+02  0.86984562239E+01  0.28932938159E+02  0.00000000000E+00 0.  1.
</event>
<event>
 5    1  0.8943113E-005  0.9118800E+02  0.7818608E-02  0.1130116E+00
         25   -1    0    0    0    0  0.00000000000E+00  0.00000000000E+00  0.99999998245E-14  0.12500000000E+03  0.12500000000E+03 0.  0.
        -13    1    3    3    0    0  0.29996609507E+02 -0.43684239909E+02 -0.10732644144E+02  0.54067644786E+02  0.10566000000E+00 0. -1.
         23    2    1    0    0    0  0.10979865482E+02 -0.10144117713E+02 -0.25570576643E+02  0.95380496965E+02  0.90664900823E+02 0.  0.
         13    1    3    3    0    0 -0.19016744026E+02  0.33540122196E+02 -0.14837932500E+02  0.41312852179E+02  0.10566000000E+00 0.  1.
         22    1    1    0    0    0 -0.10979865482E+02  0.10144117713E+02  0.25570576643E+02  0.29619503035E+02  0.00000000000E+00 0. -1.
</event>
<event>
 5    1  0.8943113E-005  0.9118800E+02  0.7818608E-02  0.1130116E+00
         25   -1    0    0    0    0  0.00000000000E+00  0.00000000000E+00  0.99999998245E-14  0.12500000000E+03  0.12500000000E+03 0.  0.
        -13    1    3    3    0    0 -0.31806403582E+02  0.20440314430E+02 -0.45238293558E+02  0.58957341620E+02  0.10566000000E+00 0. -1.
         23    2    1    0    0    0 -0.25802492999E+02  0.51878833097E+01 -0.11882824251E+02  0.96122945261E+02  0.91682802724E+02 0.  0.
         13    1    3    3    0    0  0.60039105835E+01 -0.15252431120E+02  0.33355469306E+02  0.37165603642E+02  0.10566000000E+00 0.  1.
         22    1    1    0    0    0  0.25802492999E+02 -0.51878833097E+01  0.11882824251E+02  0.28877054739E+02  0.00000000000E+00 0. -1.
</event>
<event>
 5    1  0.8943113E-005  0.9118800E+02  0.7818608E-02  0.1130116E+00
         25   -1    0    0    0    0  0.00000000000E+00  0.00000000000E+00  0.99999998245E-14  0.12500000000E+03  0.12500000000E+03 0.  0.
        -13    1    3    3    0    0  0.16924158987E+02 -0.27140017939E+02  0.30518009631E+01  0.32129929728E+02  0.10566000000E+00 0.  1.
         23    2    1    0    0    0 -0.25104486997E+01  0.28097455620E+02 -0.14528982346E+02  0.93268931739E+02  0.87705375746E+02 0.  0.
         13    1    3    3    0    0 -0.19434607687E+02  0.55237473559E+02 -0.17580783310E+02  0.61139002011E+02  0.10566000000E+00 0. -1.
         22    1    1    0    0    0  0.25104486997E+01 -0.28097455620E+02  0.14528982346E+02  0.31731068261E+02  0.00000000000E+00 0. -1.
</event>
<event>
 5    1  0.8943113E-005  0.9118800E+02  0.7818608E-02  0.1130116E+00
         25   -1    0    0    0    0  0.00000000000E+00  0.00000000000E+00  0.99999998245E-14  0.12500000000E+03  0.12500000000E+03 0.  0.
        -13    1    3    3    0    0  0.38705698203E+02 -0.32763421965E+02 -0.97754250518E+01  0.51644389736E+02  0.10566000000E+00 0.  1.
         23    2    1    0    0    0  0.12970747549E+02 -0.19399299693E+02  0.20767990479E+02  0.93760881109E+02  0.88403734521E+02 0.  0.
         13    1    3    3    0    0 -0.25734950653E+02  0.13364122272E+02  0.30543415531E+02  0.42116491373E+02  0.10566000000E+00 0. -1.
         22    1    1    0    0    0 -0.12970747549E+02  0.19399299693E+02 -0.20767990479E+02  0.31239118891E+02  0.00000000000E+00 0.  1.
</event>
<event>
 5    1  0.8943113E-005  0.9118800E+02  0.7818608E-02  0.1130116E+00
         25   -1    0    0    0    0  0.00000000000E+00  0.00000000000E+00  0.99999998245E-14  0.12500000000E+03  0.12500000000E+03 0.  0.
        -13    1    3    3    0    0  0.51670888282E+02  0.14774504215E+02 -0.15047650680E+02  0.55808687726E+02  0.10566000000E+00 0.  1.
         23    2    1    0    0    0  0.19341207233E+02  0.21540596509E+02  0.66089125026E+01  0.95305601207E+02  0.90561582924E+02 0.  0.
         13    1    3    3    0    0 -0.32329681049E+02  0.67660922939E+01  0.21656563182E+02  0.39496913481E+02  0.10566000000E+00 0. -1.
         22    1    1    0    0    0 -0.19341207233E+02 -0.21540596509E+02 -0.66089125026E+01  0.29694398793E+02  0.00000000000E+00 0.  1.
</event>
<event>
 5    1  0.8943113E-005  0.9118800E+02  0.7818608E-02  0.1130116E+00
         25   -1    0    0    0    0  0.00000000000E+00  0.00000000000E+00  0.99999998245E-14  0.12500000000E+03  0.12500000000E+03 0.  0.
        -13    1    3    3    0    0 -0.47621017648E+01  0.13333192760E+02 -0.32627018926E+02  0.35566630012E+02  0.10566000000E+00 0. -1.
         23    2    1    0    0    0  0.10631352251E+02 -0.60279965976E+01  0.24390859255E+02  0.97718570257E+02  0.93833056884E+02 0.  0.
         13    1    3    3    0    0  0.15393454015E+02 -0.19361189358E+02  0.57017878181E+02  0.62151940244E+02  0.10566000000E+00 0.  1.
         22    1    1    0    0    0 -0.10631352251E+02  0.60279965976E+01 -0.24390859255E+02  0.27281429743E+02  0.00000000000E+00 0.  1.
</event>
<event>
 5    1  0.8943113E-005  0.9118800E+02  0.7818608E-02  0.1130116E+00
         25   -1    0    0    0    0  0.00000000000E+00  0.00000000000E+00  0.99999998245E-14  0.12500000000E+03  0.12500000000E+03 0.  0.
        -13    1    3    3    0    0 -0.28458644886E+02  0.30035403737E+02  0.69133210631E-01  0.41376755429E+02  0.10566000000E+00 0. -1.
         23    2    1    0    0    0  0.19985743136E+02  0.17163158710E+02 -0.16196640047E+02  0.94075331943E+02  0.88847245234E+02 0.  0.
         13    1    3    3    0    0  0.48444388022E+02 -0.12872245027E+02 -0.16265773258E+02  0.52698576514E+02  0.10566000000E+00 0.  1.
         22    1    1    0    0    0 -0.19985743136E+02 -0.17163158710E+02  0.16196640047E+02  0.30924668057E+02  0.00000000000E+00 0.  1.
</event>
<event>
 5    1  0.8943113E-005  0.9118800E+02  0.7818608E-02  0.1130116E+00
         25   -1    0    0    0    0  0.00000000000E+00  0.00000000000E+00  0.99999998245E-14  0.12500000000E+03  0.12500000000E+03 0.  0.
        -13    1    3    3    0    0  0.11172484893E+02 -0.53046357749E+02 -0.16283963852E+02  0.56603172455E+02  0.10566000000E+00 0.  1.
         23    2    1    0    0    0  0.57285779228E+01 -0.25264084722E+02  0.11847395088E+02  0.96514014810E+02  0.92214444110E+02 0.  0.
         13    1    3    3    0    0 -0.54439069702E+01  0.27782273027E+02  0.28131358940E+02  0.39910842355E+02  0.10566000000E+00 0. -1.
         22    1    1    0    0    0 -0.57285779228E+01  0.25264084722E+02 -0.11847395088E+02  0.28485985190E+02  0.00000000000E+00 0.  1.
</event>
<event>
 5    1  0.8943113E-005  0.9118800E+02  0.7818608E-02  0.1130116E+00
         25   -1    0    0    0    0  0.00000000000E+00  0.00000000000E+00  0.99999998245E-14  0.12500000000E+03  0.12500000000E+03 0.  0.
        -13    1    3    3    0    0 -0.47165529017E+02  0.19569627685E+02  0.20907229564E+02  0.55178626906E+02  0.10566000000E+00 0. -1.
         23    2    1    0    0    0 -0.73715391811E+01  0.23004534420E+02 -0.11678933993E+01  0.10081504251E+03  0.97871142977E+02 0.  0.
         13    1    3    3    0    0  0.39793989836E+02  0.34349067350E+01 -0.22075122963E+02  0.45636415604E+02  0.10566000000E+00 0.  1.
         22    1    1    0    0    0  0.73715391811E+01 -0.23004534420E+02  0.11678933993E+01  0.24184957490E+02  0.00000000000E+00 0. -1.
</event>
<event>
 5    1  0.8943113E-005  0.9118800E+02  0.7818608E-02  0.1130116E+00
         25   -1    0    0    0    0  0.00000000000E+00  0.00000000000E+00  0.99999998245E-14  0.12500000000E+03  0.12500000000E+03 0.  0.
        -13    1    3    3    0    0 -0.44119686834E+02 -0.60232920379E+01 -0.30360919395E+02  0.53894558203E+02  0.10566000000E+00 0. -1.
         23    2    1    0    0    0 -0.88063872734E+01 -0.23174876795E+02 -0.14815944559E+02  0.96118525238E+02  0.91676776282E+02 0.  0.
         13    1    3    3    0    0  0.35313299560E+02 -0.17151584757E+02  0.15544974837E+02  0.42223967036E+02  0.10566000000E+00 0.  1.
         22    1    1    0    0    0  0.88063872734E+01  0.23174876795E+02  0.14815944559E+02  0.28881474762E+02  0.00000000000E+00 0. -1.
</event>
<event>
 4    1  0.8943113E-005  0.9118800E+02  0.7818608E-02  0.1130116E+00
         25   -1    0    0    0    0  0.00000000000E+00  0.00000000000E+00  0.99999998245E-14  0.12500000000E+03  0.12500000000E+03 0.  0.
        -13    1    1    0    0    0  0.30433691618E+01 -0.49986646827E+01 -0.32352627013E+01  0.66878122916E+01  0.10566000000E+00 0.  1.
         13    1    1    0    0    0 -0.42747952233E+02  0.35878209289E+02  0.27783577838E+02  0.62342374702E+02  0.10566000000E+00 0. -1.
         22    1    1    0    0    0  0.39704583071E+02 -0.30879544607E+02 -0.24548315137E+02  0.55969813007E+02  0.00000000000E+00 0. -1.
</event>
<event>
 5    1  0.8943113E-005  0.9118800E+02  0.7818608E-02  0.1130116E+00
         25   -1    0    0    0    0  0.00000000000E+00  0.00000000000E+00  0.99999998245E-14  0.12500000000E+03  0.12500000000E+03 0.  0.
        -13    1    3    3    0    0 -0.34962703717E+02 -0.38495601139E+02 -0.34250434884E+02  0.62268815727E+02  0.10566000000E+00 0. -1.
         23    2    1    0    0    0 -0.15863074881E+02 -0.15809592747E+02 -0.10490216844E+02  0.10026894630E+03  0.97171171527E+02 0.  0.
         13    1    3    3    0    0  0.19099628836E+02  0.22686008393E+02  0.23760218040E+02  0.38000130576E+02  0.10566000000E+00 0.  1.
         22    1    1    0    0    0  0.15863074881E+02  0.15809592747E+02  0.10490216844E+02  0.24731053696E+02  0.00000000000E+00 0. -1.
</event>
<event>
 5    1  0.8943113E-005  0.9118800E+02  0.7818608E-02  0.1130116E+00
         25   -1    0    0    0    0  0.00000000000E+00  0.00000000000E+00  0.99999998245E-14  0.12500000000E+03  0.12500000000E+03 0.  0.
        -13    1    3    3    0    0 -0.26401850566E+02 -0.46673148207E+02  0.51490261986E+01  0.53869881303E+02  0.10566000000E+00 0. -1.
         23    2    1    0    0    0 -0.28516994567E+02 -0.52410247740E+01 -0.18677265763E+01  0.95945297758E+02  0.91440277993E+02 0.  0.
         13    1    3    3    0    0 -0.21151440009E+01  0.41432123433E+02 -0.70167527749E+01  0.42075416454E+02  0.10566000000E+00 0.  1.
         22    1    1    0    0    0  0.28516994567E+02  0.52410247740E+01  0.18677265763E+01  0.29054702242E+02  0.00000000000E+00 0. -1.
</event>
<event>
 5    1  0.8943113E-005  0.9118800E+02  0.7818608E-02  0.1130116E+00
         25   -1    0    0    0    0  0.00000000000E+00  0.00000000000E+00  0.99999998245E-14  0.12500000000E+03  0.12500000000E+03 0.  0.
        -13    1    3    3    0    0  0.15085674254E+02  0.84235862883E+00  0.32764987844E+02  0.36081057748E+02  0.10566000000E+00 0.  1.
         23    2    1    0    0    0 -0.19835959747E+02 -0.14092564242E+02 -0.14468316177E+02  0.96691029001E+02  0.92454081848E+02 0.  0.
         13    1    3    3    0    0 -0.34921634002E+02 -0.14934922871E+02 -0.47233304021E+02  0.60609971253E+02  0.10566000000E+00 0. -1.
         22    1    1    0    0    0  0.19835959747E+02  0.14092564242E+02  0.14468316177E+02  0.28308970999E+02  0.00000000000E+00 0. -1.
</event>
<event>
 5    1  0.8943113E-005  0.9118800E+02  0.7818608E-02  0.1130116E+00
         25   -1    0    0    0    0  0.00000000000E+00  0.00000000000E+00  0.99999998245E-14  0.12500000000E+03  0.12500000000E+03 0.  0.
        -13    1    3    3    0    0 -0.33201777110E+02 -0.27900899736E+02 -0.44454424823E+02  0.62104953585E+02  0.10566000000E+00 0.  1.
         23    2    1    0    0    0 -0.17863211898E+02 -0.15511704391E+02 -0.17171425185E+02  0.95767053598E+02  0.91196290492E+02 0.  0.
         13    1    3    3    0    0  0.15338565212E+02  0.12389195346E+02  0.27282999638E+02  0.33662100014E+02  0.10566000000E+00 0. -1.
         22    1    1    0    0    0  0.17863211898E+02  0.15511704391E+02  0.17171425185E+02  0.29232946402E+02  0.00000000000E+00 0.  1.
</event>
<event>
 5    1  0.8943113E-005  0.9118800E+02  0.7818608E-02  0.1130116E+00
         25   -1    0    0    0    0  0.00000000000E+00  0.00000000000E+00  0.99999998245E-14  0.12500000000E+03  0.12500000000E+03 0.  0.
        -13    1    3    3    0    0 -0.37344345937E+02  0.35273748895E+02  0.12068340207E+02  0.52768300465E+02  0.10566000000E+00 0. -1.
         23    2    1    0    0    0  0.39472125963E+01  0.29166153494E+02  0.37502034098E+01  0.95329997935E+02  0.90595250889E+02 0.  0.
         13    1    3    3    0    0  0.41291558533E+02 -0.61075954002E+01 -0.83181367976E+01  0.42561697470E+02  0.10566000000E+00 0.  1.
         22    1    1    0    0    0 -0.39472125963E+01 -0.29166153494E+02 -0.37502034098E+01  0.29670002065E+02  0.00000000000E+00 0. -1.
</event>
<event>
 5    1  0.8943113E-005  0.9118800E+02  0.7818608E-02  0.1130116E+00
         25   -1    0    0    0    0  0.00000000000E+00  0.00000000000E+00  0.99999998245E-14  0.12500000000E+03  0.12500000000E+03 0.  0.
        -13    1    3    3    0    0 -0.37842539888E+02 -0.31740185351E+02  0.15701212953E+02  0.51826985669E+02  0.10566000000E+00 0.  1.
         23    2    1    0    0    0 -0.20856728622E+02  0.24474809619E+01 -0.13626276438E+02  0.99966648218E+02  0.96781517112E+02 0.  0.
         13    1    3    3    0    0  0.16985811266E+02  0.34187666313E+02 -0.29327489391E+02  0.48139662549E+02  0.10566000000E+00 0. -1.
         22    1    1    0    0    0  0.20856728622E+02 -0.24474809619E+01  0.13626276438E+02  0.25033351782E+02  0.00000000000E+00 0. -1.
</event>
<event>
 5    1  0.8943113E-005  0.9118800E+02  0.7818608E-02  0.1130116E+00
         25   -1    0    0    0    0  0.00000000000E+00  0.00000000000E+00  0.99999998245E-14  0.12500000000E+03  0.12500000000E+03 0.  0.
        -13    1    3    3    0    0 -0.65816234321E+01 -0.43411719517E+02  0.38144338057E+02  0.58162675732E+02  0.10566000000E+00 0.  1.
         23    2    1    0    0    0  0.13490822735E+02 -0.17642575736E+02  0.16063901537E+02  0.97589934162E+02  0.93661537145E+02 0.  0.
         13    1    3    3    0    0  0.20072446167E+02  0.25769143781E+02 -0.22080436520E+02  0.39427258430E+02  0.10566000000E+00 0. -1.
         22    1    1    0    0    0 -0.13490822735E+02  0.17642575736E+02 -0.16063901537E+02  0.27410065838E+02  0.00000000000E+00 0.  1.
</event>
<event>
 5    1  0.8943113E-005  0.9118800E+02  0.7818608E-02  0.1130116E+00
         25   -1    0    0    0    0  0.00000000000E+00  0.00000000000E+00  0.99999998245E-14  0.12500000000E+03  0.12500000000E+03 0.  0.
        -13    1    3    3    0    0  0.18524652939E+02 -0.33562940091E+02 -0.35451310244E+02  0.52215326066E+02  0.10566000000E+00 0.  1.
         23    2    1    0    0    0  0.28877223750E+02 -0.81837591019E+01 -0.27867192123E+01  0.94856447315E+02  0.89939489818E+02 0.  0.
         13    1    3    3    0    0  0.10352570810E+02  0.25379180989E+02  0.32664591032E+02  0.42641121249E+02  0.10566000000E+00 0. -1.
         22    1    1    0    0    0 -0.28877223750E+02  0.81837591019E+01  0.27867192123E+01  0.30143552685E+02  0.00000000000E+00 0.  1.
</event>
<event>
 5    1  0.8943113E-005  0.9118800E+02  0.7818608E-02  0.1130116E+00
         25   -1    0    0    0    0  0.00000000000E+00  0.00000000000E+00  0.99999998245E-14  0.12500000000E+03  0.12500000000E+03 0.  0.
        -13    1    3    3    0    0 -0.15979711030E+02  0.32998656624E+02  0.39059482614E+01  0.36871806295E+02  0.10566000000E+00 0. -1.
         23    2    1    0    0    0  0.12680987478E+02 -0.19319018391E+02  0.14863267139E+02  0.97523671551E+02  0.93573061763E+02 0.  0.
         13    1    3    3    0    0  0.28660698508E+02 -0.52317675015E+02  0.10957318877E+02  0.60651865256E+02  0.10566000000E+00 0.  1.
         22    1    1    0    0    0 -0.12680987478E+02  0.19319018391E+02 -0.14863267139E+02  0.27476328449E+02  0.00000000000E+00 0.  1.
</event>
<event>
 5    1  0.8943113E-005  0.9118800E+02  0.7818608E-02  0.1130116E+00
         25   -1    0    0    0    0  0.00000000000E+00  0.00000000000E+00  0.99999998245E-14  0.12500000000E+03  0.12500000000E+03 0.  0.
        -13    1    3    3    0    0 -0.48891507737E+02 -0.12118298653E+02  0.31890158708E+02  0.59617330345E+02  0.10566000000E+00 0. -1.
         23    2    1    0    0    0 -0.27190157257E+02  0.69351724336E+01  0.13441421978E+02  0.93886126998E+02  0.88580651102E+02 0.  0.
         13    1    3    3    0    0  0.21701350480E+02  0.19053471087E+02 -0.18448736730E+02  0.34268796653E+02  0.10566000000E+00 0.  1.
         22    1    1    0    0    0  0.27190157257E+02 -0.69351724336E+01 -0.13441421978E+02  0.31113873002E+02  0.00000000000E+00 0. -1.
</event>
<event>
 5    1  0.8943113E-005  0.9118800E+02  0.7818608E-02  0.1130116E+00
         25   -1    0    0    0    0  0.00000000000E+00  0.00000000000E+00  0.99999998245E-14  0.12500000000E+03  0.12500000000E+03 0.  0.
        -13    1    3    3    0    0  0.33175293375E+02 -0.68893822017E+01  0.14366496290E+02  0.36803139231E+02  0.10566000000E+00 0.  1.
         23    2    1    0    0    0 -0.23223270844E+02 -0.17307953323E+02 -0.42739271542E+00  0.96033325675E+02  0.91560534176E+02 0.  0.
         13    1    3    3    0    0 -0.56398564219E+02 -0.10418571122E+02 -0.14793889005E+02  0.59230186443E+02  0.10566000000E+00 0. -1.
         22    1    1    0    0    0  0.23223270844E+02  0.17307953323E+02  0.42739271542E+00  0.28966674325E+02  0.00000000000E+00 0. -1.
</event>
<event>
 5    1  0.8943113E-005  0.9118800E+02  0.7818608E-02  0.1130116E+00
         25   -1    0    0    0    0  0.00000000000E+00  0.00000000000E+00  0.99999998245E-14  0.12500000000E+03  0.12500000000E+03 0.  0.
        -13    1    3    3    0    0  0.23227809122E+02  0.34613242524E+02 -0.44099124117E+02  0.60682382835E+02  0.10566000000E+00 0.  1.
         23    2    1    0    0    0  0.94614427096E+01  0.23275491676E+02 -0.12570102879E+02  0.96905963315E+02  0.92744222616E+02 0.  0.
         13    1    3    3    0    0 -0.13766366412E+02 -0.11337750849E+02  0.31529021238E+02  0.36223580480E+02  0.10566000000E+00 0. -1.
         22    1    1    0    0    0 -0.94614427096E+01 -0.23275491676E+02  0.12570102879E+02  0.28094036685E+02  0.00000000000E+00 0.  1.
</event>
<event>
 5    1  0.8943113E-005  0.9118800E+02  0.7818608E-02  0.1130116E+00
         25   -1    0    0    0    0  0.00000000000E+00  0.00000000000E+00  0.99999998245E-14  0.12500000000E+03  0.12500000000E+03 0.  0.
        -13    1    3    3    0    0  0.20288897561E+02  0.40343129602E+02 -0.38778580184E+02  0.59523078847E+02  0.10566000000E+00 0.  1.
         23    2    1    0    0    0  0.16018257064E+02  0.76929357490E+01 -0.22713106551E+02  0.96161639627E+02  0.91735543312E+02 0.  0.
         13    1    3    3    0    0 -0.42706404971E+01 -0.32650193853E+02  0.16065473633E+02  0.36638560780E+02  0.10566000000E+00 0. -1.
         22    1    1    0    0    0 -0.16018257064E+02 -0.76929357490E+01  0.22713106551E+02  0.28838360373E+02  0.00000000000E+00 0.  1.
</event>
<event>
 5    1  0.8943113E-005  0.9118800E+02  0.7818608E-02  0.1130116E+00
         25   -1    0    0    0    0  0.00000000000E+00  0.00000000000E+00  0.99999998245E-14  0.12500000000E+03  0.12500000000E+03 0.  0.
        -13    1    3    3    0    0 -0.21920479410E+02 -0.42332052954E+02  0.32795617521E+02  0.57862542439E+02  0.10566000000E+00 0.  1.
         23    2    1    0    0    0  0.49117688449E+01 -0.15053155500E+02  0.22499269832E+02  0.97487455467E+02  0.93524669830E+02 0.  0.
         13    1    3    3    0    0  0.26832248255E+02  0.27278897454E+02 -0.10296347689E+02  0.39624913028E+02  0.10566000000E+00 0. -1.
         22    1    1    0    0    0 -0.49117688449E+01  0.15053155500E+02 -0.22499269832E+02  0.27512544533E+02  0.00000000000E+00 0. -1.
</event>
<event>
 5    1  0.8943113E-005  0.9118800E+02  0.7818608E-02  0.1130116E+00
         25   -1    0    0    0    0  0.00000000000E+00  0.00000000000E+00  0.99999998245E-14  0.12500000000E+03  0.12500000000E+03 0.  0.
        -13    1    3    3    0    0 -0.23918816697E+02 -0.25865908927E+02 -0.10346497350E+02  0.36718063787E+02  0.10566000000E+00 0.  1.
         23    2    1    0    0    0  0.28676925845E+02 -0.44976854694E+01  0.50427789925E+01  0.95537738198E+02  0.90881431269E+02 0.  0.
         13    1    3    3    0    0  0.52595742543E+02  0.21368223458E+02  0.15389276343E+02  0.58819674411E+02  0.10566000000E+00 0. -1.
         22    1    1    0    0    0 -0.28676925845E+02  0.44976854694E+01 -0.50427789925E+01  0.29462261802E+02  0.00000000000E+00 0. -1.
</event>
<event>
 5    1  0.8943113E-005  0.9118800E+02  0.7818608E-02  0.1130116E+00
         25   -1    0    0    0    0  0.00000000000E+00  0.00000000000E+00  0.99999998245E-14  0.12500000000E+03  0.12500000000E+03 0.  0.
        -13    1    3    3    0    0 -0.46013018218E+02 -0.18092818750E+02  0.30852228355E+02  0.58278804847E+02  0.10566000000E+00 0.  1.
         23    2    1    0    0    0 -0.14153495196E+02 -0.22786474933E+02  0.11811177862E+02  0.95690465909E+02  0.91091253572E+02 0.  0.
         13    1    3    3    0    0  0.31859523022E+02 -0.46936561830E+01 -0.19041050493E+02  0.37411661063E+02  0.10566000000E+00 0. -1.
         22    1    1    0    0    0  0.14153495196E+02  0.22786474933E+02 -0.11811177862E+02  0.29309534091E+02  0.00000000000E+00 0.  1.
</event>
<event>
 5    1  0.8943113E-005  0.9118800E+02  0.7818608E-02  0.1130116E+00
         25   -1    0    0    0    0  0.00000000000E+00  0.00000000000E+00  0.99999998245E-14  0.12500000000E+03  0.12500000000E+03 0.  0.
        -13    1    3    3    0    0 -0.40117144687E+01  0.28267311249E+02  0.55435780862E+02  0.62356007746E+02  0.10566000000E+00 0.  1.
         23    2    1    0    0    0  0.89897468008E+00  0.14480994998E+02  0.26170449303E+02  0.95076768418E+02  0.90245177735E+02 0.  0.
         13    1    3    3    0    0  0.49106891488E+01 -0.13786316251E+02 -0.29265331558E+02  0.32720760672E+02  0.10566000000E+00 0. -1.
         22    1    1    0    0    0 -0.89897468008E+00 -0.14480994998E+02 -0.26170449303E+02  0.29923231582E+02  0.00000000000E+00 0.  1.
</event>
<event>
 5    1  0.8943113E-005  0.9118800E+02  0.7818608E-02  0.1130116E+00
         25   -1    0    0    0    0  0.00000000000E+00  0.00000000000E+00  0.99999998245E-14  0.12500000000E+03  0.12500000000E+03 0.  0.
        -13    1    3    3    0    0  0.46823546340E+01 -0.21800011851E+02 -0.43664539322E+02  0.49028237985E+02  0.10566000000E+00 0.  1.
         23    2    1    0    0    0  0.28824329065E+02 -0.80162107259E+01 -0.84154984779E+01  0.93920711155E+02  0.88629440869E+02 0.  0.
         13    1    3    3    0    0  0.24141974431E+02  0.13783801125E+02  0.35249040844E+02  0.44892473171E+02  0.10566000000E+00 0. -1.
         22    1    1    0    0    0 -0.28824329065E+02  0.80162107259E+01  0.84154984779E+01  0.31079288845E+02  0.00000000000E+00 0. -1.
</event>
<event>
 5    1  0.8943113E-005  0.9118800E+02  0.7818608E-02  0.1130116E+00
         25   -1    0    0    0    0  0.00000000000E+00  0.00000000000E+00  0.99999998245E-14  0.12500000000E+03  0.12500000000E+03 0.  0.
        -13    1    3    3    0    0  0.29069831972E+01 -0.32235821123E+02 -0.30086470345E+02  0.44190559813E+02  0.10566000000E+00 0. -1.
         23    2    1    0    0    0 -0.85441408598E+01  0.16948568194E+02 -0.22991011682E+02  0.95186531148E+02  0.90397083951E+02 0.  0.
         13    1    3    3    0    0 -0.11451124057E+02  0.49184389317E+02  0.70954586630E+01  0.50995971334E+02  0.10566000000E+00 0.  1.
         22    1    1    0    0    0  0.85441408598E+01 -0.16948568194E+02  0.22991011682E+02  0.29813468852E+02  0.00000000000E+00 0.  1.
</event>
<event>
 5    1  0.8943113E-005  0.9118800E+02  0.7818608E-02  0.1130116E+00
         25   -1    0    0    0    0  0.00000000000E+00  0.00000000000E+00  0.99999998245E-14  0.12500000000E+03  0.12500000000E+03 0.  0.
        -13    1    3    3    0    0 -0.37458243054E+02 -0.22649466749E+02  0.70101871353E+01  0.44331390734E+02  0.10566000000E+00 0.  1.
         23    2    1    0    0    0  0.11882754983E+02 -0.18800841348E+02  0.19551808832E+02  0.95386747392E+02  0.90673517899E+02 0.  0.
         13    1    3    3    0    0  0.49340998037E+02  0.38486254011E+01  0.12541621697E+02  0.51055356659E+02  0.10566000000E+00 0. -1.
         22    1    1    0    0    0 -0.11882754983E+02  0.18800841348E+02 -0.19551808832E+02  0.29613252608E+02  0.00000000000E+00 0. -1.
</event>
<event>
 5    1  0.8943113E-005  0.9118800E+02  0.7818608E-02  0.1130116E+00
         25   -1    0    0    0    0  0.00000000000E+00  0.00000000000E+00  0.99999998245E-14  0.12500000000E+03  0.12500000000E+03 0.  0.
        -13    1    3    3    0    0  0.39547346712E+02  0.29401699463E+02  0.21787150378E+02  0.53880828213E+02  0.10566000000E+00 0.  1.
         23    2    1    0    0    0  0.27010448180E+02  0.38001581437E+01 -0.94150927873E+01  0.96144333572E+02  0.91711958834E+02 0.  0.
         13    1    3    3    0    0 -0.12536898532E+02 -0.25601541319E+02 -0.31202243165E+02  0.42263505360E+02  0.10566000000E+00 0. -1.
         22    1    1    0    0    0 -0.27010448180E+02 -0.38001581437E+01  0.94150927873E+01  0.28855666428E+02  0.00000000000E+00 0.  1.
</event>
<event>
 5    1  0.8943113E-005  0.9118800E+02  0.7818608E-02  0.1130116E+00
         25   -1    0    0    0    0  0.00000000000E+00  0.00000000000E+00  0.99999998245E-14  0.12500000000E+03  0.12500000000E+03 0.  0.
        -13    1    3    3    0    0  0.40317753965E+02  0.30896187297E+02  0.10956393536E+02  0.51962961786E+02  0.10566000000E+00 0. -1.
         23    2    1    0    0    0 -0.36579912823E+01  0.23846111201E+02  0.14851000640E+02  0.96670331106E+02  0.92426093591E+02 0.  0.
         13    1    3    3    0    0 -0.43975745247E+02 -0.70500760957E+01  0.38946071048E+01  0.44707369320E+02  0.10566000000E+00 0.  1.
         22    1    1    0    0    0  0.36579912823E+01 -0.23846111201E+02 -0.14851000640E+02  0.28329668894E+02  0.00000000000E+00 0.  1.
</event>
<event>
 5    1  0.8943113E-005  0.9118800E+02  0.7818608E-02  0.1130116E+00
         25   -1    0    0    0    0  0.00000000000E+00  0.00000000000E+00  0.99999998245E-14  0.12500000000E+03  0.12500000000E+03 0.  0.
        -13    1    3    3    0    0  0.20419668026E+02  0.25808935287E+02  0.25796837191E+02  0.41815690309E+02  0.10566000000E+00 0.  1.
         23    2    1    0    0    0 -0.26949557607E+02  0.77115992264E+01  0.55068523970E+01  0.96433011339E+02  0.92104575537E+02 0.  0.
         13    1    3    3    0    0 -0.47369225632E+02 -0.18097336061E+02 -0.20289984794E+02  0.54617321030E+02  0.10566000000E+00 0. -1.
         22    1    1    0    0    0  0.26949557607E+02 -0.77115992264E+01 -0.55068523970E+01  0.28566988661E+02  0.00000000000E+00 0. -1.
</event>
<event>
 5    1  0.8943113E-005  0.9118800E+02  0.7818608E-02  0.1130116E+00
         25   -1    0    0    0    0  0.00000000000E+00  0.00000000000E+00  0.99999998245E-14  0.12500000000E+03  0.12500000000E+03 0.  0.
        -13    1    3    3    0    0 -0.94232237734E+01 -0.39122575442E+02  0.19529984064E+02  0.44730353196E+02  0.10566000000E+00 0.  1.
         23    2    1    0    0    0 -0.31567276324E+02 -0.77090368705E+01 -0.74162811389E+01  0.91669482304E+02  0.85395377954E+02 0.  0.
         13    1    3    3    0    0 -0.22144052551E+02  0.31413538572E+02 -0.26946265203E+02  0.46939129107E+02  0.10566000000E+00 0. -1.
         22    1    1    0    0    0  0.31567276324E+02  0.77090368705E+01  0.74162811389E+01  0.33330517696E+02  0.00000000000E+00 0.  1.
</event>
<event>
 5    1  0.8943113E-005  0.9118800E+02  0.7818608E-02  0.1130116E+00
         25   -1    0    0    0    0  0.00000000000E+00  0.00000000000E+00  0.99999998245E-14  0.12500000000E+03  0.12500000000E+03 0.  0.
        -13    1    3    3    0    0  0.27293148859E+02  0.55511269162E+02 -0.52861224609E+01  0.62083582640E+02  0.10566000000E+00 0. -1.
         23    2    1    0    0    0  0.15288298421E+02  0.27051789914E+02  0.21454149203E+01  0.93853022436E+02  0.88533923493E+02 0.  0.
         13    1    3    3    0    0 -0.12004850438E+02 -0.28459479248E+02  0.74315373812E+01  0.31769439797E+02  0.10566000000E+00 0.  1.
         22    1    1    0    0    0 -0.15288298421E+02 -0.27051789914E+02 -0.21454149203E+01  0.31146977564E+02  0.00000000000E+00 0. -1.
</event>
<event>
 5    1  0.8943113E-005  0.9118800E+02  0.7818608E-02  0.1130116E+00
         25   -1    0    0    0    0  0.00000000000E+00  0.00000000000E+00  0.99999998245E-14  0.12500000000E+03  0.12500000000E+03 0.  0.
        -13    1    3    3    0    0  0.21092726941E+02  0.28959079736E+02 -0.84579727142E+01  0.36811409854E+02  0.10566000000E+00 0. -1.
         23    2    1    0    0    0  0.14082710508E+02 -0.27084611919E+02  0.25936480958E+01  0.94362997071E+02  0.89251046312E+02 0.  0.
         13    1    3    3    0    0 -0.70100164332E+01 -0.56043691654E+02  0.11051620810E+02  0.57551587217E+02  0.10566000000E+00 0.  1.
         22    1    1    0    0    0 -0.14082710508E+02  0.27084611919E+02 -0.25936480958E+01  0.30637002929E+02  0.00000000000E+00 0.  1.
</event>
<event>
 5    1  0.8943113E-005  0.9118800E+02  0.7818608E-02  0.1130116E+00
         25   -1    0    0    0    0  0.00000000000E+00  0.00000000000E+00  0.99999998245E-14  0.12500000000E+03  0.12500000000E+03 0.  0.
        -13    1    3    3    0    0  0.29961489058E+02 -0.27161901845E+02  0.32589086682E+02  0.51937649863E+02  0.10566000000E+00 0.  1.
         23    2    1    0    0    0  0.16616133557E+02 -0.12680856244E+02 -0.12152820443E+02  0.10082168215E+03  0.97879622685E+02 0.  0.
         13    1    3    3    0    0 -0.13345355501E+02  0.14481045601E+02 -0.44741907126E+02  0.48884032285E+02  0.10566000000E+00 0. -1.
         22    1    1    0    0    0 -0.16616133557E+02  0.12680856244E+02  0.12152820443E+02  0.24178317853E+02  0.00000000000E+00 0. -1.
</event>
<event>
 5    1  0.8943113E-005  0.9118800E+02  0.7818608E-02  0.1130116E+00
         25   -1    0    0    0    0  0.00000000000E+00  0.00000000000E+00  0.99999998245E-14  0.12500000000E+03  0.12500000000E+03 0.  0.
        -13    1    3    3    0    0 -0.45400465467E+02  0.24154453257E+02  0.14408439672E+02  0.53406499366E+02  0.10566000000E+00 0.  1.
         23    2    1    0    0    0 -0.29410494016E+02 -0.95016039744E+01 -0.17994283661E+01  0.94040420242E+02  0.88798114059E+02 0.  0.
         13    1    3    3    0    0  0.15989971451E+02 -0.33656057231E+02 -0.16207868038E+02  0.40633920875E+02  0.10566000000E+00 0. -1.
         22    1    1    0    0    0  0.29410494016E+02  0.95016039744E+01  0.17994283661E+01  0.30959579758E+02  0.00000000000E+00 0.  1.
</event>
<event>
 5    1  0.8943113E-005  0.9118800E+02  0.7818608E-02  0.1130116E+00
         25   -1    0    0    0    0  0.00000000000E+00  0.00000000000E+00  0.99999998245E-14  0.12500000000E+03  0.12500000000E+03 0.  0.
        -13    1    3    3    0    0 -0.40579946275E+02 -0.13692437849E+02  0.21417058390E+01  0.42881382462E+02  0.10566000000E+00 0. -1.
         23    2    1    0    0    0  0.21372665456E+01 -0.11161624119E+02 -0.27705384602E+02  0.95054414395E+02  0.90214209517E+02 0.  0.
         13    1    3    3    0    0  0.42717212820E+02  0.25308137300E+01 -0.29847090441E+02  0.52173031933E+02  0.10566000000E+00 0.  1.
         22    1    1    0    0    0 -0.21372665456E+01  0.11161624119E+02  0.27705384602E+02  0.29945585605E+02  0.00000000000E+00 0.  1.
</event>
<event>
 5    1  0.8943113E-005  0.9118800E+02  0.7818608E-02  0.1130116E+00
         25   -1    0    0    0    0  0.00000000000E+00  0.00000000000E+00  0.99999998245E-14  0.12500000000E+03  0.12500000000E+03 0.  0.
        -13    1    3    3    0    0  0.30365479230E+02  0.41714985278E+02  0.13492168440E+02  0.53331530063E+02  0.10566000000E+00 0. -1.
         23    2    1    0    0    0  0.11387203074E+02  0.13939313375E+02 -0.18095157492E+02  0.99477312526E+02  0.96147429147E+02 0.  0.
         13    1    3    3    0    0 -0.18978276156E+02 -0.27775671903E+02 -0.31587325933E+02  0.46145782463E+02  0.10566000000E+00 0.  1.
         22    1    1    0    0    0 -0.11387203074E+02 -0.13939313375E+02  0.18095157492E+02  0.25522687474E+02  0.00000000000E+00 0. -1.
</event>
<event>
 5    1  0.8943113E-005  0.9118800E+02  0.7818608E-02  0.1130116E+00
         25   -1    0    0    0    0  0.00000000000E+00  0.00000000000E+00  0.99999998245E-14  0.12500000000E+03  0.12500000000E+03 0.  0.
        -13    1    3    3    0    0 -0.45747140145E+02 -0.29785003741E+02  0.38596224033E+01  0.54725269560E+02  0.10566000000E+00 0.  1.
         23    2    1    0    0    0 -0.23774865239E+02 -0.91904083397E+01 -0.19556295816E+02  0.92872807022E+02  0.87138979542E+02 0.  0.
         13    1    3    3    0    0  0.21972274906E+02  0.20594595402E+02 -0.23415918220E+02  0.38147537462E+02  0.10566000000E+00 0. -1.
         22    1    1    0    0    0  0.23774865239E+02  0.91904083397E+01  0.19556295816E+02  0.32127192978E+02  0.00000000000E+00 0.  1.
</event>
<event>
 5    1  0.8943113E-005  0.9118800E+02  0.7818608E-02  0.1130116E+00
         25   -1    0    0    0    0  0.00000000000E+00  0.00000000000E+00  0.99999998245E-14  0.12500000000E+03  0.12500000000E+03 0.  0.
        -13    1    3    3    0    0 -0.72082168264E+01 -0.39094011071E+02  0.71360640912E+01  0.40388546225E+02  0.10566000000E+00 0.  1.
         23    2    1    0    0    0 -0.16068649416E+02  0.15116113630E+02 -0.13579346009E+02  0.99094459601E+02  0.95648392042E+02 0.  0.
         13    1    3    3    0    0 -0.88604325897E+01  0.54210124700E+02 -0.20715410100E+02  0.58705913376E+02  0.10566000000E+00 0. -1.
         22    1    1    0    0    0  0.16068649416E+02 -0.15116113630E+02  0.13579346009E+02  0.25905540399E+02  0.00000000000E+00 0. -1.
</event>
<event>
 5    1  0.8943113E-005  0.9118800E+02  0.7818608E-02  0.1130116E+00
         25   -1    0    0    0    0  0.00000000000E+00  0.00000000000E+00  0.99999998245E-14  0.12500000000E+03  0.12500000000E+03 0.  0.
        -13    1    3    3    0    0 -0.32917930009E+02 -0.19668984187E+01  0.18721347775E+02  0.37920427635E+02  0.10566000000E+00 0.  1.
         23    2    1    0    0    0  0.40154183891E+01 -0.26062026295E+02 -0.16095389568E+02  0.94106402527E+02  0.88890947974E+02 0.  0.
         13    1    3    3    0    0  0.36933348398E+02 -0.24095127877E+02 -0.34816737344E+02  0.56185974892E+02  0.10566000000E+00 0. -1.
         22    1    1    0    0    0 -0.40154183891E+01  0.26062026295E+02  0.16095389568E+02  0.30893597473E+02  0.00000000000E+00 0. -1.
</event>
<event>
 5    1  0.8943113E-005  0.9118800E+02  0.7818608E-02  0.1130116E+00
         25   -1    0    0    0    0  0.00000000000E+00  0.00000000000E+00  0.99999998245E-14  0.12500000000E+03  0.12500000000E+03 0.  0.
        -13    1    3    3    0    0  0.18994386039E+02  0.17231884544E+02 -0.28012712937E+02  0.37979570773E+02  0.10566000000E+00 0.  1.
         23    2    1    0    0    0  0.14413433234E+02 -0.28221948490E+02  0.29587256319E+01  0.93172661256E+02  0.87568061039E+02 0.  0.
         13    1    3    3    0    0 -0.45809528058E+01 -0.45453833033E+02  0.30971438569E+02  0.55193090483E+02  0.10566000000E+00 0. -1.
         22    1    1    0    0    0 -0.14413433234E+02  0.28221948490E+02 -0.29587256319E+01  0.31827338744E+02  0.00000000000E+00 0. -1.
</event>
<event>
 5    1  0.8943113E-005  0.9118800E+02  0.7818608E-02  0.1130116E+00
         25   -1    0    0    0    0  0.00000000000E+00  0.00000000000E+00  0.99999998245E-14  0.12500000000E+03  0.12500000000E+03 0.  0.
        -13    1    3    3    0    0 -0.35833441313E+02 -0.10435893161E+02 -0.98087478814E+01  0.38589714711E+02  0.10566000000E+00 0. -1.
         23    2    1    0    0    0  0.11498017697E+02 -0.19123269361E+02  0.19864600817E+02  0.95125157614E+02  0.90312177492E+02 0.  0.
         13    1    3    3    0    0  0.47331459010E+02 -0.86873761999E+01  0.29673348698E+02  0.56535442903E+02  0.10566000000E+00 0.  1.
         22    1    1    0    0    0 -0.11498017697E+02  0.19123269361E+02 -0.19864600817E+02  0.29874842386E+02  0.00000000000E+00 0.  1.
</event>
<event>
 5    1  0.8943113E-005  0.9118800E+02  0.7818608E-02  0.1130116E+00
         25   -1    0    0    0    0  0.00000000000E+00  0.00000000000E+00  0.99999998245E-14  0.12500000000E+03  0.12500000000E+03 0.  0.
        -13    1    3    3    0    0 -0.46519851001E+01 -0.46348848102E+02 -0.27313657147E+02  0.53999108479E+02  0.10566000000E+00 0. -1.
         23    2    1    0    0    0 -0.10237103198E+02 -0.26302092154E+02  0.85898160418E+01  0.95497741219E+02  0.90826402024E+02 0.  0.
         13    1    3    3    0    0 -0.55851180976E+01  0.20046755948E+02  0.35903473189E+02  0.41498632740E+02  0.10566000000E+00 0.  1.
         22    1    1    0    0    0  0.10237103198E+02  0.26302092154E+02 -0.85898160418E+01  0.29502258781E+02  0.00000000000E+00 0. -1.
</event>
<event>
 5    1  0.8943113E-005  0.9118800E+02  0.7818608E-02  0.1130116E+00
         25   -1    0    0    0    0  0.00000000000E+00  0.00000000000E+00  0.99999998245E-14  0.12500000000E+03  0.12500000000E+03 0.  0.
        -13    1    3    3    0    0  0.11955608889E+02  0.17511189280E+02 -0.41043532233E+02  0.46196980811E+02  0.10566000000E+00 0.  1.
         23    2    1    0    0    0 -0.25646583107E+02  0.10697222369E+02 -0.98792796579E+01  0.95508001796E+02  0.90840522065E+02 0.  0.
         13    1    3    3    0    0 -0.37602191996E+02 -0.68139669110E+01  0.31164252575E+02  0.49311020985E+02  0.10566000000E+00 0. -1.
         22    1    1    0    0    0  0.25646583107E+02 -0.10697222369E+02  0.98792796579E+01  0.29491998204E+02  0.00000000000E+00 0.  1.
</event>
<event>
 5    1  0.8943113E-005  0.9118800E+02  0.7818608E-02  0.1130116E+00
         25   -1    0    0    0    0  0.00000000000E+00  0.00000000000E+00  0.99999998245E-14  0.12500000000E+03  0.12500000000E+03 0.  0.
        -13    1    3    3    0    0 -0.35239164091E+02 -0.15261501306E+02 -0.27181621800E+02  0.47048526392E+02  0.10566000000E+00 0.  1.
         23    2    1    0    0    0 -0.19445689300E+02  0.15063822037E+02  0.10784785362E+02  0.98141758024E+02  0.94395124377E+02 0.  0.
         13    1    3    3    0    0  0.15793474791E+02  0.30325323343E+02  0.37966407162E+02  0.51093231633E+02  0.10566000000E+00 0. -1.
         22    1    1    0    0    0  0.19445689300E+02 -0.15063822037E+02 -0.10784785362E+02  0.26858241976E+02  0.00000000000E+00 0. -1.
</event>
<event>
 5    1  0.8943113E-005  0.9118800E+02  0.7818608E-02  0.1130116E+00
         25   -1    0    0    0    0  0.00000000000E+00  0.00000000000E+00  0.99999998245E-14  0.12500000000E+03  0.12500000000E+03 0.  0.
        -13    1    3    3    0    0 -0.50949860969E+02  0.30712815002E+02 -0.10798402018E+02  0.60463063007E+02  0.10566000000E+00 0.  1.
         23    2    1    0    0    0 -0.26779839101E+02  0.52773225869E+01 -0.11053387626E+02  0.95551956025E+02  0.90900984627E+02 0.  0.
         13    1    3    3    0    0  0.24170021868E+02 -0.25435492415E+02 -0.25498560824E+00  0.35088893017E+02  0.10566000000E+00 0. -1.
         22    1    1    0    0    0  0.26779839101E+02 -0.52773225869E+01  0.11053387626E+02  0.29448043975E+02  0.00000000000E+00 0.  1.
</event>
<event>
 5    1  0.8943113E-005  0.9118800E+02  0.7818608E-02  0.1130116E+00
         25   -1    0    0    0    0  0.00000000000E+00  0.00000000000E+00  0.99999998245E-14  0.12500000000E+03  0.12500000000E+03 0.  0.
        -13    1    3    3    0    0 -0.18684990164E+02 -0.28442224498E+02 -0.10256598988E+02  0.35542903352E+02  0.10566000000E+00 0.  1.
         23    2    1    0    0    0  0.25448261752E+02 -0.32822650104E+01  0.17983993029E+02  0.93666131821E+02  0.88269660446E+02 0.  0.
         13    1    3    3    0    0  0.44133251916E+02  0.25159959488E+02  0.28240592017E+02  0.58123228469E+02  0.10566000000E+00 0. -1.
         22    1    1    0    0    0 -0.25448261752E+02  0.32822650104E+01 -0.17983993029E+02  0.31333868179E+02  0.00000000000E+00 0. -1.
</event>
<event>
 5    1  0.8943113E-005  0.9118800E+02  0.7818608E-02  0.1130116E+00
         25   -1    0    0    0    0  0.00000000000E+00  0.00000000000E+00  0.99999998245E-14  0.12500000000E+03  0.12500000000E+03 0.  0.
        -13    1    3    3    0    0  0.33984770348E+02  0.35503847743E+02 -0.37765282786E+02  0.61981574425E+02  0.10566000000E+00 0. -1.
         23    2    1    0    0    0  0.14966189178E+02  0.20707191180E+02 -0.13821464972E+02  0.95951635519E+02  0.91448941381E+02 0.  0.
         13    1    3    3    0    0 -0.19018581171E+02 -0.14796656563E+02  0.23943817814E+02  0.33970061095E+02  0.10566000000E+00 0.  1.
         22    1    1    0    0    0 -0.14966189178E+02 -0.20707191180E+02  0.13821464972E+02  0.29048364481E+02  0.00000000000E+00 0. -1.
</event>
<event>
 5    1  0.8943113E-005  0.9118800E+02  0.7818608E-02  0.1130116E+00
         25   -1    0    0    0    0  0.00000000000E+00  0.00000000000E+00  0.99999998245E-14  0.12500000000E+03  0.12500000000E+03 0.  0.
        -13    1    3    3    0    0  0.45896309536E+02  0.36239523372E+02  0.21232855358E+02  0.62214303774E+02  0.10566000000E+00 0.  1.
         23    2    1    0    0    0  0.23535114046E+02  0.13250825107E+02  0.92257087977E+01  0.96458807629E+02  0.92139578397E+02 0.  0.
         13    1    3    3    0    0 -0.22361195491E+02 -0.22988698266E+02 -0.12007146561E+02  0.34244503855E+02  0.10566000000E+00 0. -1.
         22    1    1    0    0    0 -0.23535114046E+02 -0.13250825107E+02 -0.92257087977E+01  0.28541192371E+02  0.00000000000E+00 0.  1.
</event>
<event>
 5    1  0.8943113E-005  0.9118800E+02  0.7818608E-02  0.1130116E+00
         25   -1    0    0    0    0  0.00000000000E+00  0.00000000000E+00  0.99999998245E-14  0.12500000000E+03  0.12500000000E+03 0.  0.
        -13    1    3    3    0    0 -0.70548283775E+01  0.42647225689E+02 -0.11444379601E+02  0.44716232521E+02  0.10566000000E+00 0. -1.
         23    2    1    0    0    0 -0.29389261375E+02  0.16299229929E+01  0.66859229573E+01  0.94815783944E+02  0.89882957149E+02 0.  0.
         13    1    3    3    0    0 -0.22334432998E+02 -0.41017302696E+02  0.18130302558E+02  0.50099551422E+02  0.10566000000E+00 0.  1.
         22    1    1    0    0    0  0.29389261375E+02 -0.16299229929E+01 -0.66859229573E+01  0.30184216056E+02  0.00000000000E+00 0.  1.
</event>
<event>
 5    1  0.8943113E-005  0.9118800E+02  0.7818608E-02  0.1130116E+00
         25   -1    0    0    0    0  0.00000000000E+00  0.00000000000E+00  0.99999998245E-14  0.12500000000E+03  0.12500000000E+03 0.  0.
        -13    1    3    3    0    0  0.13198451420E+02 -0.32528561877E+01 -0.51212642052E+02  0.52986093111E+02  0.10566000000E+00 0. -1.
         23    2    1    0    0    0  0.47675608980E+01  0.22458560734E+02 -0.29117182855E+02  0.87919992927E+02  0.79718242778E+02 0.  0.
         13    1    3    3    0    0 -0.84308905224E+01  0.25711416922E+02  0.22095459197E+02  0.34933899815E+02  0.10566000000E+00 0.  1.
         22    1    1    0    0    0 -0.47675608980E+01 -0.22458560734E+02  0.29117182855E+02  0.37080007073E+02  0.00000000000E+00 0. -1.
</event>
<event>
 5    1  0.8943113E-005  0.9118800E+02  0.7818608E-02  0.1130116E+00
         25   -1    0    0    0    0  0.00000000000E+00  0.00000000000E+00  0.99999998245E-14  0.12500000000E+03  0.12500000000E+03 0.  0.
        -13    1    3    3    0    0  0.36292944750E+02  0.35385170787E+01 -0.87368435261E+01  0.37497233772E+02  0.10566000000E+00 0. -1.
         23    2    1    0    0    0 -0.14541079522E+02  0.13416325571E+02  0.20122014008E+02  0.96780569934E+02  0.92575064048E+02 0.  0.
         13    1    3    3    0    0 -0.50834024272E+02  0.98778084922E+01  0.28858857534E+02  0.59283336162E+02  0.10566000000E+00 0.  1.
         22    1    1    0    0    0  0.14541079522E+02 -0.13416325571E+02 -0.20122014008E+02  0.28219430066E+02  0.00000000000E+00 0.  1.
</event>
<event>
 5    1  0.8943113E-005  0.9118800E+02  0.7818608E-02  0.1130116E+00
         25   -1    0    0    0    0  0.00000000000E+00  0.00000000000E+00  0.99999998245E-14  0.12500000000E+03  0.12500000000E+03 0.  0.
        -13    1    3    3    0    0 -0.10514778068E+02  0.21163071940E+02 -0.49079363254E+02  0.54472297852E+02  0.10566000000E+00 0. -1.
         23    2    1    0    0    0 -0.23016967434E+01 -0.12796968909E+02 -0.24733244696E+02  0.97057315548E+02  0.92947990226E+02 0.  0.
         13    1    3    3    0    0  0.82130813242E+01 -0.33960040850E+02  0.24346118558E+02  0.42585017696E+02  0.10566000000E+00 0.  1.
         22    1    1    0    0    0  0.23016967434E+01  0.12796968909E+02  0.24733244696E+02  0.27942684452E+02  0.00000000000E+00 0. -1.
</event>
<event>
 5    1  0.8943113E-005  0.9118800E+02  0.7818608E-02  0.1130116E+00
         25   -1    0    0    0    0  0.00000000000E+00  0.00000000000E+00  0.99999998245E-14  0.12500000000E+03  0.12500000000E+03 0.  0.
        -13    1    3    3    0    0 -0.60121975607E+02  0.36726363606E+01 -0.84716244382E+01  0.60826966005E+02  0.10566000000E+00 0.  1.
         23    2    1    0    0    0 -0.18400589526E+02 -0.37147864354E+00 -0.12215169690E+02  0.10291086100E+03  0.10051226417E+03 0.  0.
         13    1    3    3    0    0  0.41721386081E+02 -0.40441150041E+01 -0.37435452513E+01  0.42083894993E+02  0.10566000000E+00 0. -1.
         22    1    1    0    0    0  0.18400589526E+02  0.37147864354E+00  0.12215169690E+02  0.22089139002E+02  0.00000000000E+00 0.  1.
</event>
<event>
 5    1  0.8943113E-005  0.9118800E+02  0.7818608E-02  0.1130116E+00
         25   -1    0    0    0    0  0.00000000000E+00  0.00000000000E+00  0.99999998245E-14  0.12500000000E+03  0.12500000000E+03 0.  0.
        -13    1    3    3    0    0  0.28871886014E+02  0.24552752750E+02 -0.32194448210E+02  0.49728433810E+02  0.10566000000E+00 0.  1.
         23    2    1    0    0    0  0.20474510372E+01  0.30251567234E+02  0.32082066078E+01  0.94509969408E+02  0.89456650686E+02 0.  0.
         13    1    3    3    0    0 -0.26824434977E+02  0.56988144841E+01  0.35402654818E+02  0.44781535598E+02  0.10566000000E+00 0. -1.
         22    1    1    0    0    0 -0.20474510372E+01 -0.30251567234E+02 -0.32082066078E+01  0.30490030592E+02  0.00000000000E+00 0. -1.
</event>
<event>
 5    1  0.8943113E-005  0.9118800E+02  0.7818608E-02  0.1130116E+00
         25   -1    0    0    0    0  0.00000000000E+00  0.00000000000E+00  0.99999998245E-14  0.12500000000E+03  0.12500000000E+03 0.  0.
        -13    1    3    3    0    0  0.23375958718E+02 -0.21584089725E+02  0.15370425322E+02  0.35335103139E+02  0.10566000000E+00 0. -1.
         23    2    1    0    0    0 -0.21440036349E+02  0.17520978306E+02  0.11743079400E+02  0.94924100126E+02  0.90033466175E+02 0.  0.
         13    1    3    3    0    0 -0.44815995066E+02  0.39105068031E+02 -0.36273459223E+01  0.59588996987E+02  0.10566000000E+00 0.  1.
         22    1    1    0    0    0  0.21440036349E+02 -0.17520978306E+02 -0.11743079400E+02  0.30075899874E+02  0.00000000000E+00 0.  1.
</event>
<event>
 5    1  0.8943113E-005  0.9118800E+02  0.7818608E-02  0.1130116E+00
         25   -1    0    0    0    0  0.00000000000E+00  0.00000000000E+00  0.99999998245E-14  0.12500000000E+03  0.12500000000E+03 0.  0.
        -13    1    3    3    0    0 -0.42952204979E+02  0.25572775764E+02  0.19128148500E+02  0.53523415454E+02  0.10566000000E+00 0.  1.
         23    2    1    0    0    0 -0.16603233587E+02  0.19347897028E+02 -0.13684777966E+02  0.96064180798E+02  0.91602648430E+02 0.  0.
         13    1    3    3    0    0  0.26348971392E+02 -0.62248787362E+01 -0.32812926466E+02  0.42540765343E+02  0.10566000000E+00 0. -1.
         22    1    1    0    0    0  0.16603233587E+02 -0.19347897028E+02  0.13684777966E+02  0.28935819202E+02  0.00000000000E+00 0.  1.
</event>
<event>
 5    1  0.8943113E-005  0.9118800E+02  0.7818608E-02  0.1130116E+00
         25   -1    0    0    0    0  0.00000000000E+00  0.00000000000E+00  0.99999998245E-14  0.12500000000E+03  0.12500000000E+03 0.  0.
        -13    1    3    3    0    0  0.33906577757E+02  0.67625987527E+01  0.15488187141E+02  0.37885140386E+02  0.10566000000E+00 0. -1.
         23    2    1    0    0    0 -0.16371358658E+02  0.10135259442E+02  0.29122163830E+02  0.90088035082E+02  0.83048231592E+02 0.  0.
         13    1    3    3    0    0 -0.50277936416E+02  0.33726606889E+01  0.13633976689E+02  0.52202894697E+02  0.10566000000E+00 0.  1.
         22    1    1    0    0    0  0.16371358658E+02 -0.10135259442E+02 -0.29122163830E+02  0.34911964918E+02  0.00000000000E+00 0. -1.
</event>
<event>
 5    1  0.8943113E-005  0.9118800E+02  0.7818608E-02  0.1130116E+00
         25   -1    0    0    0    0  0.00000000000E+00  0.00000000000E+00  0.99999998245E-14  0.12500000000E+03  0.12500000000E+03 0.  0.
        -13    1    3    3    0    0  0.14348442394E+02 -0.15064952704E+02  0.26359227252E+02  0.33580509592E+02  0.10566000000E+00 0.  1.
         23    2    1    0    0    0 -0.15118529526E+02  0.11946397910E+02 -0.21626300237E+02  0.96034792940E+02  0.91562537291E+02 0.  0.
         13    1    3    3    0    0 -0.29466971920E+02  0.27011350613E+02 -0.47985527489E+02  0.62454283348E+02  0.10566000000E+00 0. -1.
         22    1    1    0    0    0  0.15118529526E+02 -0.11946397910E+02  0.21626300237E+02  0.28965207060E+02  0.00000000000E+00 0. -1.
</event>
<event>
 5    1  0.8943113E-005  0.9118800E+02  0.7818608E-02  0.1130116E+00
         25   -1    0    0    0    0  0.00000000000E+00  0.00000000000E+00  0.99999998245E-14  0.12500000000E+03  0.12500000000E+03 0.  0.
        -13    1    3    3    0    0  0.37932627720E+02  0.66530444912E+01 -0.78525005099E+01  0.39304200476E+02  0.10566000000E+00 0. -1.
         23    2    1    0    0    0 -0.57090728443E+01  0.18197437474E+02  0.23846417502E+02  0.94464907548E+02  0.89393662455E+02 0.  0.
         13    1    3    3    0    0 -0.43641700565E+02  0.11544392982E+02  0.31698918012E+02  0.55160707072E+02  0.10566000000E+00 0.  1.
         22    1    1    0    0    0  0.57090728443E+01 -0.18197437474E+02 -0.23846417502E+02  0.30535092452E+02  0.00000000000E+00 0.  1.
</event>
<event>
 5    1  0.8943113E-005  0.9118800E+02  0.7818608E-02  0.1130116E+00
         25   -1    0    0    0    0  0.00000000000E+00  0.00000000000E+00  0.99999998245E-14  0.12500000000E+03  0.12500000000E+03 0.  0.
        -13    1    3    3    0    0 -0.41826986294E+02 -0.39088130762E+02  0.24864400481E+02  0.62414968751E+02  0.10566000000E+00 0.  1.
         23    2    1    0    0    0 -0.20722203996E+02 -0.16229838550E+02  0.11216458298E+02  0.96388353166E+02  0.92043947609E+02 0.  0.
         13    1    3    3    0    0  0.21104782298E+02  0.22858292212E+02 -0.13647942183E+02  0.33973384414E+02  0.10566000000E+00 0. -1.
         22    1    1    0    0    0  0.20722203996E+02  0.16229838550E+02 -0.11216458298E+02  0.28611646834E+02  0.00000000000E+00 0.  1.
</event>
<event>
 5    1  0.8943113E-005  0.9118800E+02  0.7818608E-02  0.1130116E+00
         25   -1    0    0    0    0  0.00000000000E+00  0.00000000000E+00  0.99999998245E-14  0.12500000000E+03  0.12500000000E+03 0.  0.
        -13    1    3    3    0    0 -0.32063094149E+02  0.32659694709E+02  0.61363244214E+01  0.46177519491E+02  0.10566000000E+00 0.  1.
         23    2    1    0    0    0 -0.24395433439E+02 -0.15801451024E+02  0.63797863796E+01  0.95242232924E+02  0.90474074911E+02 0.  0.
         13    1    3    3    0    0  0.76676607101E+01 -0.48461145733E+02  0.24346195820E+00  0.49064713433E+02  0.10566000000E+00 0. -1.
         22    1    1    0    0    0  0.24395433439E+02  0.15801451024E+02 -0.63797863796E+01  0.29757767076E+02  0.00000000000E+00 0. -1.
</event>
<event>
 5    1  0.8943113E-005  0.9118800E+02  0.7818608E-02  0.1130116E+00
         25   -1    0    0    0    0  0.00000000000E+00  0.00000000000E+00  0.99999998245E-14  0.12500000000E+03  0.12500000000E+03 0.  0.
        -13    1    3    3    0    0 -0.52661783677E+02 -0.22757903903E+02  0.11566903123E+02  0.58523414647E+02  0.10566000000E+00 0. -1.
         23    2    1    0    0    0 -0.15798802120E+02 -0.19307162847E+02  0.15298801271E+02  0.95735311279E+02  0.91152771871E+02 0.  0.
         13    1    3    3    0    0  0.36862981557E+02  0.34507410560E+01  0.37318981477E+01  0.37211896632E+02  0.10566000000E+00 0.  1.
         22    1    1    0    0    0  0.15798802120E+02  0.19307162847E+02 -0.15298801271E+02  0.29264688721E+02  0.00000000000E+00 0. -1.
</event>
<event>
 5    1  0.8943113E-005  0.9118800E+02  0.7818608E-02  0.1130116E+00
         25   -1    0    0    0    0  0.00000000000E+00  0.00000000000E+00  0.99999998245E-14  0.12500000000E+03  0.12500000000E+03 0.  0.
        -13    1    3    3    0    0  0.30261819246E+01 -0.38500741588E+02 -0.67586945600E+01  0.39206581030E+02  0.10566000000E+00 0.  1.
         23    2    1    0    0    0 -0.29049975340E+02  0.22122318656E+01  0.10796566525E+02  0.93929742746E+02  0.88642177808E+02 0.  0.
         13    1    3    3    0    0 -0.32076157265E+02  0.40712973454E+02  0.17555261085E+02  0.54723161716E+02  0.10566000000E+00 0. -1.
         22    1    1    0    0    0  0.29049975340E+02 -0.22122318656E+01 -0.10796566525E+02  0.31070257254E+02  0.00000000000E+00 0. -1.
</event>
<event>
 5    1  0.8943113E-005  0.9118800E+02  0.7818608E-02  0.1130116E+00
         25   -1    0    0    0    0  0.00000000000E+00  0.00000000000E+00  0.99999998245E-14  0.12500000000E+03  0.12500000000E+03 0.  0.
        -13    1    3    3    0    0 -0.30238490256E+02 -0.41997490895E+02  0.14318725215E+02  0.53695368424E+02  0.10566000000E+00 0. -1.
         23    2    1    0    0    0 -0.78105022841E-02 -0.14629333932E+02  0.25164633080E+02  0.95891990272E+02  0.91367376935E+02 0.  0.
         13    1    3    3    0    0  0.30230679754E+02  0.27368156963E+02  0.10845907864E+02  0.42196621848E+02  0.10566000000E+00 0.  1.
         22    1    1    0    0    0  0.78105022841E-02  0.14629333932E+02 -0.25164633080E+02  0.29108009728E+02  0.00000000000E+00 0.  1.
</event>
<event>
 5    1  0.8943113E-005  0.9118800E+02  0.7818608E-02  0.1130116E+00
         25   -1    0    0    0    0  0.00000000000E+00  0.00000000000E+00  0.99999998245E-14  0.12500000000E+03  0.12500000000E+03 0.  0.
        -13    1    3    3    0    0  0.10869224769E+02  0.27800906819E+02  0.37219280543E+02  0.47710758485E+02  0.10566000000E+00 0.  1.
         23    2    1    0    0    0 -0.23481791976E+01  0.27227389752E+02 -0.93448600870E+01  0.96117979497E+02  0.91676032169E+02 0.  0.
         13    1    3    3    0    0 -0.13217403966E+02 -0.57351706660E+00 -0.46564140630E+02  0.48407221012E+02  0.10566000000E+00 0. -1.
         22    1    1    0    0    0  0.23481791976E+01 -0.27227389752E+02  0.93448600870E+01  0.28882020503E+02  0.00000000000E+00 0. -1.
</event>
<event>
 5    1  0.8943113E-005  0.9118800E+02  0.7818608E-02  0.1130116E+00
         25   -1    0    0    0    0  0.00000000000E+00  0.00000000000E+00  0.99999998245E-14  0.12500000000E+03  0.12500000000E+03 0.  0.
        -13    1    3    3    0    0  0.24924791039E+02  0.88484578798E+01 -0.49931001411E+02  0.56503597064E+02  0.10566000000E+00 0.  1.
         23    2    1    0    0    0  0.73683082148E+01 -0.14876360700E+02 -0.24161316028E+02  0.95685033416E+02  0.91083798526E+02 0.  0.
         13    1    3    3    0    0 -0.17556482824E+02 -0.23724818580E+02  0.25769685383E+02  0.39181436352E+02  0.10566000000E+00 0. -1.
         22    1    1    0    0    0 -0.73683082148E+01  0.14876360700E+02  0.24161316028E+02  0.29314966584E+02  0.00000000000E+00 0.  1.
</event>
<event>
 5    1  0.8943113E-005  0.9118800E+02  0.7818608E-02  0.1130116E+00
         25   -1    0    0    0    0  0.00000000000E+00  0.00000000000E+00  0.99999998245E-14  0.12500000000E+03  0.12500000000E+03 0.  0.
        -13    1    3    3    0    0  0.66890842583E+01 -0.18414784711E+02  0.41751872912E+02  0.46120258020E+02  0.10566000000E+00 0. -1.
         23    2    1    0    0    0  0.54660431146E+01  0.23937203675E+02  0.15148885852E+02  0.96149417863E+02  0.91718888271E+02 0.  0.
         13    1    3    3    0    0 -0.12230411437E+01  0.42351988387E+02 -0.26602987060E+02  0.50029159842E+02  0.10566000000E+00 0.  1.
         22    1    1    0    0    0 -0.54660431146E+01 -0.23937203675E+02 -0.15148885852E+02  0.28850582137E+02  0.00000000000E+00 0.  1.
</event>
<event>
 5    1  0.8943113E-005  0.9118800E+02  0.7818608E-02  0.1130116E+00
         25   -1    0    0    0    0  0.00000000000E+00  0.00000000000E+00  0.99999998245E-14  0.12500000000E+03  0.12500000000E+03 0.  0.
        -13    1    3    3    0    0 -0.40255082899E+02  0.43011324281E+02  0.10105678406E+02  0.59771076748E+02  0.10566000000E+00 0.  1.
         23    2    1    0    0    0 -0.75122483228E+01  0.26847845925E+02  0.56113754062E+01  0.96561852387E+02  0.92279266885E+02 0.  0.
         13    1    3    3    0    0  0.32742834576E+02 -0.16163478356E+02 -0.44943030001E+01  0.36790775639E+02  0.10566000000E+00 0. -1.
         22    1    1    0    0    0  0.75122483228E+01 -0.26847845925E+02 -0.56113754062E+01  0.28438147613E+02  0.00000000000E+00 0.  1.
</event>
<event>
 5    1  0.8943113E-005  0.9118800E+02  0.7818608E-02  0.1130116E+00
         25   -1    0    0    0    0  0.00000000000E+00  0.00000000000E+00  0.99999998245E-14  0.12500000000E+03  0.12500000000E+03 0.  0.
        -13    1    3    3    0    0 -0.23734551467E+02  0.54438034238E+02 -0.38175013739E+01  0.59509772187E+02  0.10566000000E+00 0.  1.
         23    2    1    0    0    0 -0.34193201242E+01  0.39142519439E+02  0.22176938430E+01  0.85645880214E+02  0.76068850743E+02 0.  0.
         13    1    3    3    0    0  0.20315231342E+02 -0.15295514798E+02  0.60351952169E+01  0.26136108027E+02  0.10566000000E+00 0. -1.
         22    1    1    0    0    0  0.34193201242E+01 -0.39142519439E+02 -0.22176938430E+01  0.39354119786E+02  0.00000000000E+00 0.  1.
</event>
<event>
 5    1  0.8943113E-005  0.9118800E+02  0.7818608E-02  0.1130116E+00
         25   -1    0    0    0    0  0.00000000000E+00  0.00000000000E+00  0.99999998245E-14  0.12500000000E+03  0.12500000000E+03 0.  0.
        -13    1    3    3    0    0 -0.40438065221E+02  0.22856492926E+02 -0.10456883128E+02  0.47613169990E+02  0.10566000000E+00 0. -1.
         23    2    1    0    0    0 -0.17163968820E+02  0.20367673914E+00  0.24342536777E+02  0.95214056896E+02  0.90435138216E+02 0.  0.
         13    1    3    3    0    0  0.23274096402E+02 -0.22652816187E+02  0.34799419904E+02  0.47600886906E+02  0.10566000000E+00 0.  1.
         22    1    1    0    0    0  0.17163968820E+02 -0.20367673914E+00 -0.24342536777E+02  0.29785943104E+02  0.00000000000E+00 0.  1.
</event>
<event>
 5    1  0.8943113E-005  0.9118800E+02  0.7818608E-02  0.1130116E+00
         25   -1    0    0    0    0  0.00000000000E+00  0.00000000000E+00  0.99999998245E-14  0.12500000000E+03  0.12500000000E+03 0.  0.
        -13    1    3    3    0    0  0.21677837786E+02 -0.17890511176E+02  0.26618475629E+02  0.38711154078E+02  0.10566000000E+00 0. -1.
         23    2    1    0    0    0  0.10651081470E+02  0.25726826435E+02  0.30297270643E+02  0.83851005562E+02  0.73059916441E+02 0.  0.
         13    1    3    3    0    0 -0.11026756316E+02  0.43617337611E+02  0.36787950140E+01  0.45139851483E+02  0.10566000000E+00 0.  1.
         22    1    1    0    0    0 -0.10651081470E+02 -0.25726826435E+02 -0.30297270643E+02  0.41148994438E+02  0.00000000000E+00 0. -1.
</event>
<event>
 5    1  0.8943113E-005  0.9118800E+02  0.7818608E-02  0.1130116E+00
         25   -1    0    0    0    0  0.00000000000E+00  0.00000000000E+00  0.99999998245E-14  0.12500000000E+03  0.12500000000E+03 0.  0.
        -13    1    3    3    0    0  0.25369076043E+01 -0.24355292769E+02 -0.28391195646E+02  0.37492497120E+02  0.10566000000E+00 0. -1.
         23    2    1    0    0    0 -0.22584139734E+02  0.18890149585E+02  0.10706213565E+01  0.95537696136E+02  0.90881373416E+02 0.  0.
         13    1    3    3    0    0 -0.25121047338E+02  0.43245442354E+02  0.29461817002E+02  0.58045199016E+02  0.10566000000E+00 0.  1.
         22    1    1    0    0    0  0.22584139734E+02 -0.18890149585E+02 -0.10706213565E+01  0.29462303864E+02  0.00000000000E+00 0.  1.
</event>
<event>
 5    1  0.8943113E-005  0.9118800E+02  0.7818608E-02  0.1130116E+00
         25   -1    0    0    0    0  0.00000000000E+00  0.00000000000E+00  0.99999998245E-14  0.12500000000E+03  0.12500000000E+03 0.  0.
        -13    1    3    3    0    0  0.27796516138E+02 -0.32324639460E+02  0.10006765480E+02  0.43791267908E+02  0.10566000000E+00 0.  1.
         23    2    1    0    0    0 -0.48295128430E+01  0.32712555885E+01  0.28807182818E+02  0.95608179891E+02  0.90978266486E+02 0.  0.
         13    1    3    3    0    0 -0.32626028981E+02  0.35595895048E+02  0.18800417338E+02  0.51816911983E+02  0.10566000000E+00 0. -1.
         22    1    1    0    0    0  0.48295128430E+01 -0.32712555885E+01 -0.28807182818E+02  0.29391820109E+02  0.00000000000E+00 0. -1.
</event>
<event>
 5    1  0.8943113E-005  0.9118800E+02  0.7818608E-02  0.1130116E+00
         25   -1    0    0    0    0  0.00000000000E+00  0.00000000000E+00  0.99999998245E-14  0.12500000000E+03  0.12500000000E+03 0.  0.
        -13    1    3    3    0    0  0.12363196782E+02  0.28284028528E+02  0.27818334095E+02  0.41553649422E+02  0.10566000000E+00 0. -1.
         23    2    1    0    0    0 -0.25685542558E+02  0.13721324970E+02 -0.68910345888E+01  0.95074956756E+02  0.90242668339E+02 0.  0.
         13    1    3    3    0    0 -0.38048739340E+02 -0.14562703558E+02 -0.34709368684E+02  0.53521307334E+02  0.10566000000E+00 0.  1.
         22    1    1    0    0    0  0.25685542558E+02 -0.13721324970E+02  0.68910345888E+01  0.29925043244E+02  0.00000000000E+00 0.  1.
</event>
<event>
 5    1  0.8943113E-005  0.9118800E+02  0.7818608E-02  0.1130116E+00
         25   -1    0    0    0    0  0.00000000000E+00  0.00000000000E+00  0.99999998245E-14  0.12500000000E+03  0.12500000000E+03 0.  0.
        -13    1    3    3    0    0 -0.55527819535E+00 -0.44602296456E+02  0.13830302972E+02  0.46700766882E+02  0.10566000000E+00 0. -1.
         23    2    1    0    0    0  0.16933029741E+02 -0.14536320428E+02 -0.19861202505E+02  0.95125270332E+02  0.90312333504E+02 0.  0.
         13    1    3    3    0    0  0.17488307936E+02  0.30065976028E+02 -0.33691505478E+02  0.48424503450E+02  0.10566000000E+00 0.  1.
         22    1    1    0    0    0 -0.16933029741E+02  0.14536320428E+02  0.19861202505E+02  0.29874729668E+02  0.00000000000E+00 0.  1.
</event>
<event>
 5    1  0.8943113E-005  0.9118800E+02  0.7818608E-02  0.1130116E+00
         25   -1    0    0    0    0  0.00000000000E+00  0.00000000000E+00  0.99999998245E-14  0.12500000000E+03  0.12500000000E+03 0.  0.
        -13    1    3    3    0    0  0.20026773455E+02  0.45982059753E+02 -0.15763604252E+02  0.52573033555E+02  0.10566000000E+00 0. -1.
         23    2    1    0    0    0  0.26891624359E+02  0.54951154036E+01  0.23434313946E+01  0.97452814578E+02  0.93478359231E+02 0.  0.
         13    1    3    3    0    0  0.68648509042E+01 -0.40486944350E+02  0.18107035647E+02  0.44879781023E+02  0.10566000000E+00 0.  1.
         22    1    1    0    0    0 -0.26891624359E+02 -0.54951154036E+01 -0.23434313946E+01  0.27547185422E+02  0.00000000000E+00 0. -1.
</event>
<event>
 5    1  0.8943113E-005  0.9118800E+02  0.7818608E-02  0.1130116E+00
         25   -1    0    0    0    0  0.00000000000E+00  0.00000000000E+00  0.99999998245E-14  0.12500000000E+03  0.12500000000E+03 0.  0.
        -13    1    3    3    0    0  0.41320088994E+02 -0.27659469653E+01 -0.12009222258E+02  0.43118821880E+02  0.10566000000E+00 0.  1.
         23    2    1    0    0    0 -0.20642556035E+01  0.26351714964E+02 -0.13353466008E+02  0.95385998460E+02  0.90672485436E+02 0.  0.
         13    1    3    3    0    0 -0.43384344597E+02  0.29117661930E+02 -0.13442437501E+01  0.52267176580E+02  0.10566000000E+00 0. -1.
         22    1    1    0    0    0  0.20642556035E+01 -0.26351714964E+02  0.13353466008E+02  0.29614001540E+02  0.00000000000E+00 0. -1.
</event>
<event>
 5    1  0.8943113E-005  0.9118800E+02  0.7818608E-02  0.1130116E+00
         25   -1    0    0    0    0  0.00000000000E+00  0.00000000000E+00  0.99999998245E-14  0.12500000000E+03  0.12500000000E+03 0.  0.
        -13    1    3    3    0    0  0.48128134380E+02  0.38592230502E+02 -0.32644239287E+01  0.61776574862E+02  0.10566000000E+00 0.  1.
         23    2    1    0    0    0  0.18831436997E+02  0.22946958956E+02 -0.43000286612E+01  0.95005397299E+02  0.90146266283E+02 0.  0.
         13    1    3    3    0    0 -0.29296697383E+02 -0.15645271546E+02 -0.10356047326E+01  0.33228822437E+02  0.10566000000E+00 0. -1.
         22    1    1    0    0    0 -0.18831436997E+02 -0.22946958956E+02  0.43000286612E+01  0.29994602701E+02  0.00000000000E+00 0.  1.
</event>
<event>
 5    1  0.8943113E-005  0.9118800E+02  0.7818608E-02  0.1130116E+00
         25   -1    0    0    0    0  0.00000000000E+00  0.00000000000E+00  0.99999998245E-14  0.12500000000E+03  0.12500000000E+03 0.  0.
        -13    1    3    3    0    0 -0.31741051639E+02  0.21985230536E+02  0.69081564376E-01  0.38611664781E+02  0.10566000000E+00 0.  1.
         23    2    1    0    0    0  0.40964634533E+01 -0.10314819745E+02  0.28363764356E+02  0.94542166071E+02  0.89501628576E+02 0.  0.
         13    1    3    3    0    0  0.35837515092E+02 -0.32300050281E+02  0.28294682792E+02  0.55930501289E+02  0.10566000000E+00 0. -1.
         22    1    1    0    0    0 -0.40964634533E+01  0.10314819745E+02 -0.28363764356E+02  0.30457833929E+02  0.00000000000E+00 0. -1.
</event>
<event>
 5    1  0.8943113E-005  0.9118800E+02  0.7818608E-02  0.1130116E+00
         25   -1    0    0    0    0  0.00000000000E+00  0.00000000000E+00  0.99999998245E-14  0.12500000000E+03  0.12500000000E+03 0.  0.
        -13    1    3    3    0    0  0.16517732017E+02 -0.15574309069E+02 -0.22891064876E+02  0.32239829236E+02  0.10566000000E+00 0.  1.
         23    2    1    0    0    0 -0.98283224035E+01  0.19297688961E+02  0.21463421850E+02  0.94509424440E+02  0.89455889185E+02 0.  0.
         13    1    3    3    0    0 -0.26346054420E+02  0.34871998030E+02  0.44354486726E+02  0.62269595204E+02  0.10566000000E+00 0. -1.
         22    1    1    0    0    0  0.98283224035E+01 -0.19297688961E+02 -0.21463421850E+02  0.30490575560E+02  0.00000000000E+00 0. -1.
</event>
<event>
 5    1  0.8943113E-005  0.9118800E+02  0.7818608E-02  0.1130116E+00
         25   -1    0    0    0    0  0.00000000000E+00  0.00000000000E+00  0.99999998245E-14  0.12500000000E+03  0.12500000000E+03 0.  0.
        -13    1    3    3    0    0  0.19656234473E+02  0.15493543838E+02 -0.31996218649E+02  0.40622489167E+02  0.10566000000E+00 0. -1.
         23    2    1    0    0    0  0.18188473635E+02 -0.13095611496E+02  0.16658909843E+02  0.97074475998E+02  0.92971065389E+02 0.  0.
         13    1    3    3    0    0 -0.14677608372E+01 -0.28589155333E+02  0.48655128492E+02  0.56451986831E+02  0.10566000000E+00 0.  1.
         22    1    1    0    0    0 -0.18188473635E+02  0.13095611496E+02 -0.16658909843E+02  0.27925524002E+02  0.00000000000E+00 0.  1.
</event>
<event>
 5    1  0.8943113E-005  0.9118800E+02  0.7818608E-02  0.1130116E+00
         25   -1    0    0    0    0  0.00000000000E+00  0.00000000000E+00  0.99999998245E-14  0.12500000000E+03  0.12500000000E+03 0.  0.
        -13    1    3    3    0    0  0.17314147862E+02  0.15724974060E+01 -0.58082433145E+02  0.60628645609E+02  0.10566000000E+00 0. -1.
         23    2    1    0    0    0  0.11025240644E+02  0.11040823286E+02 -0.25858343315E+02  0.94798847222E+02  0.89859400207E+02 0.  0.
         13    1    3    3    0    0 -0.62889072178E+01  0.94683258797E+01  0.32224089829E+02  0.34170201614E+02  0.10566000000E+00 0.  1.
         22    1    1    0    0    0 -0.11025240644E+02 -0.11040823286E+02  0.25858343315E+02  0.30201152778E+02  0.00000000000E+00 0. -1.
</event>
<event>
 5    1  0.8943113E-005  0.9118800E+02  0.7818608E-02  0.1130116E+00
         25   -1    0    0    0    0  0.00000000000E+00  0.00000000000E+00  0.99999998245E-14  0.12500000000E+03  0.12500000000E+03 0.  0.
        -13    1    3    3    0    0 -0.10575359083E+02  0.41455500282E+02  0.37378861800E+01  0.42946241751E+02  0.10566000000E+00 0. -1.
         23    2    1    0    0    0 -0.94379248437E+01 -0.77305859318E+01  0.25490962466E+02  0.96740036241E+02  0.92520317013E+02 0.  0.
         13    1    3    3    0    0  0.11374342395E+01 -0.49186086214E+02  0.21753076286E+02  0.53793794490E+02  0.10566000000E+00 0.  1.
         22    1    1    0    0    0  0.94379248437E+01  0.77305859318E+01 -0.25490962466E+02  0.28259963759E+02  0.00000000000E+00 0.  1.
</event>
<event>
 5    1  0.8943113E-005  0.9118800E+02  0.7818608E-02  0.1130116E+00
         25   -1    0    0    0    0  0.00000000000E+00  0.00000000000E+00  0.99999998245E-14  0.12500000000E+03  0.12500000000E+03 0.  0.
        -13    1    3    3    0    0 -0.39121624105E+02 -0.93420384473E+01 -0.22448352417E+02  0.46062075998E+02  0.10566000000E+00 0.  1.
         23    2    1    0    0    0  0.93780758244E+01 -0.22098475200E+02 -0.14818880455E+02  0.96788475222E+02  0.92585737592E+02 0.  0.
         13    1    3    3    0    0  0.48499699929E+02 -0.12756436753E+02  0.76294719612E+01  0.50726399225E+02  0.10566000000E+00 0. -1.
         22    1    1    0    0    0 -0.93780758244E+01  0.22098475200E+02  0.14818880455E+02  0.28211524778E+02  0.00000000000E+00 0. -1.
</event>
<event>
 5    1  0.8943113E-005  0.9118800E+02  0.7818608E-02  0.1130116E+00
         25   -1    0    0    0    0  0.00000000000E+00  0.00000000000E+00  0.99999998245E-14  0.12500000000E+03  0.12500000000E+03 0.  0.
        -13    1    3    3    0    0 -0.38974715738E+02  0.68555379940E+01  0.20886480586E+02  0.44746878141E+02  0.10566000000E+00 0.  1.
         23    2    1    0    0    0  0.59682386591E+01 -0.15891066255E+02  0.24439730683E+02  0.95243550358E+02  0.90475895075E+02 0.  0.
         13    1    3    3    0    0  0.44942954397E+02 -0.22746604249E+02  0.35532500969E+01  0.50496672218E+02  0.10566000000E+00 0. -1.
         22    1    1    0    0    0 -0.59682386591E+01  0.15891066255E+02 -0.24439730683E+02  0.29756449642E+02  0.00000000000E+00 0. -1.
</event>
<event>
 5    1  0.8943113E-005  0.9118800E+02  0.7818608E-02  0.1130116E+00
         25   -1    0    0    0    0  0.00000000000E+00  0.00000000000E+00  0.99999998245E-14  0.12500000000E+03  0.12500000000E+03 0.  0.
        -13    1    3    3    0    0  0.52519592257E+02 -0.62769783084E+01 -0.16178597416E+02  0.55312441692E+02  0.10566000000E+00 0. -1.
         23    2    1    0    0    0  0.14137157795E+02 -0.10511281708E+02 -0.24509390015E+02  0.94816287959E+02  0.89883658079E+02 0.  0.
         13    1    3    3    0    0 -0.38382434462E+02 -0.42343033994E+01 -0.83307925989E+01  0.39503846267E+02  0.10566000000E+00 0.  1.
         22    1    1    0    0    0 -0.14137157795E+02  0.10511281708E+02  0.24509390015E+02  0.30183712041E+02  0.00000000000E+00 0. -1.
</event>
<event>
 5    1  0.8943113E-005  0.9118800E+02  0.7818608E-02  0.1130116E+00
         25   -1    0    0    0    0  0.00000000000E+00  0.00000000000E+00  0.99999998245E-14  0.12500000000E+03  0.12500000000E+03 0.  0.
        -13    1    3    3    0    0  0.20284108186E+02 -0.36052358368E+02 -0.94908812141E+01  0.42441790478E+02  0.10566000000E+00 0.  1.
         23    2    1    0    0    0 -0.22382199956E+02  0.83724057839E+00 -0.13261773513E+02  0.98970430596E+02  0.95486164700E+02 0.  0.
         13    1    3    3    0    0 -0.42666308141E+02  0.36889598946E+02 -0.37708922987E+01  0.56528640118E+02  0.10566000000E+00 0. -1.
         22    1    1    0    0    0  0.22382199956E+02 -0.83724057839E+00  0.13261773513E+02  0.26029569404E+02  0.00000000000E+00 0. -1.
</event>
<event>
 5    1  0.8943113E-005  0.9118800E+02  0.7818608E-02  0.1130116E+00
         25   -1    0    0    0    0  0.00000000000E+00  0.00000000000E+00  0.99999998245E-14  0.12500000000E+03  0.12500000000E+03 0.  0.
        -13    1    3    3    0    0 -0.60552352569E+02  0.47181136520E+01 -0.11459323177E+02  0.61807566283E+02  0.10566000000E+00 0. -1.
         23    2    1    0    0    0 -0.29632700568E+02 -0.37116212780E+01 -0.28022661741E+01  0.95004570829E+02  0.90145120263E+02 0.  0.
         13    1    3    3    0    0  0.30919652001E+02 -0.84297349301E+01  0.86570570030E+01  0.33197004546E+02  0.10566000000E+00 0.  1.
         22    1    1    0    0    0  0.29632700568E+02  0.37116212780E+01  0.28022661741E+01  0.29995429171E+02  0.00000000000E+00 0. -1.
</event>
<event>
 5    1  0.8943113E-005  0.9118800E+02  0.7818608E-02  0.1130116E+00
         25   -1    0    0    0    0  0.00000000000E+00  0.00000000000E+00  0.99999998245E-14  0.12500000000E+03  0.12500000000E+03 0.  0.
        -13    1    3    3    0    0 -0.40471384167E+02  0.21463403208E+02  0.26038383852E+02  0.52693635397E+02  0.10566000000E+00 0. -1.
         23    2    1    0    0    0 -0.11013309337E+02  0.27615144111E+02 -0.37462775967E+01  0.95034623936E+02  0.90186783866E+02 0.  0.
         13    1    3    3    0    0  0.29458074831E+02  0.61517409028E+01 -0.29784661449E+02  0.42340988540E+02  0.10566000000E+00 0.  1.
         22    1    1    0    0    0  0.11013309337E+02 -0.27615144111E+02  0.37462775967E+01  0.29965376064E+02  0.00000000000E+00 0. -1.
</event>
<event>
 5    1  0.8943113E-005  0.9118800E+02  0.7818608E-02  0.1130116E+00
         25   -1    0    0    0    0  0.00000000000E+00  0.00000000000E+00  0.99999998245E-14  0.12500000000E+03  0.12500000000E+03 0.  0.
        -13    1    3    3    0    0  0.56157673072E+02  0.17013347706E+02  0.14230527857E+02  0.60379278996E+02  0.10566000000E+00 0. -1.
         23    2    1    0    0    0  0.27363474958E+02 -0.28626498238E+01  0.10443325425E+02  0.95571823507E+02  0.90928300747E+02 0.  0.
         13    1    3    3    0    0 -0.28794198114E+02 -0.19875997530E+02 -0.37872024325E+01  0.35192544510E+02  0.10566000000E+00 0.  1.
         22    1    1    0    0    0 -0.27363474958E+02  0.28626498238E+01 -0.10443325425E+02  0.29428176493E+02  0.00000000000E+00 0. -1.
</event>
<event>
 5    1  0.8943113E-005  0.9118800E+02  0.7818608E-02  0.1130116E+00
         25   -1    0    0    0    0  0.00000000000E+00  0.00000000000E+00  0.99999998245E-14  0.12500000000E+03  0.12500000000E+03 0.  0.
        -13    1    3    3    0    0  0.41306411053E+02  0.24740820009E+02 -0.30566806278E+02  0.57032171437E+02  0.10566000000E+00 0. -1.
         23    2    1    0    0    0  0.27621009550E+02 -0.42972234040E+01 -0.92952568702E+01  0.95541756709E+02  0.90886958235E+02 0.  0.
         13    1    3    3    0    0 -0.13685401503E+02 -0.29038043413E+02  0.21271549408E+02  0.38509585271E+02  0.10566000000E+00 0.  1.
         22    1    1    0    0    0 -0.27621009550E+02  0.42972234040E+01  0.92952568702E+01  0.29458243291E+02  0.00000000000E+00 0. -1.
</event>
<event>
 5    1  0.8943113E-005  0.9118800E+02  0.7818608E-02  0.1130116E+00
         25   -1    0    0    0    0  0.00000000000E+00  0.00000000000E+00  0.99999998245E-14  0.12500000000E+03  0.12500000000E+03 0.  0.
        -13    1    3    3    0    0  0.21729355862E+01  0.48101280700E+02  0.13378516319E+02  0.49974500667E+02  0.10566000000E+00 0. -1.
         23    2    1    0    0    0  0.20026107124E+02  0.75396903815E+01  0.21087732066E+02  0.94956958521E+02  0.90079074320E+02 0.  0.
         13    1    3    3    0    0  0.17853171538E+02 -0.40561590318E+02  0.77092157477E+01  0.44982457854E+02  0.10566000000E+00 0.  1.
         22    1    1    0    0    0 -0.20026107124E+02 -0.75396903815E+01 -0.21087732066E+02  0.30043041479E+02  0.00000000000E+00 0. -1.
</event>
<event>
 5    1  0.8943113E-005  0.9118800E+02  0.7818608E-02  0.1130116E+00
         25   -1    0    0    0    0  0.00000000000E+00  0.00000000000E+00  0.99999998245E-14  0.12500000000E+03  0.12500000000E+03 0.  0.
        -13    1    3    3    0    0 -0.48236162955E+02  0.20535424968E+02 -0.84202365688E+01  0.53097482456E+02  0.10566000000E+00 0.  1.
         23    2    1    0    0    0 -0.17550006380E+02  0.16022376466E+02  0.19060371387E+02  0.94536628076E+02  0.89493893753E+02 0.  0.
         13    1    3    3    0    0  0.30686156575E+02 -0.45130485021E+01  0.27480607956E+02  0.41439145620E+02  0.10566000000E+00 0. -1.
         22    1    1    0    0    0  0.17550006380E+02 -0.16022376466E+02 -0.19060371387E+02  0.30463371924E+02  0.00000000000E+00 0.  1.
</event>
<event>
 5    1  0.8943113E-005  0.9118800E+02  0.7818608E-02  0.1130116E+00
         25   -1    0    0    0    0  0.00000000000E+00  0.00000000000E+00  0.99999998245E-14  0.12500000000E+03  0.12500000000E+03 0.  0.
        -13    1    3    3    0    0 -0.50029329141E+02  0.74225945834E+01 -0.24235199922E+02  0.56083729940E+02  0.10566000000E+00 0. -1.
         23    2    1    0    0    0 -0.25772366829E+02 -0.25683897427E+01  0.82301694273E+01  0.97823774975E+02  0.93973101171E+02 0.  0.
         13    1    3    3    0    0  0.24256962313E+02 -0.99909843261E+01  0.32465369350E+02  0.41740045034E+02  0.10566000000E+00 0.  1.
         22    1    1    0    0    0  0.25772366829E+02  0.25683897427E+01 -0.82301694273E+01  0.27176225025E+02  0.00000000000E+00 0. -1.
</event>
<event>
 5    1  0.8943113E-005  0.9118800E+02  0.7818608E-02  0.1130116E+00
         25   -1    0    0    0    0  0.00000000000E+00  0.00000000000E+00  0.99999998245E-14  0.12500000000E+03  0.12500000000E+03 0.  0.
        -13    1    3    3    0    0 -0.29098398116E+02 -0.23645314647E+01  0.29124595270E+02  0.41237858766E+02  0.10566000000E+00 0.  1.
         23    2    1    0    0    0  0.17035588588E+02 -0.22404673166E+02  0.12395693532E+02  0.94245587693E+02  0.89086457575E+02 0.  0.
         13    1    3    3    0    0  0.46133986704E+02 -0.20040141701E+02 -0.16728901738E+02  0.53007728927E+02  0.10566000000E+00 0. -1.
         22    1    1    0    0    0 -0.17035588588E+02  0.22404673166E+02 -0.12395693532E+02  0.30754412307E+02  0.00000000000E+00 0.  1.
</event>
<event>
 5    1  0.8943113E-005  0.9118800E+02  0.7818608E-02  0.1130116E+00
         25   -1    0    0    0    0  0.00000000000E+00  0.00000000000E+00  0.99999998245E-14  0.12500000000E+03  0.12500000000E+03 0.  0.
        -13    1    3    3    0    0  0.20657453925E+01 -0.17533218223E+02  0.27262205949E+02  0.32479533287E+02  0.10566000000E+00 0.  1.
         23    2    1    0    0    0  0.90066586374E+01  0.19035968783E+02 -0.22211686291E+02  0.94392043270E+02  0.89291717518E+02 0.  0.
         13    1    3    3    0    0  0.69409132449E+01  0.36569187006E+02 -0.49473892240E+02  0.61912509983E+02  0.10566000000E+00 0. -1.
         22    1    1    0    0    0 -0.90066586374E+01 -0.19035968783E+02  0.22211686291E+02  0.30607956730E+02  0.00000000000E+00 0. -1.
</event>
<event>
 5    1  0.8943113E-005  0.9118800E+02  0.7818608E-02  0.1130116E+00
         25   -1    0    0    0    0  0.00000000000E+00  0.00000000000E+00  0.99999998245E-14  0.12500000000E+03  0.12500000000E+03 0.  0.
        -13    1    3    3    0    0  0.30597082815E+02  0.14936030573E+02  0.25982473972E+02  0.42829506229E+02  0.10566000000E+00 0.  1.
         23    2    1    0    0    0  0.14714770143E+02  0.59805040352E+01 -0.24104874953E+02  0.96132442338E+02  0.91695750090E+02 0.  0.
         13    1    3    3    0    0 -0.15882312672E+02 -0.89555265382E+01 -0.50087348926E+02  0.53302936109E+02  0.10566000000E+00 0. -1.
         22    1    1    0    0    0 -0.14714770143E+02 -0.59805040352E+01  0.24104874953E+02  0.28867557662E+02  0.00000000000E+00 0. -1.
</event>
<event>
 5    1  0.8943113E-005  0.9118800E+02  0.7818608E-02  0.1130116E+00
         25   -1    0    0    0    0  0.00000000000E+00  0.00000000000E+00  0.99999998245E-14  0.12500000000E+03  0.12500000000E+03 0.  0.
        -13    1    3    3    0    0  0.28588954483E+00  0.33843327440E+02  0.12094719550E+02  0.35940867408E+02  0.10566000000E+00 0.  1.
         23    2    1    0    0    0 -0.21298460899E+02 -0.13778485320E+02 -0.15713130598E+02  0.95160871870E+02  0.90361595645E+02 0.  0.
         13    1    3    3    0    0 -0.21584350444E+02 -0.47621812760E+02 -0.27807850147E+02  0.59220004462E+02  0.10566000000E+00 0. -1.
         22    1    1    0    0    0  0.21298460899E+02  0.13778485320E+02  0.15713130598E+02  0.29839128130E+02  0.00000000000E+00 0. -1.
</event>
<event>
 5    1  0.8943113E-005  0.9118800E+02  0.7818608E-02  0.1130116E+00
         25   -1    0    0    0    0  0.00000000000E+00  0.00000000000E+00  0.99999998245E-14  0.12500000000E+03  0.12500000000E+03 0.  0.
        -13    1    3    3    0    0 -0.37613364930E+01  0.43159150352E+02 -0.36318457829E+02  0.56532304520E+02  0.10566000000E+00 0. -1.
         23    2    1    0    0    0 -0.15615933266E+02  0.24318374894E+02 -0.39290201725E+01  0.95833616460E+02  0.91287480604E+02 0.  0.
         13    1    3    3    0    0 -0.11854596773E+02 -0.18840775457E+02  0.32389437656E+02  0.39301311940E+02  0.10566000000E+00 0.  1.
         22    1    1    0    0    0  0.15615933266E+02 -0.24318374894E+02  0.39290201725E+01  0.29166383540E+02  0.00000000000E+00 0. -1.
</event>
<event>
 5    1  0.8943113E-005  0.9118800E+02  0.7818608E-02  0.1130116E+00
         25   -1    0    0    0    0  0.00000000000E+00  0.00000000000E+00  0.99999998245E-14  0.12500000000E+03  0.12500000000E+03 0.  0.
        -13    1    3    3    0    0  0.19213638362E+02 -0.22672151628E+02  0.22594254843E+02  0.37332316757E+02  0.10566000000E+00 0.  1.
         23    2    1    0    0    0 -0.24668022137E+02  0.12851768998E+02  0.11659901523E+02  0.94839884183E+02  0.89916467045E+02 0.  0.
         13    1    3    3    0    0 -0.43881660499E+02  0.35523920625E+02 -0.10934353320E+02  0.57507567426E+02  0.10566000000E+00 0. -1.
         22    1    1    0    0    0  0.24668022137E+02 -0.12851768998E+02 -0.11659901523E+02  0.30160115817E+02  0.00000000000E+00 0. -1.
</event>
<event>
 5    1  0.8943113E-005  0.9118800E+02  0.7818608E-02  0.1130116E+00
         25   -1    0    0    0    0  0.00000000000E+00  0.00000000000E+00  0.99999998245E-14  0.12500000000E+03  0.12500000000E+03 0.  0.
        -13    1    3    3    0    0 -0.20075376089E+02  0.11748461847E+02  0.28023860746E+02  0.36419706425E+02  0.10566000000E+00 0.  1.
         23    2    1    0    0    0  0.27922515713E+02 -0.39739042496E+01 -0.44230675298E+01  0.96451404149E+02  0.92129534012E+02 0.  0.
         13    1    3    3    0    0  0.47997891801E+02 -0.15722366096E+02 -0.32446928276E+02  0.60031697724E+02  0.10566000000E+00 0. -1.
         22    1    1    0    0    0 -0.27922515713E+02  0.39739042496E+01  0.44230675298E+01  0.28548595851E+02  0.00000000000E+00 0. -1.
</event>
<event>
 5    1  0.8943113E-005  0.9118800E+02  0.7818608E-02  0.1130116E+00
         25   -1    0    0    0    0  0.00000000000E+00  0.00000000000E+00  0.99999998245E-14  0.12500000000E+03  0.12500000000E+03 0.  0.
        -13    1    3    3    0    0  0.62418908793E+01 -0.24876599774E+02  0.26291086494E+02  0.36729263689E+02  0.10566000000E+00 0.  1.
         23    2    1    0    0    0 -0.12737570733E+02 -0.64033078328E+01 -0.26001403831E+02  0.95346651781E+02  0.90618226342E+02 0.  0.
         13    1    3    3    0    0 -0.18979461613E+02  0.18473291941E+02 -0.52292490325E+02  0.58617388092E+02  0.10566000000E+00 0. -1.
         22    1    1    0    0    0  0.12737570733E+02  0.64033078328E+01  0.26001403831E+02  0.29653348219E+02  0.00000000000E+00 0. -1.
</event>
<event>
 5    1  0.8943113E-005  0.9118800E+02  0.7818608E-02  0.1130116E+00
         25   -1    0    0    0    0  0.00000000000E+00  0.00000000000E+00  0.99999998245E-14  0.12500000000E+03  0.12500000000E+03 0.  0.
        -13    1    3    3    0    0 -0.20339865002E+02 -0.25659842544E+02 -0.20312983827E+01  0.32806629891E+02  0.10566000000E+00 0.  1.
         23    2    1    0    0    0  0.11674930438E+02  0.27558375359E+02 -0.30051969315E+01  0.94920118654E+02  0.90027938239E+02 0.  0.
         13    1    3    3    0    0  0.32014795440E+02  0.53218217903E+02 -0.97389854872E+00  0.62113488763E+02  0.10566000000E+00 0. -1.
         22    1    1    0    0    0 -0.11674930438E+02 -0.27558375359E+02  0.30051969315E+01  0.30079881346E+02  0.00000000000E+00 0. -1.
</event>
<event>
 5    1  0.8943113E-005  0.9118800E+02  0.7818608E-02  0.1130116E+00
         25   -1    0    0    0    0  0.00000000000E+00  0.00000000000E+00  0.99999998245E-14  0.12500000000E+03  0.12500000000E+03 0.  0.
        -13    1    3    3    0    0 -0.37177345499E+02 -0.11189022893E+02  0.15312877255E+02  0.41735412128E+02  0.10566000000E+00 0. -1.
         23    2    1    0    0    0  0.85044290216E+01  0.15756905305E+02  0.23558298301E+02  0.95409481305E+02  0.90704852827E+02 0.  0.
         13    1    3    3    0    0  0.45681774520E+02  0.26945928198E+02  0.82454210463E+01  0.53674069177E+02  0.10566000000E+00 0.  1.
         22    1    1    0    0    0 -0.85044290216E+01 -0.15756905305E+02 -0.23558298301E+02  0.29590518695E+02  0.00000000000E+00 0.  1.
</event>
<event>
 5    1  0.8943113E-005  0.9118800E+02  0.7818608E-02  0.1130116E+00
         25   -1    0    0    0    0  0.00000000000E+00  0.00000000000E+00  0.99999998245E-14  0.12500000000E+03  0.12500000000E+03 0.  0.
        -13    1    3    3    0    0 -0.16910839192E+02  0.24334541401E+02 -0.21414067163E+02  0.36561179191E+02  0.10566000000E+00 0.  1.
         23    2    1    0    0    0  0.24615724758E+02 -0.10343868566E+02  0.66136252691E+01  0.97492372667E+02  0.93531241662E+02 0.  0.
         13    1    3    3    0    0  0.41526563950E+02 -0.34678409967E+02  0.28027692432E+02  0.60931193476E+02  0.10566000000E+00 0. -1.
         22    1    1    0    0    0 -0.24615724758E+02  0.10343868566E+02 -0.66136252691E+01  0.27507627333E+02  0.00000000000E+00 0. -1.
</event>
<event>
 5    1  0.8943113E-005  0.9118800E+02  0.7818608E-02  0.1130116E+00
         25   -1    0    0    0    0  0.00000000000E+00  0.00000000000E+00  0.99999998245E-14  0.12500000000E+03  0.12500000000E+03 0.  0.
        -13    1    3    3    0    0 -0.97389094243E+00 -0.60075018374E+02  0.98975950696E+01  0.60892773368E+02  0.10566000000E+00 0.  1.
         23    2    1    0    0    0 -0.84331482229E+01 -0.29233706464E+02 -0.13137112019E+01  0.94545880086E+02  0.89506815504E+02 0.  0.
         13    1    3    3    0    0 -0.74592572804E+01  0.30841311910E+02 -0.11211306271E+02  0.33653106719E+02  0.10566000000E+00 0. -1.
         22    1    1    0    0    0  0.84331482229E+01  0.29233706464E+02  0.13137112019E+01  0.30454119914E+02  0.00000000000E+00 0.  1.
</event>
<event>
 5    1  0.8943113E-005  0.9118800E+02  0.7818608E-02  0.1130116E+00
         25   -1    0    0    0    0  0.00000000000E+00  0.00000000000E+00  0.99999998245E-14  0.12500000000E+03  0.12500000000E+03 0.  0.
        -13    1    3    3    0    0  0.25504229656E+02  0.20474277950E+02 -0.14675862257E+02  0.35847648248E+02  0.10566000000E+00 0.  1.
         23    2    1    0    0    0 -0.27704230175E+02 -0.74855593324E+00  0.58059731002E+01  0.96684032257E+02  0.92444621608E+02 0.  0.
         13    1    3    3    0    0 -0.53208459831E+02 -0.21222833883E+02  0.20481835357E+02  0.60836384009E+02  0.10566000000E+00 0. -1.
         22    1    1    0    0    0  0.27704230175E+02  0.74855593324E+00 -0.58059731002E+01  0.28315967743E+02  0.00000000000E+00 0. -1.
</event>
<event>
 5    1  0.8943113E-005  0.9118800E+02  0.7818608E-02  0.1130116E+00
         25   -1    0    0    0    0  0.00000000000E+00  0.00000000000E+00  0.99999998245E-14  0.12500000000E+03  0.12500000000E+03 0.  0.
        -13    1    3    3    0    0  0.40000347104E+02 -0.13530203876E+02  0.31865080729E+02  0.52900744033E+02  0.10566000000E+00 0.  1.
         23    2    1    0    0    0 -0.15455726885E+01 -0.17869627500E+02  0.23391050544E+02  0.95523676832E+02  0.90862088948E+02 0.  0.
         13    1    3    3    0    0 -0.41545919792E+02 -0.43394236238E+01 -0.84740301848E+01  0.42622932799E+02  0.10566000000E+00 0. -1.
         22    1    1    0    0    0  0.15455726885E+01  0.17869627500E+02 -0.23391050544E+02  0.29476323168E+02  0.00000000000E+00 0.  1.
</event>
<event>
 5    1  0.8943113E-005  0.9118800E+02  0.7818608E-02  0.1130116E+00
         25   -1    0    0    0    0  0.00000000000E+00  0.00000000000E+00  0.99999998245E-14  0.12500000000E+03  0.12500000000E+03 0.  0.
        -13    1    3    3    0    0 -0.16688933628E+02 -0.26583057143E+02 -0.20727211316E+02  0.37613932069E+02  0.10566000000E+00 0.  1.
         23    2    1    0    0    0 -0.14843515241E+02  0.21273689240E+02  0.12798043034E+02  0.96074410912E+02  0.91616607272E+02 0.  0.
         13    1    3    3    0    0  0.18454183863E+01  0.47856746382E+02  0.33525254350E+02  0.58460478844E+02  0.10566000000E+00 0. -1.
         22    1    1    0    0    0  0.14843515241E+02 -0.21273689240E+02 -0.12798043034E+02  0.28925589088E+02  0.00000000000E+00 0. -1.
</event>
<event>
 5    1  0.8943113E-005  0.9118800E+02  0.7818608E-02  0.1130116E+00
         25   -1    0    0    0    0  0.00000000000E+00  0.00000000000E+00  0.99999998245E-14  0.12500000000E+03  0.12500000000E+03 0.  0.
        -13    1    3    3    0    0 -0.28586624602E+02  0.55114590433E+02 -0.14580209103E+01  0.62104349073E+02  0.10566000000E+00 0. -1.
         23    2    1    0    0    0 -0.83667050583E+01  0.26332966333E+02 -0.21576361684E+01  0.97285702909E+02  0.93254628450E+02 0.  0.
         13    1    3    3    0    0  0.20219919544E+02 -0.28781624100E+02 -0.69961525814E+00  0.35181353836E+02  0.10566000000E+00 0.  1.
         22    1    1    0    0    0  0.83667050583E+01 -0.26332966333E+02  0.21576361684E+01  0.27714297091E+02  0.00000000000E+00 0. -1.
</event>
<event>
 5    1  0.8943113E-005  0.9118800E+02  0.7818608E-02  0.1130116E+00
         25   -1    0    0    0    0  0.00000000000E+00  0.00000000000E+00  0.99999998245E-14  0.12500000000E+03  0.12500000000E+03 0.  0.
        -13    1    3    3    0    0  0.31055952516E+02  0.37227585774E+02 -0.21433162849E+02  0.53007140679E+02  0.10566000000E+00 0.  1.
         23    2    1    0    0    0  0.80515682173E+01  0.24164422534E+01 -0.28463667839E+02  0.95320927731E+02  0.90582735290E+02 0.  0.
         13    1    3    3    0    0 -0.23004384299E+02 -0.34811143521E+02 -0.70305049901E+01  0.42313787051E+02  0.10566000000E+00 0. -1.
         22    1    1    0    0    0 -0.80515682173E+01 -0.24164422534E+01  0.28463667839E+02  0.29679072269E+02  0.00000000000E+00 0.  1.
</event>
<event>
 5    1  0.8943113E-005  0.9118800E+02  0.7818608E-02  0.1130116E+00
         25   -1    0    0    0    0  0.00000000000E+00  0.00000000000E+00  0.99999998245E-14  0.12500000000E+03  0.12500000000E+03 0.  0.
        -13    1    3    3    0    0  0.24100244715E+02  0.33729138329E+02 -0.32814703148E+01  0.41584321315E+02  0.10566000000E+00 0.  1.
         23    2    1    0    0    0 -0.11157066776E+02  0.46208792405E+01  0.26313642607E+02  0.96047617521E+02  0.91580043570E+02 0.  0.
         13    1    3    3    0    0 -0.35257311491E+02 -0.29108259089E+02  0.29595112921E+02  0.54463296206E+02  0.10566000000E+00 0. -1.
         22    1    1    0    0    0  0.11157066776E+02 -0.46208792405E+01 -0.26313642607E+02  0.28952382479E+02  0.00000000000E+00 0. -1.
</event>
<event>
 5    1  0.8943113E-005  0.9118800E+02  0.7818608E-02  0.1130116E+00
         25   -1    0    0    0    0  0.00000000000E+00  0.00000000000E+00  0.99999998245E-14  0.12500000000E+03  0.12500000000E+03 0.  0.
        -13    1    3    3    0    0 -0.18494528420E+02 -0.18700536813E+02  0.27686890292E+02  0.38188122717E+02  0.10566000000E+00 0.  1.
         23    2    1    0    0    0 -0.24379750256E+01  0.29971535099E+02  0.39470166707E+01  0.94671538466E+02  0.89682130977E+02 0.  0.
         13    1    3    3    0    0  0.16056553394E+02  0.48672071912E+02 -0.23739873621E+02  0.56483415749E+02  0.10566000000E+00 0. -1.
         22    1    1    0    0    0  0.24379750256E+01 -0.29971535099E+02 -0.39470166707E+01  0.30328461534E+02  0.00000000000E+00 0. -1.
</event>
<event>
 5    1  0.8943113E-005  0.9118800E+02  0.7818608E-02  0.1130116E+00
         25   -1    0    0    0    0  0.00000000000E+00  0.00000000000E+00  0.99999998245E-14  0.12500000000E+03  0.12500000000E+03 0.  0.
        -13    1    3    3    0    0  0.12408424809E+02 -0.53496323756E+02 -0.19210075970E+02  0.58179582711E+02  0.10566000000E+00 0.  1.
         23    2    1    0    0    0  0.20781754698E+02 -0.22519884848E+02 -0.27774923945E+01  0.94230843270E+02  0.89065766810E+02 0.  0.
         13    1    3    3    0    0  0.83733298891E+01  0.30976438908E+02  0.16432583575E+02  0.36051260558E+02  0.10566000000E+00 0. -1.
         22    1    1    0    0    0 -0.20781754698E+02  0.22519884848E+02  0.27774923945E+01  0.30769156730E+02  0.00000000000E+00 0.  1.
</event>
<event>
 5    1  0.8943113E-005  0.9118800E+02  0.7818608E-02  0.1130116E+00
         25   -1    0    0    0    0  0.00000000000E+00  0.00000000000E+00  0.99999998245E-14  0.12500000000E+03  0.12500000000E+03 0.  0.
        -13    1    3    3    0    0 -0.29737228965E+02  0.48764224734E+01 -0.37751270911E+02  0.48303746253E+02  0.10566000000E+00 0.  1.
         23    2    1    0    0    0  0.12055266981E+02 -0.12801818660E+02 -0.23059754778E+02  0.96000546326E+02  0.91515772310E+02 0.  0.
         13    1    3    3    0    0  0.41792495945E+02 -0.17678241133E+02  0.14691516133E+02  0.47696800073E+02  0.10566000000E+00 0. -1.
         22    1    1    0    0    0 -0.12055266981E+02  0.12801818660E+02  0.23059754778E+02  0.28999453674E+02  0.00000000000E+00 0.  1.
</event>
<event>
 5    1  0.8943113E-005  0.9118800E+02  0.7818608E-02  0.1130116E+00
         25   -1    0    0    0    0  0.00000000000E+00  0.00000000000E+00  0.99999998245E-14  0.12500000000E+03  0.12500000000E+03 0.  0.
        -13    1    3    3    0    0 -0.24990428155E+02  0.13181414783E+02 -0.26662771082E+02  0.38848239611E+02  0.10566000000E+00 0.  1.
         23    2    1    0    0    0  0.26567404043E+02 -0.46048257062E+01 -0.12963493882E+02  0.95082053028E+02  0.90252497234E+02 0.  0.
         13    1    3    3    0    0  0.51557832198E+02 -0.17786240489E+02  0.13699277200E+02  0.56233813418E+02  0.10566000000E+00 0. -1.
         22    1    1    0    0    0 -0.26567404043E+02  0.46048257062E+01  0.12963493882E+02  0.29917946972E+02  0.00000000000E+00 0. -1.
</event>
<event>
 5    1  0.8943113E-005  0.9118800E+02  0.7818608E-02  0.1130116E+00
         25   -1    0    0    0    0  0.00000000000E+00  0.00000000000E+00  0.99999998245E-14  0.12500000000E+03  0.12500000000E+03 0.  0.
        -13    1    3    3    0    0  0.28152664152E+02 -0.15375685524E+02  0.10829306780E+02  0.33856598375E+02  0.10566000000E+00 0. -1.
         23    2    1    0    0    0 -0.91247305086E+01  0.21510050519E+02 -0.19612957704E+02  0.94494081065E+02  0.89434446755E+02 0.  0.
         13    1    3    3    0    0 -0.37277394660E+02  0.36885736043E+02 -0.30442264484E+02  0.60637482690E+02  0.10566000000E+00 0.  1.
         22    1    1    0    0    0  0.91247305086E+01 -0.21510050519E+02  0.19612957704E+02  0.30505918935E+02  0.00000000000E+00 0.  1.
</event>
<event>
 5    1  0.8943113E-005  0.9118800E+02  0.7818608E-02  0.1130116E+00
         25   -1    0    0    0    0  0.00000000000E+00  0.00000000000E+00  0.99999998245E-14  0.12500000000E+03  0.12500000000E+03 0.  0.
        -13    1    3    3    0    0  0.18864079370E+02  0.16625516126E+02 -0.22024182309E+02  0.33426591920E+02  0.10566000000E+00 0. -1.
         23    2    1    0    0    0 -0.18981737655E+02 -0.18073590617E+01  0.23039495481E+02  0.95093625041E+02  0.90268523087E+02 0.  0.
         13    1    3    3    0    0 -0.37845817025E+02 -0.18432875188E+02  0.45063677790E+02  0.61667033121E+02  0.10566000000E+00 0.  1.
         22    1    1    0    0    0  0.18981737655E+02  0.18073590617E+01 -0.23039495481E+02  0.29906374959E+02  0.00000000000E+00 0.  1.
</event>
<event>
 5    1  0.8943113E-005  0.9118800E+02  0.7818608E-02  0.1130116E+00
         25   -1    0    0    0    0  0.00000000000E+00  0.00000000000E+00  0.99999998245E-14  0.12500000000E+03  0.12500000000E+03 0.  0.
        -13    1    3    3    0    0  0.27659552159E+02 -0.18134272795E+02  0.22323794704E+02  0.39903203499E+02  0.10566000000E+00 0. -1.
         23    2    1    0    0    0  0.97216111496E+00  0.24745637563E+02 -0.81953030407E+01  0.98914473983E+02  0.95412884328E+02 0.  0.
         13    1    3    3    0    0 -0.26687391044E+02  0.42879910358E+02 -0.30519097745E+02  0.59011270485E+02  0.10566000000E+00 0.  1.
         22    1    1    0    0    0 -0.97216111496E+00 -0.24745637563E+02  0.81953030407E+01  0.26085526017E+02  0.00000000000E+00 0.  1.
</event>
<event>
 5    1  0.8943113E-005  0.9118800E+02  0.7818608E-02  0.1130116E+00
         25   -1    0    0    0    0  0.00000000000E+00  0.00000000000E+00  0.99999998245E-14  0.12500000000E+03  0.12500000000E+03 0.  0.
        -13    1    3    3    0    0  0.40803392344E+02  0.16340947749E+02  0.31483086414E+02  0.54066064165E+02  0.10566000000E+00 0.  1.
         23    2    1    0    0    0 -0.91561898415E+00  0.14513069085E+02  0.24649512483E+02  0.96380670901E+02  0.92033514142E+02 0.  0.
         13    1    3    3    0    0 -0.41719011328E+02 -0.18278786635E+01 -0.68335739304E+01  0.42314606737E+02  0.10566000000E+00 0. -1.
         22    1    1    0    0    0  0.91561898415E+00 -0.14513069085E+02 -0.24649512483E+02  0.28619329099E+02  0.00000000000E+00 0.  1.
</event>
<event>
 5    1  0.8943113E-005  0.9118800E+02  0.7818608E-02  0.1130116E+00
         25   -1    0    0    0    0  0.00000000000E+00  0.00000000000E+00  0.99999998245E-14  0.12500000000E+03  0.12500000000E+03 0.  0.
        -13    1    3    3    0    0 -0.37664370955E+02  0.28168732724E+02  0.10848721067E+02  0.48267880164E+02  0.10566000000E+00 0.  1.
         23    2    1    0    0    0 -0.23235716814E+02 -0.13560936952E+02  0.17479467767E+02  0.92916837121E+02  0.87202117407E+02 0.  0.
         13    1    3    3    0    0  0.14428654141E+02 -0.41729669676E+02  0.66307466993E+01  0.44648956957E+02  0.10566000000E+00 0. -1.
         22    1    1    0    0    0  0.23235716814E+02  0.13560936952E+02 -0.17479467767E+02  0.32083162879E+02  0.00000000000E+00 0.  1.
</event>
<event>
 5    1  0.8943113E-005  0.9118800E+02  0.7818608E-02  0.1130116E+00
         25   -1    0    0    0    0  0.00000000000E+00  0.00000000000E+00  0.99999998245E-14  0.12500000000E+03  0.12500000000E+03 0.  0.
        -13    1    3    3    0    0  0.29141257766E+02  0.47442714382E+02  0.17514360717E+02  0.58367696952E+02  0.10566000000E+00 0.  1.
         23    2    1    0    0    0  0.36019636674E+01  0.21022538537E+02  0.20733074430E+02  0.95254720642E+02  0.90491326437E+02 0.  0.
         13    1    3    3    0    0 -0.25539294098E+02 -0.26420175845E+02  0.32187137128E+01  0.36887023690E+02  0.10566000000E+00 0. -1.
         22    1    1    0    0    0 -0.36019636674E+01 -0.21022538537E+02 -0.20733074430E+02  0.29745279358E+02  0.00000000000E+00 0.  1.
</event>
<event>
 5    1  0.8943113E-005  0.9118800E+02  0.7818608E-02  0.1130116E+00
         25   -1    0    0    0    0  0.00000000000E+00  0.00000000000E+00  0.99999998245E-14  0.12500000000E+03  0.12500000000E+03 0.  0.
        -13    1    3    3    0    0 -0.10850216441E+02 -0.33888298483E+02 -0.20536601585E+02  0.41084147059E+02  0.10566000000E+00 0. -1.
         23    2    1    0    0    0 -0.71608647522E+01 -0.78806606910E+01  0.27321224291E+02  0.95677106321E+02  0.91072919028E+02 0.  0.
         13    1    3    3    0    0  0.36893516892E+01  0.26007637792E+02  0.47857825876E+02  0.54592959262E+02  0.10566000000E+00 0.  1.
         22    1    1    0    0    0  0.71608647522E+01  0.78806606910E+01 -0.27321224291E+02  0.29322893679E+02  0.00000000000E+00 0.  1.
</event>
<event>
 5    1  0.8943113E-005  0.9118800E+02  0.7818608E-02  0.1130116E+00
         25   -1    0    0    0    0  0.00000000000E+00  0.00000000000E+00  0.99999998245E-14  0.12500000000E+03  0.12500000000E+03 0.  0.
        -13    1    3    3    0    0 -0.16931256353E+02  0.22527785229E+02 -0.51498528409E+02  0.58705009508E+02  0.10566000000E+00 0. -1.
         23    2    1    0    0    0  0.73140008279E+01  0.10562638511E+02 -0.26598100588E+02  0.95461501472E+02  0.90776513306E+02 0.  0.
         13    1    3    3    0    0  0.24245257181E+02 -0.11965146718E+02  0.24900427821E+02  0.36756491964E+02  0.10566000000E+00 0.  1.
         22    1    1    0    0    0 -0.73140008279E+01 -0.10562638511E+02  0.26598100588E+02  0.29538498528E+02  0.00000000000E+00 0. -1.
</event>
<event>
 5    1  0.8943113E-005  0.9118800E+02  0.7818608E-02  0.1130116E+00
         25   -1    0    0    0    0  0.00000000000E+00  0.00000000000E+00  0.99999998245E-14  0.12500000000E+03  0.12500000000E+03 0.  0.
        -13    1    3    3    0    0  0.65110544651E+01  0.49195080305E+02  0.17150645144E+02  0.52504338386E+02  0.10566000000E+00 0.  1.
         23    2    1    0    0    0 -0.17325731474E+01  0.77478823663E+01  0.27803202580E+02  0.96085478310E+02  0.91631706180E+02 0.  0.
         13    1    3    3    0    0 -0.82436276125E+01 -0.41447197938E+02  0.10652557436E+02  0.43581139924E+02  0.10566000000E+00 0. -1.
         22    1    1    0    0    0  0.17325731474E+01 -0.77478823663E+01 -0.27803202580E+02  0.28914521690E+02  0.00000000000E+00 0.  1.
</event>
<event>
 5    1  0.8943113E-005  0.9118800E+02  0.7818608E-02  0.1130116E+00
         25   -1    0    0    0    0  0.00000000000E+00  0.00000000000E+00  0.99999998245E-14  0.12500000000E+03  0.12500000000E+03 0.  0.
        -13    1    3    3    0    0 -0.62299779030E+01  0.30142544871E+02 -0.26283595001E+02  0.40474981979E+02  0.10566000000E+00 0.  1.
         23    2    1    0    0    0 -0.22185576090E+02 -0.17565245849E+02 -0.12246264171E+01  0.96676205092E+02  0.92434037415E+02 0.  0.
         13    1    3    3    0    0 -0.15955598187E+02 -0.47707790720E+02  0.25058968584E+02  0.56201223113E+02  0.10566000000E+00 0. -1.
         22    1    1    0    0    0  0.22185576090E+02  0.17565245849E+02  0.12246264171E+01  0.28323794908E+02  0.00000000000E+00 0. -1.
</event>
<event>
 5    1  0.8943113E-005  0.9118800E+02  0.7818608E-02  0.1130116E+00
         25   -1    0    0    0    0  0.00000000000E+00  0.00000000000E+00  0.99999998245E-14  0.12500000000E+03  0.12500000000E+03 0.  0.
        -13    1    3    3    0    0 -0.39437249096E+02  0.62690198973E+01 -0.27659917020E+02  0.48576531374E+02  0.10566000000E+00 0.  1.
         23    2    1    0    0    0 -0.18803409378E+02  0.21561838230E+02  0.10457710998E+02  0.94539455169E+02  0.89497842388E+02 0.  0.
         13    1    3    3    0    0  0.20633839718E+02  0.15292818333E+02  0.38117628018E+02  0.45962923795E+02  0.10566000000E+00 0. -1.
         22    1    1    0    0    0  0.18803409378E+02 -0.21561838230E+02 -0.10457710998E+02  0.30460544831E+02  0.00000000000E+00 0.  1.
</event>
<event>
 5    1  0.8943113E-005  0.9118800E+02  0.7818608E-02  0.1130116E+00
         25   -1    0    0    0    0  0.00000000000E+00  0.00000000000E+00  0.99999998245E-14  0.12500000000E+03  0.12500000000E+03 0.  0.
        -13    1    3    3    0    0 -0.27510444287E+02  0.29341937849E+02  0.20449622426E+01  0.40273650148E+02  0.10566000000E+00 0.  1.
         23    2    1    0    0    0  0.23734552031E+01 -0.77333802452E+01 -0.27513921503E+02  0.96321535325E+02  0.91953161073E+02 0.  0.
         13    1    3    3    0    0  0.29883899490E+02 -0.37075318094E+02 -0.29558883746E+02  0.56047885177E+02  0.10566000000E+00 0. -1.
         22    1    1    0    0    0 -0.23734552031E+01  0.77333802452E+01  0.27513921503E+02  0.28678464675E+02  0.00000000000E+00 0. -1.
</event>
<event>
 5    1  0.8943113E-005  0.9118800E+02  0.7818608E-02  0.1130116E+00
         25   -1    0    0    0    0  0.00000000000E+00  0.00000000000E+00  0.99999998245E-14  0.12500000000E+03  0.12500000000E+03 0.  0.
        -13    1    3    3    0    0  0.10909937890E+02 -0.53832872215E+02  0.11384568275E+02  0.56094780814E+02  0.10566000000E+00 0.  1.
         23    2    1    0    0    0 -0.69281198408E+01 -0.23744703717E+02  0.21198563329E+02  0.92424105748E+02  0.86492927092E+02 0.  0.
         13    1    3    3    0    0 -0.17838057731E+02  0.30088168498E+02  0.98139950534E+01  0.36329324934E+02  0.10566000000E+00 0. -1.
         22    1    1    0    0    0  0.69281198408E+01  0.23744703717E+02 -0.21198563329E+02  0.32575894252E+02  0.00000000000E+00 0.  1.
</event>
<event>
 5    1  0.8943113E-005  0.9118800E+02  0.7818608E-02  0.1130116E+00
         25   -1    0    0    0    0  0.00000000000E+00  0.00000000000E+00  0.99999998245E-14  0.12500000000E+03  0.12500000000E+03 0.  0.
        -13    1    3    3    0    0  0.66024355495E+01  0.28162325413E+02  0.23361077305E+02  0.37181444630E+02  0.10566000000E+00 0.  1.
         23    2    1    0    0    0  0.13527034765E+02 -0.24326303501E+02 -0.41694598298E+01  0.96855122903E+02  0.92675674941E+02 0.  0.
         13    1    3    3    0    0  0.69245992152E+01 -0.52488628914E+02 -0.27530537135E+02  0.59673678273E+02  0.10566000000E+00 0. -1.
         22    1    1    0    0    0 -0.13527034765E+02  0.24326303501E+02  0.41694598298E+01  0.28144877097E+02  0.00000000000E+00 0. -1.
</event>
<event>
 5    1  0.8943113E-005  0.9118800E+02  0.7818608E-02  0.1130116E+00
         25   -1    0    0    0    0  0.00000000000E+00  0.00000000000E+00  0.99999998245E-14  0.12500000000E+03  0.12500000000E+03 0.  0.
        -13    1    3    3    0    0 -0.48389814139E+02  0.93550646522E+01 -0.15152742881E+02  0.51562662149E+02  0.10566000000E+00 0.  1.
         23    2    1    0    0    0 -0.20423225666E+02  0.10176107140E+02  0.18712276888E+02  0.95490499674E+02  0.90816435289E+02 0.  0.
         13    1    3    3    0    0  0.27966588473E+02  0.82104248779E+00  0.33865019770E+02  0.43927837525E+02  0.10566000000E+00 0. -1.
         22    1    1    0    0    0  0.20423225666E+02 -0.10176107140E+02 -0.18712276888E+02  0.29509500326E+02  0.00000000000E+00 0.  1.
</event>
<event>
 5    1  0.8943113E-005  0.9118800E+02  0.7818608E-02  0.1130116E+00
         25   -1    0    0    0    0  0.00000000000E+00  0.00000000000E+00  0.99999998245E-14  0.12500000000E+03  0.12500000000E+03 0.  0.
        -13    1    3    3    0    0  0.10189789060E+02 -0.59376835106E+02 -0.51179947569E+01  0.60461933336E+02  0.10566000000E+00 0. -1.
         23    2    1    0    0    0 -0.22460113597E+01 -0.28883098887E+02  0.63650851990E+01  0.95338707413E+02  0.90607267111E+02 0.  0.
         13    1    3    3    0    0 -0.12435800420E+02  0.30493736220E+02  0.11483079956E+02  0.34876774077E+02  0.10566000000E+00 0.  1.
         22    1    1    0    0    0  0.22460113597E+01  0.28883098887E+02 -0.63650851990E+01  0.29661292587E+02  0.00000000000E+00 0. -1.
</event>
<event>
 5    1  0.8943113E-005  0.9118800E+02  0.7818608E-02  0.1130116E+00
         25   -1    0    0    0    0  0.00000000000E+00  0.00000000000E+00  0.99999998245E-14  0.12500000000E+03  0.12500000000E+03 0.  0.
        -13    1    3    3    0    0  0.11062308085E+02  0.44106425750E+01  0.30446698072E+02  0.32693134075E+02  0.10566000000E+00 0. -1.
         23    2    1    0    0    0 -0.15044867654E+02 -0.44644113881E+01 -0.25495274690E+02  0.95061929867E+02  0.90224622286E+02 0.  0.
         13    1    3    3    0    0 -0.26107175739E+02 -0.88750539631E+01 -0.55941972762E+02  0.62368795792E+02  0.10566000000E+00 0.  1.
         22    1    1    0    0    0  0.15044867654E+02  0.44644113881E+01  0.25495274690E+02  0.29938070133E+02  0.00000000000E+00 0.  1.
</event>
<event>
 5    1  0.8943113E-005  0.9118800E+02  0.7818608E-02  0.1130116E+00
         25   -1    0    0    0    0  0.00000000000E+00  0.00000000000E+00  0.99999998245E-14  0.12500000000E+03  0.12500000000E+03 0.  0.
        -13    1    3    3    0    0 -0.93474652445E+00  0.43602290698E+02 -0.40597396015E+02  0.59583497987E+02  0.10566000000E+00 0.  1.
         23    2    1    0    0    0  0.59815310626E+01  0.11456487819E+02 -0.26807747921E+02  0.95239536704E+02  0.90470349706E+02 0.  0.
         13    1    3    3    0    0  0.69162775870E+01 -0.32145802879E+02  0.13789648094E+02  0.35656038717E+02  0.10566000000E+00 0. -1.
         22    1    1    0    0    0 -0.59815310626E+01 -0.11456487819E+02  0.26807747921E+02  0.29760463296E+02  0.00000000000E+00 0.  1.
</event>
<event>
 5    1  0.8943113E-005  0.9118800E+02  0.7818608E-02  0.1130116E+00
         25   -1    0    0    0    0  0.00000000000E+00  0.00000000000E+00  0.99999998245E-14  0.12500000000E+03  0.12500000000E+03 0.  0.
        -13    1    3    3    0    0  0.41041800040E+02 -0.39699553343E+02 -0.61445699196E+01  0.57430399526E+02  0.10566000000E+00 0. -1.
         23    2    1    0    0    0  0.19620599136E+02 -0.95300943115E+00  0.78238815856E+01  0.10385551465E+03  0.10168027667E+03 0.  0.
         13    1    3    3    0    0 -0.21421200904E+02  0.38746543911E+02  0.13968451505E+02  0.46425115129E+02  0.10566000000E+00 0.  1.
         22    1    1    0    0    0 -0.19620599136E+02  0.95300943115E+00 -0.78238815856E+01  0.21144485345E+02  0.00000000000E+00 0. -1.
</event>
<event>
 5    1  0.8943113E-005  0.9118800E+02  0.7818608E-02  0.1130116E+00
         25   -1    0    0    0    0  0.00000000000E+00  0.00000000000E+00  0.99999998245E-14  0.12500000000E+03  0.12500000000E+03 0.  0.
        -13    1    3    3    0    0  0.41344955177E+02 -0.16618773376E+02  0.14771954731E+01  0.44584551333E+02  0.10566000000E+00 0. -1.
         23    2    1    0    0    0  0.23387688089E+02 -0.82348935322E+01  0.34149853655E+02  0.82797986656E+02  0.71235501430E+02 0.  0.
         13    1    3    3    0    0 -0.17957267088E+02  0.83838798435E+01  0.32672658181E+02  0.38213435323E+02  0.10566000000E+00 0.  1.
         22    1    1    0    0    0 -0.23387688089E+02  0.82348935322E+01 -0.34149853655E+02  0.42202013344E+02  0.00000000000E+00 0.  1.
</event>
<event>
 5    1  0.8943113E-005  0.9118800E+02  0.7818608E-02  0.1130116E+00
         25   -1    0    0    0    0  0.00000000000E+00  0.00000000000E+00  0.99999998245E-14  0.12500000000E+03  0.12500000000E+03 0.  0.
        -13    1    3    3    0    0  0.36324083271E+02  0.22460594081E+02  0.94558062773E+01  0.43741750632E+02  0.10566000000E+00 0.  1.
         23    2    1    0    0    0 -0.14934516805E+02  0.20149301868E+02  0.15668738852E+02  0.95427317754E+02  0.90729429837E+02 0.  0.
         13    1    3    3    0    0 -0.51258600077E+02 -0.23112922125E+01  0.62129325747E+01  0.51685567122E+02  0.10566000000E+00 0. -1.
         22    1    1    0    0    0  0.14934516805E+02 -0.20149301868E+02 -0.15668738852E+02  0.29572682246E+02  0.00000000000E+00 0. -1.
</event>
<event>
 5    1  0.8943113E-005  0.9118800E+02  0.7818608E-02  0.1130116E+00
         25   -1    0    0    0    0  0.00000000000E+00  0.00000000000E+00  0.99999998245E-14  0.12500000000E+03  0.12500000000E+03 0.  0.
        -13    1    3    3    0    0 -0.33801184761E+02  0.54409584606E+01  0.81889573103E+01  0.35202191780E+02  0.10566000000E+00 0.  1.
         23    2    1    0    0    0  0.26498249250E+02  0.86354344610E+01  0.93681438214E+01  0.95597788174E+02  0.90963987618E+02 0.  0.
         13    1    3    3    0    0  0.60299434011E+02  0.31944760004E+01  0.11791865110E+01  0.60395596394E+02  0.10566000000E+00 0. -1.
         22    1    1    0    0    0 -0.26498249250E+02 -0.86354344610E+01 -0.93681438214E+01  0.29402211826E+02  0.00000000000E+00 0. -1.
</event>
<event>
 5    1  0.8943113E-005  0.9118800E+02  0.7818608E-02  0.1130116E+00
         25   -1    0    0    0    0  0.00000000000E+00  0.00000000000E+00  0.99999998245E-14  0.12500000000E+03  0.12500000000E+03 0.  0.
        -13    1    3    3    0    0  0.29279177345E+02 -0.34314278936E+02  0.23441501379E+02  0.50835569396E+02  0.10566000000E+00 0.  1.
         23    2    1    0    0    0 -0.12299878691E+02 -0.14989637841E+02  0.20503266803E+02  0.96780145145E+02  0.92574490473E+02 0.  0.
         13    1    3    3    0    0 -0.41579056036E+02  0.19324641094E+02 -0.29382345762E+01  0.45944575749E+02  0.10566000000E+00 0. -1.
         22    1    1    0    0    0  0.12299878691E+02  0.14989637841E+02 -0.20503266803E+02  0.28219854855E+02  0.00000000000E+00 0.  1.
</event>
<event>
 5    1  0.8943113E-005  0.9118800E+02  0.7818608E-02  0.1130116E+00
         25   -1    0    0    0    0  0.00000000000E+00  0.00000000000E+00  0.99999998245E-14  0.12500000000E+03  0.12500000000E+03 0.  0.
        -13    1    3    3    0    0  0.38607847050E+02 -0.10863417319E+02 -0.31360196034E+02  0.50912206287E+02  0.10566000000E+00 0.  1.
         23    2    1    0    0    0 -0.16200671181E+01  0.79396620854E+01 -0.28456123519E+02  0.95412607124E+02  0.90709160403E+02 0.  0.
         13    1    3    3    0    0 -0.40227914168E+02  0.18803079404E+02  0.29040725156E+01  0.44500400837E+02  0.10566000000E+00 0. -1.
         22    1    1    0    0    0  0.16200671181E+01 -0.79396620854E+01  0.28456123519E+02  0.29587392876E+02  0.00000000000E+00 0.  1.
</event>
<event>
 5    1  0.8943113E-005  0.9118800E+02  0.7818608E-02  0.1130116E+00
         25   -1    0    0    0    0  0.00000000000E+00  0.00000000000E+00  0.99999998245E-14  0.12500000000E+03  0.12500000000E+03 0.  0.
        -13    1    3    3    0    0 -0.28713699584E+02 -0.67831295817E+01 -0.39364101940E+02  0.49193811361E+02  0.10566000000E+00 0.  1.
         23    2    1    0    0    0 -0.26658356931E+02  0.14191225653E+02  0.10592009473E+01  0.94781118710E+02  0.89834735361E+02 0.  0.
         13    1    3    3    0    0  0.20553426524E+01  0.20974355235E+02  0.40423302887E+02  0.45587307348E+02  0.10566000000E+00 0. -1.
         22    1    1    0    0    0  0.26658356931E+02 -0.14191225653E+02 -0.10592009473E+01  0.30218881290E+02  0.00000000000E+00 0. -1.
</event>
<event>
 5    1  0.8943113E-005  0.9118800E+02  0.7818608E-02  0.1130116E+00
         25   -1    0    0    0    0  0.00000000000E+00  0.00000000000E+00  0.99999998245E-14  0.12500000000E+03  0.12500000000E+03 0.  0.
        -13    1    3    3    0    0  0.28158360388E+02  0.28778238332E+01 -0.29751774360E+02  0.41065245297E+02  0.10566000000E+00 0. -1.
         23    2    1    0    0    0 -0.14652963547E+02 -0.23827283995E+02 -0.91141035341E+01  0.95580352033E+02  0.90940024237E+02 0.  0.
         13    1    3    3    0    0 -0.42811323935E+02 -0.26705107828E+02  0.20637670826E+02  0.54515106735E+02  0.10566000000E+00 0.  1.
         22    1    1    0    0    0  0.14652963547E+02  0.23827283995E+02  0.91141035341E+01  0.29419647967E+02  0.00000000000E+00 0.  1.
</event>
<event>
 5    1  0.8943113E-005  0.9118800E+02  0.7818608E-02  0.1130116E+00
         25   -1    0    0    0    0  0.00000000000E+00  0.00000000000E+00  0.99999998245E-14  0.12500000000E+03  0.12500000000E+03 0.  0.
        -13    1    3    3    0    0 -0.49444760045E+01  0.24740904709E+02  0.19183545609E+02  0.31695106798E+02  0.10566000000E+00 0. -1.
         23    2    1    0    0    0 -0.11777260472E+02 -0.22935065768E+02 -0.18847534056E+02  0.93063333830E+02  0.87411861081E+02 0.  0.
         13    1    3    3    0    0 -0.68327844680E+01 -0.47675970477E+02 -0.38031079665E+02  0.61368227032E+02  0.10566000000E+00 0.  1.
         22    1    1    0    0    0  0.11777260472E+02  0.22935065768E+02  0.18847534056E+02  0.31936666170E+02  0.00000000000E+00 0.  1.
</event>
<event>
 5    1  0.8943113E-005  0.9118800E+02  0.7818608E-02  0.1130116E+00
         25   -1    0    0    0    0  0.00000000000E+00  0.00000000000E+00  0.99999998245E-14  0.12500000000E+03  0.12500000000E+03 0.  0.
        -13    1    3    3    0    0 -0.94727393305E+01 -0.39895221766E+02 -0.18391065809E+01  0.41045766983E+02  0.10566000000E+00 0.  1.
         23    2    1    0    0    0  0.30928083148E+02 -0.83908891123E+01  0.43865382619E+01  0.92655061211E+02  0.86826063499E+02 0.  0.
         13    1    3    3    0    0  0.40400822479E+02  0.31504332654E+02  0.62256448428E+01  0.51609294228E+02  0.10566000000E+00 0. -1.
         22    1    1    0    0    0 -0.30928083148E+02  0.83908891123E+01 -0.43865382619E+01  0.32344938789E+02  0.00000000000E+00 0. -1.
</event>
<event>
 5    1  0.8943113E-005  0.9118800E+02  0.7818608E-02  0.1130116E+00
         25   -1    0    0    0    0  0.00000000000E+00  0.00000000000E+00  0.99999998245E-14  0.12500000000E+03  0.12500000000E+03 0.  0.
        -13    1    3    3    0    0  0.23129150848E+02 -0.33746922705E+02 -0.43266665285E+00  0.40914676774E+02  0.10566000000E+00 0.  1.
         23    2    1    0    0    0 -0.48153171949E+01 -0.16198962149E+01 -0.31162948057E+02  0.93425632626E+02  0.87928426328E+02 0.  0.
         13    1    3    3    0    0 -0.27944468043E+02  0.32127026490E+02 -0.30730281404E+02  0.52510955853E+02  0.10566000000E+00 0. -1.
         22    1    1    0    0    0  0.48153171949E+01  0.16198962149E+01  0.31162948057E+02  0.31574367374E+02  0.00000000000E+00 0. -1.
</event>
<event>
 5    1  0.8943113E-005  0.9118800E+02  0.7818608E-02  0.1130116E+00
         25   -1    0    0    0    0  0.00000000000E+00  0.00000000000E+00  0.99999998245E-14  0.12500000000E+03  0.12500000000E+03 0.  0.
        -13    1    3    3    0    0  0.17420404301E+02  0.17300138556E+02  0.22457871435E+02  0.33273599647E+02  0.10566000000E+00 0.  1.
         23    2    1    0    0    0 -0.11068190175E+02 -0.35587424202E+01 -0.27898806177E+02  0.94775624614E+02  0.89827090310E+02 0.  0.
         13    1    3    3    0    0 -0.28488594476E+02 -0.20858880977E+02 -0.50356677612E+02  0.61502024966E+02  0.10566000000E+00 0. -1.
         22    1    1    0    0    0  0.11068190175E+02  0.35587424202E+01  0.27898806177E+02  0.30224375386E+02  0.00000000000E+00 0. -1.
</event>
<event>
 5    1  0.8943113E-005  0.9118800E+02  0.7818608E-02  0.1130116E+00
         25   -1    0    0    0    0  0.00000000000E+00  0.00000000000E+00  0.99999998245E-14  0.12500000000E+03  0.12500000000E+03 0.  0.
        -13    1    3    3    0    0 -0.11037135253E+02 -0.22911275061E+02 -0.24883713810E+02  0.35580264987E+02  0.10566000000E+00 0.  1.
         23    2    1    0    0    0  0.11117792698E+02  0.26581137907E+02  0.20280941603E+01  0.96116174546E+02  0.91673571091E+02 0.  0.
         13    1    3    3    0    0  0.22154927952E+02  0.49492412968E+02  0.26911807970E+02  0.60535909560E+02  0.10566000000E+00 0. -1.
         22    1    1    0    0    0 -0.11117792698E+02 -0.26581137907E+02 -0.20280941603E+01  0.28883825454E+02  0.00000000000E+00 0. -1.
</event>
<event>
 5    1  0.8943113E-005  0.9118800E+02  0.7818608E-02  0.1130116E+00
         25   -1    0    0    0    0  0.00000000000E+00  0.00000000000E+00  0.99999998245E-14  0.12500000000E+03  0.12500000000E+03 0.  0.
        -13    1    3    3    0    0 -0.14880291063E+02  0.11347390088E+02 -0.33040737026E+02  0.37972197608E+02  0.10566000000E+00 0. -1.
         23    2    1    0    0    0 -0.13130907645E+02  0.11023763291E+02  0.24255922568E+02  0.95296568005E+02  0.90549113752E+02 0.  0.
         13    1    3    3    0    0  0.17493834178E+01 -0.32362679669E+00  0.57296659594E+02  0.57324370397E+02  0.10566000000E+00 0.  1.
         22    1    1    0    0    0  0.13130907645E+02 -0.11023763291E+02 -0.24255922568E+02  0.29703431995E+02  0.00000000000E+00 0.  1.
</event>
<event>
 5    1  0.8943113E-005  0.9118800E+02  0.7818608E-02  0.1130116E+00
         25   -1    0    0    0    0  0.00000000000E+00  0.00000000000E+00  0.99999998245E-14  0.12500000000E+03  0.12500000000E+03 0.  0.
        -13    1    3    3    0    0  0.32436485041E+02  0.46508930376E+02 -0.10465990090E+02  0.57660682264E+02  0.10566000000E+00 0. -1.
         23    2    1    0    0    0  0.80276807656E+01  0.16645321161E+02 -0.20384715182E+02  0.97485513123E+02  0.93522073763E+02 0.  0.
         13    1    3    3    0    0 -0.24408804276E+02 -0.29863609215E+02 -0.99187250925E+01  0.39824830860E+02  0.10566000000E+00 0.  1.
         22    1    1    0    0    0 -0.80276807656E+01 -0.16645321161E+02  0.20384715182E+02  0.27514486877E+02  0.00000000000E+00 0. -1.
</event>
<event>
 5    1  0.8943113E-005  0.9118800E+02  0.7818608E-02  0.1130116E+00
         25   -1    0    0    0    0  0.00000000000E+00  0.00000000000E+00  0.99999998245E-14  0.12500000000E+03  0.12500000000E+03 0.  0.
        -13    1    3    3    0    0  0.42802045153E+02  0.71578641278E+01  0.34021333691E+02  0.55142654981E+02  0.10566000000E+00 0. -1.
         23    2    1    0    0    0  0.24335097739E+02  0.17603702039E+02  0.32349954544E+00  0.94963489560E+02  0.90088136789E+02 0.  0.
         13    1    3    3    0    0 -0.18466947414E+02  0.10445837911E+02 -0.33697834146E+02  0.39820834579E+02  0.10566000000E+00 0.  1.
         22    1    1    0    0    0 -0.24335097739E+02 -0.17603702039E+02 -0.32349954544E+00  0.30036510440E+02  0.00000000000E+00 0. -1.
</event>
<event>
 5    1  0.8943113E-005  0.9118800E+02  0.7818608E-02  0.1130116E+00
         25   -1    0    0    0    0  0.00000000000E+00  0.00000000000E+00  0.99999998245E-14  0.12500000000E+03  0.12500000000E+03 0.  0.
        -13    1    3    3    0    0 -0.10273708519E+02 -0.10888392267E+02 -0.40399623230E+02  0.43084183804E+02  0.10566000000E+00 0.  1.
         23    2    1    0    0    0  0.13748018129E+02  0.24668241322E+02 -0.13828624163E+02  0.93555430061E+02  0.88112754555E+02 0.  0.
         13    1    3    3    0    0  0.24021726647E+02  0.35556633589E+02  0.26570999067E+02  0.50471246258E+02  0.10566000000E+00 0. -1.
         22    1    1    0    0    0 -0.13748018129E+02 -0.24668241322E+02  0.13828624163E+02  0.31444569939E+02  0.00000000000E+00 0. -1.
</event>
<event>
 5    1  0.8943113E-005  0.9118800E+02  0.7818608E-02  0.1130116E+00
         25   -1    0    0    0    0  0.00000000000E+00  0.00000000000E+00  0.99999998245E-14  0.12500000000E+03  0.12500000000E+03 0.  0.
        -13    1    3    3    0    0 -0.15097088456E+02  0.27092254161E+01 -0.24557342199E+02  0.28954036025E+02  0.10566000000E+00 0. -1.
         23    2    1    0    0    0  0.24450795776E+02 -0.11597062361E+02  0.20844334532E+02  0.90841259514E+02  0.84174312463E+02 0.  0.
         13    1    3    3    0    0  0.39547884232E+02 -0.14306287777E+02  0.45401676731E+02  0.61887223489E+02  0.10566000000E+00 0.  1.
         22    1    1    0    0    0 -0.24450795776E+02  0.11597062361E+02 -0.20844334532E+02  0.34158740486E+02  0.00000000000E+00 0.  1.
</event>
<event>
 5    1  0.8943113E-005  0.9118800E+02  0.7818608E-02  0.1130116E+00
         25   -1    0    0    0    0  0.00000000000E+00  0.00000000000E+00  0.99999998245E-14  0.12500000000E+03  0.12500000000E+03 0.  0.
        -13    1    3    3    0    0  0.15805238928E+02  0.23240102696E+02 -0.28358278413E+02  0.39926320510E+02  0.10566000000E+00 0.  1.
         23    2    1    0    0    0  0.10767051822E+02 -0.26918655694E+02 -0.46386103892E+01  0.95639139392E+02  0.91020793492E+02 0.  0.
         13    1    3    3    0    0 -0.50381871059E+01 -0.50158758390E+02  0.23719668024E+02  0.55712818882E+02  0.10566000000E+00 0. -1.
         22    1    1    0    0    0 -0.10767051822E+02  0.26918655694E+02  0.46386103892E+01  0.29360860608E+02  0.00000000000E+00 0. -1.
</event>
<event>
 5    1  0.8943113E-005  0.9118800E+02  0.7818608E-02  0.1130116E+00
         25   -1    0    0    0    0  0.00000000000E+00  0.00000000000E+00  0.99999998245E-14  0.12500000000E+03  0.12500000000E+03 0.  0.
        -13    1    3    3    0    0 -0.23433235663E+02 -0.20666825735E+02  0.50434410899E+02  0.59328536021E+02  0.10566000000E+00 0.  1.
         23    2    1    0    0    0 -0.21047347830E+02 -0.13580137573E+02  0.14448245163E+02  0.96083520693E+02  0.91629035646E+02 0.  0.
         13    1    3    3    0    0  0.23858878327E+01  0.70866881618E+01 -0.35986165736E+02  0.36754984673E+02  0.10566000000E+00 0. -1.
         22    1    1    0    0    0  0.21047347830E+02  0.13580137573E+02 -0.14448245163E+02  0.28916479307E+02  0.00000000000E+00 0.  1.
</event>
<event>
 5    1  0.8943113E-005  0.9118800E+02  0.7818608E-02  0.1130116E+00
         25   -1    0    0    0    0  0.00000000000E+00  0.00000000000E+00  0.99999998245E-14  0.12500000000E+03  0.12500000000E+03 0.  0.
        -13    1    3    3    0    0  0.21637602714E+02 -0.14564945862E+02  0.53959897053E+02  0.59933339246E+02  0.10566000000E+00 0.  1.
         23    2    1    0    0    0  0.39890170706E+01  0.33334742326E+01  0.29635199095E+02  0.94912305953E+02  0.90017089979E+02 0.  0.
         13    1    3    3    0    0 -0.17648585644E+02  0.17898420095E+02 -0.24324697958E+02  0.34978966707E+02  0.10566000000E+00 0. -1.
         22    1    1    0    0    0 -0.39890170706E+01 -0.33334742326E+01 -0.29635199095E+02  0.30087694047E+02  0.00000000000E+00 0.  1.
</event>
<event>
 5    1  0.8943113E-005  0.9118800E+02  0.7818608E-02  0.1130116E+00
         25   -1    0    0    0    0  0.00000000000E+00  0.00000000000E+00  0.99999998245E-14  0.12500000000E+03  0.12500000000E+03 0.  0.
        -13    1    3    3    0    0 -0.30432470389E+02  0.25918711697E+02  0.25073554909E+02  0.47186959955E+02  0.10566000000E+00 0. -1.
         23    2    1    0    0    0  0.11872367239E+02  0.27549431674E+01  0.26915606147E+02  0.95453550637E+02  0.90765564281E+02 0.  0.
         13    1    3    3    0    0  0.42304837628E+02 -0.23163768530E+02  0.18420512382E+01  0.48266590681E+02  0.10566000000E+00 0.  1.
         22    1    1    0    0    0 -0.11872367239E+02 -0.27549431674E+01 -0.26915606147E+02  0.29546449363E+02  0.00000000000E+00 0.  1.
</event>
<event>
 5    1  0.8943113E-005  0.9118800E+02  0.7818608E-02  0.1130116E+00
         25   -1    0    0    0    0  0.00000000000E+00  0.00000000000E+00  0.99999998245E-14  0.12500000000E+03  0.12500000000E+03 0.  0.
        -13    1    3    3    0    0  0.15928037476E+02  0.31784721002E+02  0.14482161662E+02  0.38388996307E+02  0.10566000000E+00 0.  1.
         23    2    1    0    0    0 -0.15294905767E+02 -0.12850996139E+02  0.24092493068E+02  0.93702548563E+02  0.88321215689E+02 0.  0.
         13    1    3    3    0    0 -0.31222943244E+02 -0.44635717141E+02  0.96103314059E+01  0.55313552257E+02  0.10566000000E+00 0. -1.
         22    1    1    0    0    0  0.15294905767E+02  0.12850996139E+02 -0.24092493068E+02  0.31297451437E+02  0.00000000000E+00 0. -1.
</event>
<event>
 5    1  0.8943113E-005  0.9118800E+02  0.7818608E-02  0.1130116E+00
         25   -1    0    0    0    0  0.00000000000E+00  0.00000000000E+00  0.99999998245E-14  0.12500000000E+03  0.12500000000E+03 0.  0.
        -13    1    3    3    0    0 -0.27366192012E+02 -0.18080464471E+02 -0.34349573339E+02  0.47494378755E+02  0.10566000000E+00 0. -1.
         23    2    1    0    0    0 -0.51774659187E+01  0.21814823329E+02 -0.18861000932E+02  0.95701023459E+02  0.91105740020E+02 0.  0.
         13    1    3    3    0    0  0.22188726093E+02  0.39895287800E+02  0.15488572407E+02  0.48206644703E+02  0.10566000000E+00 0.  1.
         22    1    1    0    0    0  0.51774659187E+01 -0.21814823329E+02  0.18861000932E+02  0.29298976541E+02  0.00000000000E+00 0. -1.
</event>
<event>
 5    1  0.8943113E-005  0.9118800E+02  0.7818608E-02  0.1130116E+00
         25   -1    0    0    0    0  0.00000000000E+00  0.00000000000E+00  0.99999998245E-14  0.12500000000E+03  0.12500000000E+03 0.  0.
        -13    1    3    3    0    0  0.18026882865E+02  0.58413222446E+02  0.46454767361E+01  0.61307949570E+02  0.10566000000E+00 0. -1.
         23    2    1    0    0    0  0.46368127920E+01  0.26351422099E+02  0.99446114624E+01  0.96455424743E+02  0.92134988933E+02 0.  0.
         13    1    3    3    0    0 -0.13390070073E+02 -0.32061800348E+02  0.52991347263E+01  0.35147475172E+02  0.10566000000E+00 0.  1.
         22    1    1    0    0    0 -0.46368127920E+01 -0.26351422099E+02 -0.99446114624E+01  0.28544575257E+02  0.00000000000E+00 0. -1.
</event>
<event>
 5    1  0.8943113E-005  0.9118800E+02  0.7818608E-02  0.1130116E+00
         25   -1    0    0    0    0  0.00000000000E+00  0.00000000000E+00  0.99999998245E-14  0.12500000000E+03  0.12500000000E+03 0.  0.
        -13    1    3    3    0    0 -0.11479347644E+02  0.35806371978E+02 -0.62760388928E+01  0.38121798551E+02  0.10566000000E+00 0.  1.
         23    2    1    0    0    0 -0.92624704673E+01 -0.12177250674E+02  0.25177427862E+02  0.95538471410E+02  0.90882439737E+02 0.  0.
         13    1    3    3    0    0  0.22168771769E+01 -0.47983622652E+02  0.31453466755E+02  0.57416672859E+02  0.10566000000E+00 0. -1.
         22    1    1    0    0    0  0.92624704673E+01  0.12177250674E+02 -0.25177427862E+02  0.29461528590E+02  0.00000000000E+00 0. -1.
</event>
<event>
 5    1  0.8943113E-005  0.9118800E+02  0.7818608E-02  0.1130116E+00
         25   -1    0    0    0    0  0.00000000000E+00  0.00000000000E+00  0.99999998245E-14  0.12500000000E+03  0.12500000000E+03 0.  0.
        -13    1    3    3    0    0  0.42180658061E+02 -0.36773186762E+01  0.27472911264E+02  0.50472790734E+02  0.10566000000E+00 0.  1.
         23    2    1    0    0    0  0.30853838996E+01 -0.23850480490E+02  0.16564069197E+02  0.95798400698E+02  0.91239246898E+02 0.  0.
         13    1    3    3    0    0 -0.39095274162E+02 -0.20173161814E+02 -0.10908842067E+02  0.45325609964E+02  0.10566000000E+00 0. -1.
         22    1    1    0    0    0 -0.30853838996E+01  0.23850480490E+02 -0.16564069197E+02  0.29201599302E+02  0.00000000000E+00 0.  1.
</event>
<event>
 5    1  0.8943113E-005  0.9118800E+02  0.7818608E-02  0.1130116E+00
         25   -1    0    0    0    0  0.00000000000E+00  0.00000000000E+00  0.99999998245E-14  0.12500000000E+03  0.12500000000E+03 0.  0.
        -13    1    3    3    0    0  0.16511967383E+02 -0.74424907255E+01  0.28544657885E+02  0.33805981614E+02  0.10566000000E+00 0.  1.
         23    2    1    0    0    0 -0.21988098789E+02  0.29694848381E+01 -0.18947043702E+02  0.95823214817E+02  0.91273236516E+02 0.  0.
         13    1    3    3    0    0 -0.38500066173E+02  0.10411975564E+02 -0.47491701587E+02  0.62017233203E+02  0.10566000000E+00 0. -1.
         22    1    1    0    0    0  0.21988098789E+02 -0.29694848381E+01  0.18947043702E+02  0.29176785183E+02  0.00000000000E+00 0. -1.
</event>
<event>
 5    1  0.8943113E-005  0.9118800E+02  0.7818608E-02  0.1130116E+00
         25   -1    0    0    0    0  0.00000000000E+00  0.00000000000E+00  0.99999998245E-14  0.12500000000E+03  0.12500000000E+03 0.  0.
        -13    1    3    3    0    0 -0.13641735595E+02 -0.85757178275E+01 -0.40239701995E+02  0.43346103251E+02  0.10566000000E+00 0. -1.
         23    2    1    0    0    0 -0.17766843357E+01 -0.27477228209E+02  0.78553547636E+01  0.96366780206E+02  0.92014645853E+02 0.  0.
         13    1    3    3    0    0  0.11865051260E+02 -0.18901510382E+02  0.48095056759E+02  0.53020676955E+02  0.10566000000E+00 0.  1.
         22    1    1    0    0    0  0.17766843357E+01  0.27477228209E+02 -0.78553547636E+01  0.28633219794E+02  0.00000000000E+00 0.  1.
</event>
<event>
 5    1  0.8943113E-005  0.9118800E+02  0.7818608E-02  0.1130116E+00
         25   -1    0    0    0    0  0.00000000000E+00  0.00000000000E+00  0.99999998245E-14  0.12500000000E+03  0.12500000000E+03 0.  0.
        -13    1    3    3    0    0 -0.42249334179E+02 -0.21535171585E+02  0.24419894745E+02  0.53339593898E+02  0.10566000000E+00 0.  1.
         23    2    1    0    0    0 -0.67525089096E+01  0.27898099650E+01  0.27562072546E+02  0.96486016426E+02  0.92176483478E+02 0.  0.
         13    1    3    3    0    0  0.35496825269E+02  0.24324981550E+02  0.31421778014E+01  0.43146422528E+02  0.10566000000E+00 0. -1.
         22    1    1    0    0    0  0.67525089096E+01 -0.27898099650E+01 -0.27562072546E+02  0.28513983574E+02  0.00000000000E+00 0.  1.
</event>
<event>
 5    1  0.8943113E-005  0.9118800E+02  0.7818608E-02  0.1130116E+00
         25   -1    0    0    0    0  0.00000000000E+00  0.00000000000E+00  0.99999998245E-14  0.12500000000E+03  0.12500000000E+03 0.  0.
        -13    1    3    3    0    0 -0.21925685728E+02  0.24923314484E+02  0.22245273592E+01  0.33269610540E+02  0.10566000000E+00 0.  1.
         23    2    1    0    0    0  0.12300548961E+02 -0.25062397865E+02  0.11960494987E+02  0.94627632100E+02  0.89620912878E+02 0.  0.
         13    1    3    3    0    0  0.34226234689E+02 -0.49985712349E+02  0.97359676280E+01  0.61358021560E+02  0.10566000000E+00 0. -1.
         22    1    1    0    0    0 -0.12300548961E+02  0.25062397865E+02 -0.11960494987E+02  0.30372367900E+02  0.00000000000E+00 0. -1.
</event>
<event>
 5    1  0.8943113E-005  0.9118800E+02  0.7818608E-02  0.1130116E+00
         25   -1    0    0    0    0  0.00000000000E+00  0.00000000000E+00  0.99999998245E-14  0.12500000000E+03  0.12500000000E+03 0.  0.
        -13    1    3    3    0    0 -0.15716285581E+02  0.11648225865E+02  0.27104473744E+02  0.33426732703E+02  0.10566000000E+00 0. -1.
         23    2    1    0    0    0  0.24934914232E+02 -0.15769099837E+02 -0.88147123008E+01  0.94208546472E+02  0.89034468708E+02 0.  0.
         13    1    3    3    0    0  0.40651199813E+02 -0.27417325702E+02 -0.35919186044E+02  0.60781813769E+02  0.10566000000E+00 0.  1.
         22    1    1    0    0    0 -0.24934914232E+02  0.15769099837E+02  0.88147123008E+01  0.30791453528E+02  0.00000000000E+00 0.  1.
</event>
<event>
 5    1  0.8943113E-005  0.9118800E+02  0.7818608E-02  0.1130116E+00
         25   -1    0    0    0    0  0.00000000000E+00  0.00000000000E+00  0.99999998245E-14  0.12500000000E+03  0.12500000000E+03 0.  0.
        -13    1    3    3    0    0 -0.16226234659E+02 -0.45695916284E+02 -0.82782649748E+01  0.49192969937E+02  0.10566000000E+00 0.  1.
         23    2    1    0    0    0 -0.24462358704E+02  0.15528528489E+01 -0.12764999682E+02  0.97363727418E+02  0.93359155172E+02 0.  0.
         13    1    3    3    0    0 -0.82361240457E+01  0.47248769133E+02 -0.44867347077E+01  0.48170757480E+02  0.10566000000E+00 0. -1.
         22    1    1    0    0    0  0.24462358704E+02 -0.15528528489E+01  0.12764999682E+02  0.27636272582E+02  0.00000000000E+00 0. -1.
</event>
<event>
 5    1  0.8943113E-005  0.9118800E+02  0.7818608E-02  0.1130116E+00
         25   -1    0    0    0    0  0.00000000000E+00  0.00000000000E+00  0.99999998245E-14  0.12500000000E+03  0.12500000000E+03 0.  0.
        -13    1    3    3    0    0 -0.19462734364E+02  0.26791896105E+02 -0.17537638756E+02  0.37472438712E+02  0.10566000000E+00 0.  1.
         23    2    1    0    0    0  0.15275989728E+02  0.20726399194E+01  0.23660238516E+02  0.96760690783E+02  0.92548218221E+02 0.  0.
         13    1    3    3    0    0  0.34738724092E+02 -0.24719256186E+02  0.41197877272E+02  0.59288252072E+02  0.10566000000E+00 0. -1.
         22    1    1    0    0    0 -0.15275989728E+02 -0.20726399194E+01 -0.23660238516E+02  0.28239309217E+02  0.00000000000E+00 0. -1.
</event>
<event>
 5    1  0.8943113E-005  0.9118800E+02  0.7818608E-02  0.1130116E+00
         25   -1    0    0    0    0  0.00000000000E+00  0.00000000000E+00  0.99999998245E-14  0.12500000000E+03  0.12500000000E+03 0.  0.
        -13    1    3    3    0    0 -0.96637005649E+00  0.36919195414E+02 -0.44245528881E+02  0.57633660747E+02  0.10566000000E+00 0.  1.
         23    2    1    0    0    0  0.15901039717E+02  0.10777299548E+02 -0.21472524407E+02  0.96189193797E+02  0.91773081289E+02 0.  0.
         13    1    3    3    0    0  0.16867409774E+02 -0.26141895866E+02  0.22773004474E+02  0.38555533050E+02  0.10566000000E+00 0. -1.
         22    1    1    0    0    0 -0.15901039717E+02 -0.10777299548E+02  0.21472524407E+02  0.28810806203E+02  0.00000000000E+00 0.  1.
</event>
<event>
 5    1  0.8943113E-005  0.9118800E+02  0.7818608E-02  0.1130116E+00
         25   -1    0    0    0    0  0.00000000000E+00  0.00000000000E+00  0.99999998245E-14  0.12500000000E+03  0.12500000000E+03 0.  0.
        -13    1    3    3    0    0  0.10657955242E+02  0.36230325795E+02 -0.19917914384E+02  0.42696170725E+02  0.10566000000E+00 0.  1.
         23    2    1    0    0    0 -0.13685195310E+02  0.15524058878E+02  0.21597596655E+02  0.95087842672E+02  0.90260515553E+02 0.  0.
         13    1    3    3    0    0 -0.24343150552E+02 -0.20706266917E+02  0.41515511039E+02  0.52391671946E+02  0.10566000000E+00 0. -1.
         22    1    1    0    0    0  0.13685195310E+02 -0.15524058878E+02 -0.21597596655E+02  0.29912157328E+02  0.00000000000E+00 0.  1.
</event>
<event>
 5    1  0.8943113E-005  0.9118800E+02  0.7818608E-02  0.1130116E+00
         25   -1    0    0    0    0  0.00000000000E+00  0.00000000000E+00  0.99999998245E-14  0.12500000000E+03  0.12500000000E+03 0.  0.
        -13    1    3    3    0    0 -0.49700963464E+02  0.33474776111E+02  0.11676766779E+02  0.61050015982E+02  0.10566000000E+00 0. -1.
         23    2    1    0    0    0 -0.24802209749E+02  0.27668446958E+02  0.47410293815E+01  0.87541090177E+02  0.79121884105E+02 0.  0.
         13    1    3    3    0    0  0.24898753714E+02 -0.58063291533E+01 -0.69357373978E+01  0.26491074196E+02  0.10566000000E+00 0.  1.
         22    1    1    0    0    0  0.24802209749E+02 -0.27668446958E+02 -0.47410293815E+01  0.37458909823E+02  0.00000000000E+00 0. -1.
</event>
<event>
 5    1  0.8943113E-005  0.9118800E+02  0.7818608E-02  0.1130116E+00
         25   -1    0    0    0    0  0.00000000000E+00  0.00000000000E+00  0.99999998245E-14  0.12500000000E+03  0.12500000000E+03 0.  0.
        -13    1    3    3    0    0 -0.92577805360E+01  0.47343758888E+02  0.14357569633E+02  0.50331788920E+02  0.10566000000E+00 0.  1.
         23    2    1    0    0    0  0.22755113239E+02  0.16101163442E+02  0.10435454623E+02  0.95235232978E+02  0.90464403189E+02 0.  0.
         13    1    3    3    0    0  0.32012893775E+02 -0.31242595446E+02 -0.39221150099E+01  0.44903444057E+02  0.10566000000E+00 0. -1.
         22    1    1    0    0    0 -0.22755113239E+02 -0.16101163442E+02 -0.10435454623E+02  0.29764767022E+02  0.00000000000E+00 0.  1.
</event>
<event>
 5    1  0.8943113E-005  0.9118800E+02  0.7818608E-02  0.1130116E+00
         25   -1    0    0    0    0  0.00000000000E+00  0.00000000000E+00  0.99999998245E-14  0.12500000000E+03  0.12500000000E+03 0.  0.
        -13    1    3    3    0    0 -0.24015128665E+02  0.28670405486E+02 -0.26586443281E+02  0.45886476067E+02  0.10566000000E+00 0.  1.
         23    2    1    0    0    0 -0.24470102532E+02 -0.14399899393E+02  0.19542933727E+00  0.96606669566E+02  0.92339955553E+02 0.  0.
         13    1    3    3    0    0 -0.45497386736E+00 -0.43070304879E+02  0.26781872618E+02  0.50720193499E+02  0.10566000000E+00 0. -1.
         22    1    1    0    0    0  0.24470102532E+02  0.14399899393E+02 -0.19542933727E+00  0.28393330434E+02  0.00000000000E+00 0. -1.
</event>
<event>
 5    1  0.8943113E-005  0.9118800E+02  0.7818608E-02  0.1130116E+00
         25   -1    0    0    0    0  0.00000000000E+00  0.00000000000E+00  0.99999998245E-14  0.12500000000E+03  0.12500000000E+03 0.  0.
        -13    1    3    3    0    0 -0.29337646877E+01 -0.10570685980E+02 -0.54375706448E+02  0.55471388960E+02  0.10566000000E+00 0.  1.
         23    2    1    0    0    0  0.13213677932E+02 -0.18568534745E+02 -0.18394757030E+02  0.95712479565E+02  0.91121456810E+02 0.  0.
         13    1    3    3    0    0  0.16147442619E+02 -0.79978487643E+01  0.35980949418E+02  0.40241090605E+02  0.10566000000E+00 0. -1.
         22    1    1    0    0    0 -0.13213677932E+02  0.18568534745E+02  0.18394757030E+02  0.29287520435E+02  0.00000000000E+00 0.  1.
</event>
<event>
 5    1  0.8943113E-005  0.9118800E+02  0.7818608E-02  0.1130116E+00
         25   -1    0    0    0    0  0.00000000000E+00  0.00000000000E+00  0.99999998245E-14  0.12500000000E+03  0.12500000000E+03 0.  0.
        -13    1    3    3    0    0  0.58320457492E+02 -0.70255126681E+01 -0.73026051033E+01  0.59194364560E+02  0.10566000000E+00 0.  1.
         23    2    1    0    0    0  0.24131822754E+02 -0.16978869778E+02 -0.25920088507E+00  0.95492474291E+02  0.90819153116E+02 0.  0.
         13    1    3    3    0    0 -0.34188634738E+02 -0.99533571102E+01  0.70434042183E+01  0.36298109731E+02  0.10566000000E+00 0. -1.
         22    1    1    0    0    0 -0.24131822754E+02  0.16978869778E+02  0.25920088507E+00  0.29507525709E+02  0.00000000000E+00 0.  1.
</event>
<event>
 5    1  0.8943113E-005  0.9118800E+02  0.7818608E-02  0.1130116E+00
         25   -1    0    0    0    0  0.00000000000E+00  0.00000000000E+00  0.99999998245E-14  0.12500000000E+03  0.12500000000E+03 0.  0.
        -13    1    3    3    0    0 -0.65402379203E+01  0.34855794288E+02 -0.42468742496E+02  0.55329073376E+02  0.10566000000E+00 0.  1.
         23    2    1    0    0    0 -0.96179614408E+01 -0.24029617527E+01 -0.27792431138E+02  0.95492396980E+02  0.90819046708E+02 0.  0.
         13    1    3    3    0    0 -0.30777235204E+01 -0.37258756040E+02  0.14676311358E+02  0.40163323603E+02  0.10566000000E+00 0. -1.
         22    1    1    0    0    0  0.96179614408E+01  0.24029617527E+01  0.27792431138E+02  0.29507603020E+02  0.00000000000E+00 0.  1.
</event>
<event>
 5    1  0.8943113E-005  0.9118800E+02  0.7818608E-02  0.1130116E+00
         25   -1    0    0    0    0  0.00000000000E+00  0.00000000000E+00  0.99999998245E-14  0.12500000000E+03  0.12500000000E+03 0.  0.
        -13    1    3    3    0    0  0.14532254330E+02  0.27064599530E+02 -0.31504606989E+02  0.44002617981E+02  0.10566000000E+00 0. -1.
         23    2    1    0    0    0 -0.10635907412E+02  0.23682717909E+02  0.13545613066E+02  0.95717286885E+02  0.91128051232E+02 0.  0.
         13    1    3    3    0    0 -0.25168161742E+02 -0.33818816213E+01  0.45050220055E+02  0.51714668904E+02  0.10566000000E+00 0.  1.
         22    1    1    0    0    0  0.10635907412E+02 -0.23682717909E+02 -0.13545613066E+02  0.29282713115E+02  0.00000000000E+00 0.  1.
</event>
<event>
 5    1  0.8943113E-005  0.9118800E+02  0.7818608E-02  0.1130116E+00
         25   -1    0    0    0    0  0.00000000000E+00  0.00000000000E+00  0.99999998245E-14  0.12500000000E+03  0.12500000000E+03 0.  0.
        -13    1    3    3    0    0  0.27333139127E+02  0.20987498140E+02  0.27756961091E+02  0.44249696336E+02  0.10566000000E+00 0.  1.
         23    2    1    0    0    0 -0.14813988078E+02  0.23237452672E+02 -0.41118926403E+01  0.97137101540E+02  0.93055227608E+02 0.  0.
         13    1    3    3    0    0 -0.42147127206E+02  0.22499545320E+01 -0.31868853732E+02  0.52887405205E+02  0.10566000000E+00 0. -1.
         22    1    1    0    0    0  0.14813988078E+02 -0.23237452672E+02  0.41118926403E+01  0.27862898460E+02  0.00000000000E+00 0. -1.
</event>
<event>
 5    1  0.8943113E-005  0.9118800E+02  0.7818608E-02  0.1130116E+00
         25   -1    0    0    0    0  0.00000000000E+00  0.00000000000E+00  0.99999998245E-14  0.12500000000E+03  0.12500000000E+03 0.  0.
        -13    1    3    3    0    0 -0.49103359401E+02 -0.27174741040E+02 -0.20008849909E+02  0.59581638898E+02  0.10566000000E+00 0. -1.
         23    2    1    0    0    0 -0.21652055217E+02 -0.18908894432E+02  0.26609898906E+01  0.96130662443E+02  0.91693323698E+02 0.  0.
         13    1    3    3    0    0  0.27451304184E+02  0.82658466079E+01  0.22669839800E+02  0.36549023545E+02  0.10566000000E+00 0.  1.
         22    1    1    0    0    0  0.21652055217E+02  0.18908894432E+02 -0.26609898906E+01  0.28869337557E+02  0.00000000000E+00 0. -1.
</event>
<event>
 5    1  0.8943113E-005  0.9118800E+02  0.7818608E-02  0.1130116E+00
         25   -1    0    0    0    0  0.00000000000E+00  0.00000000000E+00  0.99999998245E-14  0.12500000000E+03  0.12500000000E+03 0.  0.
        -13    1    3    3    0    0 -0.12529569849E+01  0.15261395885E+02 -0.37051052435E+02  0.40090793908E+02  0.10566000000E+00 0.  1.
         23    2    1    0    0    0 -0.46277415706E+01  0.23199335515E+02  0.17660692449E+02  0.95478394045E+02  0.90799771538E+02 0.  0.
         13    1    3    3    0    0 -0.33747845857E+01  0.79379396296E+01  0.54711744885E+02  0.55387600137E+02  0.10566000000E+00 0. -1.
         22    1    1    0    0    0  0.46277415706E+01 -0.23199335515E+02 -0.17660692449E+02  0.29521605955E+02  0.00000000000E+00 0. -1.
</event>
<event>
 5    1  0.8943113E-005  0.9118800E+02  0.7818608E-02  0.1130116E+00
         25   -1    0    0    0    0  0.00000000000E+00  0.00000000000E+00  0.99999998245E-14  0.12500000000E+03  0.12500000000E+03 0.  0.
        -13    1    3    3    0    0  0.32782298015E+02  0.12461287493E+02  0.15540188474E+01  0.35105396846E+02  0.10566000000E+00 0. -1.
         23    2    1    0    0    0 -0.20167855185E+02 -0.16581395404E+02 -0.10795198098E+02  0.96747188489E+02  0.92529979586E+02 0.  0.
         13    1    3    3    0    0 -0.52950153200E+02 -0.29042682897E+02 -0.12349216945E+02  0.61641791643E+02  0.10566000000E+00 0.  1.
         22    1    1    0    0    0  0.20167855185E+02  0.16581395404E+02  0.10795198098E+02  0.28252811511E+02  0.00000000000E+00 0.  1.
</event>
<event>
 5    1  0.8943113E-005  0.9118800E+02  0.7818608E-02  0.1130116E+00
         25   -1    0    0    0    0  0.00000000000E+00  0.00000000000E+00  0.99999998245E-14  0.12500000000E+03  0.12500000000E+03 0.  0.
        -13    1    3    3    0    0 -0.46876445528E+02  0.28028598617E+02 -0.40442078744E+00  0.54618478613E+02  0.10566000000E+00 0. -1.
         23    2    1    0    0    0 -0.11167251490E+02  0.18953266413E+02 -0.19038499023E+02  0.95907075455E+02  0.91388012691E+02 0.  0.
         13    1    3    3    0    0  0.35709194038E+02 -0.90753322040E+01 -0.18634078235E+02  0.41288596842E+02  0.10566000000E+00 0.  1.
         22    1    1    0    0    0  0.11167251490E+02 -0.18953266413E+02  0.19038499023E+02  0.29092924545E+02  0.00000000000E+00 0. -1.
</event>
<event>
 5    1  0.8943113E-005  0.9118800E+02  0.7818608E-02  0.1130116E+00
         25   -1    0    0    0    0  0.00000000000E+00  0.00000000000E+00  0.99999998245E-14  0.12500000000E+03  0.12500000000E+03 0.  0.
        -13    1    3    3    0    0  0.16316925612E+02  0.27611483803E+01 -0.43495866289E+02  0.46537807749E+02  0.10566000000E+00 0. -1.
         23    2    1    0    0    0 -0.97051864258E+01 -0.24829533555E+02 -0.12324778007E+02  0.95630006247E+02  0.91008249965E+02 0.  0.
         13    1    3    3    0    0 -0.26022112038E+02 -0.27590681936E+02  0.31171088283E+02  0.49092198498E+02  0.10566000000E+00 0.  1.
         22    1    1    0    0    0  0.97051864258E+01  0.24829533555E+02  0.12324778007E+02  0.29369993753E+02  0.00000000000E+00 0. -1.
</event>
<event>
 5    1  0.8943113E-005  0.9118800E+02  0.7818608E-02  0.1130116E+00
         25   -1    0    0    0    0  0.00000000000E+00  0.00000000000E+00  0.99999998245E-14  0.12500000000E+03  0.12500000000E+03 0.  0.
        -13    1    3    3    0    0  0.28671577644E+02 -0.16668856744E+02 -0.31536508311E+02  0.45765409102E+02  0.10566000000E+00 0.  1.
         23    2    1    0    0    0 -0.11195915343E+01 -0.28845512441E+02  0.63153760057E+01  0.95450024581E+02  0.90760708157E+02 0.  0.
         13    1    3    3    0    0 -0.29791169178E+02 -0.12176655697E+02  0.37851884317E+02  0.49684615479E+02  0.10566000000E+00 0. -1.
         22    1    1    0    0    0  0.11195915343E+01  0.28845512441E+02 -0.63153760057E+01  0.29549975419E+02  0.00000000000E+00 0. -1.
</event>
<event>
 5    1  0.8943113E-005  0.9118800E+02  0.7818608E-02  0.1130116E+00
         25   -1    0    0    0    0  0.00000000000E+00  0.00000000000E+00  0.99999998245E-14  0.12500000000E+03  0.12500000000E+03 0.  0.
        -13    1    3    3    0    0 -0.11865960653E+02 -0.22142781877E+02 -0.12240437737E+02  0.27945362612E+02  0.10566000000E+00 0. -1.
         23    2    1    0    0    0  0.26488460406E+02  0.24364787314E+02 -0.51325242755E+01  0.88645850292E+02  0.80848392520E+02 0.  0.
         13    1    3    3    0    0  0.38354421059E+02  0.46507569191E+02  0.71079134619E+01  0.60700487680E+02  0.10566000000E+00 0.  1.
         22    1    1    0    0    0 -0.26488460406E+02 -0.24364787314E+02  0.51325242755E+01  0.36354149708E+02  0.00000000000E+00 0.  1.
</event>
<event>
 5    1  0.8943113E-005  0.9118800E+02  0.7818608E-02  0.1130116E+00
         25   -1    0    0    0    0  0.00000000000E+00  0.00000000000E+00  0.99999998245E-14  0.12500000000E+03  0.12500000000E+03 0.  0.
        -13    1    3    3    0    0  0.34409826621E+02  0.12033075627E+02  0.49125450844E+02  0.61173132680E+02  0.10566000000E+00 0. -1.
         23    2    1    0    0    0  0.19686471829E+02  0.11185562750E+02  0.16480254994E+02  0.96995129142E+02  0.92864321919E+02 0.  0.
         13    1    3    3    0    0 -0.14723354793E+02 -0.84751287710E+00 -0.32645195850E+02  0.35821996463E+02  0.10566000000E+00 0.  1.
         22    1    1    0    0    0 -0.19686471829E+02 -0.11185562750E+02 -0.16480254994E+02  0.28004870858E+02  0.00000000000E+00 0. -1.
</event>
<event>
 5    1  0.8943113E-005  0.9118800E+02  0.7818608E-02  0.1130116E+00
         25   -1    0    0    0    0  0.00000000000E+00  0.00000000000E+00  0.99999998245E-14  0.12500000000E+03  0.12500000000E+03 0.  0.
        -13    1    3    3    0    0 -0.14674487453E+02 -0.32439750763E+02 -0.20863382255E+02  0.41267055804E+02  0.10566000000E+00 0.  1.
         23    2    1    0    0    0 -0.10727275162E+02 -0.45788730240E+01  0.26324056501E+02  0.96207701356E+02  0.91798286144E+02 0.  0.
         13    1    3    3    0    0  0.39472122911E+01  0.27860877739E+02  0.47187438756E+02  0.54940645552E+02  0.10566000000E+00 0. -1.
         22    1    1    0    0    0  0.10727275162E+02  0.45788730240E+01 -0.26324056501E+02  0.28792298644E+02  0.00000000000E+00 0.  1.
</event>
<event>
 5    1  0.8943113E-005  0.9118800E+02  0.7818608E-02  0.1130116E+00
         25   -1    0    0    0    0  0.00000000000E+00  0.00000000000E+00  0.99999998245E-14  0.12500000000E+03  0.12500000000E+03 0.  0.
        -13    1    3    3    0    0  0.21212526909E+01 -0.28528963687E+01 -0.36451356801E+02  0.36624463236E+02  0.10566000000E+00 0. -1.
         23    2    1    0    0    0  0.24870652231E+02 -0.64612553427E+01  0.16564141192E+02  0.94427660599E+02  0.89341564514E+02 0.  0.
         13    1    3    3    0    0  0.22749399540E+02 -0.36083589740E+01  0.53015497993E+02  0.57803197363E+02  0.10566000000E+00 0.  1.
         22    1    1    0    0    0 -0.24870652231E+02  0.64612553427E+01 -0.16564141192E+02  0.30572339401E+02  0.00000000000E+00 0.  1.
</event>
<event>
 5    1  0.8943113E-005  0.9118800E+02  0.7818608E-02  0.1130116E+00
         25   -1    0    0    0    0  0.00000000000E+00  0.00000000000E+00  0.99999998245E-14  0.12500000000E+03  0.12500000000E+03 0.  0.
        -13    1    3    3    0    0  0.47507710238E+02  0.17431254711E+02 -0.78995035422E+01  0.51217618972E+02  0.10566000000E+00 0.  1.
         23    2    1    0    0    0  0.27440411057E+01  0.20221747435E+02 -0.18667408829E+02  0.97342795092E+02  0.93331124353E+02 0.  0.
         13    1    3    3    0    0 -0.44763669133E+02  0.27904927249E+01 -0.10767905287E+02  0.46125176121E+02  0.10566000000E+00 0. -1.
         22    1    1    0    0    0 -0.27440411057E+01 -0.20221747435E+02  0.18667408829E+02  0.27657204908E+02  0.00000000000E+00 0.  1.
</event>
<event>
 5    1  0.8943113E-005  0.9118800E+02  0.7818608E-02  0.1130116E+00
         25   -1    0    0    0    0  0.00000000000E+00  0.00000000000E+00  0.99999998245E-14  0.12500000000E+03  0.12500000000E+03 0.  0.
        -13    1    3    3    0    0  0.34480107908E+02  0.26802012180E+02  0.44285765914E+02  0.62196992893E+02  0.10566000000E+00 0.  1.
         23    2    1    0    0    0  0.12094225250E+02  0.12767523896E+02  0.22502926564E+02  0.96440209126E+02  0.92114343516E+02 0.  0.
         13    1    3    3    0    0 -0.22385882659E+02 -0.14034488284E+02 -0.21782839350E+02  0.34243216233E+02  0.10566000000E+00 0. -1.
         22    1    1    0    0    0 -0.12094225250E+02 -0.12767523896E+02 -0.22502926564E+02  0.28559790874E+02  0.00000000000E+00 0.  1.
</event>
<event>
 5    1  0.8943113E-005  0.9118800E+02  0.7818608E-02  0.1130116E+00
         25   -1    0    0    0    0  0.00000000000E+00  0.00000000000E+00  0.99999998245E-14  0.12500000000E+03  0.12500000000E+03 0.  0.
        -13    1    3    3    0    0  0.38831440539E+02  0.12537663450E+01 -0.14358990190E+01  0.38878344543E+02  0.10566000000E+00 0.  1.
         23    2    1    0    0    0 -0.11972773340E+02 -0.21560014742E+02 -0.14916778817E+02  0.96178275079E+02  0.91758208188E+02 0.  0.
         13    1    3    3    0    0 -0.50804213879E+02 -0.22813781087E+02 -0.13480879798E+02  0.57299930537E+02  0.10566000000E+00 0. -1.
         22    1    1    0    0    0  0.11972773340E+02  0.21560014742E+02  0.14916778817E+02  0.28821724921E+02  0.00000000000E+00 0. -1.
</event>
<event>
 5    1  0.8943113E-005  0.9118800E+02  0.7818608E-02  0.1130116E+00
         25   -1    0    0    0    0  0.00000000000E+00  0.00000000000E+00  0.99999998245E-14  0.12500000000E+03  0.12500000000E+03 0.  0.
        -13    1    3    3    0    0  0.15544126997E+02 -0.45305770629E+02 -0.17770246012E+02  0.51088409094E+02  0.10566000000E+00 0. -1.
         23    2    1    0    0    0  0.21979720020E+02 -0.10420975426E+02  0.12436215261E+02  0.97680331792E+02  0.93782103559E+02 0.  0.
         13    1    3    3    0    0  0.64355930232E+01  0.34884795204E+02  0.30206461274E+02  0.46591922698E+02  0.10566000000E+00 0.  1.
         22    1    1    0    0    0 -0.21979720020E+02  0.10420975426E+02 -0.12436215261E+02  0.27319668208E+02  0.00000000000E+00 0. -1.
</event>
<event>
 5    1  0.8943113E-005  0.9118800E+02  0.7818608E-02  0.1130116E+00
         25   -1    0    0    0    0  0.00000000000E+00  0.00000000000E+00  0.99999998245E-14  0.12500000000E+03  0.12500000000E+03 0.  0.
        -13    1    3    3    0    0 -0.33611128791E+02 -0.25721828596E+02  0.11262044651E+02  0.43796863571E+02  0.10566000000E+00 0.  1.
         23    2    1    0    0    0  0.95191148676E+01 -0.12814054910E+01  0.27427118565E+02  0.95939676866E+02  0.91432593840E+02 0.  0.
         13    1    3    3    0    0  0.43130243658E+02  0.24440423105E+02  0.16165073914E+02  0.52142813294E+02  0.10566000000E+00 0. -1.
         22    1    1    0    0    0 -0.95191148676E+01  0.12814054910E+01 -0.27427118565E+02  0.29060323134E+02  0.00000000000E+00 0. -1.
</event>
<event>
 5    1  0.8943113E-005  0.9118800E+02  0.7818608E-02  0.1130116E+00
         25   -1    0    0    0    0  0.00000000000E+00  0.00000000000E+00  0.99999998245E-14  0.12500000000E+03  0.12500000000E+03 0.  0.
        -13    1    3    3    0    0 -0.22521572234E+02 -0.37022723133E+02 -0.57321092065E+01  0.43712372209E+02  0.10566000000E+00 0. -1.
         23    2    1    0    0    0 -0.10734121978E+02 -0.11371116038E+02  0.31142166049E+02  0.90152357887E+02  0.83144990659E+02 0.  0.
         13    1    3    3    0    0  0.11787450256E+02  0.25651607095E+02  0.36874275256E+02  0.46439985678E+02  0.10566000000E+00 0.  1.
         22    1    1    0    0    0  0.10734121978E+02  0.11371116038E+02 -0.31142166049E+02  0.34847642113E+02  0.00000000000E+00 0.  1.
</event>
<event>
 5    1  0.8943113E-005  0.9118800E+02  0.7818608E-02  0.1130116E+00
         25   -1    0    0    0    0  0.00000000000E+00  0.00000000000E+00  0.99999998245E-14  0.12500000000E+03  0.12500000000E+03 0.  0.
        -13    1    3    3    0    0  0.13580300382E+02  0.25918472100E+02  0.32273966193E+02  0.43563881970E+02  0.10566000000E+00 0. -1.
         23    2    1    0    0    0  0.20978730320E+02  0.72223431119E+01 -0.17173372355E+02  0.96943020763E+02  0.92794154938E+02 0.  0.
         13    1    3    3    0    0  0.73984299379E+01 -0.18696128988E+02 -0.49447338548E+02  0.53379138792E+02  0.10566000000E+00 0.  1.
         22    1    1    0    0    0 -0.20978730320E+02 -0.72223431119E+01  0.17173372355E+02  0.28056979237E+02  0.00000000000E+00 0.  1.
</event>
<event>
 5    1  0.8943113E-005  0.9118800E+02  0.7818608E-02  0.1130116E+00
         25   -1    0    0    0    0  0.00000000000E+00  0.00000000000E+00  0.99999998245E-14  0.12500000000E+03  0.12500000000E+03 0.  0.
        -13    1    3    3    0    0 -0.29061438206E+02 -0.17366226337E+01 -0.28668143277E+02  0.40858984957E+02  0.10566000000E+00 0.  1.
         23    2    1    0    0    0  0.18110110443E+02  0.19229074930E+02 -0.16368006167E+02  0.93925170172E+02  0.88635729495E+02 0.  0.
         13    1    3    3    0    0  0.47171548649E+02  0.20965697564E+02  0.12300137110E+02  0.53066185215E+02  0.10566000000E+00 0. -1.
         22    1    1    0    0    0 -0.18110110443E+02 -0.19229074930E+02  0.16368006167E+02  0.31074829828E+02  0.00000000000E+00 0.  1.
</event>
<event>
 5    1  0.8943113E-005  0.9118800E+02  0.7818608E-02  0.1130116E+00
         25   -1    0    0    0    0  0.00000000000E+00  0.00000000000E+00  0.99999998245E-14  0.12500000000E+03  0.12500000000E+03 0.  0.
        -13    1    3    3    0    0  0.15051547178E+02  0.53971663082E+01  0.31770326197E+02  0.35567446736E+02  0.10566000000E+00 0.  1.
         23    2    1    0    0    0 -0.18804592928E+02  0.14695410837E+02 -0.17026963264E+02  0.95683020400E+02  0.91081035897E+02 0.  0.
         13    1    3    3    0    0 -0.33856140106E+02  0.92982445289E+01 -0.48797289461E+02  0.60115573664E+02  0.10566000000E+00 0. -1.
         22    1    1    0    0    0  0.18804592928E+02 -0.14695410837E+02  0.17026963264E+02  0.29316979600E+02  0.00000000000E+00 0. -1.
</event>
<event>
 5    1  0.8943113E-005  0.9118800E+02  0.7818608E-02  0.1130116E+00
         25   -1    0    0    0    0  0.00000000000E+00  0.00000000000E+00  0.99999998245E-14  0.12500000000E+03  0.12500000000E+03 0.  0.
        -13    1    3    3    0    0  0.21823504703E+02 -0.24059263576E+02  0.58705718658E+01  0.33008912424E+02  0.10566000000E+00 0.  1.
         23    2    1    0    0    0 -0.23578623302E+02  0.17231007315E+02 -0.51078257802E+01  0.95352926383E+02  0.90626881198E+02 0.  0.
         13    1    3    3    0    0 -0.45402128005E+02  0.41290270890E+02 -0.10978397646E+02  0.62344013959E+02  0.10566000000E+00 0. -1.
         22    1    1    0    0    0  0.23578623302E+02 -0.17231007315E+02  0.51078257802E+01  0.29647073617E+02  0.00000000000E+00 0. -1.
</event>
<event>
 5    1  0.8943113E-005  0.9118800E+02  0.7818608E-02  0.1130116E+00
         25   -1    0    0    0    0  0.00000000000E+00  0.00000000000E+00  0.99999998245E-14  0.12500000000E+03  0.12500000000E+03 0.  0.
        -13    1    3    3    0    0 -0.66567786146E+00  0.46024552410E+02 -0.15621325154E+02  0.48608019042E+02  0.10566000000E+00 0.  1.
         23    2    1    0    0    0  0.45162678680E+01  0.64594330255E+00 -0.28559155519E+02  0.96078739962E+02  0.91622513557E+02 0.  0.
         13    1    3    3    0    0  0.51819457294E+01 -0.45378609108E+02 -0.12937830366E+02  0.47470720920E+02  0.10566000000E+00 0. -1.
         22    1    1    0    0    0 -0.45162678680E+01 -0.64594330255E+00  0.28559155519E+02  0.28921260038E+02  0.00000000000E+00 0.  1.
</event>
<event>
 5    1  0.8943113E-005  0.9118800E+02  0.7818608E-02  0.1130116E+00
         25   -1    0    0    0    0  0.00000000000E+00  0.00000000000E+00  0.99999998245E-14  0.12500000000E+03  0.12500000000E+03 0.  0.
        -13    1    3    3    0    0  0.27640331766E+02  0.23552362406E+02  0.17806441588E+02  0.40444804871E+02  0.10566000000E+00 0.  1.
         23    2    1    0    0    0 -0.23799647212E+02  0.22962432472E+01  0.16184535473E+02  0.96127259760E+02  0.91688684907E+02 0.  0.
         13    1    3    3    0    0 -0.51439978978E+02 -0.21256119158E+02 -0.16219061149E+01  0.55682454889E+02  0.10566000000E+00 0. -1.
         22    1    1    0    0    0  0.23799647212E+02 -0.22962432472E+01 -0.16184535473E+02  0.28872740240E+02  0.00000000000E+00 0.  1.
</event>
<event>
 5    1  0.8943113E-005  0.9118800E+02  0.7818608E-02  0.1130116E+00
         25   -1    0    0    0    0  0.00000000000E+00  0.00000000000E+00  0.99999998245E-14  0.12500000000E+03  0.12500000000E+03 0.  0.
        -13    1    3    3    0    0 -0.35874520230E+02  0.30358658200E+02 -0.14138146186E+02  0.49076752857E+02  0.10566000000E+00 0. -1.
         23    2    1    0    0    0 -0.11781890889E+02  0.12240365753E+02  0.22680504209E+02  0.96661955292E+02  0.92414765178E+02 0.  0.
         13    1    3    3    0    0  0.24092629341E+02 -0.18118292447E+02  0.36818650395E+02  0.47585202434E+02  0.10566000000E+00 0.  1.
         22    1    1    0    0    0  0.11781890889E+02 -0.12240365753E+02 -0.22680504209E+02  0.28338044708E+02  0.00000000000E+00 0.  1.
</event>
<event>
 5    1  0.8943113E-005  0.9118800E+02  0.7818608E-02  0.1130116E+00
         25   -1    0    0    0    0  0.00000000000E+00  0.00000000000E+00  0.99999998245E-14  0.12500000000E+03  0.12500000000E+03 0.  0.
        -13    1    3    3    0    0  0.32426938887E+02 -0.17652080250E+01  0.87771104332E+01  0.33640320399E+02  0.10566000000E+00 0.  1.
         23    2    1    0    0    0 -0.23435667250E+02 -0.17201167964E+02 -0.95102257751E+01  0.94413155228E+02  0.89321267384E+02 0.  0.
         13    1    3    3    0    0 -0.55862606137E+02 -0.15435959939E+02 -0.18287336208E+02  0.60772834830E+02  0.10566000000E+00 0. -1.
         22    1    1    0    0    0  0.23435667250E+02  0.17201167964E+02  0.95102257751E+01  0.30586844772E+02  0.00000000000E+00 0. -1.
</event>
<event>
 5    1  0.8943113E-005  0.9118800E+02  0.7818608E-02  0.1130116E+00
         25   -1    0    0    0    0  0.00000000000E+00  0.00000000000E+00  0.99999998245E-14  0.12500000000E+03  0.12500000000E+03 0.  0.
        -13    1    3    3    0    0  0.73841052842E+01 -0.27413679709E+01  0.34685790060E+02  0.35569021709E+02  0.10566000000E+00 0. -1.
         23    2    1    0    0    0  0.19157868232E+02  0.10532851342E+02 -0.21407544120E+02  0.94401833096E+02  0.89305421303E+02 0.  0.
         13    1    3    3    0    0  0.11773762948E+02  0.13274219313E+02 -0.56093334180E+02  0.58832811388E+02  0.10566000000E+00 0.  1.
         22    1    1    0    0    0 -0.19157868232E+02 -0.10532851342E+02  0.21407544120E+02  0.30598166904E+02  0.00000000000E+00 0.  1.
</event>
<event>
 5    1  0.8943113E-005  0.9118800E+02  0.7818608E-02  0.1130116E+00
         25   -1    0    0    0    0  0.00000000000E+00  0.00000000000E+00  0.99999998245E-14  0.12500000000E+03  0.12500000000E+03 0.  0.
        -13    1    3    3    0    0  0.34126865679E+01  0.26170450427E+01 -0.31292852020E+02  0.31587166792E+02  0.10566000000E+00 0.  1.
         23    2    1    0    0    0 -0.60787283035E+01  0.81423510611E+00  0.30377404452E+02  0.94009668962E+02  0.88754815309E+02 0.  0.
         13    1    3    3    0    0 -0.94914148715E+01 -0.18028099366E+01  0.61670256472E+02  0.62422502171E+02  0.10566000000E+00 0. -1.
         22    1    1    0    0    0  0.60787283035E+01 -0.81423510611E+00 -0.30377404452E+02  0.30990331038E+02  0.00000000000E+00 0. -1.
</event>
<event>
 5    1  0.8943113E-005  0.9118800E+02  0.7818608E-02  0.1130116E+00
         25   -1    0    0    0    0  0.00000000000E+00  0.00000000000E+00  0.99999998245E-14  0.12500000000E+03  0.12500000000E+03 0.  0.
        -13    1    3    3    0    0  0.64407623015E+01  0.21189066984E+02 -0.29115855976E+02  0.36581473616E+02  0.10566000000E+00 0. -1.
         23    2    1    0    0    0 -0.24745380017E+02 -0.15852207466E+02  0.41386731130E+01  0.95322484456E+02  0.90584883474E+02 0.  0.
         13    1    3    3    0    0 -0.31186142318E+02 -0.37041274450E+02  0.33254529089E+02  0.58741010840E+02  0.10566000000E+00 0.  1.
         22    1    1    0    0    0  0.24745380017E+02  0.15852207466E+02 -0.41386731130E+01  0.29677515544E+02  0.00000000000E+00 0.  1.
</event>
<event>
 5    1  0.8943113E-005  0.9118800E+02  0.7818608E-02  0.1130116E+00
         25   -1    0    0    0    0  0.00000000000E+00  0.00000000000E+00  0.99999998245E-14  0.12500000000E+03  0.12500000000E+03 0.  0.
        -13    1    3    3    0    0 -0.29955403358E+02 -0.32866386425E+02 -0.31760792882E+02  0.54646909112E+02  0.10566000000E+00 0. -1.
         23    2    1    0    0    0 -0.13097378073E+02 -0.27778946758E+02  0.35289924862E+01  0.94086168413E+02  0.88862489856E+02 0.  0.
         13    1    3    3    0    0  0.16858025285E+02  0.50874396662E+01  0.35289785368E+02  0.39439259301E+02  0.10566000000E+00 0.  1.
         22    1    1    0    0    0  0.13097378073E+02  0.27778946758E+02 -0.35289924862E+01  0.30913831587E+02  0.00000000000E+00 0. -1.
</event>
<event>
 5    1  0.8943113E-005  0.9118800E+02  0.7818608E-02  0.1130116E+00
         25   -1    0    0    0    0  0.00000000000E+00  0.00000000000E+00  0.99999998245E-14  0.12500000000E+03  0.12500000000E+03 0.  0.
        -13    1    3    3    0    0  0.41608503590E+02 -0.35387173749E+02  0.10952314376E+02  0.55708922007E+02  0.10566000000E+00 0.  1.
         23    2    1    0    0    0  0.23563806494E+02 -0.10579208542E+02 -0.14330186194E+02  0.95461434256E+02  0.90776420749E+02 0.  0.
         13    1    3    3    0    0 -0.18044697096E+02  0.24807965206E+02 -0.25282500570E+02  0.39752512249E+02  0.10566000000E+00 0. -1.
         22    1    1    0    0    0 -0.23563806494E+02  0.10579208542E+02  0.14330186194E+02  0.29538565744E+02  0.00000000000E+00 0.  1.
</event>
<event>
 5    1  0.8943113E-005  0.9118800E+02  0.7818608E-02  0.1130116E+00
         25   -1    0    0    0    0  0.00000000000E+00  0.00000000000E+00  0.99999998245E-14  0.12500000000E+03  0.12500000000E+03 0.  0.
        -13    1    3    3    0    0 -0.29333964080E+01  0.57121026069E+02  0.19795305873E+02  0.60525050452E+02  0.10566000000E+00 0.  1.
         23    2    1    0    0    0  0.26990668711E+01  0.24366888511E+02  0.19357695566E+02  0.93762993176E+02  0.88406720865E+02 0.  0.
         13    1    3    3    0    0  0.56324632792E+01 -0.32754137557E+02 -0.43761030698E+00  0.33237942724E+02  0.10566000000E+00 0. -1.
         22    1    1    0    0    0 -0.26990668711E+01 -0.24366888511E+02 -0.19357695566E+02  0.31237006824E+02  0.00000000000E+00 0.  1.
</event>
<event>
 5    1  0.8943113E-005  0.9118800E+02  0.7818608E-02  0.1130116E+00
         25   -1    0    0    0    0  0.00000000000E+00  0.00000000000E+00  0.99999998245E-14  0.12500000000E+03  0.12500000000E+03 0.  0.
        -13    1    3    3    0    0 -0.13560112169E+02 -0.18216179921E+02  0.36807146147E+02  0.43249081198E+02  0.10566000000E+00 0. -1.
         23    2    1    0    0    0  0.22062859079E+02 -0.12798130037E+02 -0.55887604760E+01  0.98888773931E+02  0.95379208860E+02 0.  0.
         13    1    3    3    0    0  0.35622971248E+02  0.54180498837E+01 -0.42395906623E+02  0.55639692733E+02  0.10566000000E+00 0.  1.
         22    1    1    0    0    0 -0.22062859079E+02  0.12798130037E+02  0.55887604760E+01  0.26111226069E+02  0.00000000000E+00 0.  1.
</event>
<event>
 5    1  0.8943113E-005  0.9118800E+02  0.7818608E-02  0.1130116E+00
         25   -1    0    0    0    0  0.00000000000E+00  0.00000000000E+00  0.99999998245E-14  0.12500000000E+03  0.12500000000E+03 0.  0.
        -13    1    3    3    0    0  0.96251016740E+01  0.16176462079E+02 -0.54558369097E+02  0.57714359653E+02  0.10566000000E+00 0. -1.
         23    2    1    0    0    0  0.18509905356E+02 -0.21989162183E+01 -0.21730756600E+02  0.96369987579E+02  0.92019002900E+02 0.  0.
         13    1    3    3    0    0  0.88848036816E+01 -0.18375378297E+02  0.32827612497E+02  0.38655627925E+02  0.10566000000E+00 0.  1.
         22    1    1    0    0    0 -0.18509905356E+02  0.21989162183E+01  0.21730756600E+02  0.28630012421E+02  0.00000000000E+00 0. -1.
</event>
<event>
 5    1  0.8943113E-005  0.9118800E+02  0.7818608E-02  0.1130116E+00
         25   -1    0    0    0    0  0.00000000000E+00  0.00000000000E+00  0.99999998245E-14  0.12500000000E+03  0.12500000000E+03 0.  0.
        -13    1    3    3    0    0 -0.18730868857E+02 -0.44562070633E+02 -0.67131048274E+01  0.48802669269E+02  0.10566000000E+00 0.  1.
         23    2    1    0    0    0 -0.16272727057E+02 -0.10885163745E+02  0.23709002663E+02  0.94252557133E+02  0.89096236077E+02 0.  0.
         13    1    3    3    0    0  0.24581418001E+01  0.33676906888E+02  0.30422107490E+02  0.45449887864E+02  0.10566000000E+00 0. -1.
         22    1    1    0    0    0  0.16272727057E+02  0.10885163745E+02 -0.23709002663E+02  0.30747442867E+02  0.00000000000E+00 0.  1.
</event>
<event>
 5    1  0.8943113E-005  0.9118800E+02  0.7818608E-02  0.1130116E+00
         25   -1    0    0    0    0  0.00000000000E+00  0.00000000000E+00  0.99999998245E-14  0.12500000000E+03  0.12500000000E+03 0.  0.
        -13    1    3    3    0    0  0.20836987778E+02 -0.19319350832E+02 -0.47420404402E+02  0.55282214987E+02  0.10566000000E+00 0.  1.
         23    2    1    0    0    0  0.19045090344E+02  0.10148190957E+02 -0.19582875039E+02  0.95859131092E+02  0.91322411121E+02 0.  0.
         13    1    3    3    0    0 -0.17918974340E+01  0.29467541789E+02  0.27837529363E+02  0.40576916105E+02  0.10566000000E+00 0. -1.
         22    1    1    0    0    0 -0.19045090344E+02 -0.10148190957E+02  0.19582875039E+02  0.29140868908E+02  0.00000000000E+00 0.  1.
</event>
<event>
 5    1  0.8943113E-005  0.9118800E+02  0.7818608E-02  0.1130116E+00
         25   -1    0    0    0    0  0.00000000000E+00  0.00000000000E+00  0.99999998245E-14  0.12500000000E+03  0.12500000000E+03 0.  0.
        -13    1    3    3    0    0  0.30020492698E+02  0.34347507647E+02  0.56528179333E+01  0.45966800824E+02  0.10566000000E+00 0.  1.
         23    2    1    0    0    0  0.79688046749E+01  0.58772581352E+01 -0.28027975903E+02  0.95274397494E+02  0.90518502934E+02 0.  0.
         13    1    3    3    0    0 -0.22051688023E+02 -0.28470249512E+02 -0.33680793836E+02  0.49307596670E+02  0.10566000000E+00 0. -1.
         22    1    1    0    0    0 -0.79688046749E+01 -0.58772581352E+01  0.28027975903E+02  0.29725602506E+02  0.00000000000E+00 0. -1.
</event>
<event>
 5    1  0.8943113E-005  0.9118800E+02  0.7818608E-02  0.1130116E+00
         25   -1    0    0    0    0  0.00000000000E+00  0.00000000000E+00  0.99999998245E-14  0.12500000000E+03  0.12500000000E+03 0.  0.
        -13    1    3    3    0    0  0.53900563589E+02  0.14236860480E+02  0.45667349229E+01  0.55935902455E+02  0.10566000000E+00 0. -1.
         23    2    1    0    0    0  0.29342394886E+02 -0.10362132087E+02 -0.79531330709E+01  0.92881434579E+02  0.87151354808E+02 0.  0.
         13    1    3    3    0    0 -0.24558168703E+02 -0.24598992568E+02 -0.12519867994E+02  0.36945532125E+02  0.10566000000E+00 0.  1.
         22    1    1    0    0    0 -0.29342394886E+02  0.10362132087E+02  0.79531330709E+01  0.32118565421E+02  0.00000000000E+00 0. -1.
</event>
<event>
 5    1  0.8943113E-005  0.9118800E+02  0.7818608E-02  0.1130116E+00
         25   -1    0    0    0    0  0.00000000000E+00  0.00000000000E+00  0.99999998245E-14  0.12500000000E+03  0.12500000000E+03 0.  0.
        -13    1    3    3    0    0 -0.17813089185E+02 -0.51063311265E+02  0.20365601621E+02  0.57788725519E+02  0.10566000000E+00 0. -1.
         23    2    1    0    0    0 -0.55613643518E+01 -0.15464554162E+02  0.24324178198E+02  0.95644474900E+02  0.91028120517E+02 0.  0.
         13    1    3    3    0    0  0.12251724833E+02  0.35598757103E+02  0.39585765775E+01  0.37855749381E+02  0.10566000000E+00 0.  1.
         22    1    1    0    0    0  0.55613643518E+01  0.15464554162E+02 -0.24324178198E+02  0.29355525100E+02  0.00000000000E+00 0. -1.
</event>
<event>
 5    1  0.8943113E-005  0.9118800E+02  0.7818608E-02  0.1130116E+00
         25   -1    0    0    0    0  0.00000000000E+00  0.00000000000E+00  0.99999998245E-14  0.12500000000E+03  0.12500000000E+03 0.  0.
        -13    1    3    3    0    0 -0.10112302248E+02 -0.29700254942E+02  0.53250314619E+02  0.61805913725E+02  0.10566000000E+00 0.  1.
         23    2    1    0    0    0 -0.46854572384E+01 -0.84567005451E+01  0.28667094233E+02  0.94746544240E+02  0.89786614036E+02 0.  0.
         13    1    3    3    0    0  0.54268450093E+01  0.21243554397E+02 -0.24583220386E+02  0.32940630515E+02  0.10566000000E+00 0. -1.
         22    1    1    0    0    0  0.46854572384E+01  0.84567005451E+01 -0.28667094233E+02  0.30253455760E+02  0.00000000000E+00 0.  1.
</event>
<event>
 5    1  0.8943113E-005  0.9118800E+02  0.7818608E-02  0.1130116E+00
         25   -1    0    0    0    0  0.00000000000E+00  0.00000000000E+00  0.99999998245E-14  0.12500000000E+03  0.12500000000E+03 0.  0.
        -13    1    3    3    0    0 -0.33679922776E+02  0.12631095256E+02  0.24642113552E+02  0.43601911540E+02  0.10566000000E+00 0. -1.
         23    2    1    0    0    0 -0.28686743754E+02 -0.53966434764E+01 -0.18373328855E+02  0.90508954188E+02  0.83679379461E+02 0.  0.
         13    1    3    3    0    0  0.49931790222E+01 -0.18027738733E+02 -0.43015442406E+02  0.46907042648E+02  0.10566000000E+00 0.  1.
         22    1    1    0    0    0  0.28686743754E+02  0.53966434764E+01  0.18373328855E+02  0.34491045812E+02  0.00000000000E+00 0.  1.
</event>
<event>
 5    1  0.8943113E-005  0.9118800E+02  0.7818608E-02  0.1130116E+00
         25   -1    0    0    0    0  0.00000000000E+00  0.00000000000E+00  0.99999998245E-14  0.12500000000E+03  0.12500000000E+03 0.  0.
        -13    1    3    3    0    0  0.47230265077E+02 -0.30033035486E+02  0.26520971048E+02  0.61935888055E+02  0.10566000000E+00 0.  1.
         23    2    1    0    0    0  0.25328902110E+02 -0.99713047510E+01  0.94970166017E+01  0.96169919791E+02  0.91746825273E+02 0.  0.
         13    1    3    3    0    0 -0.21901362968E+02  0.20061730735E+02 -0.17023954446E+02  0.34234031736E+02  0.10566000000E+00 0. -1.
         22    1    1    0    0    0 -0.25328902110E+02  0.99713047510E+01 -0.94970166017E+01  0.28830080209E+02  0.00000000000E+00 0.  1.
</event>
<event>
 5    1  0.8943113E-005  0.9118800E+02  0.7818608E-02  0.1130116E+00
         25   -1    0    0    0    0  0.00000000000E+00  0.00000000000E+00  0.99999998245E-14  0.12500000000E+03  0.12500000000E+03 0.  0.
        -13    1    3    3    0    0 -0.43721679508E+02  0.18386931307E+02  0.33434682509E+02  0.58030626918E+02  0.10566000000E+00 0. -1.
         23    2    1    0    0    0 -0.20536713894E+02  0.21986779063E+02  0.56653456176E+01  0.94385114534E+02  0.89282017414E+02 0.  0.
         13    1    3    3    0    0  0.23184965614E+02  0.35998477562E+01 -0.27769336892E+02  0.36354487616E+02  0.10566000000E+00 0.  1.
         22    1    1    0    0    0  0.20536713894E+02 -0.21986779063E+02 -0.56653456176E+01  0.30614885466E+02  0.00000000000E+00 0. -1.
</event>
<event>
 5    1  0.8943113E-005  0.9118800E+02  0.7818608E-02  0.1130116E+00
         25   -1    0    0    0    0  0.00000000000E+00  0.00000000000E+00  0.99999998245E-14  0.12500000000E+03  0.12500000000E+03 0.  0.
        -13    1    3    3    0    0  0.11976224183E+02 -0.59520971935E+02  0.93002855396E+01  0.61422166365E+02  0.10566000000E+00 0. -1.
         23    2    1    0    0    0  0.13957495475E+01 -0.28712008486E+02 -0.26772665371E+01  0.96129681259E+02  0.91691986099E+02 0.  0.
         13    1    3    3    0    0 -0.10580474635E+02  0.30808963450E+02 -0.11977552077E+02  0.34707514894E+02  0.10566000000E+00 0.  1.
         22    1    1    0    0    0 -0.13957495475E+01  0.28712008486E+02  0.26772665371E+01  0.28870318741E+02  0.00000000000E+00 0. -1.
</event>
<event>
 5    1  0.8943113E-005  0.9118800E+02  0.7818608E-02  0.1130116E+00
         25   -1    0    0    0    0  0.00000000000E+00  0.00000000000E+00  0.99999998245E-14  0.12500000000E+03  0.12500000000E+03 0.  0.
        -13    1    3    3    0    0 -0.25473474125E+02 -0.21165460737E+01  0.42425362079E+02  0.49530800144E+02  0.10566000000E+00 0.  1.
         23    2    1    0    0    0  0.16286178895E+02 -0.20339954483E+01  0.25680393373E+02  0.94522805833E+02  0.89474585544E+02 0.  0.
         13    1    3    3    0    0  0.41759653020E+02  0.82550625306E-01 -0.16744968706E+02  0.44992005690E+02  0.10566000000E+00 0. -1.
         22    1    1    0    0    0 -0.16286178895E+02  0.20339954483E+01 -0.25680393373E+02  0.30477194167E+02  0.00000000000E+00 0.  1.
</event>
<event>
 5    1  0.8943113E-005  0.9118800E+02  0.7818608E-02  0.1130116E+00
         25   -1    0    0    0    0  0.00000000000E+00  0.00000000000E+00  0.99999998245E-14  0.12500000000E+03  0.12500000000E+03 0.  0.
        -13    1    3    3    0    0  0.24154360737E+02  0.30928353926E+02 -0.20225744972E+02  0.44148478376E+02  0.10566000000E+00 0.  1.
         23    2    1    0    0    0 -0.57640211821E+01  0.78349143204E+01  0.22076873951E+02  0.10087536143E+03  0.97948151376E+02 0.  0.
         13    1    3    3    0    0 -0.29918381919E+02 -0.23093439605E+02  0.42302618923E+02  0.56726883056E+02  0.10566000000E+00 0. -1.
         22    1    1    0    0    0  0.57640211821E+01 -0.78349143204E+01 -0.22076873951E+02  0.24124638568E+02  0.00000000000E+00 0. -1.
</event>
<event>
 5    1  0.8943113E-005  0.9118800E+02  0.7818608E-02  0.1130116E+00
         25   -1    0    0    0    0  0.00000000000E+00  0.00000000000E+00  0.99999998245E-14  0.12500000000E+03  0.12500000000E+03 0.  0.
        -13    1    3    3    0    0 -0.56156030221E+01  0.10157622428E+02 -0.27264615464E+02  0.29632460429E+02  0.10566000000E+00 0.  1.
         23    2    1    0    0    0  0.24247711959E+02 -0.21795430031E+02  0.13772950133E+02  0.89606689038E+02  0.82320545792E+02 0.  0.
         13    1    3    3    0    0  0.29863314981E+02 -0.31953052459E+02  0.41037565597E+02  0.59974228609E+02  0.10566000000E+00 0. -1.
         22    1    1    0    0    0 -0.24247711959E+02  0.21795430031E+02 -0.13772950133E+02  0.35393310962E+02  0.00000000000E+00 0. -1.
</event>
<event>
 5    1  0.8943113E-005  0.9118800E+02  0.7818608E-02  0.1130116E+00
         25   -1    0    0    0    0  0.00000000000E+00  0.00000000000E+00  0.99999998245E-14  0.12500000000E+03  0.12500000000E+03 0.  0.
        -13    1    3    3    0    0 -0.19305269757E+02  0.52277762175E+02 -0.27350718251E+02  0.62078424684E+02  0.10566000000E+00 0. -1.
         23    2    1    0    0    0 -0.50241814111E+01  0.26873896952E+02 -0.15771345333E+02  0.93437616221E+02  0.87945460686E+02 0.  0.
         13    1    3    3    0    0  0.14281088346E+02 -0.25403865223E+02  0.11579372918E+02  0.31359191537E+02  0.10566000000E+00 0.  1.
         22    1    1    0    0    0  0.50241814111E+01 -0.26873896952E+02  0.15771345333E+02  0.31562383779E+02  0.00000000000E+00 0. -1.
</event>
<event>
 5    1  0.8943113E-005  0.9118800E+02  0.7818608E-02  0.1130116E+00
         25   -1    0    0    0    0  0.00000000000E+00  0.00000000000E+00  0.99999998245E-14  0.12500000000E+03  0.12500000000E+03 0.  0.
        -13    1    3    3    0    0  0.18906768519E+02 -0.29178442991E+02  0.14410371431E+01  0.34798493980E+02  0.10566000000E+00 0.  1.
         23    2    1    0    0    0 -0.21281935061E+02  0.13639839218E+02  0.15718613550E+02  0.95233562764E+02  0.90462095327E+02 0.  0.
         13    1    3    3    0    0 -0.40188703579E+02  0.42818282209E+02  0.14277576407E+02  0.60435068783E+02  0.10566000000E+00 0. -1.
         22    1    1    0    0    0  0.21281935061E+02 -0.13639839218E+02 -0.15718613550E+02  0.29766437236E+02  0.00000000000E+00 0. -1.
</event>
<event>
 5    1  0.8943113E-005  0.9118800E+02  0.7818608E-02  0.1130116E+00
         25   -1    0    0    0    0  0.00000000000E+00  0.00000000000E+00  0.99999998245E-14  0.12500000000E+03  0.12500000000E+03 0.  0.
        -13    1    3    3    0    0 -0.32683279569E+02  0.38069754765E+02  0.55801326088E+01  0.50484176088E+02  0.10566000000E+00 0. -1.
         23    2    1    0    0    0 -0.99442578202E+01  0.17582296646E+02 -0.24396901357E+02  0.93326127254E+02  0.87786854445E+02 0.  0.
         13    1    3    3    0    0  0.22739021749E+02 -0.20487458119E+02 -0.29977033966E+02  0.42841951166E+02  0.10566000000E+00 0.  1.
         22    1    1    0    0    0  0.99442578202E+01 -0.17582296646E+02  0.24396901357E+02  0.31673872746E+02  0.00000000000E+00 0. -1.
</event>
<event>
 5    1  0.8943113E-005  0.9118800E+02  0.7818608E-02  0.1130116E+00
         25   -1    0    0    0    0  0.00000000000E+00  0.00000000000E+00  0.99999998245E-14  0.12500000000E+03  0.12500000000E+03 0.  0.
        -13    1    3    3    0    0  0.30084234766E+02 -0.38067461764E+02  0.41621060683E+01  0.48698327667E+02  0.10566000000E+00 0. -1.
         23    2    1    0    0    0  0.23783799207E+02  0.41304530228E+01 -0.16153627408E+02  0.95954011890E+02  0.91452189544E+02 0.  0.
         13    1    3    3    0    0 -0.63004355594E+01  0.42197914787E+02 -0.20315733476E+02  0.47255684222E+02  0.10566000000E+00 0.  1.
         22    1    1    0    0    0 -0.23783799207E+02 -0.41304530228E+01  0.16153627408E+02  0.29045988110E+02  0.00000000000E+00 0. -1.
</event>
<event>
 5    1  0.8943113E-005  0.9118800E+02  0.7818608E-02  0.1130116E+00
         25   -1    0    0    0    0  0.00000000000E+00  0.00000000000E+00  0.99999998245E-14  0.12500000000E+03  0.12500000000E+03 0.  0.
        -13    1    3    3    0    0 -0.39091559725E+02  0.20005738231E+02 -0.96742441948E+01  0.44966451591E+02  0.10566000000E+00 0.  1.
         23    2    1    0    0    0  0.58371751925E+01  0.15146817285E+02 -0.27107956709E+02  0.93403481125E+02  0.87896929873E+02 0.  0.
         13    1    3    3    0    0  0.44928734917E+02 -0.48589209460E+01 -0.17433712514E+02  0.48437029534E+02  0.10566000000E+00 0. -1.
         22    1    1    0    0    0 -0.58371751925E+01 -0.15146817285E+02  0.27107956709E+02  0.31596518875E+02  0.00000000000E+00 0.  1.
</event>
<event>
 5    1  0.8943113E-005  0.9118800E+02  0.7818608E-02  0.1130116E+00
         25   -1    0    0    0    0  0.00000000000E+00  0.00000000000E+00  0.99999998245E-14  0.12500000000E+03  0.12500000000E+03 0.  0.
        -13    1    3    3    0    0 -0.39908556130E+02 -0.26721036576E+02  0.10938133536E+02  0.49258101642E+02  0.10566000000E+00 0. -1.
         23    2    1    0    0    0 -0.10464338845E+02 -0.15576377308E+02 -0.22844550278E+02  0.95436519236E+02  0.90742106042E+02 0.  0.
         13    1    3    3    0    0  0.29444217286E+02  0.11144659268E+02 -0.33782683814E+02  0.46178417594E+02  0.10566000000E+00 0.  1.
         22    1    1    0    0    0  0.10464338845E+02  0.15576377308E+02  0.22844550278E+02  0.29563480764E+02  0.00000000000E+00 0. -1.
</event>
<event>
 5    1  0.8943113E-005  0.9118800E+02  0.7818608E-02  0.1130116E+00
         25   -1    0    0    0    0  0.00000000000E+00  0.00000000000E+00  0.99999998245E-14  0.12500000000E+03  0.12500000000E+03 0.  0.
        -13    1    3    3    0    0 -0.31684174473E+02  0.16197644238E+02  0.16792481043E+02  0.39347797582E+02  0.10566000000E+00 0.  1.
         23    2    1    0    0    0  0.12590108998E+01 -0.28257665272E+02  0.18872910174E+01  0.96651408811E+02  0.92400498931E+02 0.  0.
         13    1    3    3    0    0  0.32943185373E+02 -0.44455309510E+02 -0.14905190026E+02  0.57303611229E+02  0.10566000000E+00 0. -1.
         22    1    1    0    0    0 -0.12590108998E+01  0.28257665272E+02 -0.18872910174E+01  0.28348591189E+02  0.00000000000E+00 0. -1.
</event>
<event>
 5    1  0.8943113E-005  0.9118800E+02  0.7818608E-02  0.1130116E+00
         25   -1    0    0    0    0  0.00000000000E+00  0.00000000000E+00  0.99999998245E-14  0.12500000000E+03  0.12500000000E+03 0.  0.
        -13    1    3    3    0    0  0.43970981649E+02 -0.20816756240E+02  0.32781079723E+01  0.48760042283E+02  0.10566000000E+00 0. -1.
         23    2    1    0    0    0  0.17687982051E+02  0.19875963566E+02  0.74155105525E+01  0.97379202881E+02  0.93379873208E+02 0.  0.
         13    1    3    3    0    0 -0.26282999598E+02  0.40692719806E+02  0.41374025802E+01  0.48619160598E+02  0.10566000000E+00 0.  1.
         22    1    1    0    0    0 -0.17687982051E+02 -0.19875963566E+02 -0.74155105525E+01  0.27620797119E+02  0.00000000000E+00 0. -1.
</event>
<event>
 5    1  0.8943113E-005  0.9118800E+02  0.7818608E-02  0.1130116E+00
         25   -1    0    0    0    0  0.00000000000E+00  0.00000000000E+00  0.99999998245E-14  0.12500000000E+03  0.12500000000E+03 0.  0.
        -13    1    3    3    0    0 -0.49589284361E+02  0.25790780156E+02 -0.19539650702E+02  0.59212081352E+02  0.10566000000E+00 0.  1.
         23    2    1    0    0    0 -0.30357057849E+02 -0.72386194387E-01 -0.66579688953E+01  0.93921313561E+02  0.88630290478E+02 0.  0.
         13    1    3    3    0    0  0.19232226512E+02 -0.25863166351E+02  0.12881681807E+02  0.34709232208E+02  0.10566000000E+00 0. -1.
         22    1    1    0    0    0  0.30357057849E+02  0.72386194387E-01  0.66579688953E+01  0.31078686439E+02  0.00000000000E+00 0.  1.
</event>
<event>
 5    1  0.8943113E-005  0.9118800E+02  0.7818608E-02  0.1130116E+00
         25   -1    0    0    0    0  0.00000000000E+00  0.00000000000E+00  0.99999998245E-14  0.12500000000E+03  0.12500000000E+03 0.  0.
        -13    1    3    3    0    0  0.37519609224E+01  0.19280941747E+01 -0.40543735392E+02  0.40762732998E+02  0.10566000000E+00 0. -1.
         23    2    1    0    0    0  0.66131451659E+01  0.25776185021E+02  0.98792283082E+01  0.96614360053E+02  0.92350365529E+02 0.  0.
         13    1    3    3    0    0  0.28611842434E+01  0.23848090846E+02  0.50422963700E+02  0.55851627055E+02  0.10566000000E+00 0.  1.
         22    1    1    0    0    0 -0.66131451659E+01 -0.25776185021E+02 -0.98792283082E+01  0.28385639947E+02  0.00000000000E+00 0.  1.
</event>
<event>
 5    1  0.8943113E-005  0.9118800E+02  0.7818608E-02  0.1130116E+00
         25   -1    0    0    0    0  0.00000000000E+00  0.00000000000E+00  0.99999998245E-14  0.12500000000E+03  0.12500000000E+03 0.  0.
        -13    1    3    3    0    0 -0.29488430348E+02 -0.10162130906E+02 -0.29740521512E+02  0.43096939715E+02  0.10566000000E+00 0.  1.
         23    2    1    0    0    0 -0.18596959450E+02  0.38896570296E+01  0.20892389761E+02  0.96760519082E+02  0.92547986313E+02 0.  0.
         13    1    3    3    0    0  0.10891470898E+02  0.14051787936E+02  0.50632911273E+02  0.53663579367E+02  0.10566000000E+00 0. -1.
         22    1    1    0    0    0  0.18596959450E+02 -0.38896570296E+01 -0.20892389761E+02  0.28239480918E+02  0.00000000000E+00 0. -1.
</event>
<event>
 5    1  0.8943113E-005  0.9118800E+02  0.7818608E-02  0.1130116E+00
         25   -1    0    0    0    0  0.00000000000E+00  0.00000000000E+00  0.99999998245E-14  0.12500000000E+03  0.12500000000E+03 0.  0.
        -13    1    3    3    0    0  0.34193325922E+02 -0.24572046371E+02 -0.43078430322E+02  0.60238951879E+02  0.10566000000E+00 0.  1.
         23    2    1    0    0    0  0.83068963117E+01 -0.20207770697E+02 -0.16281653501E+02  0.97752050287E+02  0.93877646816E+02 0.  0.
         13    1    3    3    0    0 -0.25886429610E+02  0.43642756744E+01  0.26796776821E+02  0.37513098408E+02  0.10566000000E+00 0. -1.
         22    1    1    0    0    0 -0.83068963117E+01  0.20207770697E+02  0.16281653501E+02  0.27247949713E+02  0.00000000000E+00 0.  1.
</event>
<event>
 5    1  0.8943113E-005  0.9118800E+02  0.7818608E-02  0.1130116E+00
         25   -1    0    0    0    0  0.00000000000E+00  0.00000000000E+00  0.99999998245E-14  0.12500000000E+03  0.12500000000E+03 0.  0.
        -13    1    3    3    0    0 -0.57997209557E+01  0.31426330981E+02 -0.29439027772E+02  0.43450184836E+02  0.10566000000E+00 0.  1.
         23    2    1    0    0    0  0.10948661498E+02 -0.17531973103E+02 -0.20363945905E+02  0.95983908563E+02  0.91493044220E+02 0.  0.
         13    1    3    3    0    0  0.16748382454E+02 -0.48958304084E+02  0.90750818675E+01  0.52533723726E+02  0.10566000000E+00 0. -1.
         22    1    1    0    0    0 -0.10948661498E+02  0.17531973103E+02  0.20363945905E+02  0.29016091437E+02  0.00000000000E+00 0. -1.
</event>
<event>
 5    1  0.8943113E-005  0.9118800E+02  0.7818608E-02  0.1130116E+00
         25   -1    0    0    0    0  0.00000000000E+00  0.00000000000E+00  0.99999998245E-14  0.12500000000E+03  0.12500000000E+03 0.  0.
        -13    1    3    3    0    0 -0.48224767283E+02  0.12731966942E+01 -0.32859596600E+02  0.58369627907E+02  0.10566000000E+00 0. -1.
         23    2    1    0    0    0 -0.27791622555E+02  0.84256744780E+01 -0.22353413468E+01  0.95873327935E+02  0.91341841363E+02 0.  0.
         13    1    3    3    0    0  0.20433144727E+02  0.71524777838E+01  0.30624255253E+02  0.37503700027E+02  0.10566000000E+00 0.  1.
         22    1    1    0    0    0  0.27791622555E+02 -0.84256744780E+01  0.22353413468E+01  0.29126672065E+02  0.00000000000E+00 0. -1.
</event>
<event>
 5    1  0.8943113E-005  0.9118800E+02  0.7818608E-02  0.1130116E+00
         25   -1    0    0    0    0  0.00000000000E+00  0.00000000000E+00  0.99999998245E-14  0.12500000000E+03  0.12500000000E+03 0.  0.
        -13    1    3    3    0    0  0.60529951140E+01 -0.47254646900E+02  0.90888946704E+01  0.48500098700E+02  0.10566000000E+00 0.  1.
         23    2    1    0    0    0 -0.21729516655E+01 -0.48097605128E+01  0.28588224375E+02  0.95928672406E+02  0.91417548105E+02 0.  0.
         13    1    3    3    0    0 -0.82259467795E+01  0.42444886387E+02  0.19499329705E+02  0.47428573707E+02  0.10566000000E+00 0. -1.
         22    1    1    0    0    0  0.21729516655E+01  0.48097605128E+01 -0.28588224375E+02  0.29071327594E+02  0.00000000000E+00 0. -1.
</event>
<event>
 5    1  0.8943113E-005  0.9118800E+02  0.7818608E-02  0.1130116E+00
         25   -1    0    0    0    0  0.00000000000E+00  0.00000000000E+00  0.99999998245E-14  0.12500000000E+03  0.12500000000E+03 0.  0.
        -13    1    3    3    0    0  0.30214254448E+02 -0.13527635292E+02  0.18938940060E+02  0.38139122998E+02  0.10566000000E+00 0. -1.
         23    2    1    0    0    0 -0.10147727295E+02  0.26147872146E+02  0.85125468666E+01  0.95688721604E+02  0.91088859918E+02 0.  0.
         13    1    3    3    0    0 -0.40361981743E+02  0.39675507438E+02 -0.10426393193E+02  0.57549598606E+02  0.10566000000E+00 0.  1.
         22    1    1    0    0    0  0.10147727295E+02 -0.26147872146E+02 -0.85125468666E+01  0.29311278396E+02  0.00000000000E+00 0.  1.
</event>
<event>
 5    1  0.8943113E-005  0.9118800E+02  0.7818608E-02  0.1130116E+00
         25   -1    0    0    0    0  0.00000000000E+00  0.00000000000E+00  0.99999998245E-14  0.12500000000E+03  0.12500000000E+03 0.  0.
        -13    1    3    3    0    0 -0.65289874591E+00 -0.45421935732E+02  0.83247201440E+01  0.46183229119E+02  0.10566000000E+00 0.  1.
         23    2    1    0    0    0  0.74051077055E+01 -0.88050173403E+01 -0.25718204053E+02  0.96825721479E+02  0.92636010113E+02 0.  0.
         13    1    3    3    0    0  0.80580064514E+01  0.36616918391E+02 -0.34042924197E+02  0.50642492359E+02  0.10566000000E+00 0. -1.
         22    1    1    0    0    0 -0.74051077055E+01  0.88050173403E+01  0.25718204053E+02  0.28174278521E+02  0.00000000000E+00 0. -1.
</event>
<event>
 5    1  0.8943113E-005  0.9118800E+02  0.7818608E-02  0.1130116E+00
         25   -1    0    0    0    0  0.00000000000E+00  0.00000000000E+00  0.99999998245E-14  0.12500000000E+03  0.12500000000E+03 0.  0.
        -13    1    3    3    0    0 -0.15217754324E+02  0.25446694525E+02 -0.48846758342E+02  0.57141327194E+02  0.10566000000E+00 0. -1.
         23    2    1    0    0    0  0.94071558951E+01  0.47952008501E+01 -0.27018098324E+02  0.95991963695E+02  0.91504048674E+02 0.  0.
         13    1    3    3    0    0  0.24624910220E+02 -0.20651493675E+02  0.21828660018E+02  0.38850636501E+02  0.10566000000E+00 0.  1.
         22    1    1    0    0    0 -0.94071558951E+01 -0.47952008501E+01  0.27018098324E+02  0.29008036305E+02  0.00000000000E+00 0. -1.
</event>
<event>
 5    1  0.8943113E-005  0.9118800E+02  0.7818608E-02  0.1130116E+00
         25   -1    0    0    0    0  0.00000000000E+00  0.00000000000E+00  0.99999998245E-14  0.12500000000E+03  0.12500000000E+03 0.  0.
        -13    1    3    3    0    0  0.13984442923E+02  0.48825353643E+02 -0.30143198042E+02  0.59060167241E+02  0.10566000000E+00 0.  1.
         23    2    1    0    0    0  0.18029525138E+02  0.21723593507E+02 -0.48414340535E+01  0.96357064130E+02  0.92001445818E+02 0.  0.
         13    1    3    3    0    0  0.40450822149E+01 -0.27101760136E+02  0.25301763989E+02  0.37296896890E+02  0.10566000000E+00 0. -1.
         22    1    1    0    0    0 -0.18029525138E+02 -0.21723593507E+02  0.48414340535E+01  0.28642935870E+02  0.00000000000E+00 0.  1.
</event>
<event>
 5    1  0.8943113E-005  0.9118800E+02  0.7818608E-02  0.1130116E+00
         25   -1    0    0    0    0  0.00000000000E+00  0.00000000000E+00  0.99999998245E-14  0.12500000000E+03  0.12500000000E+03 0.  0.
        -13    1    3    3    0    0 -0.24313030992E+02 -0.16837545500E+02  0.36871572269E+02  0.47266800400E+02  0.10566000000E+00 0. -1.
         23    2    1    0    0    0 -0.94478924914E+01  0.23561178683E+02  0.13595898947E+02  0.96203467541E+02  0.91792520857E+02 0.  0.
         13    1    3    3    0    0  0.14865138501E+02  0.40398724183E+02 -0.23275673322E+02  0.48936667141E+02  0.10566000000E+00 0.  1.
         22    1    1    0    0    0  0.94478924914E+01 -0.23561178683E+02 -0.13595898947E+02  0.28796532459E+02  0.00000000000E+00 0. -1.
</event>
<event>
 5    1  0.8943113E-005  0.9118800E+02  0.7818608E-02  0.1130116E+00
         25   -1    0    0    0    0  0.00000000000E+00  0.00000000000E+00  0.99999998245E-14  0.12500000000E+03  0.12500000000E+03 0.  0.
        -13    1    3    3    0    0  0.33385787397E+02  0.89029119484E+01  0.43439500851E+02  0.55505621693E+02  0.10566000000E+00 0.  1.
         23    2    1    0    0    0  0.87805082085E+01  0.22978848658E+02  0.12716835223E+02  0.97308075037E+02  0.93284611589E+02 0.  0.
         13    1    3    3    0    0 -0.24605279189E+02  0.14075936710E+02 -0.30722665628E+02  0.41802453344E+02  0.10566000000E+00 0. -1.
         22    1    1    0    0    0 -0.87805082085E+01 -0.22978848658E+02 -0.12716835223E+02  0.27691924963E+02  0.00000000000E+00 0.  1.
</event>
<event>
 5    1  0.8943113E-005  0.9118800E+02  0.7818608E-02  0.1130116E+00
         25   -1    0    0    0    0  0.00000000000E+00  0.00000000000E+00  0.99999998245E-14  0.12500000000E+03  0.12500000000E+03 0.  0.
        -13    1    3    3    0    0 -0.21717815412E+02 -0.29654489868E+02 -0.32566324513E+02  0.49108338721E+02  0.10566000000E+00 0.  1.
         23    2    1    0    0    0 -0.19513446731E+02  0.14514593672E+02 -0.11107734907E+02  0.98263698693E+02  0.94556462885E+02 0.  0.
         13    1    3    3    0    0  0.22043686812E+01  0.44169083540E+02  0.21458589606E+02  0.49155359972E+02  0.10566000000E+00 0. -1.
         22    1    1    0    0    0  0.19513446731E+02 -0.14514593672E+02  0.11107734907E+02  0.26736301307E+02  0.00000000000E+00 0. -1.
</event>
<event>
 5    1  0.8943113E-005  0.9118800E+02  0.7818608E-02  0.1130116E+00
         25   -1    0    0    0    0  0.00000000000E+00  0.00000000000E+00  0.99999998245E-14  0.12500000000E+03  0.12500000000E+03 0.  0.
        -13    1    3    3    0    0  0.21927904066E+02  0.36418319089E+02  0.35171404366E+02  0.55173959357E+02  0.10566000000E+00 0. -1.
         23    2    1    0    0    0 -0.91746837657E+01  0.12502426729E+02  0.24790601976E+02  0.95758600535E+02  0.91184703398E+02 0.  0.
         13    1    3    3    0    0 -0.31102587832E+02 -0.23915892360E+02 -0.10380802390E+02  0.40584641178E+02  0.10566000000E+00 0.  1.
         22    1    1    0    0    0  0.91746837657E+01 -0.12502426729E+02 -0.24790601976E+02  0.29241399465E+02  0.00000000000E+00 0. -1.
</event>
<event>
 5    1  0.8943113E-005  0.9118800E+02  0.7818608E-02  0.1130116E+00
         25   -1    0    0    0    0  0.00000000000E+00  0.00000000000E+00  0.99999998245E-14  0.12500000000E+03  0.12500000000E+03 0.  0.
        -13    1    3    3    0    0  0.27246457397E+02 -0.22371942856E+02  0.19659444783E+02  0.40365557113E+02  0.10566000000E+00 0. -1.
         23    2    1    0    0    0 -0.16244515408E+02 -0.18125550229E+02 -0.15234264340E+02  0.96285845617E+02  0.91904632115E+02 0.  0.
         13    1    3    3    0    0 -0.43490972805E+02  0.42463926269E+01 -0.34893709123E+02  0.55920288503E+02  0.10566000000E+00 0.  1.
         22    1    1    0    0    0  0.16244515408E+02  0.18125550229E+02  0.15234264340E+02  0.28714154383E+02  0.00000000000E+00 0.  1.
</event>
<event>
 5    1  0.8943113E-005  0.9118800E+02  0.7818608E-02  0.1130116E+00
         25   -1    0    0    0    0  0.00000000000E+00  0.00000000000E+00  0.99999998245E-14  0.12500000000E+03  0.12500000000E+03 0.  0.
        -13    1    3    3    0    0  0.18634575340E+02 -0.22805405723E+02 -0.20087415099E+02  0.35648973866E+02  0.10566000000E+00 0. -1.
         23    2    1    0    0    0  0.71010245680E+01  0.25337924079E+02  0.13452611035E+02  0.95446528288E+02  0.90755892768E+02 0.  0.
         13    1    3    3    0    0 -0.11533550773E+02  0.48143329802E+02  0.33540026134E+02  0.59797554423E+02  0.10566000000E+00 0.  1.
         22    1    1    0    0    0 -0.71010245680E+01 -0.25337924079E+02 -0.13452611035E+02  0.29553471712E+02  0.00000000000E+00 0.  1.
</event>
<event>
 5    1  0.8943113E-005  0.9118800E+02  0.7818608E-02  0.1130116E+00
         25   -1    0    0    0    0  0.00000000000E+00  0.00000000000E+00  0.99999998245E-14  0.12500000000E+03  0.12500000000E+03 0.  0.
        -13    1    3    3    0    0  0.19384242397E+02  0.16029693769E+02  0.23766126982E+02  0.34605489324E+02  0.10566000000E+00 0.  1.
         23    2    1    0    0    0 -0.83255707043E+01  0.14629104221E+02 -0.27418873363E+02  0.92826712410E+02  0.87072832172E+02 0.  0.
         13    1    3    3    0    0 -0.27709813101E+02 -0.14005895479E+01 -0.51185000345E+02  0.58221223085E+02  0.10566000000E+00 0. -1.
         22    1    1    0    0    0  0.83255707043E+01 -0.14629104221E+02  0.27418873363E+02  0.32173287590E+02  0.00000000000E+00 0. -1.
</event>
<event>
 5    1  0.8943113E-005  0.9118800E+02  0.7818608E-02  0.1130116E+00
         25   -1    0    0    0    0  0.00000000000E+00  0.00000000000E+00  0.99999998245E-14  0.12500000000E+03  0.12500000000E+03 0.  0.
        -13    1    3    3    0    0  0.30343517906E+01  0.78372689804E+01  0.33295580305E+02  0.34340019041E+02  0.10566000000E+00 0.  1.
         23    2    1    0    0    0  0.74414435096E+01 -0.28920984951E+01 -0.27568066570E+02  0.96299170576E+02  0.91922753679E+02 0.  0.
         13    1    3    3    0    0  0.44070917190E+01 -0.10729367475E+02 -0.60863646876E+02  0.61959151534E+02  0.10566000000E+00 0. -1.
         22    1    1    0    0    0 -0.74414435096E+01  0.28920984951E+01  0.27568066570E+02  0.28700829424E+02  0.00000000000E+00 0. -1.
</event>
<event>
 5    1  0.8943113E-005  0.9118800E+02  0.7818608E-02  0.1130116E+00
         25   -1    0    0    0    0  0.00000000000E+00  0.00000000000E+00  0.99999998245E-14  0.12500000000E+03  0.12500000000E+03 0.  0.
        -13    1    3    3    0    0  0.23048651940E+02 -0.26038966532E+00  0.26535915838E+02  0.35149312261E+02  0.10566000000E+00 0.  1.
         23    2    1    0    0    0 -0.12769786766E+00 -0.31330712165E+01 -0.29227059381E+02  0.95605214033E+02  0.90974191440E+02 0.  0.
         13    1    3    3    0    0 -0.23176349808E+02 -0.28726815512E+01 -0.55762975219E+02  0.60455901772E+02  0.10566000000E+00 0. -1.
         22    1    1    0    0    0  0.12769786766E+00  0.31330712165E+01  0.29227059381E+02  0.29394785967E+02  0.00000000000E+00 0. -1.
</event>
<event>
 5    1  0.8943113E-005  0.9118800E+02  0.7818608E-02  0.1130116E+00
         25   -1    0    0    0    0  0.00000000000E+00  0.00000000000E+00  0.99999998245E-14  0.12500000000E+03  0.12500000000E+03 0.  0.
        -13    1    3    3    0    0 -0.43614284818E+02  0.30860588090E+02 -0.11714819845E+02  0.54697622485E+02  0.10566000000E+00 0.  1.
         23    2    1    0    0    0 -0.81262606431E+01  0.17165681934E+02 -0.23745442779E+02  0.94593704582E+02  0.89573579505E+02 0.  0.
         13    1    3    3    0    0  0.35488024175E+02 -0.13694906156E+02 -0.12030622934E+02  0.39896082097E+02  0.10566000000E+00 0. -1.
         22    1    1    0    0    0  0.81262606431E+01 -0.17165681934E+02  0.23745442779E+02  0.30406295418E+02  0.00000000000E+00 0.  1.
</event>
<event>
 5    1  0.8943113E-005  0.9118800E+02  0.7818608E-02  0.1130116E+00
         25   -1    0    0    0    0  0.00000000000E+00  0.00000000000E+00  0.99999998245E-14  0.12500000000E+03  0.12500000000E+03 0.  0.
        -13    1    3    3    0    0  0.98862868065E+01 -0.42244423626E+02  0.68189836495E+01  0.43918557540E+02  0.10566000000E+00 0. -1.
         23    2    1    0    0    0 -0.50524058811E+01  0.22266864533E+01  0.28764037364E+02  0.95710841883E+02  0.91119210218E+02 0.  0.
         13    1    3    3    0    0 -0.14938692688E+02  0.44471110080E+02  0.21945053714E+02  0.51792284343E+02  0.10566000000E+00 0.  1.
         22    1    1    0    0    0  0.50524058811E+01 -0.22266864533E+01 -0.28764037364E+02  0.29289158117E+02  0.00000000000E+00 0.  1.
</event>
<event>
 5    1  0.8943113E-005  0.9118800E+02  0.7818608E-02  0.1130116E+00
         25   -1    0    0    0    0  0.00000000000E+00  0.00000000000E+00  0.99999998245E-14  0.12500000000E+03  0.12500000000E+03 0.  0.
        -13    1    3    3    0    0  0.21407992020E+02 -0.35638423430E+02  0.34351403492E+02  0.53929856599E+02  0.10566000000E+00 0.  1.
         23    2    1    0    0    0  0.26404025188E+02 -0.10787053151E+02  0.17990248060E+00  0.96476931675E+02  0.92164162876E+02 0.  0.
         13    1    3    3    0    0  0.49960331677E+01  0.24851370278E+02 -0.34171501011E+02  0.42547075076E+02  0.10566000000E+00 0. -1.
         22    1    1    0    0    0 -0.26404025188E+02  0.10787053151E+02 -0.17990248060E+00  0.28523068325E+02  0.00000000000E+00 0.  1.
</event>
<event>
 5    1  0.8943113E-005  0.9118800E+02  0.7818608E-02  0.1130116E+00
         25   -1    0    0    0    0  0.00000000000E+00  0.00000000000E+00  0.99999998245E-14  0.12500000000E+03  0.12500000000E+03 0.  0.
        -13    1    3    3    0    0 -0.29723839598E+02  0.50449119315E+02 -0.59014255893E+01  0.58851153499E+02  0.10566000000E+00 0.  1.
         23    2    1    0    0    0 -0.24747393932E+02  0.12934251525E+02 -0.55272781433E+00  0.97070913423E+02  0.92966275368E+02 0.  0.
         13    1    3    3    0    0  0.49764456656E+01 -0.37514867790E+02  0.53486977750E+01  0.38219759925E+02  0.10566000000E+00 0. -1.
         22    1    1    0    0    0  0.24747393932E+02 -0.12934251525E+02  0.55272781433E+00  0.27929086577E+02  0.00000000000E+00 0.  1.
</event>
<event>
 5    1  0.8943113E-005  0.9118800E+02  0.7818608E-02  0.1130116E+00
         25   -1    0    0    0    0  0.00000000000E+00  0.00000000000E+00  0.99999998245E-14  0.12500000000E+03  0.12500000000E+03 0.  0.
        -13    1    3    3    0    0  0.13510184601E+02 -0.24126129072E+02 -0.55320313910E+02  0.61846127503E+02  0.10566000000E+00 0.  1.
         23    2    1    0    0    0  0.97459967278E+00 -0.78322527986E+01 -0.27187512382E+02  0.96690021937E+02  0.92452720264E+02 0.  0.
         13    1    3    3    0    0 -0.12535584928E+02  0.16293876274E+02  0.28132801528E+02  0.34843894434E+02  0.10566000000E+00 0. -1.
         22    1    1    0    0    0 -0.97459967278E+00  0.78322527986E+01  0.27187512382E+02  0.28309978063E+02  0.00000000000E+00 0.  1.
</event>
<event>
 5    1  0.8943113E-005  0.9118800E+02  0.7818608E-02  0.1130116E+00
         25   -1    0    0    0    0  0.00000000000E+00  0.00000000000E+00  0.99999998245E-14  0.12500000000E+03  0.12500000000E+03 0.  0.
        -13    1    3    3    0    0  0.30123412575E+02  0.18140636125E+02  0.13696150848E+02  0.37737227988E+02  0.10566000000E+00 0. -1.
         23    2    1    0    0    0 -0.22718856398E+02 -0.66780426727E+01  0.16424552000E+02  0.96181453916E+02  0.91762538539E+02 0.  0.
         13    1    3    3    0    0 -0.52842268973E+02 -0.24818678797E+02  0.27284011526E+01  0.58444225928E+02  0.10566000000E+00 0.  1.
         22    1    1    0    0    0  0.22718856398E+02  0.66780426727E+01 -0.16424552000E+02  0.28818546084E+02  0.00000000000E+00 0.  1.
</event>
<event>
 5    1  0.8943113E-005  0.9118800E+02  0.7818608E-02  0.1130116E+00
         25   -1    0    0    0    0  0.00000000000E+00  0.00000000000E+00  0.99999998245E-14  0.12500000000E+03  0.12500000000E+03 0.  0.
        -13    1    3    3    0    0  0.28623210454E+02 -0.27390976739E+02 -0.47501505587E+01  0.39901489669E+02  0.10566000000E+00 0. -1.
         23    2    1    0    0    0  0.12165665642E+02  0.13428024384E+02  0.25796882745E+02  0.93475494948E+02  0.87999282594E+02 0.  0.
         13    1    3    3    0    0 -0.16457544812E+02  0.40819001123E+02  0.30547033304E+02  0.53574005279E+02  0.10566000000E+00 0.  1.
         22    1    1    0    0    0 -0.12165665642E+02 -0.13428024384E+02 -0.25796882745E+02  0.31524505052E+02  0.00000000000E+00 0. -1.
</event>
<event>
 5    1  0.8943113E-005  0.9118800E+02  0.7818608E-02  0.1130116E+00
         25   -1    0    0    0    0  0.00000000000E+00  0.00000000000E+00  0.99999998245E-14  0.12500000000E+03  0.12500000000E+03 0.  0.
        -13    1    3    3    0    0  0.39480548729E+02  0.31820217216E+02  0.18179178281E+02  0.53867742097E+02  0.10566000000E+00 0. -1.
         23    2    1    0    0    0  0.26948775404E+02  0.34472452423E+01 -0.10269160021E+02  0.95955626309E+02  0.91454396162E+02 0.  0.
         13    1    3    3    0    0 -0.12531773324E+02 -0.28372971974E+02 -0.28448338302E+02  0.42087884212E+02  0.10566000000E+00 0.  1.
         22    1    1    0    0    0 -0.26948775404E+02 -0.34472452423E+01  0.10269160021E+02  0.29044373691E+02  0.00000000000E+00 0. -1.
</event>
<event>
 5    1  0.8943113E-005  0.9118800E+02  0.7818608E-02  0.1130116E+00
         25   -1    0    0    0    0  0.00000000000E+00  0.00000000000E+00  0.99999998245E-14  0.12500000000E+03  0.12500000000E+03 0.  0.
        -13    1    3    3    0    0 -0.19443308442E+02 -0.19218827034E+02 -0.27890173890E+02  0.39054814292E+02  0.10566000000E+00 0.  1.
         23    2    1    0    0    0  0.28557261415E+02 -0.25561185098E+01 -0.15505891446E+01  0.96286671247E+02  0.91905755053E+02 0.  0.
         13    1    3    3    0    0  0.48000569857E+02  0.16662708525E+02  0.26339584745E+02  0.57231856955E+02  0.10566000000E+00 0. -1.
         22    1    1    0    0    0 -0.28557261415E+02  0.25561185098E+01  0.15505891446E+01  0.28713328753E+02  0.00000000000E+00 0. -1.
</event>
<event>
 5    1  0.8943113E-005  0.9118800E+02  0.7818608E-02  0.1130116E+00
         25   -1    0    0    0    0  0.00000000000E+00  0.00000000000E+00  0.99999998245E-14  0.12500000000E+03  0.12500000000E+03 0.  0.
        -13    1    3    3    0    0  0.38272766808E+01  0.46076878751E+02 -0.16490269137E+02  0.49088358523E+02  0.10566000000E+00 0. -1.
         23    2    1    0    0    0 -0.21228116810E+02  0.17567647808E+02  0.10340544646E+02  0.95569028960E+02  0.90924458976E+02 0.  0.
         13    1    3    3    0    0 -0.25055393491E+02 -0.28509230944E+02  0.26830813783E+02  0.46480670437E+02  0.10566000000E+00 0.  1.
         22    1    1    0    0    0  0.21228116810E+02 -0.17567647808E+02 -0.10340544646E+02  0.29430971040E+02  0.00000000000E+00 0. -1.
</event>
<event>
 5    1  0.8943113E-005  0.9118800E+02  0.7818608E-02  0.1130116E+00
         25   -1    0    0    0    0  0.00000000000E+00  0.00000000000E+00  0.99999998245E-14  0.12500000000E+03  0.12500000000E+03 0.  0.
        -13    1    3    3    0    0 -0.27404631828E+02 -0.16362852040E+02  0.36668294917E+02  0.48614111004E+02  0.10566000000E+00 0. -1.
         23    2    1    0    0    0  0.81294316300E+00 -0.28749651691E+02  0.36092335327E+00  0.96236592437E+02  0.91837618160E+02 0.  0.
         13    1    3    3    0    0  0.28217574991E+02 -0.12386799652E+02 -0.36307371564E+02  0.47622481434E+02  0.10566000000E+00 0.  1.
         22    1    1    0    0    0 -0.81294316300E+00  0.28749651691E+02 -0.36092335327E+00  0.28763407563E+02  0.00000000000E+00 0.  1.
</event>
<event>
 5    1  0.8943113E-005  0.9118800E+02  0.7818608E-02  0.1130116E+00
         25   -1    0    0    0    0  0.00000000000E+00  0.00000000000E+00  0.99999998245E-14  0.12500000000E+03  0.12500000000E+03 0.  0.
        -13    1    3    3    0    0  0.27511252083E+02  0.18903221529E+02 -0.28751439691E+02  0.44055161148E+02  0.10566000000E+00 0. -1.
         23    2    1    0    0    0 -0.16418365966E+02  0.26388893532E+02 -0.10811173066E+02  0.92093801406E+02  0.86014245050E+02 0.  0.
         13    1    3    3    0    0 -0.43929618049E+02  0.74856720030E+01  0.17940266625E+02  0.48038640258E+02  0.10566000000E+00 0.  1.
         22    1    1    0    0    0  0.16418365966E+02 -0.26388893532E+02  0.10811173066E+02  0.32906198594E+02  0.00000000000E+00 0. -1.
</event>
<event>
 5    1  0.8943113E-005  0.9118800E+02  0.7818608E-02  0.1130116E+00
         25   -1    0    0    0    0  0.00000000000E+00  0.00000000000E+00  0.99999998245E-14  0.12500000000E+03  0.12500000000E+03 0.  0.
        -13    1    3    3    0    0 -0.22122450811E+02  0.37467004670E+02 -0.17056887096E+02  0.46734653420E+02  0.10566000000E+00 0.  1.
         23    2    1    0    0    0 -0.12426698788E+02 -0.45342478531E+01  0.18253922312E+02  0.10245697611E+03  0.99946205667E+02 0.  0.
         13    1    3    3    0    0  0.96957520235E+01 -0.42001252523E+02  0.35310809408E+02  0.55722322689E+02  0.10566000000E+00 0. -1.
         22    1    1    0    0    0  0.12426698788E+02  0.45342478531E+01 -0.18253922312E+02  0.22543023891E+02  0.00000000000E+00 0. -1.
</event>
<event>
 5    1  0.8943113E-005  0.9118800E+02  0.7818608E-02  0.1130116E+00
         25   -1    0    0    0    0  0.00000000000E+00  0.00000000000E+00  0.99999998245E-14  0.12500000000E+03  0.12500000000E+03 0.  0.
        -13    1    3    3    0    0  0.56758810316E+01  0.33530240947E+02  0.36956129951E+01  0.34207622000E+02  0.10566000000E+00 0.  1.
         23    2    1    0    0    0 -0.60514858126E+01 -0.27521621510E+02  0.49556600591E+01  0.96388486623E+02  0.92044128850E+02 0.  0.
         13    1    3    3    0    0 -0.11727366844E+02 -0.61051862457E+02  0.12600470640E+01  0.62180864623E+02  0.10566000000E+00 0. -1.
         22    1    1    0    0    0  0.60514858126E+01  0.27521621510E+02 -0.49556600591E+01  0.28611513377E+02  0.00000000000E+00 0. -1.
</event>
<event>
 5    1  0.8943113E-005  0.9118800E+02  0.7818608E-02  0.1130116E+00
         25   -1    0    0    0    0  0.00000000000E+00  0.00000000000E+00  0.99999998245E-14  0.12500000000E+03  0.12500000000E+03 0.  0.
        -13    1    3    3    0    0 -0.10221038768E+02 -0.34595499429E+02  0.34705868812E+02  0.50058233172E+02  0.10566000000E+00 0.  1.
         23    2    1    0    0    0  0.92067665961E+01  0.86265918665E+01  0.22836706184E+02  0.98909814341E+02  0.95406779556E+02 0.  0.
         13    1    3    3    0    0  0.19427805364E+02  0.43222091295E+02 -0.11869162628E+02  0.48851581169E+02  0.10566000000E+00 0. -1.
         22    1    1    0    0    0 -0.92067665961E+01 -0.86265918665E+01 -0.22836706184E+02  0.26090185659E+02  0.00000000000E+00 0.  1.
</event>
<event>
 5    1  0.8943113E-005  0.9118800E+02  0.7818608E-02  0.1130116E+00
         25   -1    0    0    0    0  0.00000000000E+00  0.00000000000E+00  0.99999998245E-14  0.12500000000E+03  0.12500000000E+03 0.  0.
        -13    1    3    3    0    0  0.45735471235E+02 -0.12271976782E+02 -0.30352173951E+02  0.56245892035E+02  0.10566000000E+00 0. -1.
         23    2    1    0    0    0  0.22617744760E+02 -0.20336753749E+02 -0.86716507535E+00  0.94571429440E+02  0.89542489132E+02 0.  0.
         13    1    3    3    0    0 -0.23117726475E+02 -0.80647769676E+01  0.29485008876E+02  0.38325537405E+02  0.10566000000E+00 0.  1.
         22    1    1    0    0    0 -0.22617744760E+02  0.20336753749E+02  0.86716507535E+00  0.30428570560E+02  0.00000000000E+00 0. -1.
</event>
<event>
 5    1  0.8943113E-005  0.9118800E+02  0.7818608E-02  0.1130116E+00
         25   -1    0    0    0    0  0.00000000000E+00  0.00000000000E+00  0.99999998245E-14  0.12500000000E+03  0.12500000000E+03 0.  0.
        -13    1    3    3    0    0 -0.60957358724E+02  0.81619495360E+01 -0.10477268308E+02  0.62387509311E+02  0.10566000000E+00 0.  1.
         23    2    1    0    0    0 -0.29885993271E+02  0.24144289907E+01 -0.29386830893E+01  0.94872970285E+02  0.89962450896E+02 0.  0.
         13    1    3    3    0    0  0.31071365453E+02 -0.57475205453E+01  0.75385852183E+01  0.32485460974E+02  0.10566000000E+00 0. -1.
         22    1    1    0    0    0  0.29885993271E+02 -0.24144289907E+01  0.29386830893E+01  0.30127029715E+02  0.00000000000E+00 0.  1.
</event>
<event>
 5    1  0.8943113E-005  0.9118800E+02  0.7818608E-02  0.1130116E+00
         25   -1    0    0    0    0  0.00000000000E+00  0.00000000000E+00  0.99999998245E-14  0.12500000000E+03  0.12500000000E+03 0.  0.
        -13    1    3    3    0    0  0.43426930965E+02 -0.81653489230E+01 -0.38659849862E+02  0.58712574560E+02  0.10566000000E+00 0.  1.
         23    2    1    0    0    0  0.20188691256E+02 -0.17746276658E+02 -0.11370017399E+02  0.95814543253E+02  0.91261359914E+02 0.  0.
         13    1    3    3    0    0 -0.23238239708E+02 -0.95809277347E+01  0.27289832464E+02  0.37101968693E+02  0.10566000000E+00 0. -1.
         22    1    1    0    0    0 -0.20188691256E+02  0.17746276658E+02  0.11370017399E+02  0.29185456747E+02  0.00000000000E+00 0.  1.
</event>
<event>
 5    1  0.8943113E-005  0.9118800E+02  0.7818608E-02  0.1130116E+00
         25   -1    0    0    0    0  0.00000000000E+00  0.00000000000E+00  0.99999998245E-14  0.12500000000E+03  0.12500000000E+03 0.  0.
        -13    1    3    3    0    0  0.25541141463E+02  0.80275054484E+01 -0.42095470695E+02  0.49888180644E+02  0.10566000000E+00 0. -1.
         23    2    1    0    0    0 -0.44224440962E+01 -0.20176034154E+02 -0.10128726243E+02  0.10199518613E+03  0.99366979083E+02 0.  0.
         13    1    3    3    0    0 -0.29963585559E+02 -0.28203539603E+02  0.31966744452E+02  0.52107005484E+02  0.10566000000E+00 0.  1.
         22    1    1    0    0    0  0.44224440962E+01  0.20176034154E+02  0.10128726243E+02  0.23004813872E+02  0.00000000000E+00 0. -1.
</event>
<event>
 5    1  0.8943113E-005  0.9118800E+02  0.7818608E-02  0.1130116E+00
         25   -1    0    0    0    0  0.00000000000E+00  0.00000000000E+00  0.99999998245E-14  0.12500000000E+03  0.12500000000E+03 0.  0.
        -13    1    3    3    0    0  0.22522171520E+02  0.32628959444E+02 -0.36994533485E+02  0.54226413086E+02  0.10566000000E+00 0.  1.
         23    2    1    0    0    0  0.22250016155E+01  0.25697798371E+02  0.24137893694E+01  0.99093362773E+02  0.95646958620E+02 0.  0.
         13    1    3    3    0    0 -0.20297169904E+02 -0.69311610736E+01  0.39408322855E+02  0.44866949687E+02  0.10566000000E+00 0. -1.
         22    1    1    0    0    0 -0.22250016155E+01 -0.25697798371E+02 -0.24137893694E+01  0.25906637227E+02  0.00000000000E+00 0.  1.
</event>
<event>
 5    1  0.8943113E-005  0.9118800E+02  0.7818608E-02  0.1130116E+00
         25   -1    0    0    0    0  0.00000000000E+00  0.00000000000E+00  0.99999998245E-14  0.12500000000E+03  0.12500000000E+03 0.  0.
        -13    1    3    3    0    0  0.27601944953E+02 -0.20191946159E+02  0.71944491343E+01  0.34947865704E+02  0.10566000000E+00 0. -1.
         23    2    1    0    0    0 -0.90923864880E+01  0.26466106073E+02  0.12105731738E+02  0.94509427628E+02  0.89455893640E+02 0.  0.
         13    1    3    3    0    0 -0.36694331441E+02  0.46658052231E+02  0.49112826034E+01  0.59561561924E+02  0.10566000000E+00 0.  1.
         22    1    1    0    0    0  0.90923864880E+01 -0.26466106073E+02 -0.12105731738E+02  0.30490572372E+02  0.00000000000E+00 0.  1.
</event>
<event>
 5    1  0.8943113E-005  0.9118800E+02  0.7818608E-02  0.1130116E+00
         25   -1    0    0    0    0  0.00000000000E+00  0.00000000000E+00  0.99999998245E-14  0.12500000000E+03  0.12500000000E+03 0.  0.
        -13    1    3    3    0    0 -0.41869281258E+02  0.16637852876E+02 -0.21524652620E+02  0.49931720338E+02  0.10566000000E+00 0.  1.
         23    2    1    0    0    0 -0.22424214518E+02 -0.19575303256E+02 -0.15389209385E+02  0.91490812308E+02  0.85133442764E+02 0.  0.
         13    1    3    3    0    0  0.19445066741E+02 -0.36213156133E+02  0.61354432347E+01  0.41559091970E+02  0.10566000000E+00 0. -1.
         22    1    1    0    0    0  0.22424214518E+02  0.19575303256E+02  0.15389209385E+02  0.33509187692E+02  0.00000000000E+00 0.  1.
</event>
<event>
 5    1  0.8943113E-005  0.9118800E+02  0.7818608E-02  0.1130116E+00
         25   -1    0    0    0    0  0.00000000000E+00  0.00000000000E+00  0.99999998245E-14  0.12500000000E+03  0.12500000000E+03 0.  0.
        -13    1    3    3    0    0 -0.22183825341E+02 -0.16394684240E+02 -0.26005663593E+02  0.37910598532E+02  0.10566000000E+00 0.  1.
         23    2    1    0    0    0  0.21721650989E+02  0.35619393499E+01  0.12555158782E+02  0.99659330205E+02  0.96383777427E+02 0.  0.
         13    1    3    3    0    0  0.43905476330E+02  0.19956623590E+02  0.38560822376E+02  0.61748731673E+02  0.10566000000E+00 0. -1.
         22    1    1    0    0    0 -0.21721650989E+02 -0.35619393499E+01 -0.12555158782E+02  0.25340669795E+02  0.00000000000E+00 0. -1.
</event>
<event>
 5    1  0.8943113E-005  0.9118800E+02  0.7818608E-02  0.1130116E+00
         25   -1    0    0    0    0  0.00000000000E+00  0.00000000000E+00  0.99999998245E-14  0.12500000000E+03  0.12500000000E+03 0.  0.
        -13    1    3    3    0    0  0.13175594983E+02 -0.60636398969E+02 -0.60782134610E+01  0.62348416387E+02  0.10566000000E+00 0. -1.
         23    2    1    0    0    0  0.75189241861E+01 -0.26517544025E+02 -0.15550900695E+00  0.97436644887E+02  0.93456734491E+02 0.  0.
         13    1    3    3    0    0 -0.56566707967E+01  0.34118854944E+02  0.59227044541E+01  0.35088228500E+02  0.10566000000E+00 0.  1.
         22    1    1    0    0    0 -0.75189241861E+01  0.26517544025E+02  0.15550900695E+00  0.27563355113E+02  0.00000000000E+00 0. -1.
</event>
<event>
 5    1  0.8943113E-005  0.9118800E+02  0.7818608E-02  0.1130116E+00
         25   -1    0    0    0    0  0.00000000000E+00  0.00000000000E+00  0.99999998245E-14  0.12500000000E+03  0.12500000000E+03 0.  0.
        -13    1    3    3    0    0 -0.23213150937E+02  0.13645050624E+02  0.39340618292E+02  0.47673191572E+02  0.10566000000E+00 0. -1.
         23    2    1    0    0    0  0.10024992428E+02 -0.13255478560E+02  0.28856472094E+02  0.91699787287E+02  0.85439726250E+02 0.  0.
         13    1    3    3    0    0  0.33238143365E+02 -0.26900529184E+02 -0.10484146198E+02  0.44026595715E+02  0.10566000000E+00 0.  1.
         22    1    1    0    0    0 -0.10024992428E+02  0.13255478560E+02 -0.28856472094E+02  0.33300212713E+02  0.00000000000E+00 0. -1.
</event>
<event>
 5    1  0.8943113E-005  0.9118800E+02  0.7818608E-02  0.1130116E+00
         25   -1    0    0    0    0  0.00000000000E+00  0.00000000000E+00  0.99999998245E-14  0.12500000000E+03  0.12500000000E+03 0.  0.
        -13    1    3    3    0    0  0.26294113598E+02 -0.25928947643E+02 -0.73246966292E+01  0.37647750006E+02  0.10566000000E+00 0. -1.
         23    2    1    0    0    0 -0.43578182665E+01  0.12725283212E+02  0.24988734842E+02  0.96621129658E+02  0.92359528012E+02 0.  0.
         13    1    3    3    0    0 -0.30651931865E+02  0.38654230856E+02  0.32313431471E+02  0.58973379652E+02  0.10566000000E+00 0.  1.
         22    1    1    0    0    0  0.43578182665E+01 -0.12725283212E+02 -0.24988734842E+02  0.28378870342E+02  0.00000000000E+00 0.  1.
</event>
<event>
 5    1  0.8943113E-005  0.9118800E+02  0.7818608E-02  0.1130116E+00
         25   -1    0    0    0    0  0.00000000000E+00  0.00000000000E+00  0.99999998245E-14  0.12500000000E+03  0.12500000000E+03 0.  0.
        -13    1    3    3    0    0 -0.27267961896E+02 -0.37573177167E+01 -0.21503279122E+02  0.34929376740E+02  0.10566000000E+00 0. -1.
         23    2    1    0    0    0  0.28679235178E+02 -0.11668655049E+02 -0.75520991626E+01  0.93130104443E+02  0.87507291757E+02 0.  0.
         13    1    3    3    0    0  0.55947197075E+02 -0.79113373322E+01  0.13951179959E+02  0.58200727703E+02  0.10566000000E+00 0.  1.
         22    1    1    0    0    0 -0.28679235178E+02  0.11668655049E+02  0.75520991626E+01  0.31869895557E+02  0.00000000000E+00 0.  1.
</event>
<event>
 5    1  0.8943113E-005  0.9118800E+02  0.7818608E-02  0.1130116E+00
         25   -1    0    0    0    0  0.00000000000E+00  0.00000000000E+00  0.99999998245E-14  0.12500000000E+03  0.12500000000E+03 0.  0.
        -13    1    3    3    0    0  0.52685181935E+01 -0.28788095242E+02  0.27724249203E+02  0.40313234421E+02  0.10566000000E+00 0.  1.
         23    2    1    0    0    0  0.18966921188E+02  0.21004894534E+02  0.80571813843E+01  0.95574367201E+02  0.90931797520E+02 0.  0.
         13    1    3    3    0    0  0.13698402995E+02  0.49792989776E+02 -0.19667067819E+02  0.55261132780E+02  0.10566000000E+00 0. -1.
         22    1    1    0    0    0 -0.18966921188E+02 -0.21004894534E+02 -0.80571813843E+01  0.29425632799E+02  0.00000000000E+00 0. -1.
</event>
<event>
 5    1  0.8943113E-005  0.9118800E+02  0.7818608E-02  0.1130116E+00
         25   -1    0    0    0    0  0.00000000000E+00  0.00000000000E+00  0.99999998245E-14  0.12500000000E+03  0.12500000000E+03 0.  0.
        -13    1    3    3    0    0 -0.29157050881E+02 -0.48785451996E+02  0.16764476530E+02  0.59255487340E+02  0.10566000000E+00 0.  1.
         23    2    1    0    0    0 -0.12275906781E+02 -0.26243309617E+02 -0.59332103919E+01  0.95426157292E+02  0.90727831027E+02 0.  0.
         13    1    3    3    0    0  0.16881144100E+02  0.22542142378E+02 -0.22697686922E+02  0.36170669952E+02  0.10566000000E+00 0. -1.
         22    1    1    0    0    0  0.12275906781E+02  0.26243309617E+02  0.59332103919E+01  0.29573842708E+02  0.00000000000E+00 0.  1.
</event>
<event>
 5    1  0.8943113E-005  0.9118800E+02  0.7818608E-02  0.1130116E+00
         25   -1    0    0    0    0  0.00000000000E+00  0.00000000000E+00  0.99999998245E-14  0.12500000000E+03  0.12500000000E+03 0.  0.
        -13    1    3    3    0    0 -0.95999824798E+01  0.21822134547E+02 -0.38428780271E+02  0.45223307452E+02  0.10566000000E+00 0. -1.
         23    2    1    0    0    0  0.17598619556E+02  0.21885566650E+02  0.50083271185E+01  0.96473297099E+02  0.92159233258E+02 0.  0.
         13    1    3    3    0    0  0.27198602036E+02  0.63432103657E-01  0.43437107390E+02  0.51249989646E+02  0.10566000000E+00 0.  1.
         22    1    1    0    0    0 -0.17598619556E+02 -0.21885566650E+02 -0.50083271185E+01  0.28526702901E+02  0.00000000000E+00 0.  1.
</event>
<event>
 5    1  0.8943113E-005  0.9118800E+02  0.7818608E-02  0.1130116E+00
         25   -1    0    0    0    0  0.00000000000E+00  0.00000000000E+00  0.99999998245E-14  0.12500000000E+03  0.12500000000E+03 0.  0.
        -13    1    3    3    0    0  0.40048185828E+02  0.61791380433E+01  0.13499769831E+02  0.42711753471E+02  0.10566000000E+00 0.  1.
         23    2    1    0    0    0 -0.90425375647E+01 -0.22089446180E+02  0.88235708536E+01  0.99552671638E+02  0.96245352665E+02 0.  0.
         13    1    3    3    0    0 -0.49090723392E+02 -0.28268584223E+02 -0.46761989772E+01  0.56840918167E+02  0.10566000000E+00 0. -1.
         22    1    1    0    0    0  0.90425375647E+01  0.22089446180E+02 -0.88235708536E+01  0.25447328362E+02  0.00000000000E+00 0. -1.
</event>
<event>
 5    1  0.8943113E-005  0.9118800E+02  0.7818608E-02  0.1130116E+00
         25   -1    0    0    0    0  0.00000000000E+00  0.00000000000E+00  0.99999998245E-14  0.12500000000E+03  0.12500000000E+03 0.  0.
        -13    1    3    3    0    0 -0.41471199267E+02 -0.15899930100E+02  0.31598615830E+02  0.54508273062E+02  0.10566000000E+00 0. -1.
         23    2    1    0    0    0  0.49785420543E+00 -0.13524831869E+02  0.24316721587E+02  0.97170665034E+02  0.93100302139E+02 0.  0.
         13    1    3    3    0    0  0.41969053472E+02  0.23750982311E+01 -0.72818942426E+01  0.42662391972E+02  0.10566000000E+00 0.  1.
         22    1    1    0    0    0 -0.49785420543E+00  0.13524831869E+02 -0.24316721587E+02  0.27829334966E+02  0.00000000000E+00 0. -1.
</event>
<event>
 5    1  0.8943113E-005  0.9118800E+02  0.7818608E-02  0.1130116E+00
         25   -1    0    0    0    0  0.00000000000E+00  0.00000000000E+00  0.99999998245E-14  0.12500000000E+03  0.12500000000E+03 0.  0.
        -13    1    3    3    0    0  0.22449549206E+01 -0.40711968806E+02  0.38738280188E+02  0.56242063819E+02  0.10566000000E+00 0.  1.
         23    2    1    0    0    0 -0.21494579495E+01 -0.29157974787E+02  0.12276902674E+01  0.95737141518E+02  0.91155281687E+02 0.  0.
         13    1    3    3    0    0 -0.43944128700E+01  0.11553994019E+02 -0.37510589920E+02  0.39495077699E+02  0.10566000000E+00 0. -1.
         22    1    1    0    0    0  0.21494579495E+01  0.29157974787E+02 -0.12276902674E+01  0.29262858482E+02  0.00000000000E+00 0.  1.
</event>
<event>
 5    1  0.8943113E-005  0.9118800E+02  0.7818608E-02  0.1130116E+00
         25   -1    0    0    0    0  0.00000000000E+00  0.00000000000E+00  0.99999998245E-14  0.12500000000E+03  0.12500000000E+03 0.  0.
        -13    1    3    3    0    0  0.58589127652E+02  0.20004205382E+02  0.34741282557E+01  0.62007538599E+02  0.10566000000E+00 0.  1.
         23    2    1    0    0    0  0.39858072087E+02  0.17237770471E+02 -0.13721915324E+01  0.81552450576E+02  0.69015307317E+02 0.  0.
         13    1    3    3    0    0 -0.18731055564E+02 -0.27664349102E+01 -0.48463197881E+01  0.19544911977E+02  0.10566000000E+00 0. -1.
         22    1    1    0    0    0 -0.39858072087E+02 -0.17237770471E+02  0.13721915324E+01  0.43447549424E+02  0.00000000000E+00 0.  1.
</event>
<event>
 5    1  0.8943113E-005  0.9118800E+02  0.7818608E-02  0.1130116E+00
         25   -1    0    0    0    0  0.00000000000E+00  0.00000000000E+00  0.99999998245E-14  0.12500000000E+03  0.12500000000E+03 0.  0.
        -13    1    3    3    0    0  0.48188883925E+02 -0.12349171838E+01  0.23413312887E+02  0.53589998496E+02  0.10566000000E+00 0.  1.
         23    2    1    0    0    0  0.15792491579E+02  0.22188032524E+02  0.12525960755E+02  0.95023154429E+02  0.90170885585E+02 0.  0.
         13    1    3    3    0    0 -0.32396392347E+02  0.23422949708E+02 -0.10887352132E+02  0.41433155933E+02  0.10566000000E+00 0. -1.
         22    1    1    0    0    0 -0.15792491579E+02 -0.22188032524E+02 -0.12525960755E+02  0.29976845571E+02  0.00000000000E+00 0.  1.
</event>
<event>
 5    1  0.8943113E-005  0.9118800E+02  0.7818608E-02  0.1130116E+00
         25   -1    0    0    0    0  0.00000000000E+00  0.00000000000E+00  0.99999998245E-14  0.12500000000E+03  0.12500000000E+03 0.  0.
        -13    1    3    3    0    0  0.32201815323E+00 -0.28020947323E+01  0.36503623230E+02  0.36612581219E+02  0.10566000000E+00 0. -1.
         23    2    1    0    0    0 -0.19698907727E+02 -0.14088547665E+02 -0.17378354565E+02  0.95191589302E+02  0.90404078036E+02 0.  0.
         13    1    3    3    0    0 -0.20020925880E+02 -0.11286452932E+02 -0.53881977795E+02  0.58579008083E+02  0.10566000000E+00 0.  1.
         22    1    1    0    0    0  0.19698907727E+02  0.14088547665E+02  0.17378354565E+02  0.29808410698E+02  0.00000000000E+00 0.  1.
</event>
<event>
 5    1  0.8943113E-005  0.9118800E+02  0.7818608E-02  0.1130116E+00
         25   -1    0    0    0    0  0.00000000000E+00  0.00000000000E+00  0.99999998245E-14  0.12500000000E+03  0.12500000000E+03 0.  0.
        -13    1    3    3    0    0 -0.45120561343E+00 -0.18245217042E+02 -0.38040199639E+02  0.42191936244E+02  0.10566000000E+00 0.  1.
         23    2    1    0    0    0  0.21871410599E+01 -0.23660373352E+02  0.15862654127E+02  0.96430424415E+02  0.92101064618E+02 0.  0.
         13    1    3    3    0    0  0.26383466733E+01 -0.54151563099E+01  0.53902853765E+02  0.54238488171E+02  0.10566000000E+00 0. -1.
         22    1    1    0    0    0 -0.21871410599E+01  0.23660373352E+02 -0.15862654127E+02  0.28569575585E+02  0.00000000000E+00 0. -1.
</event>
<event>
 5    1  0.8943113E-005  0.9118800E+02  0.7818608E-02  0.1130116E+00
         25   -1    0    0    0    0  0.00000000000E+00  0.00000000000E+00  0.99999998245E-14  0.12500000000E+03  0.12500000000E+03 0.  0.
        -13    1    3    3    0    0  0.36626888983E+02 -0.24783258213E+01  0.23500128516E+02  0.43588281679E+02  0.10566000000E+00 0.  1.
         23    2    1    0    0    0 -0.14878798106E+02  0.26212367249E+01  0.25473258995E+02  0.95383510693E+02  0.90669055765E+02 0.  0.
         13    1    3    3    0    0 -0.51505687089E+02  0.50995625462E+01  0.19731304786E+01  0.51795229014E+02  0.10566000000E+00 0. -1.
         22    1    1    0    0    0  0.14878798106E+02 -0.26212367249E+01 -0.25473258995E+02  0.29616489307E+02  0.00000000000E+00 0. -1.
</event>
<event>
 5    1  0.8943113E-005  0.9118800E+02  0.7818608E-02  0.1130116E+00
         25   -1    0    0    0    0  0.00000000000E+00  0.00000000000E+00  0.99999998245E-14  0.12500000000E+03  0.12500000000E+03 0.  0.
        -13    1    3    3    0    0  0.11221401578E+02  0.16878030653E+02 -0.29137852466E+02  0.35493849924E+02  0.10566000000E+00 0. -1.
         23    2    1    0    0    0 -0.78843255798E+01  0.79333852687E+01  0.27166764224E+02  0.95620853142E+02  0.90995677290E+02 0.  0.
         13    1    3    3    0    0 -0.19105727157E+02 -0.89446453841E+01  0.56304616690E+02  0.60127003218E+02  0.10566000000E+00 0.  1.
         22    1    1    0    0    0  0.78843255798E+01 -0.79333852687E+01 -0.27166764224E+02  0.29379146858E+02  0.00000000000E+00 0.  1.
</event>
<event>
 5    1  0.8943113E-005  0.9118800E+02  0.7818608E-02  0.1130116E+00
         25   -1    0    0    0    0  0.00000000000E+00  0.00000000000E+00  0.99999998245E-14  0.12500000000E+03  0.12500000000E+03 0.  0.
        -13    1    3    3    0    0  0.18778552025E+02  0.16063832103E+02  0.54857804135E+02  0.60167022168E+02  0.10566000000E+00 0.  1.
         23    2    1    0    0    0 -0.19979751382E+01  0.13241061153E+02  0.24801603609E+02  0.96814238583E+02  0.92620514173E+02 0.  0.
         13    1    3    3    0    0 -0.20776527163E+02 -0.28227709505E+01 -0.30056200527E+02  0.36647216415E+02  0.10566000000E+00 0. -1.
         22    1    1    0    0    0  0.19979751382E+01 -0.13241061153E+02 -0.24801603609E+02  0.28185761417E+02  0.00000000000E+00 0.  1.
</event>
<event>
 5    1  0.8943113E-005  0.9118800E+02  0.7818608E-02  0.1130116E+00
         25   -1    0    0    0    0  0.00000000000E+00  0.00000000000E+00  0.99999998245E-14  0.12500000000E+03  0.12500000000E+03 0.  0.
        -13    1    3    3    0    0 -0.20214435774E+02 -0.10484137357E+02  0.29294558831E+02  0.37104216619E+02  0.10566000000E+00 0. -1.
         23    2    1    0    0    0  0.16611738169E+02  0.13516194914E+02 -0.14486801948E+02  0.99144540217E+02  0.95713818512E+02 0.  0.
         13    1    3    3    0    0  0.36826173943E+02  0.24000332271E+02 -0.43781360779E+02  0.62040323597E+02  0.10566000000E+00 0.  1.
         22    1    1    0    0    0 -0.16611738169E+02 -0.13516194914E+02  0.14486801948E+02  0.25855459783E+02  0.00000000000E+00 0.  1.
</event>
<event>
 5    1  0.8943113E-005  0.9118800E+02  0.7818608E-02  0.1130116E+00
         25   -1    0    0    0    0  0.00000000000E+00  0.00000000000E+00  0.99999998245E-14  0.12500000000E+03  0.12500000000E+03 0.  0.
        -13    1    3    3    0    0 -0.13974384673E+01  0.52379109705E+02 -0.16694248196E+02  0.54993027327E+02  0.10566000000E+00 0.  1.
         23    2    1    0    0    0  0.16006412210E+01  0.22939687481E+02  0.14360255404E+02  0.97888964437E+02  0.94059774130E+02 0.  0.
         13    1    3    3    0    0  0.29980796883E+01 -0.29439422224E+02  0.31054503599E+02  0.42895937110E+02  0.10566000000E+00 0. -1.
         22    1    1    0    0    0 -0.16006412210E+01 -0.22939687481E+02 -0.14360255404E+02  0.27111035563E+02  0.00000000000E+00 0.  1.
</event>
<event>
 5    1  0.8943113E-005  0.9118800E+02  0.7818608E-02  0.1130116E+00
         25   -1    0    0    0    0  0.00000000000E+00  0.00000000000E+00  0.99999998245E-14  0.12500000000E+03  0.12500000000E+03 0.  0.
        -13    1    3    3    0    0 -0.69431968615E+01 -0.17034058824E+02  0.40448927094E+02  0.44435278887E+02  0.10566000000E+00 0.  1.
         23    2    1    0    0    0  0.18380335443E+02  0.18468648955E+02  0.15775149725E+02  0.94540468256E+02  0.89499257338E+02 0.  0.
         13    1    3    3    0    0  0.25323532304E+02  0.35502707779E+02 -0.24673777369E+02  0.50105189369E+02  0.10566000000E+00 0. -1.
         22    1    1    0    0    0 -0.18380335443E+02 -0.18468648955E+02 -0.15775149725E+02  0.30459531744E+02  0.00000000000E+00 0. -1.
</event>
<event>
 5    1  0.8943113E-005  0.9118800E+02  0.7818608E-02  0.1130116E+00
         25   -1    0    0    0    0  0.00000000000E+00  0.00000000000E+00  0.99999998245E-14  0.12500000000E+03  0.12500000000E+03 0.  0.
        -13    1    3    3    0    0 -0.95409954126E+01  0.41766549986E+02 -0.18007472541E+02  0.46473169922E+02  0.10566000000E+00 0. -1.
         23    2    1    0    0    0 -0.30657624470E+02  0.24261591319E+01 -0.10684173617E+01  0.94227972086E+02  0.89061737135E+02 0.  0.
         13    1    3    3    0    0 -0.21116629057E+02 -0.39340390854E+02  0.16939055180E+02  0.47754802164E+02  0.10566000000E+00 0.  1.
         22    1    1    0    0    0  0.30657624470E+02 -0.24261591319E+01  0.10684173617E+01  0.30772027914E+02  0.00000000000E+00 0. -1.
</event>
<event>
 5    1  0.8943113E-005  0.9118800E+02  0.7818608E-02  0.1130116E+00
         25   -1    0    0    0    0  0.00000000000E+00  0.00000000000E+00  0.99999998245E-14  0.12500000000E+03  0.12500000000E+03 0.  0.
        -13    1    3    3    0    0 -0.28300898853E+02 -0.16129216053E+02 -0.28473002709E-01  0.32574598403E+02  0.10566000000E+00 0. -1.
         23    2    1    0    0    0 -0.23160739066E+01 -0.12120317708E+02 -0.41514384880E+02  0.81690526999E+02  0.69264938819E+02 0.  0.
         13    1    3    3    0    0  0.25984824947E+02  0.40088983449E+01 -0.41485911878E+02  0.49115928595E+02  0.10566000000E+00 0.  1.
         22    1    1    0    0    0  0.23160739066E+01  0.12120317708E+02  0.41514384880E+02  0.43309473001E+02  0.00000000000E+00 0.  1.
</event>
<event>
 5    1  0.8943113E-005  0.9118800E+02  0.7818608E-02  0.1130116E+00
         25   -1    0    0    0    0  0.00000000000E+00  0.00000000000E+00  0.99999998245E-14  0.12500000000E+03  0.12500000000E+03 0.  0.
        -13    1    3    3    0    0 -0.29061615967E+02  0.19019522417E+02 -0.26983416612E+01  0.34836933954E+02  0.10566000000E+00 0.  1.
         23    2    1    0    0    0  0.98964727894E+01 -0.22540883626E+02  0.16967932168E+02  0.95101131621E+02  0.90278917280E+02 0.  0.
         13    1    3    3    0    0  0.38958088757E+02 -0.41560406043E+02  0.19666273829E+02  0.60264197666E+02  0.10566000000E+00 0. -1.
         22    1    1    0    0    0 -0.98964727894E+01  0.22540883626E+02 -0.16967932168E+02  0.29898868379E+02  0.00000000000E+00 0. -1.
</event>
<event>
 5    1  0.8943113E-005  0.9118800E+02  0.7818608E-02  0.1130116E+00
         25   -1    0    0    0    0  0.00000000000E+00  0.00000000000E+00  0.99999998245E-14  0.12500000000E+03  0.12500000000E+03 0.  0.
        -13    1    3    3    0    0  0.14253223486E+02  0.55519089005E+01  0.29669024992E+02  0.33380237868E+02  0.10566000000E+00 0.  1.
         23    2    1    0    0    0 -0.58405372930E+01  0.17795901014E+01 -0.28924404354E+02  0.95438200596E+02  0.90744422137E+02 0.  0.
         13    1    3    3    0    0 -0.20093760779E+02 -0.37723187991E+01 -0.58593429345E+02  0.62057962727E+02  0.10566000000E+00 0. -1.
         22    1    1    0    0    0  0.58405372930E+01 -0.17795901014E+01  0.28924404354E+02  0.29561799404E+02  0.00000000000E+00 0. -1.
</event>
<event>
 5    1  0.8943113E-005  0.9118800E+02  0.7818608E-02  0.1130116E+00
         25   -1    0    0    0    0  0.00000000000E+00  0.00000000000E+00  0.99999998245E-14  0.12500000000E+03  0.12500000000E+03 0.  0.
        -13    1    3    3    0    0  0.33845463488E+02 -0.27942798687E+02  0.34873710467E+02  0.56058025678E+02  0.10566000000E+00 0. -1.
         23    2    1    0    0    0 -0.36989063875E+01 -0.19376968334E+02  0.18675138460E+02  0.97835508347E+02  0.93988707229E+02 0.  0.
         13    1    3    3    0    0 -0.37544369875E+02  0.85658303532E+01 -0.16198572007E+02  0.41777482668E+02  0.10566000000E+00 0.  1.
         22    1    1    0    0    0  0.36989063875E+01  0.19376968334E+02 -0.18675138460E+02  0.27164491653E+02  0.00000000000E+00 0. -1.
</event>
<event>
 5    1  0.8943113E-005  0.9118800E+02  0.7818608E-02  0.1130116E+00
         25   -1    0    0    0    0  0.00000000000E+00  0.00000000000E+00  0.99999998245E-14  0.12500000000E+03  0.12500000000E+03 0.  0.
        -13    1    3    3    0    0 -0.24285858870E+02 -0.19011801214E+02 -0.11101570161E+02  0.32779681978E+02  0.10566000000E+00 0. -1.
         23    2    1    0    0    0  0.16534173876E+02  0.25008144383E+02  0.41863523044E+01  0.94729358499E+02  0.89762685036E+02 0.  0.
         13    1    3    3    0    0  0.40820032746E+02  0.44019945597E+02  0.15287922466E+02  0.61949676522E+02  0.10566000000E+00 0.  1.
         22    1    1    0    0    0 -0.16534173876E+02 -0.25008144383E+02 -0.41863523044E+01  0.30270641501E+02  0.00000000000E+00 0.  1.
</event>
<event>
 5    1  0.8943113E-005  0.9118800E+02  0.7818608E-02  0.1130116E+00
         25   -1    0    0    0    0  0.00000000000E+00  0.00000000000E+00  0.99999998245E-14  0.12500000000E+03  0.12500000000E+03 0.  0.
        -13    1    3    3    0    0  0.36802132109E+02 -0.24236706500E+02  0.27579630168E+02  0.51985209762E+02  0.10566000000E+00 0.  1.
         23    2    1    0    0    0 -0.66140771894E+01 -0.18951064308E+02  0.20532795501E+02  0.96286161062E+02  0.91905061153E+02 0.  0.
         13    1    3    3    0    0 -0.43416209299E+02  0.52856421920E+01 -0.70468346665E+01  0.44300951300E+02  0.10566000000E+00 0. -1.
         22    1    1    0    0    0  0.66140771894E+01  0.18951064308E+02 -0.20532795501E+02  0.28713838938E+02  0.00000000000E+00 0.  1.
</event>
<event>
 5    1  0.8943113E-005  0.9118800E+02  0.7818608E-02  0.1130116E+00
         25   -1    0    0    0    0  0.00000000000E+00  0.00000000000E+00  0.99999998245E-14  0.12500000000E+03  0.12500000000E+03 0.  0.
        -13    1    3    3    0    0  0.15966001584E+02  0.17556736740E+02  0.57707042709E+02  0.62396042774E+02  0.10566000000E+00 0.  1.
         23    2    1    0    0    0  0.64648807001E+01  0.87335070601E+01  0.32312196010E+02  0.90909725154E+02  0.84275923540E+02 0.  0.
         13    1    3    3    0    0 -0.95011208834E+01 -0.88232296795E+01 -0.25394846699E+02  0.28513682381E+02  0.10566000000E+00 0. -1.
         22    1    1    0    0    0 -0.64648807001E+01 -0.87335070601E+01 -0.32312196010E+02  0.34090274846E+02  0.00000000000E+00 0.  1.
</event>
<event>
 5    1  0.8943113E-005  0.9118800E+02  0.7818608E-02  0.1130116E+00
         25   -1    0    0    0    0  0.00000000000E+00  0.00000000000E+00  0.99999998245E-14  0.12500000000E+03  0.12500000000E+03 0.  0.
        -13    1    3    3    0    0  0.24092329999E+02  0.48822539968E+02  0.16858151849E+02  0.56993764760E+02  0.10566000000E+00 0. -1.
         23    2    1    0    0    0  0.95973572325E+00  0.21380459137E+02  0.23194304984E+02  0.93440201058E+02  0.87949134529E+02 0.  0.
         13    1    3    3    0    0 -0.23132594276E+02 -0.27442080831E+02  0.63361531356E+01  0.36446436298E+02  0.10566000000E+00 0.  1.
         22    1    1    0    0    0 -0.95973572325E+00 -0.21380459137E+02 -0.23194304984E+02  0.31559798942E+02  0.00000000000E+00 0. -1.
</event>
<event>
 5    1  0.8943113E-005  0.9118800E+02  0.7818608E-02  0.1130116E+00
         25   -1    0    0    0    0  0.00000000000E+00  0.00000000000E+00  0.99999998245E-14  0.12500000000E+03  0.12500000000E+03 0.  0.
        -13    1    3    3    0    0 -0.11235560894E+02  0.55231041413E+01 -0.25897961350E+02  0.28765570984E+02  0.10566000000E+00 0. -1.
         23    2    1    0    0    0  0.98210958188E+01  0.66127847604E+00  0.32504274379E+02  0.91037976132E+02  0.84465934157E+02 0.  0.
         13    1    3    3    0    0  0.21056656713E+02 -0.48618256653E+01  0.58402235729E+02  0.62272405148E+02  0.10566000000E+00 0.  1.
         22    1    1    0    0    0 -0.98210958188E+01 -0.66127847604E+00 -0.32504274379E+02  0.33962023868E+02  0.00000000000E+00 0.  1.
</event>
<event>
 5    1  0.8943113E-005  0.9118800E+02  0.7818608E-02  0.1130116E+00
         25   -1    0    0    0    0  0.00000000000E+00  0.00000000000E+00  0.99999998245E-14  0.12500000000E+03  0.12500000000E+03 0.  0.
        -13    1    3    3    0    0 -0.13629758995E+01  0.21251460875E+02  0.57508772346E+02  0.61324973326E+02  0.10566000000E+00 0.  1.
         23    2    1    0    0    0 -0.82334568143E+01  0.60429942379E+01  0.27541337279E+02  0.95625983428E+02  0.91002724448E+02 0.  0.
         13    1    3    3    0    0 -0.68704809148E+01 -0.15208466637E+02 -0.29967435067E+02  0.34301010102E+02  0.10566000000E+00 0. -1.
         22    1    1    0    0    0  0.82334568143E+01 -0.60429942379E+01 -0.27541337279E+02  0.29374016572E+02  0.00000000000E+00 0.  1.
</event>
<event>
 5    1  0.8943113E-005  0.9118800E+02  0.7818608E-02  0.1130116E+00
         25   -1    0    0    0    0  0.00000000000E+00  0.00000000000E+00  0.99999998245E-14  0.12500000000E+03  0.12500000000E+03 0.  0.
        -13    1    3    3    0    0 -0.12149701047E+02 -0.13808242329E+02 -0.36466249628E+02  0.40842151238E+02  0.10566000000E+00 0. -1.
         23    2    1    0    0    0 -0.17639725700E+02  0.23478339370E+02  0.30813071346E+01  0.95472270727E+02  0.90791341447E+02 0.  0.
         13    1    3    3    0    0 -0.54900246523E+01  0.37286581699E+02  0.39547556763E+02  0.54630119489E+02  0.10566000000E+00 0.  1.
         22    1    1    0    0    0  0.17639725700E+02 -0.23478339370E+02 -0.30813071346E+01  0.29527729273E+02  0.00000000000E+00 0. -1.
</event>
<event>
 5    1  0.8943113E-005  0.9118800E+02  0.7818608E-02  0.1130116E+00
         25   -1    0    0    0    0  0.00000000000E+00  0.00000000000E+00  0.99999998245E-14  0.12500000000E+03  0.12500000000E+03 0.  0.
        -13    1    3    3    0    0  0.55656507239E+02 -0.21500878303E+02  0.53006984148E+01  0.59900276574E+02  0.10566000000E+00 0. -1.
         23    2    1    0    0    0  0.28166475312E+02  0.26429695095E+01  0.18742582892E+01  0.96647778509E+02  0.92395587705E+02 0.  0.
         13    1    3    3    0    0 -0.27490031928E+02  0.24143847812E+02 -0.34264401256E+01  0.36747501936E+02  0.10566000000E+00 0.  1.
         22    1    1    0    0    0 -0.28166475312E+02 -0.26429695095E+01 -0.18742582892E+01  0.28352221491E+02  0.00000000000E+00 0. -1.
</event>
<event>
 5    1  0.8943113E-005  0.9118800E+02  0.7818608E-02  0.1130116E+00
         25   -1    0    0    0    0  0.00000000000E+00  0.00000000000E+00  0.99999998245E-14  0.12500000000E+03  0.12500000000E+03 0.  0.
        -13    1    3    3    0    0 -0.16118277118E+02 -0.20585984916E+01 -0.48990306847E+02  0.51614901085E+02  0.10566000000E+00 0. -1.
         23    2    1    0    0    0 -0.10978804921E+02  0.23454369871E+02 -0.13016250640E+02  0.96016135450E+02  0.91537062780E+02 0.  0.
         13    1    3    3    0    0  0.51394721962E+01  0.25512968362E+02  0.35974056207E+02  0.44401234365E+02  0.10566000000E+00 0.  1.
         22    1    1    0    0    0  0.10978804921E+02 -0.23454369871E+02  0.13016250640E+02  0.28983864550E+02  0.00000000000E+00 0. -1.
</event>
<event>
 5    1  0.8943113E-005  0.9118800E+02  0.7818608E-02  0.1130116E+00
         25   -1    0    0    0    0  0.00000000000E+00  0.00000000000E+00  0.99999998245E-14  0.12500000000E+03  0.12500000000E+03 0.  0.
        -13    1    3    3    0    0 -0.16635629089E+02  0.24936310121E+02 -0.52358005145E+02  0.60331878675E+02  0.10566000000E+00 0.  1.
         23    2    1    0    0    0 -0.16402884890E+02  0.15313780956E+02 -0.17362600641E+02  0.96627012479E+02  0.92367489517E+02 0.  0.
         13    1    3    3    0    0  0.23274419913E+00 -0.96225291654E+01  0.34995404504E+02  0.36295133804E+02  0.10566000000E+00 0. -1.
         22    1    1    0    0    0  0.16402884890E+02 -0.15313780956E+02  0.17362600641E+02  0.28372987521E+02  0.00000000000E+00 0.  1.
</event>
<event>
 5    1  0.8943113E-005  0.9118800E+02  0.7818608E-02  0.1130116E+00
         25   -1    0    0    0    0  0.00000000000E+00  0.00000000000E+00  0.99999998245E-14  0.12500000000E+03  0.12500000000E+03 0.  0.
        -13    1    3    3    0    0  0.19860761245E+02 -0.79641948833E+01  0.41611845923E+02  0.46791400091E+02  0.10566000000E+00 0. -1.
         23    2    1    0    0    0  0.13758736230E+02 -0.26054561330E+02 -0.30650803218E+01  0.95376737078E+02  0.90659716906E+02 0.  0.
         13    1    3    3    0    0 -0.61020250147E+01 -0.18090366447E+02 -0.44676926244E+02  0.48585336987E+02  0.10566000000E+00 0.  1.
         22    1    1    0    0    0 -0.13758736230E+02  0.26054561330E+02  0.30650803218E+01  0.29623262922E+02  0.00000000000E+00 0.  1.
</event>
<event>
 5    1  0.8943113E-005  0.9118800E+02  0.7818608E-02  0.1130116E+00
         25   -1    0    0    0    0  0.00000000000E+00  0.00000000000E+00  0.99999998245E-14  0.12500000000E+03  0.12500000000E+03 0.  0.
        -13    1    3    3    0    0  0.20506798566E+01  0.25574499544E+02  0.49495134297E+02  0.55749796394E+02  0.10566000000E+00 0.  1.
         23    2    1    0    0    0 -0.16716445862E+02  0.24680573382E+01  0.27348623257E+02  0.92852246372E+02  0.87109480500E+02 0.  0.
         13    1    3    3    0    0 -0.18767125718E+02 -0.23106442206E+02 -0.22146511040E+02  0.37102449979E+02  0.10566000000E+00 0. -1.
         22    1    1    0    0    0  0.16716445862E+02 -0.24680573382E+01 -0.27348623257E+02  0.32147753628E+02  0.00000000000E+00 0.  1.
</event>
<event>
 5    1  0.8943113E-005  0.9118800E+02  0.7818608E-02  0.1130116E+00
         25   -1    0    0    0    0  0.00000000000E+00  0.00000000000E+00  0.99999998245E-14  0.12500000000E+03  0.12500000000E+03 0.  0.
        -13    1    3    3    0    0  0.37748482432E+02 -0.23996261375E+00  0.42308616672E+02  0.56701284965E+02  0.10566000000E+00 0.  1.
         23    2    1    0    0    0  0.21831647943E+02 -0.15117859874E+02  0.37560427039E+02  0.79000475889E+02  0.64227089084E+02 0.  0.
         13    1    3    3    0    0 -0.15916834489E+02 -0.14877897260E+02 -0.47481896329E+01  0.22299190924E+02  0.10566000000E+00 0. -1.
         22    1    1    0    0    0 -0.21831647943E+02  0.15117859874E+02 -0.37560427039E+02  0.45999524111E+02  0.00000000000E+00 0.  1.
</event>
<event>
 5    1  0.8943113E-005  0.9118800E+02  0.7818608E-02  0.1130116E+00
         25   -1    0    0    0    0  0.00000000000E+00  0.00000000000E+00  0.99999998245E-14  0.12500000000E+03  0.12500000000E+03 0.  0.
        -13    1    3    3    0    0  0.16857907332E+02  0.81928518477E+01 -0.30325133469E+02  0.35650199789E+02  0.10566000000E+00 0.  1.
         23    2    1    0    0    0 -0.11599281819E+02  0.21311327565E+02  0.19065218360E+02  0.94142285042E+02  0.88941392279E+02 0.  0.
         13    1    3    3    0    0 -0.28457189151E+02  0.13118475717E+02  0.49390351829E+02  0.58492085254E+02  0.10566000000E+00 0. -1.
         22    1    1    0    0    0  0.11599281819E+02 -0.21311327565E+02 -0.19065218360E+02  0.30857714958E+02  0.00000000000E+00 0. -1.
</event>
<event>
 5    1  0.8943113E-005  0.9118800E+02  0.7818608E-02  0.1130116E+00
         25   -1    0    0    0    0  0.00000000000E+00  0.00000000000E+00  0.99999998245E-14  0.12500000000E+03  0.12500000000E+03 0.  0.
        -13    1    3    3    0    0  0.29568813835E+02 -0.26929293364E+02  0.24920542449E+02  0.47122671748E+02  0.10566000000E+00 0.  1.
         23    2    1    0    0    0  0.94801814291E+00 -0.25873125120E+02 -0.14094599324E+02  0.95521616870E+02  0.90859254991E+02 0.  0.
         13    1    3    3    0    0 -0.28620795693E+02  0.10561682440E+01 -0.39015141772E+02  0.48398945122E+02  0.10566000000E+00 0. -1.
         22    1    1    0    0    0 -0.94801814291E+00  0.25873125120E+02  0.14094599324E+02  0.29478383130E+02  0.00000000000E+00 0.  1.
</event>
<event>
 5    1  0.8943113E-005  0.9118800E+02  0.7818608E-02  0.1130116E+00
         25   -1    0    0    0    0  0.00000000000E+00  0.00000000000E+00  0.99999998245E-14  0.12500000000E+03  0.12500000000E+03 0.  0.
        -13    1    3    3    0    0 -0.97441240356E+01 -0.21832281226E+02 -0.50892536738E+02  0.56228621861E+02  0.10566000000E+00 0.  1.
         23    2    1    0    0    0 -0.15814302109E+02  0.65007350559E+01 -0.21864160360E+02  0.97244041798E+02  0.93198768498E+02 0.  0.
         13    1    3    3    0    0 -0.60701780736E+01  0.28333016281E+02  0.29028376378E+02  0.41015419937E+02  0.10566000000E+00 0. -1.
         22    1    1    0    0    0  0.15814302109E+02 -0.65007350559E+01  0.21864160360E+02  0.27755958202E+02  0.00000000000E+00 0.  1.
</event>
<event>
 5    1  0.8943113E-005  0.9118800E+02  0.7818608E-02  0.1130116E+00
         25   -1    0    0    0    0  0.00000000000E+00  0.00000000000E+00  0.99999998245E-14  0.12500000000E+03  0.12500000000E+03 0.  0.
        -13    1    3    3    0    0  0.48628280840E+02  0.59900465844E+01  0.37161021327E+02  0.61494251972E+02  0.10566000000E+00 0.  1.
         23    2    1    0    0    0  0.23178219026E+02 -0.50151130652E+01  0.18604443406E+02  0.94858558251E+02  0.89942423598E+02 0.  0.
         13    1    3    3    0    0 -0.25450061814E+02 -0.11005159650E+02 -0.18556577921E+02  0.33364306278E+02  0.10566000000E+00 0. -1.
         22    1    1    0    0    0 -0.23178219026E+02  0.50151130652E+01 -0.18604443406E+02  0.30141441749E+02  0.00000000000E+00 0.  1.
</event>
<event>
 5    1  0.8943113E-005  0.9118800E+02  0.7818608E-02  0.1130116E+00
         25   -1    0    0    0    0  0.00000000000E+00  0.00000000000E+00  0.99999998245E-14  0.12500000000E+03  0.12500000000E+03 0.  0.
        -13    1    3    3    0    0 -0.56026448117E+02 -0.10125326329E+02  0.73131259461E+01  0.57401899768E+02  0.10566000000E+00 0.  1.
         23    2    1    0    0    0 -0.18699780737E+02 -0.13420206672E+02  0.17328522698E+02  0.96189213033E+02  0.91773107489E+02 0.  0.
         13    1    3    3    0    0  0.37326667380E+02 -0.32948803436E+01  0.10015396752E+02  0.38787313265E+02  0.10566000000E+00 0. -1.
         22    1    1    0    0    0  0.18699780737E+02  0.13420206672E+02 -0.17328522698E+02  0.28810786967E+02  0.00000000000E+00 0. -1.
</event>
<event>
 5    1  0.8943113E-005  0.9118800E+02  0.7818608E-02  0.1130116E+00
         25   -1    0    0    0    0  0.00000000000E+00  0.00000000000E+00  0.99999998245E-14  0.12500000000E+03  0.12500000000E+03 0.  0.
        -13    1    3    3    0    0 -0.35099335930E+02  0.13662296309E+02 -0.17306688033E+02  0.41450625301E+02  0.10566000000E+00 0. -1.
         23    2    1    0    0    0  0.16847896881E+02  0.23090055925E+02 -0.23705830521E+01  0.96318612726E+02  0.91949188042E+02 0.  0.
         13    1    3    3    0    0  0.51947232811E+02  0.94277596164E+01  0.14936104981E+02  0.54867987425E+02  0.10566000000E+00 0.  1.
         22    1    1    0    0    0 -0.16847896881E+02 -0.23090055925E+02  0.23705830521E+01  0.28681387274E+02  0.00000000000E+00 0.  1.
</event>
<event>
 5    1  0.8943113E-005  0.9118800E+02  0.7818608E-02  0.1130116E+00
         25   -1    0    0    0    0  0.00000000000E+00  0.00000000000E+00  0.99999998245E-14  0.12500000000E+03  0.12500000000E+03 0.  0.
        -13    1    3    3    0    0 -0.34793617950E+02  0.10984111335E+02  0.30814999507E+02  0.47757951280E+02  0.10566000000E+00 0.  1.
         23    2    1    0    0    0 -0.12156268053E+02 -0.25289162377E+02  0.12917950697E+02  0.94110033394E+02  0.88896053616E+02 0.  0.
         13    1    3    3    0    0  0.22637349897E+02 -0.36273273712E+02 -0.17897048810E+02  0.46352082114E+02  0.10566000000E+00 0. -1.
         22    1    1    0    0    0  0.12156268053E+02  0.25289162377E+02 -0.12917950697E+02  0.30889966606E+02  0.00000000000E+00 0.  1.
</event>
<event>
 5    1  0.8943113E-005  0.9118800E+02  0.7818608E-02  0.1130116E+00
         25   -1    0    0    0    0  0.00000000000E+00  0.00000000000E+00  0.99999998245E-14  0.12500000000E+03  0.12500000000E+03 0.  0.
        -13    1    3    3    0    0  0.54279020464E+01 -0.40149390187E+02 -0.43830895216E+02  0.59687470984E+02  0.10566000000E+00 0.  1.
         23    2    1    0    0    0 -0.62694672145E+01 -0.25960709822E+02 -0.13706335399E+02  0.94981200828E+02  0.90112708355E+02 0.  0.
         13    1    3    3    0    0 -0.11697369261E+02  0.14188680365E+02  0.30124559817E+02  0.35293729844E+02  0.10566000000E+00 0. -1.
         22    1    1    0    0    0  0.62694672145E+01  0.25960709822E+02  0.13706335399E+02  0.30018799172E+02  0.00000000000E+00 0.  1.
</event>
<event>
 5    1  0.8943113E-005  0.9118800E+02  0.7818608E-02  0.1130116E+00
         25   -1    0    0    0    0  0.00000000000E+00  0.00000000000E+00  0.99999998245E-14  0.12500000000E+03  0.12500000000E+03 0.  0.
        -13    1    3    3    0    0 -0.25770732804E+01 -0.26475387661E+02  0.34499451764E+02  0.43563870289E+02  0.10566000000E+00 0. -1.
         23    2    1    0    0    0  0.22653212192E+02 -0.24604511093E+02 -0.57108386141E+01  0.91071197097E+02  0.84515083117E+02 0.  0.
         13    1    3    3    0    0  0.25230285472E+02  0.18708765675E+01 -0.40210290378E+02  0.47507326808E+02  0.10566000000E+00 0.  1.
         22    1    1    0    0    0 -0.22653212192E+02  0.24604511093E+02  0.57108386141E+01  0.33928802903E+02  0.00000000000E+00 0. -1.
</event>
<event>
 5    1  0.8943113E-005  0.9118800E+02  0.7818608E-02  0.1130116E+00
         25   -1    0    0    0    0  0.00000000000E+00  0.00000000000E+00  0.99999998245E-14  0.12500000000E+03  0.12500000000E+03 0.  0.
        -13    1    3    3    0    0 -0.11721048249E+02  0.49313149620E+02 -0.17459769373E+02  0.53609928261E+02  0.10566000000E+00 0.  1.
         23    2    1    0    0    0 -0.18404963947E+02  0.20344680931E+02  0.11628332403E+02  0.95202905267E+02  0.90419723052E+02 0.  0.
         13    1    3    3    0    0 -0.66839156976E+01 -0.28968468690E+02  0.29088101776E+02  0.41592977006E+02  0.10566000000E+00 0. -1.
         22    1    1    0    0    0  0.18404963947E+02 -0.20344680931E+02 -0.11628332403E+02  0.29797094733E+02  0.00000000000E+00 0.  1.
</event>
<event>
 5    1  0.8943113E-005  0.9118800E+02  0.7818608E-02  0.1130116E+00
         25   -1    0    0    0    0  0.00000000000E+00  0.00000000000E+00  0.99999998245E-14  0.12500000000E+03  0.12500000000E+03 0.  0.
        -13    1    3    3    0    0 -0.56764674370E+02  0.44603394843E+01 -0.11645037331E+02  0.58118335687E+02  0.10566000000E+00 0.  1.
         23    2    1    0    0    0 -0.27184066820E+02 -0.26795863628E+01  0.10481131609E+02  0.95742389165E+02  0.91162477431E+02 0.  0.
         13    1    3    3    0    0  0.29580607550E+02 -0.71399258471E+01  0.22126168940E+02  0.37624053478E+02  0.10566000000E+00 0. -1.
         22    1    1    0    0    0  0.27184066820E+02  0.26795863628E+01 -0.10481131609E+02  0.29257610835E+02  0.00000000000E+00 0.  1.
</event>
<event>
 5    1  0.8943113E-005  0.9118800E+02  0.7818608E-02  0.1130116E+00
         25   -1    0    0    0    0  0.00000000000E+00  0.00000000000E+00  0.99999998245E-14  0.12500000000E+03  0.12500000000E+03 0.  0.
        -13    1    3    3    0    0  0.71666542403E+01 -0.34332009869E+02 -0.28505030907E+02  0.45195085858E+02  0.10566000000E+00 0.  1.
         23    2    1    0    0    0  0.23887268146E+02  0.10686757988E+02 -0.13774855111E+02  0.95427123760E+02  0.90729162566E+02 0.  0.
         13    1    3    3    0    0  0.16720613906E+02  0.45018767857E+02  0.14730175797E+02  0.50232037902E+02  0.10566000000E+00 0. -1.
         22    1    1    0    0    0 -0.23887268146E+02 -0.10686757988E+02  0.13774855111E+02  0.29572876240E+02  0.00000000000E+00 0.  1.
</event>
<event>
 5    1  0.8943113E-005  0.9118800E+02  0.7818608E-02  0.1130116E+00
         25   -1    0    0    0    0  0.00000000000E+00  0.00000000000E+00  0.99999998245E-14  0.12500000000E+03  0.12500000000E+03 0.  0.
        -13    1    3    3    0    0 -0.28529459037E+02  0.12736711473E+02  0.12234633680E+02  0.33553707357E+02  0.10566000000E+00 0. -1.
         23    2    1    0    0    0  0.29847181167E+02  0.32230612228E+00 -0.25576739813E+01  0.95041698963E+02  0.90196589408E+02 0.  0.
         13    1    3    3    0    0  0.58376640204E+02 -0.12414405351E+02 -0.14792307662E+02  0.61487991606E+02  0.10566000000E+00 0.  1.
         22    1    1    0    0    0 -0.29847181167E+02 -0.32230612228E+00  0.25576739813E+01  0.29958301037E+02  0.00000000000E+00 0.  1.
</event>
<event>
 5    1  0.8943113E-005  0.9118800E+02  0.7818608E-02  0.1130116E+00
         25   -1    0    0    0    0  0.00000000000E+00  0.00000000000E+00  0.99999998245E-14  0.12500000000E+03  0.12500000000E+03 0.  0.
        -13    1    3    3    0    0 -0.12368991720E+02  0.66189411272E+01  0.33532684567E+02  0.36349063759E+02  0.10566000000E+00 0. -1.
         23    2    1    0    0    0 -0.14133955143E+02 -0.56942324410E+01 -0.24745002907E+02  0.95939577774E+02  0.91432458370E+02 0.  0.
         13    1    3    3    0    0 -0.17649634228E+01 -0.12313173568E+02 -0.58277687474E+02  0.59590514015E+02  0.10566000000E+00 0.  1.
         22    1    1    0    0    0  0.14133955143E+02  0.56942324410E+01  0.24745002907E+02  0.29060422226E+02  0.00000000000E+00 0.  1.
</event>
<event>
 5    1  0.8943113E-005  0.9118800E+02  0.7818608E-02  0.1130116E+00
         25   -1    0    0    0    0  0.00000000000E+00  0.00000000000E+00  0.99999998245E-14  0.12500000000E+03  0.12500000000E+03 0.  0.
        -13    1    3    3    0    0 -0.19789444675E+02 -0.13396434034E+02 -0.37613977419E+02  0.44563539207E+02  0.10566000000E+00 0. -1.
         23    2    1    0    0    0 -0.28091541786E+02 -0.92247600124E+01  0.10543295117E+02  0.93609046062E+02  0.88188783389E+02 0.  0.
         13    1    3    3    0    0 -0.83020971115E+01  0.41716740217E+01  0.48157272536E+02  0.49045506855E+02  0.10566000000E+00 0.  1.
         22    1    1    0    0    0  0.28091541786E+02  0.92247600124E+01 -0.10543295117E+02  0.31390953938E+02  0.00000000000E+00 0.  1.
</event>
<event>
 5    1  0.8943113E-005  0.9118800E+02  0.7818608E-02  0.1130116E+00
         25   -1    0    0    0    0  0.00000000000E+00  0.00000000000E+00  0.99999998245E-14  0.12500000000E+03  0.12500000000E+03 0.  0.
        -13    1    3    3    0    0  0.42744044250E+01  0.31348163241E+02  0.18672219497E+02  0.36737457952E+02  0.10566000000E+00 0.  1.
         23    2    1    0    0    0  0.98759726263E+01 -0.18801476021E+02 -0.16380700383E+02  0.98179155850E+02  0.94444634376E+02 0.  0.
         13    1    3    3    0    0  0.56015682012E+01 -0.50149639262E+02 -0.35052919880E+02  0.61441697898E+02  0.10566000000E+00 0. -1.
         22    1    1    0    0    0 -0.98759726263E+01  0.18801476021E+02  0.16380700383E+02  0.26820844150E+02  0.00000000000E+00 0. -1.
</event>
<event>
 5    1  0.8943113E-005  0.9118800E+02  0.7818608E-02  0.1130116E+00
         25   -1    0    0    0    0  0.00000000000E+00  0.00000000000E+00  0.99999998245E-14  0.12500000000E+03  0.12500000000E+03 0.  0.
        -13    1    3    3    0    0  0.13309288126E+02  0.40121494655E+02  0.38432415352E+01  0.42445884999E+02  0.10566000000E+00 0.  1.
         23    2    1    0    0    0  0.35803550138E+02 -0.61159171217E+00 -0.57376567884E+00  0.89186630235E+02  0.81680215222E+02 0.  0.
         13    1    3    3    0    0  0.22494262012E+02 -0.40733086367E+02 -0.44170072140E+01  0.46740745236E+02  0.10566000000E+00 0. -1.
         22    1    1    0    0    0 -0.35803550138E+02  0.61159171217E+00  0.57376567884E+00  0.35813369765E+02  0.00000000000E+00 0. -1.
</event>
<event>
 5    1  0.8943113E-005  0.9118800E+02  0.7818608E-02  0.1130116E+00
         25   -1    0    0    0    0  0.00000000000E+00  0.00000000000E+00  0.99999998245E-14  0.12500000000E+03  0.12500000000E+03 0.  0.
        -13    1    3    3    0    0  0.13287397510E+02  0.47149124429E+02 -0.18367017327E+01  0.49020194862E+02  0.10566000000E+00 0. -1.
         23    2    1    0    0    0 -0.62363054850E+01  0.10516129019E+02 -0.25441527132E+02  0.96773208145E+02  0.92565123217E+02 0.  0.
         13    1    3    3    0    0 -0.19523702995E+02 -0.36632995410E+02 -0.23604825399E+02  0.47753013282E+02  0.10566000000E+00 0.  1.
         22    1    1    0    0    0  0.62363054850E+01 -0.10516129019E+02  0.25441527132E+02  0.28226791855E+02  0.00000000000E+00 0. -1.
</event>
<event>
 5    1  0.8943113E-005  0.9118800E+02  0.7818608E-02  0.1130116E+00
         25   -1    0    0    0    0  0.00000000000E+00  0.00000000000E+00  0.99999998245E-14  0.12500000000E+03  0.12500000000E+03 0.  0.
        -13    1    3    3    0    0 -0.29750811524E+02 -0.86707770404E+01 -0.39275854118E+02  0.50028962028E+02  0.10566000000E+00 0. -1.
         23    2    1    0    0    0 -0.49057643083E+01 -0.28582029225E+02 -0.74253815312E+01  0.95064482484E+02  0.90228158692E+02 0.  0.
         13    1    3    3    0    0  0.24845047216E+02 -0.19911252185E+02  0.31850472587E+02  0.45035520456E+02  0.10566000000E+00 0.  1.
         22    1    1    0    0    0  0.49057643083E+01  0.28582029225E+02  0.74253815312E+01  0.29935517516E+02  0.00000000000E+00 0. -1.
</event>
<event>
 5    1  0.8943113E-005  0.9118800E+02  0.7818608E-02  0.1130116E+00
         25   -1    0    0    0    0  0.00000000000E+00  0.00000000000E+00  0.99999998245E-14  0.12500000000E+03  0.12500000000E+03 0.  0.
        -13    1    3    3    0    0 -0.36510524164E+02  0.18677735447E+02 -0.11948711630E+02  0.42716028020E+02  0.10566000000E+00 0. -1.
         23    2    1    0    0    0 -0.65728433111E+01 -0.24075416376E+02  0.83003616616E+01  0.98699354635E+02  0.95130639958E+02 0.  0.
         13    1    3    3    0    0  0.29937680853E+02 -0.42753151824E+02  0.20249073292E+02  0.55983326615E+02  0.10566000000E+00 0.  1.
         22    1    1    0    0    0  0.65728433111E+01  0.24075416376E+02 -0.83003616616E+01  0.26300645365E+02  0.00000000000E+00 0.  1.
</event>
<event>
 5    1  0.8943113E-005  0.9118800E+02  0.7818608E-02  0.1130116E+00
         25   -1    0    0    0    0  0.00000000000E+00  0.00000000000E+00  0.99999998245E-14  0.12500000000E+03  0.12500000000E+03 0.  0.
        -13    1    3    3    0    0 -0.23251005216E+00  0.28065146769E+02  0.21054749428E+02  0.35085896905E+02  0.10566000000E+00 0. -1.
         23    2    1    0    0    0  0.33156655020E+02 -0.11820931083E+01 -0.11230668371E+02  0.89973024277E+02  0.82874942348E+02 0.  0.
         13    1    3    3    0    0  0.33389165072E+02 -0.29247239877E+02 -0.32285417799E+02  0.54887127372E+02  0.10566000000E+00 0.  1.
         22    1    1    0    0    0 -0.33156655020E+02  0.11820931083E+01  0.11230668371E+02  0.35026975723E+02  0.00000000000E+00 0. -1.
</event>
<event>
 5    1  0.8943113E-005  0.9118800E+02  0.7818608E-02  0.1130116E+00
         25   -1    0    0    0    0  0.00000000000E+00  0.00000000000E+00  0.99999998245E-14  0.12500000000E+03  0.12500000000E+03 0.  0.
        -13    1    3    3    0    0  0.21776119953E+02 -0.29863367008E+01  0.28721656833E+02  0.36167144515E+02  0.10566000000E+00 0. -1.
         23    2    1    0    0    0 -0.22646970945E+02  0.91936452684E+01 -0.12110490347E+02  0.97722309798E+02  0.93838038394E+02 0.  0.
         13    1    3    3    0    0 -0.44423090898E+02  0.12179981969E+02 -0.40832147180E+02  0.61555165283E+02  0.10566000000E+00 0.  1.
         22    1    1    0    0    0  0.22646970945E+02 -0.91936452684E+01  0.12110490347E+02  0.27277690202E+02  0.00000000000E+00 0.  1.
</event>
<event>
 5    1  0.8943113E-005  0.9118800E+02  0.7818608E-02  0.1130116E+00
         25   -1    0    0    0    0  0.00000000000E+00  0.00000000000E+00  0.99999998245E-14  0.12500000000E+03  0.12500000000E+03 0.  0.
        -13    1    3    3    0    0 -0.10069863384E+01 -0.26380429702E+02  0.47728078295E+02  0.54542842927E+02  0.10566000000E+00 0. -1.
         23    2    1    0    0    0 -0.22041800976E+02 -0.69569674838E+01  0.19332694100E+02  0.94867070371E+02  0.89954252778E+02 0.  0.
         13    1    3    3    0    0 -0.21034814638E+02  0.19423462218E+02 -0.28395384195E+02  0.40324227445E+02  0.10566000000E+00 0.  1.
         22    1    1    0    0    0  0.22041800976E+02  0.69569674838E+01 -0.19332694100E+02  0.30132929629E+02  0.00000000000E+00 0. -1.
</event>
<event>
 5    1  0.8943113E-005  0.9118800E+02  0.7818608E-02  0.1130116E+00
         25   -1    0    0    0    0  0.00000000000E+00  0.00000000000E+00  0.99999998245E-14  0.12500000000E+03  0.12500000000E+03 0.  0.
        -13    1    3    3    0    0  0.19709372236E+02  0.53344195920E+02 -0.32023458760E+01  0.56959009607E+02  0.10566000000E+00 0.  1.
         23    2    1    0    0    0 -0.42136064785E+01  0.25169474947E+02 -0.14551049105E+02  0.95623308921E+02  0.90999050711E+02 0.  0.
         13    1    3    3    0    0 -0.23922978715E+02 -0.28174720972E+02 -0.11348703229E+02  0.38664299314E+02  0.10566000000E+00 0. -1.
         22    1    1    0    0    0  0.42136064785E+01 -0.25169474947E+02  0.14551049105E+02  0.29376691079E+02  0.00000000000E+00 0.  1.
</event>
<event>
 5    1  0.8943113E-005  0.9118800E+02  0.7818608E-02  0.1130116E+00
         25   -1    0    0    0    0  0.00000000000E+00  0.00000000000E+00  0.99999998245E-14  0.12500000000E+03  0.12500000000E+03 0.  0.
        -13    1    3    3    0    0  0.15117009315E+02  0.57111412356E+02 -0.85681917792E+01  0.59696419208E+02  0.10566000000E+00 0.  1.
         23    2    1    0    0    0  0.13793892567E+02  0.19839192045E+02 -0.13506923595E+02  0.97317839713E+02  0.93297695193E+02 0.  0.
         13    1    3    3    0    0 -0.13231167483E+01 -0.37272220311E+02 -0.49387318163E+01  0.37621420505E+02  0.10566000000E+00 0. -1.
         22    1    1    0    0    0 -0.13793892567E+02 -0.19839192045E+02  0.13506923595E+02  0.27682160287E+02  0.00000000000E+00 0.  1.
</event>
<event>
 5    1  0.8943113E-005  0.9118800E+02  0.7818608E-02  0.1130116E+00
         25   -1    0    0    0    0  0.00000000000E+00  0.00000000000E+00  0.99999998245E-14  0.12500000000E+03  0.12500000000E+03 0.  0.
        -13    1    3    3    0    0 -0.16057182476E+01  0.41221818812E+02 -0.43838727522E+02  0.60196859321E+02  0.10566000000E+00 0.  1.
         23    2    1    0    0    0 -0.12484195380E+02  0.16854239277E+02 -0.20968605024E+02  0.95341899714E+02  0.90611671040E+02 0.  0.
         13    1    3    3    0    0 -0.10878477133E+02 -0.24367579535E+02  0.22870122498E+02  0.35145040394E+02  0.10566000000E+00 0. -1.
         22    1    1    0    0    0  0.12484195380E+02 -0.16854239277E+02  0.20968605024E+02  0.29658100286E+02  0.00000000000E+00 0.  1.
</event>
<event>
 5    1  0.8943113E-005  0.9118800E+02  0.7818608E-02  0.1130116E+00
         25   -1    0    0    0    0  0.00000000000E+00  0.00000000000E+00  0.99999998245E-14  0.12500000000E+03  0.12500000000E+03 0.  0.
        -13    1    3    3    0    0 -0.29151508679E+02  0.55258441183E+00  0.22982892202E+02  0.37126005789E+02  0.10566000000E+00 0.  1.
         23    2    1    0    0    0  0.25867693347E+02 -0.69859600815E+01 -0.22260774714E+01  0.98113263153E+02  0.94357383327E+02 0.  0.
         13    1    3    3    0    0  0.55019202027E+02 -0.75385444934E+01 -0.25208969674E+02  0.60987257364E+02  0.10566000000E+00 0. -1.
         22    1    1    0    0    0 -0.25867693347E+02  0.69859600815E+01  0.22260774714E+01  0.26886736847E+02  0.00000000000E+00 0. -1.
</event>
<event>
 5    1  0.8943113E-005  0.9118800E+02  0.7818608E-02  0.1130116E+00
         25   -1    0    0    0    0  0.00000000000E+00  0.00000000000E+00  0.99999998245E-14  0.12500000000E+03  0.12500000000E+03 0.  0.
        -13    1    3    3    0    0  0.13175824613E+02 -0.38770128042E+02 -0.11966383306E+02  0.42660645519E+02  0.10566000000E+00 0.  1.
         23    2    1    0    0    0  0.17154080524E+02  0.13926756851E+02 -0.18852865456E+02  0.95954388096E+02  0.91452703754E+02 0.  0.
         13    1    3    3    0    0  0.39782559108E+01  0.52696884892E+02 -0.68864821492E+01  0.53293742577E+02  0.10566000000E+00 0. -1.
         22    1    1    0    0    0 -0.17154080524E+02 -0.13926756851E+02  0.18852865456E+02  0.29045611904E+02  0.00000000000E+00 0. -1.
</event>
<event>
 5    1  0.8943113E-005  0.9118800E+02  0.7818608E-02  0.1130116E+00
         25   -1    0    0    0    0  0.00000000000E+00  0.00000000000E+00  0.99999998245E-14  0.12500000000E+03  0.12500000000E+03 0.  0.
        -13    1    3    3    0    0  0.35982107266E+02 -0.40653769542E+02 -0.30144111564E+02  0.62097662173E+02  0.10566000000E+00 0.  1.
         23    2    1    0    0    0  0.15745774660E+02 -0.21781229169E+02 -0.10004994224E+02  0.96321588726E+02  0.91953233666E+02 0.  0.
         13    1    3    3    0    0 -0.20236332606E+02  0.18872540373E+02  0.20139117340E+02  0.34223926554E+02  0.10566000000E+00 0. -1.
         22    1    1    0    0    0 -0.15745774660E+02  0.21781229169E+02  0.10004994224E+02  0.28678411274E+02  0.00000000000E+00 0.  1.
</event>
<event>
 5    1  0.8943113E-005  0.9118800E+02  0.7818608E-02  0.1130116E+00
         25   -1    0    0    0    0  0.00000000000E+00  0.00000000000E+00  0.99999998245E-14  0.12500000000E+03  0.12500000000E+03 0.  0.
        -13    1    3    3    0    0  0.29683352061E+02  0.22877113520E+02 -0.28819151405E+02  0.47275980839E+02  0.10566000000E+00 0.  1.
         23    2    1    0    0    0  0.75842409919E+01 -0.18195986671E+02 -0.23663485398E+02  0.94201052233E+02  0.89023946544E+02 0.  0.
         13    1    3    3    0    0 -0.22099111070E+02 -0.41073100190E+02  0.51556660065E+01  0.46925071394E+02  0.10566000000E+00 0. -1.
         22    1    1    0    0    0 -0.75842409919E+01  0.18195986671E+02  0.23663485398E+02  0.30798947767E+02  0.00000000000E+00 0. -1.
</event>
<event>
 5    1  0.8943113E-005  0.9118800E+02  0.7818608E-02  0.1130116E+00
         25   -1    0    0    0    0  0.00000000000E+00  0.00000000000E+00  0.99999998245E-14  0.12500000000E+03  0.12500000000E+03 0.  0.
        -13    1    3    3    0    0  0.46272362781E+01  0.23835073571E+02 -0.29462385850E+02  0.38178074751E+02  0.10566000000E+00 0. -1.
         23    2    1    0    0    0  0.49294325998E+01 -0.28622907042E+02 -0.78588106572E+01  0.94911280881E+02  0.90015666527E+02 0.  0.
         13    1    3    3    0    0  0.30219632167E+00 -0.52457980613E+02  0.21603575193E+02  0.56733206130E+02  0.10566000000E+00 0.  1.
         22    1    1    0    0    0 -0.49294325998E+01  0.28622907042E+02  0.78588106572E+01  0.30088719119E+02  0.00000000000E+00 0.  1.
</event>
<event>
 5    1  0.8943113E-005  0.9118800E+02  0.7818608E-02  0.1130116E+00
         25   -1    0    0    0    0  0.00000000000E+00  0.00000000000E+00  0.99999998245E-14  0.12500000000E+03  0.12500000000E+03 0.  0.
        -13    1    3    3    0    0 -0.20951969318E+02  0.26928868650E+02 -0.53154812428E+01  0.34531355171E+02  0.10566000000E+00 0. -1.
         23    2    1    0    0    0  0.12956321344E+02 -0.24469672087E+02 -0.80421153874E+01  0.96167609625E+02  0.91743677746E+02 0.  0.
         13    1    3    3    0    0  0.33908290662E+02 -0.51398540737E+02 -0.27266341446E+01  0.61636254455E+02  0.10566000000E+00 0.  1.
         22    1    1    0    0    0 -0.12956321344E+02  0.24469672087E+02  0.80421153874E+01  0.28832390375E+02  0.00000000000E+00 0.  1.
</event>
<event>
 5    1  0.8943113E-005  0.9118800E+02  0.7818608E-02  0.1130116E+00
         25   -1    0    0    0    0  0.00000000000E+00  0.00000000000E+00  0.99999998245E-14  0.12500000000E+03  0.12500000000E+03 0.  0.
        -13    1    3    3    0    0 -0.14861091029E+02 -0.37471638314E+02  0.13706245877E+02  0.42577553295E+02  0.10566000000E+00 0.  1.
         23    2    1    0    0    0 -0.19856128581E+02  0.41356845237E+01 -0.20118988055E+02  0.96431776235E+02  0.92102899296E+02 0.  0.
         13    1    3    3    0    0 -0.49950375525E+01  0.41607322838E+02 -0.33825233932E+02  0.53854222940E+02  0.10566000000E+00 0. -1.
         22    1    1    0    0    0  0.19856128581E+02 -0.41356845237E+01  0.20118988055E+02  0.28568223765E+02  0.00000000000E+00 0. -1.
</event>
<event>
 5    1  0.8943113E-005  0.9118800E+02  0.7818608E-02  0.1130116E+00
         25   -1    0    0    0    0  0.00000000000E+00  0.00000000000E+00  0.99999998245E-14  0.12500000000E+03  0.12500000000E+03 0.  0.
        -13    1    3    3    0    0  0.58544245817E+02 -0.46159382434E+01  0.59787537895E+01  0.59029588048E+02  0.10566000000E+00 0.  1.
         23    2    1    0    0    0  0.27162315776E+02 -0.14211413883E+02 -0.56167330154E+01  0.93834259633E+02  0.88507428549E+02 0.  0.
         13    1    3    3    0    0 -0.31381930042E+02 -0.95954756393E+01 -0.11595486805E+02  0.34804671585E+02  0.10566000000E+00 0. -1.
         22    1    1    0    0    0 -0.27162315776E+02  0.14211413883E+02  0.56167330154E+01  0.31165740367E+02  0.00000000000E+00 0.  1.
</event>
<event>
 5    1  0.8943113E-005  0.9118800E+02  0.7818608E-02  0.1130116E+00
         25   -1    0    0    0    0  0.00000000000E+00  0.00000000000E+00  0.99999998245E-14  0.12500000000E+03  0.12500000000E+03 0.  0.
        -13    1    3    3    0    0 -0.25311227610E+02 -0.23239203891E+02 -0.19703314900E+01  0.34418195927E+02  0.10566000000E+00 0.  1.
         23    2    1    0    0    0  0.17775880746E+02  0.21155364896E+02 -0.70209828044E+01  0.96489903548E+02  0.92181754632E+02 0.  0.
         13    1    3    3    0    0  0.43087108356E+02  0.44394568787E+02 -0.50506513144E+01  0.62071707621E+02  0.10566000000E+00 0. -1.
         22    1    1    0    0    0 -0.17775880746E+02 -0.21155364896E+02  0.70209828044E+01  0.28510096452E+02  0.00000000000E+00 0. -1.
</event>
<event>
 5    1  0.8943113E-005  0.9118800E+02  0.7818608E-02  0.1130116E+00
         25   -1    0    0    0    0  0.00000000000E+00  0.00000000000E+00  0.99999998245E-14  0.12500000000E+03  0.12500000000E+03 0.  0.
        -13    1    3    3    0    0  0.34191848281E+02 -0.19248818342E+02 -0.20686357110E+02  0.44356916382E+02  0.10566000000E+00 0.  1.
         23    2    1    0    0    0  0.19043726292E+02  0.23476885211E+02  0.13070857488E+01  0.94742172526E+02  0.89780527574E+02 0.  0.
         13    1    3    3    0    0 -0.15148121988E+02  0.42725703553E+02  0.21993442858E+02  0.50385256144E+02  0.10566000000E+00 0. -1.
         22    1    1    0    0    0 -0.19043726292E+02 -0.23476885211E+02 -0.13070857488E+01  0.30257827474E+02  0.00000000000E+00 0.  1.
</event>
<event>
 5    1  0.8943113E-005  0.9118800E+02  0.7818608E-02  0.1130116E+00
         25   -1    0    0    0    0  0.00000000000E+00  0.00000000000E+00  0.99999998245E-14  0.12500000000E+03  0.12500000000E+03 0.  0.
        -13    1    3    3    0    0  0.17198842728E+02 -0.10677739045E+02  0.58083335823E+02  0.61510156614E+02  0.10566000000E+00 0.  1.
         23    2    1    0    0    0  0.10834460121E+02 -0.11880516992E+02  0.24620779600E+02  0.95593963235E+02  0.90958731350E+02 0.  0.
         13    1    3    3    0    0 -0.63643826074E+01 -0.12027779467E+01 -0.33462556223E+02  0.34083806621E+02  0.10566000000E+00 0. -1.
         22    1    1    0    0    0 -0.10834460121E+02  0.11880516992E+02 -0.24620779600E+02  0.29406036765E+02  0.00000000000E+00 0.  1.
</event>
<event>
 5    1  0.8943113E-005  0.9118800E+02  0.7818608E-02  0.1130116E+00
         25   -1    0    0    0    0  0.00000000000E+00  0.00000000000E+00  0.99999998245E-14  0.12500000000E+03  0.12500000000E+03 0.  0.
        -13    1    3    3    0    0 -0.66026131596E+00 -0.29674185304E+02  0.25725271562E+02  0.39278416203E+02  0.10566000000E+00 0.  1.
         23    2    1    0    0    0 -0.26248660894E+02  0.21954475024E+01 -0.13039165850E+02  0.95608980376E+02  0.90979366309E+02 0.  0.
         13    1    3    3    0    0 -0.25588399578E+02  0.31869632806E+02 -0.38764437412E+02  0.56330564173E+02  0.10566000000E+00 0. -1.
         22    1    1    0    0    0  0.26248660894E+02 -0.21954475024E+01  0.13039165850E+02  0.29391019624E+02  0.00000000000E+00 0.  1.
</event>
<event>
 5    1  0.8943113E-005  0.9118800E+02  0.7818608E-02  0.1130116E+00
         25   -1    0    0    0    0  0.00000000000E+00  0.00000000000E+00  0.99999998245E-14  0.12500000000E+03  0.12500000000E+03 0.  0.
        -13    1    3    3    0    0  0.21616261365E+02 -0.12940431430E+02 -0.35090555470E+02  0.43198099128E+02  0.10566000000E+00 0.  1.
         23    2    1    0    0    0  0.25147421996E+02 -0.24358402315E+02  0.89764783250E+01  0.88857203214E+02  0.81174508336E+02 0.  0.
         13    1    3    3    0    0  0.35311606302E+01 -0.11417970885E+02  0.44067033795E+02  0.45659104087E+02  0.10566000000E+00 0. -1.
         22    1    1    0    0    0 -0.25147421996E+02  0.24358402315E+02 -0.89764783250E+01  0.36142796786E+02  0.00000000000E+00 0.  1.
</event>
<event>
 5    1  0.8943113E-005  0.9118800E+02  0.7818608E-02  0.1130116E+00
         25   -1    0    0    0    0  0.00000000000E+00  0.00000000000E+00  0.99999998245E-14  0.12500000000E+03  0.12500000000E+03 0.  0.
        -13    1    3    3    0    0  0.53362323296E+02  0.29648548040E+01  0.47967874861E+01  0.53659558755E+02  0.10566000000E+00 0.  1.
         23    2    1    0    0    0  0.14815711985E+02  0.69141081761E+01  0.23249327537E+02  0.96577448313E+02  0.92300390455E+02 0.  0.
         13    1    3    3    0    0 -0.38546611311E+02  0.39492533721E+01  0.18452540051E+02  0.42917889558E+02  0.10566000000E+00 0. -1.
         22    1    1    0    0    0 -0.14815711985E+02 -0.69141081761E+01 -0.23249327537E+02  0.28422551687E+02  0.00000000000E+00 0.  1.
</event>
<event>
 5    1  0.8943113E-005  0.9118800E+02  0.7818608E-02  0.1130116E+00
         25   -1    0    0    0    0  0.00000000000E+00  0.00000000000E+00  0.99999998245E-14  0.12500000000E+03  0.12500000000E+03 0.  0.
        -13    1    3    3    0    0  0.15704004594E+02  0.56810893058E+02 -0.10301581351E+02  0.59834998728E+02  0.10566000000E+00 0. -1.
         23    2    1    0    0    0 -0.38903682060E+01  0.32308406488E+02 -0.90030502240E+01  0.91235773251E+02  0.84758145997E+02 0.  0.
         13    1    3    3    0    0 -0.19594372800E+02 -0.24502486570E+02  0.12985311274E+01  0.31400774523E+02  0.10566000000E+00 0.  1.
         22    1    1    0    0    0  0.38903682060E+01 -0.32308406488E+02  0.90030502240E+01  0.33764226749E+02  0.00000000000E+00 0. -1.
</event>
<event>
 5    1  0.8943113E-005  0.9118800E+02  0.7818608E-02  0.1130116E+00
         25   -1    0    0    0    0  0.00000000000E+00  0.00000000000E+00  0.99999998245E-14  0.12500000000E+03  0.12500000000E+03 0.  0.
        -13    1    3    3    0    0 -0.28878166644E+02  0.18664426934E+02 -0.35959451288E+02  0.49753418400E+02  0.10566000000E+00 0. -1.
         23    2    1    0    0    0 -0.19533328383E+02 -0.18225771895E+02 -0.75674944431E+01  0.97233173551E+02  0.93184190654E+02 0.  0.
         13    1    3    3    0    0  0.93448382606E+01 -0.36890198828E+02  0.28391956845E+02  0.47479755151E+02  0.10566000000E+00 0.  1.
         22    1    1    0    0    0  0.19533328383E+02  0.18225771895E+02  0.75674944431E+01  0.27766826449E+02  0.00000000000E+00 0. -1.
</event>
<event>
 5    1  0.8943113E-005  0.9118800E+02  0.7818608E-02  0.1130116E+00
         25   -1    0    0    0    0  0.00000000000E+00  0.00000000000E+00  0.99999998245E-14  0.12500000000E+03  0.12500000000E+03 0.  0.
        -13    1    3    3    0    0 -0.15573562512E+02  0.34663353871E+02  0.40222754073E+02  0.55335025618E+02  0.10566000000E+00 0. -1.
         23    2    1    0    0    0 -0.31927565194E+01 -0.70745601666E+00  0.30866799748E+02  0.93960452405E+02  0.88685472887E+02 0.  0.
         13    1    3    3    0    0  0.12380805992E+02 -0.35370809888E+02 -0.93559543247E+01  0.38625426787E+02  0.10566000000E+00 0.  1.
         22    1    1    0    0    0  0.31927565194E+01  0.70745601666E+00 -0.30866799748E+02  0.31039547595E+02  0.00000000000E+00 0. -1.
</event>
<event>
 5    1  0.8943113E-005  0.9118800E+02  0.7818608E-02  0.1130116E+00
         25   -1    0    0    0    0  0.00000000000E+00  0.00000000000E+00  0.99999998245E-14  0.12500000000E+03  0.12500000000E+03 0.  0.
        -13    1    3    3    0    0 -0.68384243129E+01 -0.17220163072E+02 -0.14899975786E+02  0.23776427523E+02  0.10566000000E+00 0.  1.
         23    2    1    0    0    0  0.20502149314E+02  0.24446860318E+02  0.22391961210E+02  0.86020684553E+02  0.76682273951E+02 0.  0.
         13    1    3    3    0    0  0.27340573626E+02  0.41667023390E+02  0.37291936995E+02  0.62244257030E+02  0.10566000000E+00 0. -1.
         22    1    1    0    0    0 -0.20502149314E+02 -0.24446860318E+02 -0.22391961210E+02  0.38979315447E+02  0.00000000000E+00 0. -1.
</event>
<event>
 5    1  0.8943113E-005  0.9118800E+02  0.7818608E-02  0.1130116E+00
         25   -1    0    0    0    0  0.00000000000E+00  0.00000000000E+00  0.99999998245E-14  0.12500000000E+03  0.12500000000E+03 0.  0.
        -13    1    3    3    0    0 -0.20194220048E+02  0.20050071244E+02 -0.45404041606E+02  0.53584979597E+02  0.10566000000E+00 0. -1.
         23    2    1    0    0    0 -0.10000194528E+02  0.29084556407E+02 -0.82505705479E+01  0.93156833914E+02  0.87545465209E+02 0.  0.
         13    1    3    3    0    0  0.10194025520E+02  0.90344851631E+01  0.37153471058E+02  0.39571854318E+02  0.10566000000E+00 0.  1.
         22    1    1    0    0    0  0.10000194528E+02 -0.29084556407E+02  0.82505705479E+01  0.31843166086E+02  0.00000000000E+00 0. -1.
</event>
<event>
 5    1  0.8943113E-005  0.9118800E+02  0.7818608E-02  0.1130116E+00
         25   -1    0    0    0    0  0.00000000000E+00  0.00000000000E+00  0.99999998245E-14  0.12500000000E+03  0.12500000000E+03 0.  0.
        -13    1    3    3    0    0  0.20943783509E+02 -0.45821858186E+02  0.88418187967E+01  0.51151477779E+02  0.10566000000E+00 0.  1.
         23    2    1    0    0    0 -0.30989804350E+01 -0.18558563355E+02 -0.19989926011E+02  0.97547839876E+02  0.93605341562E+02 0.  0.
         13    1    3    3    0    0 -0.24042763944E+02  0.27263294831E+02 -0.28831744808E+02  0.46396362097E+02  0.10566000000E+00 0. -1.
         22    1    1    0    0    0  0.30989804350E+01  0.18558563355E+02  0.19989926011E+02  0.27452160124E+02  0.00000000000E+00 0.  1.
</event>
<event>
 5    1  0.8943113E-005  0.9118800E+02  0.7818608E-02  0.1130116E+00
         25   -1    0    0    0    0  0.00000000000E+00  0.00000000000E+00  0.99999998245E-14  0.12500000000E+03  0.12500000000E+03 0.  0.
        -13    1    3    3    0    0 -0.44669559848E+02 -0.17220794429E+02  0.39318403292E+02  0.61950571743E+02  0.10566000000E+00 0.  1.
         23    2    1    0    0    0 -0.16895172021E+02 -0.11167760251E+02  0.21310307490E+02  0.95601106961E+02  0.90968548082E+02 0.  0.
         13    1    3    3    0    0  0.27774387827E+02  0.60530341776E+01 -0.18008095803E+02  0.33650535217E+02  0.10566000000E+00 0. -1.
         22    1    1    0    0    0  0.16895172021E+02  0.11167760251E+02 -0.21310307490E+02  0.29398893039E+02  0.00000000000E+00 0.  1.
</event>
<event>
 5    1  0.8943113E-005  0.9118800E+02  0.7818608E-02  0.1130116E+00
         25   -1    0    0    0    0  0.00000000000E+00  0.00000000000E+00  0.99999998245E-14  0.12500000000E+03  0.12500000000E+03 0.  0.
        -13    1    3    3    0    0 -0.43052090169E+02  0.16063995728E+01 -0.26730525166E+02  0.50701036747E+02  0.10566000000E+00 0.  1.
         23    2    1    0    0    0 -0.81342515092E+01  0.25262946425E+02 -0.15155036196E+02  0.94437643549E+02  0.89355530816E+02 0.  0.
         13    1    3    3    0    0  0.34917838660E+02  0.23656546853E+02  0.11575488969E+02  0.43736606803E+02  0.10566000000E+00 0. -1.
         22    1    1    0    0    0  0.81342515092E+01 -0.25262946425E+02  0.15155036196E+02  0.30562356451E+02  0.00000000000E+00 0. -1.
</event>
<event>
 5    1  0.8943113E-005  0.9118800E+02  0.7818608E-02  0.1130116E+00
         25   -1    0    0    0    0  0.00000000000E+00  0.00000000000E+00  0.99999998245E-14  0.12500000000E+03  0.12500000000E+03 0.  0.
        -13    1    3    3    0    0  0.14994516836E+02 -0.30466139268E+02  0.22448756522E+01  0.34030454123E+02  0.10566000000E+00 0. -1.
         23    2    1    0    0    0 -0.13993220067E+02  0.21302071035E+02 -0.14496377672E+02  0.95678789182E+02  0.91075228770E+02 0.  0.
         13    1    3    3    0    0 -0.28987736903E+02  0.51768210303E+02 -0.16741253324E+02  0.61648335060E+02  0.10566000000E+00 0.  1.
         22    1    1    0    0    0  0.13993220067E+02 -0.21302071035E+02  0.14496377672E+02  0.29321210818E+02  0.00000000000E+00 0.  1.
</event>
<event>
 5    1  0.8943113E-005  0.9118800E+02  0.7818608E-02  0.1130116E+00
         25   -1    0    0    0    0  0.00000000000E+00  0.00000000000E+00  0.99999998245E-14  0.12500000000E+03  0.12500000000E+03 0.  0.
        -13    1    3    3    0    0  0.16046211744E+02  0.13365085593E+02 -0.45267165174E+02  0.49852119625E+02  0.10566000000E+00 0.  1.
         23    2    1    0    0    0  0.10064684669E+01 -0.21686762721E+02 -0.18839545518E+02  0.96255311248E+02  0.91863092764E+02 0.  0.
         13    1    3    3    0    0 -0.15039743278E+02 -0.35051848314E+02  0.26427619656E+02  0.46403191623E+02  0.10566000000E+00 0. -1.
         22    1    1    0    0    0 -0.10064684669E+01  0.21686762721E+02  0.18839545518E+02  0.28744688752E+02  0.00000000000E+00 0.  1.
</event>
<event>
 5    1  0.8943113E-005  0.9118800E+02  0.7818608E-02  0.1130116E+00
         25   -1    0    0    0    0  0.00000000000E+00  0.00000000000E+00  0.99999998245E-14  0.12500000000E+03  0.12500000000E+03 0.  0.
        -13    1    3    3    0    0  0.38154179482E+02  0.25627180739E+02 -0.84418489076E+01  0.46730822608E+02  0.10566000000E+00 0. -1.
         23    2    1    0    0    0 -0.98696811921E+01  0.28004604771E+02 -0.20529121125E+01  0.95236214230E+02  0.90465759034E+02 0.  0.
         13    1    3    3    0    0 -0.48023860674E+02  0.23774240316E+01  0.63889367951E+01  0.48505391623E+02  0.10566000000E+00 0.  1.
         22    1    1    0    0    0  0.98696811921E+01 -0.28004604771E+02  0.20529121125E+01  0.29763785770E+02  0.00000000000E+00 0.  1.
</event>
<event>
 5    1  0.8943113E-005  0.9118800E+02  0.7818608E-02  0.1130116E+00
         25   -1    0    0    0    0  0.00000000000E+00  0.00000000000E+00  0.99999998245E-14  0.12500000000E+03  0.12500000000E+03 0.  0.
        -13    1    3    3    0    0 -0.36470027149E+02  0.11701383534E+02 -0.46487419966E+02  0.60233517546E+02  0.10566000000E+00 0. -1.
         23    2    1    0    0    0 -0.84109378558E+01  0.13451353712E+02 -0.23981043623E+02  0.96246335094E+02  0.91850877913E+02 0.  0.
         13    1    3    3    0    0  0.28059089293E+02  0.17499701779E+01  0.22506376343E+02  0.36012817548E+02  0.10566000000E+00 0.  1.
         22    1    1    0    0    0  0.84109378558E+01 -0.13451353712E+02  0.23981043623E+02  0.28753664906E+02  0.00000000000E+00 0. -1.
</event>
<event>
 5    1  0.8943113E-005  0.9118800E+02  0.7818608E-02  0.1130116E+00
         25   -1    0    0    0    0  0.00000000000E+00  0.00000000000E+00  0.99999998245E-14  0.12500000000E+03  0.12500000000E+03 0.  0.
        -13    1    3    3    0    0 -0.33022992024E+01  0.26674764816E+02  0.30323226443E+02  0.40521074566E+02  0.10566000000E+00 0. -1.
         23    2    1    0    0    0 -0.11111386330E+01 -0.25622499844E+02  0.42323589362E+01  0.99006539486E+02  0.95533422798E+02 0.  0.
         13    1    3    3    0    0  0.21911605695E+01 -0.52297264660E+02 -0.26090867507E+02  0.58485464920E+02  0.10566000000E+00 0.  1.
         22    1    1    0    0    0  0.11111386330E+01  0.25622499844E+02 -0.42323589362E+01  0.25993460514E+02  0.00000000000E+00 0.  1.
</event>
<event>
 5    1  0.8943113E-005  0.9118800E+02  0.7818608E-02  0.1130116E+00
         25   -1    0    0    0    0  0.00000000000E+00  0.00000000000E+00  0.99999998245E-14  0.12500000000E+03  0.12500000000E+03 0.  0.
        -13    1    3    3    0    0 -0.48174595768E+02 -0.23720767998E+02 -0.29827773831E+02  0.61426165171E+02  0.10566000000E+00 0.  1.
         23    2    1    0    0    0 -0.17209086551E+02 -0.17512732604E+02 -0.13554802524E+02  0.96953946184E+02  0.92808871052E+02 0.  0.
         13    1    3    3    0    0  0.30965509217E+02  0.62080353939E+01  0.16272971306E+02  0.35527781013E+02  0.10566000000E+00 0. -1.
         22    1    1    0    0    0  0.17209086551E+02  0.17512732604E+02  0.13554802524E+02  0.28046053816E+02  0.00000000000E+00 0.  1.
</event>
<event>
 5    1  0.8943113E-005  0.9118800E+02  0.7818608E-02  0.1130116E+00
         25   -1    0    0    0    0  0.00000000000E+00  0.00000000000E+00  0.99999998245E-14  0.12500000000E+03  0.12500000000E+03 0.  0.
        -13    1    3    3    0    0  0.50955118468E+02 -0.12195797068E+02 -0.30619731091E+02  0.60685588572E+02  0.10566000000E+00 0. -1.
         23    2    1    0    0    0  0.22786058715E+02 -0.99374314288E+01 -0.34224113931E+01  0.99906775518E+02  0.96704156475E+02 0.  0.
         13    1    3    3    0    0 -0.28169059753E+02  0.22583656389E+01  0.27197319698E+02  0.39221186946E+02  0.10566000000E+00 0.  1.
         22    1    1    0    0    0 -0.22786058715E+02  0.99374314288E+01  0.34224113931E+01  0.25093224482E+02  0.00000000000E+00 0. -1.
</event>
<event>
 4    1  0.8943113E-005  0.9118800E+02  0.7818608E-02  0.1130116E+00
         25   -1    0    0    0    0  0.00000000000E+00  0.00000000000E+00  0.99999998245E-14  0.12500000000E+03  0.12500000000E+03 0.  0.
        -13    1    1    0    0    0 -0.14793294679E+02 -0.35438828884E+01  0.59233713106E-01  0.15212341899E+02  0.10566000000E+00 0.  1.
         13    1    1    0    0    0  0.33445538495E+02 -0.43759941803E+02 -0.14450891729E+02  0.56941864982E+02  0.10566000000E+00 0. -1.
         22    1    1    0    0    0 -0.18652243816E+02  0.47303824692E+02  0.14391658016E+02  0.52845793118E+02  0.00000000000E+00 0. -1.
</event>
<event>
 5    1  0.8943113E-005  0.9118800E+02  0.7818608E-02  0.1130116E+00
         25   -1    0    0    0    0  0.00000000000E+00  0.00000000000E+00  0.99999998245E-14  0.12500000000E+03  0.12500000000E+03 0.  0.
        -13    1    3    3    0    0  0.46787174851E+01 -0.20165687125E+02  0.49196855744E+02  0.53374967107E+02  0.10566000000E+00 0.  1.
         23    2    1    0    0    0  0.17052141408E+02  0.95990609213E+01  0.22064616065E+02  0.95508225227E+02  0.90840829514E+02 0.  0.
         13    1    3    3    0    0  0.12373423923E+02  0.29764748046E+02 -0.27132239679E+02  0.42133258121E+02  0.10566000000E+00 0. -1.
         22    1    1    0    0    0 -0.17052141408E+02 -0.95990609213E+01 -0.22064616065E+02  0.29491774773E+02  0.00000000000E+00 0.  1.
</event>
<event>
 5    1  0.8943113E-005  0.9118800E+02  0.7818608E-02  0.1130116E+00
         25   -1    0    0    0    0  0.00000000000E+00  0.00000000000E+00  0.99999998245E-14  0.12500000000E+03  0.12500000000E+03 0.  0.
        -13    1    3    3    0    0  0.43762436924E+01 -0.42454595156E+02  0.96647554508E+00  0.42690624237E+02  0.10566000000E+00 0. -1.
         23    2    1    0    0    0  0.20445027662E+02  0.18370875357E+01 -0.21832021100E+02  0.95033165131E+02  0.90184761922E+02 0.  0.
         13    1    3    3    0    0  0.16068783970E+02  0.44291682692E+02 -0.22798496645E+02  0.52342540894E+02  0.10566000000E+00 0.  1.
         22    1    1    0    0    0 -0.20445027662E+02 -0.18370875357E+01  0.21832021100E+02  0.29966834869E+02  0.00000000000E+00 0.  1.
</event>
<event>
 5    1  0.8943113E-005  0.9118800E+02  0.7818608E-02  0.1130116E+00
         25   -1    0    0    0    0  0.00000000000E+00  0.00000000000E+00  0.99999998245E-14  0.12500000000E+03  0.12500000000E+03 0.  0.
        -13    1    3    3    0    0  0.73374402055E+00  0.41444192623E+02  0.29134583645E+02  0.50665516978E+02  0.10566000000E+00 0. -1.
         23    2    1    0    0    0 -0.79221088879E+01  0.29153208010E+02 -0.10469492598E+02  0.93026892210E+02  0.87359733587E+02 0.  0.
         13    1    3    3    0    0 -0.86558529085E+01 -0.12290984613E+02 -0.39604076244E+02  0.42361375231E+02  0.10566000000E+00 0.  1.
         22    1    1    0    0    0  0.79221088879E+01 -0.29153208010E+02  0.10469492598E+02  0.31973107790E+02  0.00000000000E+00 0. -1.
</event>
<event>
 5    1  0.8943113E-005  0.9118800E+02  0.7818608E-02  0.1130116E+00
         25   -1    0    0    0    0  0.00000000000E+00  0.00000000000E+00  0.99999998245E-14  0.12500000000E+03  0.12500000000E+03 0.  0.
        -13    1    3    3    0    0  0.15521967634E+02  0.30468131487E+02  0.15165846557E+02  0.37406584733E+02  0.10566000000E+00 0.  1.
         23    2    1    0    0    0 -0.23169515705E+02 -0.13795607569E+02  0.92411249347E+01  0.96494848952E+02  0.92188460439E+02 0.  0.
         13    1    3    3    0    0 -0.38691483339E+02 -0.44263739056E+02 -0.59247216225E+01  0.59088264220E+02  0.10566000000E+00 0. -1.
         22    1    1    0    0    0  0.23169515705E+02  0.13795607569E+02 -0.92411249347E+01  0.28505151048E+02  0.00000000000E+00 0. -1.
</event>
<event>
 5    1  0.8943113E-005  0.9118800E+02  0.7818608E-02  0.1130116E+00
         25   -1    0    0    0    0  0.00000000000E+00  0.00000000000E+00  0.99999998245E-14  0.12500000000E+03  0.12500000000E+03 0.  0.
        -13    1    3    3    0    0 -0.17401451060E+01  0.52128765716E+01 -0.53019716566E+02  0.53303880683E+02  0.10566000000E+00 0. -1.
         23    2    1    0    0    0 -0.14239305267E+02 -0.17021622967E+02 -0.19263923903E+02  0.95613060264E+02  0.90984971649E+02 0.  0.
         13    1    3    3    0    0 -0.12499160161E+02 -0.22234499539E+02  0.33755792663E+02  0.42309179581E+02  0.10566000000E+00 0.  1.
         22    1    1    0    0    0  0.14239305267E+02  0.17021622967E+02  0.19263923903E+02  0.29386939736E+02  0.00000000000E+00 0. -1.
</event>
<event>
 5    1  0.8943113E-005  0.9118800E+02  0.7818608E-02  0.1130116E+00
         25   -1    0    0    0    0  0.00000000000E+00  0.00000000000E+00  0.99999998245E-14  0.12500000000E+03  0.12500000000E+03 0.  0.
        -13    1    3    3    0    0 -0.81062353292E+01  0.20527722496E+02  0.46285467123E+01  0.22550677391E+02  0.10566000000E+00 0.  1.
         23    2    1    0    0    0 -0.79965567889E+01  0.35225475675E+01 -0.47148332088E+02  0.77048790625E+02  0.60309183847E+02 0.  0.
         13    1    3    3    0    0  0.10967854030E+00 -0.17005174929E+02 -0.51776878800E+02  0.54498113234E+02  0.10566000000E+00 0. -1.
         22    1    1    0    0    0  0.79965567889E+01 -0.35225475675E+01  0.47148332088E+02  0.47951209375E+02  0.00000000000E+00 0. -1.
</event>
<event>
 5    1  0.8943113E-005  0.9118800E+02  0.7818608E-02  0.1130116E+00
         25   -1    0    0    0    0  0.00000000000E+00  0.00000000000E+00  0.99999998245E-14  0.12500000000E+03  0.12500000000E+03 0.  0.
        -13    1    3    3    0    0 -0.27130590508E+02  0.21971485792E+01  0.44860190950E+02  0.52472319363E+02  0.10566000000E+00 0. -1.
         23    2    1    0    0    0  0.49864637707E+01  0.15956634266E+02  0.30439789818E+02  0.90271628282E+02  0.83324108579E+02 0.  0.
         13    1    3    3    0    0  0.32117054279E+02  0.13759485687E+02 -0.14420401132E+02  0.37799308919E+02  0.10566000000E+00 0.  1.
         22    1    1    0    0    0 -0.49864637707E+01 -0.15956634266E+02 -0.30439789818E+02  0.34728371718E+02  0.00000000000E+00 0. -1.
</event>
<event>
 5    1  0.8943113E-005  0.9118800E+02  0.7818608E-02  0.1130116E+00
         25   -1    0    0    0    0  0.00000000000E+00  0.00000000000E+00  0.99999998245E-14  0.12500000000E+03  0.12500000000E+03 0.  0.
        -13    1    3    3    0    0 -0.19722834093E+02  0.51720515648E+02  0.14710477787E+02  0.57274874459E+02  0.10566000000E+00 0.  1.
         23    2    1    0    0    0  0.35951774440E+01  0.23906749044E+02 -0.73293790454E+01  0.99737819811E+02  0.96485516803E+02 0.  0.
         13    1    3    3    0    0  0.23318011537E+02 -0.27813766604E+02 -0.22039856833E+02  0.42462945352E+02  0.10566000000E+00 0. -1.
         22    1    1    0    0    0 -0.35951774440E+01 -0.23906749044E+02  0.73293790454E+01  0.25262180189E+02  0.00000000000E+00 0.  1.
</event>
<event>
 5    1  0.8943113E-005  0.9118800E+02  0.7818608E-02  0.1130116E+00
         25   -1    0    0    0    0  0.00000000000E+00  0.00000000000E+00  0.99999998245E-14  0.12500000000E+03  0.12500000000E+03 0.  0.
        -13    1    3    3    0    0 -0.34897271374E+02  0.26860624035E+02 -0.79104952068E+01  0.44742594598E+02  0.10566000000E+00 0.  1.
         23    2    1    0    0    0  0.53890232777E+01 -0.14043216128E+02  0.12260199319E+02  0.10559469200E+03  0.10379630533E+03 0.  0.
         13    1    3    3    0    0  0.40286294652E+02 -0.40903840164E+02  0.20170694525E+02  0.60852097405E+02  0.10566000000E+00 0. -1.
         22    1    1    0    0    0 -0.53890232777E+01  0.14043216128E+02 -0.12260199319E+02  0.19405307997E+02  0.00000000000E+00 0. -1.
</event>
<event>
 5    1  0.8943113E-005  0.9118800E+02  0.7818608E-02  0.1130116E+00
         25   -1    0    0    0    0  0.00000000000E+00  0.00000000000E+00  0.99999998245E-14  0.12500000000E+03  0.12500000000E+03 0.  0.
        -13    1    3    3    0    0  0.21367399610E+02  0.46597165472E+02 -0.20724010297E+02  0.55293375398E+02  0.10566000000E+00 0. -1.
         23    2    1    0    0    0  0.27299027247E+02  0.14041230694E+02 -0.70940338438E-01  0.94301497096E+02  0.89164871300E+02 0.  0.
         13    1    3    3    0    0  0.59316276367E+01 -0.32555934777E+02  0.20653069958E+02  0.39008121698E+02  0.10566000000E+00 0.  1.
         22    1    1    0    0    0 -0.27299027247E+02 -0.14041230694E+02  0.70940338438E-01  0.30698502904E+02  0.00000000000E+00 0. -1.
</event>
<event>
 5    1  0.8943113E-005  0.9118800E+02  0.7818608E-02  0.1130116E+00
         25   -1    0    0    0    0  0.00000000000E+00  0.00000000000E+00  0.99999998245E-14  0.12500000000E+03  0.12500000000E+03 0.  0.
        -13    1    3    3    0    0 -0.12424021526E+02  0.26457636977E+02 -0.24210554031E+02  0.37954248192E+02  0.10566000000E+00 0. -1.
         23    2    1    0    0    0 -0.15017944093E+02 -0.25051946998E+02  0.18373229871E+01  0.95733731893E+02  0.91150605995E+02 0.  0.
         13    1    3    3    0    0 -0.25939225670E+01 -0.51509583975E+02  0.26047877018E+02  0.57779483701E+02  0.10566000000E+00 0.  1.
         22    1    1    0    0    0  0.15017944093E+02  0.25051946998E+02 -0.18373229871E+01  0.29266268107E+02  0.00000000000E+00 0.  1.
</event>
<event>
 5    1  0.8943113E-005  0.9118800E+02  0.7818608E-02  0.1130116E+00
         25   -1    0    0    0    0  0.00000000000E+00  0.00000000000E+00  0.99999998245E-14  0.12500000000E+03  0.12500000000E+03 0.  0.
        -13    1    3    3    0    0 -0.31513249769E+02  0.52546406692E+02  0.79330856452E+00  0.61276833059E+02  0.10566000000E+00 0.  1.
         23    2    1    0    0    0 -0.81072844746E+01  0.25781218333E+02  0.62811280138E+01  0.97253795766E+02  0.93211849791E+02 0.  0.
         13    1    3    3    0    0  0.23405965295E+02 -0.26765188359E+02  0.54878194493E+01  0.35976962707E+02  0.10566000000E+00 0. -1.
         22    1    1    0    0    0  0.81072844746E+01 -0.25781218333E+02 -0.62811280138E+01  0.27746204234E+02  0.00000000000E+00 0.  1.
</event>
<event>
 5    1  0.8943113E-005  0.9118800E+02  0.7818608E-02  0.1130116E+00
         25   -1    0    0    0    0  0.00000000000E+00  0.00000000000E+00  0.99999998245E-14  0.12500000000E+03  0.12500000000E+03 0.  0.
        -13    1    3    3    0    0 -0.36259230945E+02 -0.20992511797E+02 -0.42765326365E+02  0.59869037769E+02  0.10566000000E+00 0. -1.
         23    2    1    0    0    0 -0.16685232773E+02 -0.21122246029E+02 -0.14009348021E+02  0.94655179981E+02  0.89659327431E+02 0.  0.
         13    1    3    3    0    0  0.19573998172E+02 -0.12973423217E+00  0.28755978345E+02  0.34786142212E+02  0.10566000000E+00 0.  1.
         22    1    1    0    0    0  0.16685232773E+02  0.21122246029E+02  0.14009348021E+02  0.30344820019E+02  0.00000000000E+00 0. -1.
</event>
<event>
 5    1  0.8943113E-005  0.9118800E+02  0.7818608E-02  0.1130116E+00
         25   -1    0    0    0    0  0.00000000000E+00  0.00000000000E+00  0.99999998245E-14  0.12500000000E+03  0.12500000000E+03 0.  0.
        -13    1    3    3    0    0 -0.10917810470E+02 -0.10588065330E+02 -0.36149961337E+02  0.39219084406E+02  0.10566000000E+00 0.  1.
         23    2    1    0    0    0  0.59059318631E+01  0.27622264369E+02  0.31775276557E+01  0.96575253703E+02  0.92297418304E+02 0.  0.
         13    1    3    3    0    0  0.16823742333E+02  0.38210329700E+02  0.39327488993E+02  0.57356169297E+02  0.10566000000E+00 0. -1.
         22    1    1    0    0    0 -0.59059318631E+01 -0.27622264369E+02 -0.31775276557E+01  0.28424746297E+02  0.00000000000E+00 0. -1.
</event>
<event>
 5    1  0.8943113E-005  0.9118800E+02  0.7818608E-02  0.1130116E+00
         25   -1    0    0    0    0  0.00000000000E+00  0.00000000000E+00  0.99999998245E-14  0.12500000000E+03  0.12500000000E+03 0.  0.
        -13    1    3    3    0    0 -0.21584498043E+02 -0.47502591687E+02  0.59075180425E+01  0.52509967684E+02  0.10566000000E+00 0.  1.
         23    2    1    0    0    0  0.98684101300E+01 -0.16217875884E+02  0.18362963238E+02  0.98587816532E+02  0.94983967768E+02 0.  0.
         13    1    3    3    0    0  0.31452908173E+02  0.31284715803E+02  0.12455445195E+02  0.46077848848E+02  0.10566000000E+00 0. -1.
         22    1    1    0    0    0 -0.98684101300E+01  0.16217875884E+02 -0.18362963238E+02  0.26412183468E+02  0.00000000000E+00 0.  1.
</event>
<event>
 5    1  0.8943113E-005  0.9118800E+02  0.7818608E-02  0.1130116E+00
         25   -1    0    0    0    0  0.00000000000E+00  0.00000000000E+00  0.99999998245E-14  0.12500000000E+03  0.12500000000E+03 0.  0.
        -13    1    3    3    0    0  0.46777698068E+02 -0.91031676966E+01  0.15279799694E+02  0.50045021145E+02  0.10566000000E+00 0. -1.
         23    2    1    0    0    0  0.85838644144E+01  0.11498566788E+02  0.26496831452E+02  0.94867262928E+02  0.89954520353E+02 0.  0.
         13    1    3    3    0    0 -0.38193833654E+02  0.20601734484E+02  0.11217031758E+02  0.44822241783E+02  0.10566000000E+00 0.  1.
         22    1    1    0    0    0 -0.85838644144E+01 -0.11498566788E+02 -0.26496831452E+02  0.30132737072E+02  0.00000000000E+00 0. -1.
</event>
<event>
 5    1  0.8943113E-005  0.9118800E+02  0.7818608E-02  0.1130116E+00
         25   -1    0    0    0    0  0.00000000000E+00  0.00000000000E+00  0.99999998245E-14  0.12500000000E+03  0.12500000000E+03 0.  0.
        -13    1    3    3    0    0  0.31904239336E+02  0.41350520581E+02  0.40310858657E+01  0.52383268867E+02  0.10566000000E+00 0. -1.
         23    2    1    0    0    0  0.48019962058E+01  0.13325274567E+02  0.24712780307E+02  0.96515905836E+02  0.92217007429E+02 0.  0.
         13    1    3    3    0    0 -0.27102243131E+02 -0.28025246014E+02  0.20681694441E+02  0.44132636969E+02  0.10566000000E+00 0.  1.
         22    1    1    0    0    0 -0.48019962058E+01 -0.13325274567E+02 -0.24712780307E+02  0.28484094164E+02  0.00000000000E+00 0. -1.
</event>
<event>
 5    1  0.8943113E-005  0.9118800E+02  0.7818608E-02  0.1130116E+00
         25   -1    0    0    0    0  0.00000000000E+00  0.00000000000E+00  0.99999998245E-14  0.12500000000E+03  0.12500000000E+03 0.  0.
        -13    1    3    3    0    0 -0.38512565709E+01  0.47740826111E+02  0.19239035549E+01  0.47934655771E+02  0.10566000000E+00 0. -1.
         23    2    1    0    0    0  0.22325339249E+02  0.55809282226E+01  0.12698884140E+02  0.98716370289E+02  0.95152995603E+02 0.  0.
         13    1    3    3    0    0  0.26176595820E+02 -0.42159897889E+02  0.10774980585E+02  0.50781714518E+02  0.10566000000E+00 0.  1.
         22    1    1    0    0    0 -0.22325339249E+02 -0.55809282226E+01 -0.12698884140E+02  0.26283629711E+02  0.00000000000E+00 0.  1.
</event>
<event>
 5    1  0.8943113E-005  0.9118800E+02  0.7818608E-02  0.1130116E+00
         25   -1    0    0    0    0  0.00000000000E+00  0.00000000000E+00  0.99999998245E-14  0.12500000000E+03  0.12500000000E+03 0.  0.
        -13    1    3    3    0    0 -0.26402127062E+02  0.50438745215E-01 -0.38784477992E+02  0.46918245434E+02  0.10566000000E+00 0.  1.
         23    2    1    0    0    0  0.18986245583E+02  0.75989237826E+01 -0.19282363481E+02  0.96892515135E+02  0.92726095485E+02 0.  0.
         13    1    3    3    0    0  0.45388372645E+02  0.75484850373E+01  0.19502114511E+02  0.49974269701E+02  0.10566000000E+00 0. -1.
         22    1    1    0    0    0 -0.18986245583E+02 -0.75989237826E+01  0.19282363481E+02  0.28107484865E+02  0.00000000000E+00 0. -1.
</event>
<event>
 5    1  0.8943113E-005  0.9118800E+02  0.7818608E-02  0.1130116E+00
         25   -1    0    0    0    0  0.00000000000E+00  0.00000000000E+00  0.99999998245E-14  0.12500000000E+03  0.12500000000E+03 0.  0.
        -13    1    3    3    0    0  0.35579491096E+02  0.30990471557E+02 -0.59874909809E+01  0.47562282601E+02  0.10566000000E+00 0. -1.
         23    2    1    0    0    0  0.31823098202E+02 -0.28380371072E+00  0.19146365820E+02  0.87860082824E+02  0.79624246973E+02 0.  0.
         13    1    3    3    0    0 -0.37563928935E+01 -0.31274275268E+02  0.25133856801E+02  0.40297800223E+02  0.10566000000E+00 0.  1.
         22    1    1    0    0    0 -0.31823098202E+02  0.28380371072E+00 -0.19146365820E+02  0.37139917176E+02  0.00000000000E+00 0. -1.
</event>
<event>
 5    1  0.8943113E-005  0.9118800E+02  0.7818608E-02  0.1130116E+00
         25   -1    0    0    0    0  0.00000000000E+00  0.00000000000E+00  0.99999998245E-14  0.12500000000E+03  0.12500000000E+03 0.  0.
        -13    1    3    3    0    0 -0.48568040309E+02  0.14797637403E+02  0.20354183839E+02  0.54700352613E+02  0.10566000000E+00 0.  1.
         23    2    1    0    0    0 -0.16822574681E+02  0.19358234201E+02  0.27329249361E+02  0.87521631293E+02  0.79091136186E+02 0.  0.
         13    1    3    3    0    0  0.31745465628E+02  0.45605967981E+01  0.69750655219E+01  0.32821278680E+02  0.10566000000E+00 0. -1.
         22    1    1    0    0    0  0.16822574681E+02 -0.19358234201E+02 -0.27329249361E+02  0.37478368707E+02  0.00000000000E+00 0.  1.
</event>
<event>
 5    1  0.8943113E-005  0.9118800E+02  0.7818608E-02  0.1130116E+00
         25   -1    0    0    0    0  0.00000000000E+00  0.00000000000E+00  0.99999998245E-14  0.12500000000E+03  0.12500000000E+03 0.  0.
        -13    1    3    3    0    0  0.25961935969E+01  0.36124517769E+02 -0.12976014745E+02  0.38472186420E+02  0.10566000000E+00 0.  1.
         23    2    1    0    0    0 -0.12978812303E+02 -0.85602506009E+01  0.22525203264E+02  0.97630085107E+02  0.93715106983E+02 0.  0.
         13    1    3    3    0    0 -0.15575005900E+02 -0.44684768370E+02  0.35501218009E+02  0.59157898688E+02  0.10566000000E+00 0. -1.
         22    1    1    0    0    0  0.12978812303E+02  0.85602506009E+01 -0.22525203264E+02  0.27369914893E+02  0.00000000000E+00 0. -1.
</event>
<event>
 5    1  0.8943113E-005  0.9118800E+02  0.7818608E-02  0.1130116E+00
         25   -1    0    0    0    0  0.00000000000E+00  0.00000000000E+00  0.99999998245E-14  0.12500000000E+03  0.12500000000E+03 0.  0.
        -13    1    3    3    0    0 -0.25265766967E+02  0.52941795925E+02  0.21037443238E+02  0.62319964042E+02  0.10566000000E+00 0.  1.
         23    2    1    0    0    0 -0.92818368451E+01  0.26254412710E+02  0.11658230301E+02  0.94811243555E+02  0.89876642620E+02 0.  0.
         13    1    3    3    0    0  0.15983930122E+02 -0.26687383216E+02 -0.93792129363E+01  0.32491279513E+02  0.10566000000E+00 0. -1.
         22    1    1    0    0    0  0.92818368451E+01 -0.26254412710E+02 -0.11658230301E+02  0.30188756445E+02  0.00000000000E+00 0.  1.
</event>
<event>
 5    1  0.8943113E-005  0.9118800E+02  0.7818608E-02  0.1130116E+00
         25   -1    0    0    0    0  0.00000000000E+00  0.00000000000E+00  0.99999998245E-14  0.12500000000E+03  0.12500000000E+03 0.  0.
        -13    1    3    3    0    0 -0.39841459799E+02  0.17525791667E+02 -0.50120235649E+01  0.43813546270E+02  0.10566000000E+00 0.  1.
         23    2    1    0    0    0 -0.58542580902E+01 -0.25394467197E+02 -0.44393909135E+01  0.98564049219E+02  0.94952684558E+02 0.  0.
         13    1    3    3    0    0  0.33987201709E+02 -0.42920258864E+02  0.57263265137E+00  0.54750502949E+02  0.10566000000E+00 0. -1.
         22    1    1    0    0    0  0.58542580902E+01  0.25394467197E+02  0.44393909135E+01  0.26435950781E+02  0.00000000000E+00 0. -1.
</event>
<event>
 5    1  0.8943113E-005  0.9118800E+02  0.7818608E-02  0.1130116E+00
         25   -1    0    0    0    0  0.00000000000E+00  0.00000000000E+00  0.99999998245E-14  0.12500000000E+03  0.12500000000E+03 0.  0.
        -13    1    3    3    0    0  0.38498511818E+02 -0.13574841825E+02  0.45664811540E+02  0.61251105457E+02  0.10566000000E+00 0. -1.
         23    2    1    0    0    0  0.10327594885E+02 -0.78904477381E+01  0.25563561198E+02  0.96322237836E+02  0.91954116052E+02 0.  0.
         13    1    3    3    0    0 -0.28170916933E+02  0.56843940871E+01 -0.20101250341E+02  0.35071132378E+02  0.10566000000E+00 0.  1.
         22    1    1    0    0    0 -0.10327594885E+02  0.78904477381E+01 -0.25563561198E+02  0.28677762164E+02  0.00000000000E+00 0. -1.
</event>
<event>
 5    1  0.8943113E-005  0.9118800E+02  0.7818608E-02  0.1130116E+00
         25   -1    0    0    0    0  0.00000000000E+00  0.00000000000E+00  0.99999998245E-14  0.12500000000E+03  0.12500000000E+03 0.  0.
        -13    1    3    3    0    0 -0.87124149552E+00  0.46352010426E+02 -0.65466975880E+01  0.46820277077E+02  0.10566000000E+00 0. -1.
         23    2    1    0    0    0  0.20306652119E+02  0.42130773582E+01 -0.20333777662E+02  0.95955677747E+02  0.91454466468E+02 0.  0.
         13    1    3    3    0    0  0.21177893614E+02 -0.42138933068E+02 -0.13787080074E+02  0.49135400670E+02  0.10566000000E+00 0.  1.
         22    1    1    0    0    0 -0.20306652119E+02 -0.42130773582E+01  0.20333777662E+02  0.29044322253E+02  0.00000000000E+00 0.  1.
</event>
<event>
 5    1  0.8943113E-005  0.9118800E+02  0.7818608E-02  0.1130116E+00
         25   -1    0    0    0    0  0.00000000000E+00  0.00000000000E+00  0.99999998245E-14  0.12500000000E+03  0.12500000000E+03 0.  0.
        -13    1    3    3    0    0  0.10586727906E+02  0.28179252627E+02 -0.29050409437E+02  0.41834035651E+02  0.10566000000E+00 0.  1.
         23    2    1    0    0    0  0.15704405505E+02 -0.22221266083E+02 -0.11672713944E+02  0.95391466274E+02  0.90680022984E+02 0.  0.
         13    1    3    3    0    0  0.51176775994E+01 -0.50400518710E+02  0.17377695493E+02  0.53557430623E+02  0.10566000000E+00 0. -1.
         22    1    1    0    0    0 -0.15704405505E+02  0.22221266083E+02  0.11672713944E+02  0.29608533726E+02  0.00000000000E+00 0. -1.
</event>
<event>
 5    1  0.8943113E-005  0.9118800E+02  0.7818608E-02  0.1130116E+00
         25   -1    0    0    0    0  0.00000000000E+00  0.00000000000E+00  0.99999998245E-14  0.12500000000E+03  0.12500000000E+03 0.  0.
        -13    1    3    3    0    0 -0.47911679279E+02  0.13066188116E+02 -0.31515182791E+02  0.58817278020E+02  0.10566000000E+00 0. -1.
         23    2    1    0    0    0 -0.12273076858E+02  0.15162423235E+02 -0.21655260259E+02  0.95854197715E+02  0.91315658180E+02 0.  0.
         13    1    3    3    0    0  0.35638602421E+02  0.20962351190E+01  0.98599225320E+01  0.37036919696E+02  0.10566000000E+00 0.  1.
         22    1    1    0    0    0  0.12273076858E+02 -0.15162423235E+02  0.21655260259E+02  0.29145802285E+02  0.00000000000E+00 0. -1.
</event>
<event>
 5    1  0.8943113E-005  0.9118800E+02  0.7818608E-02  0.1130116E+00
         25   -1    0    0    0    0  0.00000000000E+00  0.00000000000E+00  0.99999998245E-14  0.12500000000E+03  0.12500000000E+03 0.  0.
        -13    1    3    3    0    0  0.17230087948E+01 -0.43462977186E+02 -0.57654496910E+01  0.43877679056E+02  0.10566000000E+00 0. -1.
         23    2    1    0    0    0 -0.22177965885E+02 -0.25439169206E+01  0.17467707243E+02  0.96654727371E+02  0.92404988192E+02 0.  0.
         13    1    3    3    0    0 -0.23900974679E+02  0.40919060266E+02  0.23233156934E+02  0.52777048315E+02  0.10566000000E+00 0.  1.
         22    1    1    0    0    0  0.22177965885E+02  0.25439169206E+01 -0.17467707243E+02  0.28345272629E+02  0.00000000000E+00 0. -1.
</event>
<event>
 5    1  0.8943113E-005  0.9118800E+02  0.7818608E-02  0.1130116E+00
         25   -1    0    0    0    0  0.00000000000E+00  0.00000000000E+00  0.99999998245E-14  0.12500000000E+03  0.12500000000E+03 0.  0.
        -13    1    3    3    0    0 -0.98804931687E+01  0.42084876676E+02  0.24556538604E+02  0.49717157424E+02  0.10566000000E+00 0. -1.
         23    2    1    0    0    0  0.23193168692E+02  0.14223234442E+02  0.14716803832E+02  0.94067690242E+02  0.88836493405E+02 0.  0.
         13    1    3    3    0    0  0.33073661861E+02 -0.27861642234E+02 -0.98397347719E+01  0.44350532818E+02  0.10566000000E+00 0.  1.
         22    1    1    0    0    0 -0.23193168692E+02 -0.14223234442E+02 -0.14716803832E+02  0.30932309758E+02  0.00000000000E+00 0. -1.
</event>
<event>
 5    1  0.8943113E-005  0.9118800E+02  0.7818608E-02  0.1130116E+00
         25   -1    0    0    0    0  0.00000000000E+00  0.00000000000E+00  0.99999998245E-14  0.12500000000E+03  0.12500000000E+03 0.  0.
        -13    1    3    3    0    0  0.30463137048E+02 -0.18258451109E+02 -0.11701892945E+02  0.37394106732E+02  0.10566000000E+00 0. -1.
         23    2    1    0    0    0 -0.75679448183E+01  0.25011801961E+02 -0.14583847896E+02  0.95074214370E+02  0.90241640014E+02 0.  0.
         13    1    3    3    0    0 -0.38031081867E+02  0.43270253071E+02 -0.28819549503E+01  0.57680107638E+02  0.10566000000E+00 0.  1.
         22    1    1    0    0    0  0.75679448183E+01 -0.25011801961E+02  0.14583847896E+02  0.29925785630E+02  0.00000000000E+00 0.  1.
</event>
<event>
 5    1  0.8943113E-005  0.9118800E+02  0.7818608E-02  0.1130116E+00
         25   -1    0    0    0    0  0.00000000000E+00  0.00000000000E+00  0.99999998245E-14  0.12500000000E+03  0.12500000000E+03 0.  0.
        -13    1    3    3    0    0 -0.11948633418E+02  0.28577944835E+01  0.49001849740E+02  0.50518603225E+02  0.10566000000E+00 0.  1.
         23    2    1    0    0    0 -0.19062810416E+02 -0.18020284851E+02  0.71759888229E+01  0.97804113866E+02  0.93946944955E+02 0.  0.
         13    1    3    3    0    0 -0.71141769980E+01 -0.20878079334E+02 -0.41825860917E+02  0.47285510640E+02  0.10566000000E+00 0. -1.
         22    1    1    0    0    0  0.19062810416E+02  0.18020284851E+02 -0.71759888229E+01  0.27195886134E+02  0.00000000000E+00 0.  1.
</event>
<event>
 5    1  0.8943113E-005  0.9118800E+02  0.7818608E-02  0.1130116E+00
         25   -1    0    0    0    0  0.00000000000E+00  0.00000000000E+00  0.99999998245E-14  0.12500000000E+03  0.12500000000E+03 0.  0.
        -13    1    3    3    0    0  0.85470640146E+01  0.33732852669E+02 -0.29431317949E+02  0.45575994698E+02  0.10566000000E+00 0. -1.
         23    2    1    0    0    0  0.12598812832E+02 -0.17792100565E+02 -0.55920989146E+01  0.10249310111E+03  0.99991376018E+02 0.  0.
         13    1    3    3    0    0  0.40517488171E+01 -0.51524953234E+02  0.23839219035E+02  0.56917106414E+02  0.10566000000E+00 0.  1.
         22    1    1    0    0    0 -0.12598812832E+02  0.17792100565E+02  0.55920989146E+01  0.22506898888E+02  0.00000000000E+00 0.  1.
</event>
<event>
 5    1  0.8943113E-005  0.9118800E+02  0.7818608E-02  0.1130116E+00
         25   -1    0    0    0    0  0.00000000000E+00  0.00000000000E+00  0.99999998245E-14  0.12500000000E+03  0.12500000000E+03 0.  0.
        -13    1    3    3    0    0 -0.45906389579E+01  0.22413424672E+01  0.34319286751E+02  0.34697581893E+02  0.10566000000E+00 0. -1.
         23    2    1    0    0    0 -0.23332405825E+02  0.12387628476E+02 -0.19225401357E+02  0.92327832056E+02  0.86353679794E+02 0.  0.
         13    1    3    3    0    0 -0.18741766867E+02  0.10146286009E+02 -0.53544688108E+02  0.57630250162E+02  0.10566000000E+00 0.  1.
         22    1    1    0    0    0  0.23332405825E+02 -0.12387628476E+02  0.19225401357E+02  0.32672167944E+02  0.00000000000E+00 0.  1.
</event>
<event>
 5    1  0.8943113E-005  0.9118800E+02  0.7818608E-02  0.1130116E+00
         25   -1    0    0    0    0  0.00000000000E+00  0.00000000000E+00  0.99999998245E-14  0.12500000000E+03  0.12500000000E+03 0.  0.
        -13    1    3    3    0    0  0.25543208909E+02 -0.15104643443E+02 -0.24190090362E+02  0.38285472580E+02  0.10566000000E+00 0.  1.
         23    2    1    0    0    0  0.12594197859E+01  0.28325209795E+02  0.53427026303E+01  0.96147822967E+02  0.91716714626E+02 0.  0.
         13    1    3    3    0    0 -0.24283789123E+02  0.43429853238E+02  0.29532792992E+02  0.57862350388E+02  0.10566000000E+00 0. -1.
         22    1    1    0    0    0 -0.12594197859E+01 -0.28325209795E+02 -0.53427026303E+01  0.28852177033E+02  0.00000000000E+00 0. -1.
</event>
<event>
 5    1  0.8943113E-005  0.9118800E+02  0.7818608E-02  0.1130116E+00
         25   -1    0    0    0    0  0.00000000000E+00  0.00000000000E+00  0.99999998245E-14  0.12500000000E+03  0.12500000000E+03 0.  0.
        -13    1    3    3    0    0 -0.17235558785E+02  0.35436175258E+02  0.17263864086E+02  0.43021380391E+02  0.10566000000E+00 0. -1.
         23    2    1    0    0    0 -0.33838359684E+02  0.26271392736E+01 -0.10914990157E+02  0.89347882854E+02  0.81926617857E+02 0.  0.
         13    1    3    3    0    0 -0.16602800899E+02 -0.32809035984E+02 -0.28178854243E+02  0.46326502463E+02  0.10566000000E+00 0.  1.
         22    1    1    0    0    0  0.33838359684E+02 -0.26271392736E+01  0.10914990157E+02  0.35652117146E+02  0.00000000000E+00 0.  1.
</event>
<event>
 5    1  0.8943113E-005  0.9118800E+02  0.7818608E-02  0.1130116E+00
         25   -1    0    0    0    0  0.00000000000E+00  0.00000000000E+00  0.99999998245E-14  0.12500000000E+03  0.12500000000E+03 0.  0.
        -13    1    3    3    0    0  0.37382640327E+02  0.13385964395E+02 -0.47163320161E+02  0.61652540688E+02  0.10566000000E+00 0. -1.
         23    2    1    0    0    0  0.15955367946E+02 -0.62028960781E+00 -0.23986829269E+02  0.96184613418E+02  0.91766842348E+02 0.  0.
         13    1    3    3    0    0 -0.21427272382E+02 -0.14006254002E+02  0.23176490893E+02  0.34532072730E+02  0.10566000000E+00 0.  1.
         22    1    1    0    0    0 -0.15955367946E+02  0.62028960781E+00  0.23986829269E+02  0.28815386582E+02  0.00000000000E+00 0. -1.
</event>
<event>
 5    1  0.8943113E-005  0.9118800E+02  0.7818608E-02  0.1130116E+00
         25   -1    0    0    0    0  0.00000000000E+00  0.00000000000E+00  0.99999998245E-14  0.12500000000E+03  0.12500000000E+03 0.  0.
        -13    1    3    3    0    0  0.45580746744E+02  0.22983589306E+02  0.12119633880E+02  0.52466623110E+02  0.10566000000E+00 0. -1.
         23    2    1    0    0    0  0.27668138142E+01  0.26156117786E+02  0.13531554667E+02  0.95421279134E+02  0.90721109911E+02 0.  0.
         13    1    3    3    0    0 -0.42813932929E+02  0.31725284801E+01  0.14119207877E+01  0.42954656025E+02  0.10566000000E+00 0.  1.
         22    1    1    0    0    0 -0.27668138142E+01 -0.26156117786E+02 -0.13531554667E+02  0.29578720866E+02  0.00000000000E+00 0. -1.
</event>
<event>
 5    1  0.8943113E-005  0.9118800E+02  0.7818608E-02  0.1130116E+00
         25   -1    0    0    0    0  0.00000000000E+00  0.00000000000E+00  0.99999998245E-14  0.12500000000E+03  0.12500000000E+03 0.  0.
        -13    1    3    3    0    0  0.12012110658E+02 -0.20064297797E+02  0.32859438500E+02  0.40331386179E+02  0.10566000000E+00 0.  1.
         23    2    1    0    0    0  0.19620832122E+02  0.64006441936E+01 -0.17639526513E+02  0.97850447613E+02  0.94008573562E+02 0.  0.
         13    1    3    3    0    0  0.76087214638E+01  0.26464941990E+02 -0.50498965012E+02  0.57519061434E+02  0.10566000000E+00 0. -1.
         22    1    1    0    0    0 -0.19620832122E+02 -0.64006441936E+01  0.17639526513E+02  0.27149552387E+02  0.00000000000E+00 0. -1.
</event>
<event>
 5    1  0.8943113E-005  0.9118800E+02  0.7818608E-02  0.1130116E+00
         25   -1    0    0    0    0  0.00000000000E+00  0.00000000000E+00  0.99999998245E-14  0.12500000000E+03  0.12500000000E+03 0.  0.
        -13    1    3    3    0    0 -0.41915678128E+01 -0.31794365301E+02  0.22140402066E+02  0.38969981695E+02  0.10566000000E+00 0.  1.
         23    2    1    0    0    0 -0.91609815368E+01  0.21036188143E+02  0.23641559102E+02  0.92055074578E+02  0.85957946954E+02 0.  0.
         13    1    3    3    0    0 -0.49694137240E+01  0.52830553444E+02  0.15011570356E+01  0.53085092883E+02  0.10566000000E+00 0. -1.
         22    1    1    0    0    0  0.91609815368E+01 -0.21036188143E+02 -0.23641559102E+02  0.32944925422E+02  0.00000000000E+00 0. -1.
</event>
<event>
 5    1  0.8943113E-005  0.9118800E+02  0.7818608E-02  0.1130116E+00
         25   -1    0    0    0    0  0.00000000000E+00  0.00000000000E+00  0.99999998245E-14  0.12500000000E+03  0.12500000000E+03 0.  0.
        -13    1    3    3    0    0  0.23311268696E+02 -0.30310858234E+02  0.58263465455E+01  0.38679721473E+02  0.10566000000E+00 0. -1.
         23    2    1    0    0    0 -0.18161163665E+02 -0.13567501814E+01 -0.22025161108E+02  0.96420700523E+02  0.92087866361E+02 0.  0.
         13    1    3    3    0    0 -0.41472432361E+02  0.28954108053E+02 -0.27851507654E+02  0.57740979050E+02  0.10566000000E+00 0.  1.
         22    1    1    0    0    0  0.18161163665E+02  0.13567501814E+01  0.22025161108E+02  0.28579299477E+02  0.00000000000E+00 0.  1.
</event>
<event>
 5    1  0.8943113E-005  0.9118800E+02  0.7818608E-02  0.1130116E+00
         25   -1    0    0    0    0  0.00000000000E+00  0.00000000000E+00  0.99999998245E-14  0.12500000000E+03  0.12500000000E+03 0.  0.
        -13    1    3    3    0    0  0.80869014707E+01  0.22885324926E+01  0.43761804471E+02  0.44561665712E+02  0.10566000000E+00 0.  1.
         23    2    1    0    0    0  0.10039869966E+02 -0.28481395827E+02  0.45238341080E+01  0.94463890683E+02  0.89392240550E+02 0.  0.
         13    1    3    3    0    0  0.19529684953E+01 -0.30769928320E+02 -0.39237970363E+02  0.49902224971E+02  0.10566000000E+00 0. -1.
         22    1    1    0    0    0 -0.10039869966E+02  0.28481395827E+02 -0.45238341080E+01  0.30536109317E+02  0.00000000000E+00 0. -1.
</event>
<event>
 5    1  0.8943113E-005  0.9118800E+02  0.7818608E-02  0.1130116E+00
         25   -1    0    0    0    0  0.00000000000E+00  0.00000000000E+00  0.99999998245E-14  0.12500000000E+03  0.12500000000E+03 0.  0.
        -13    1    3    3    0    0  0.29041793428E+02  0.23499856373E+01  0.37797670071E+02  0.47724451017E+02  0.10566000000E+00 0.  1.
         23    2    1    0    0    0  0.76709581057E+01  0.28411744080E+02  0.42728704455E+01  0.95262343371E+02  0.90501855466E+02 0.  0.
         13    1    3    3    0    0 -0.21370835322E+02  0.26061758443E+02 -0.33524799626E+02  0.47537892354E+02  0.10566000000E+00 0. -1.
         22    1    1    0    0    0 -0.76709581057E+01 -0.28411744080E+02 -0.42728704455E+01  0.29737656629E+02  0.00000000000E+00 0.  1.
</event>
<event>
 5    1  0.8943113E-005  0.9118800E+02  0.7818608E-02  0.1130116E+00
         25   -1    0    0    0    0  0.00000000000E+00  0.00000000000E+00  0.99999998245E-14  0.12500000000E+03  0.12500000000E+03 0.  0.
        -13    1    3    3    0    0  0.50273235973E+02  0.26360179332E+02 -0.21826813979E+02  0.60816759879E+02  0.10566000000E+00 0. -1.
         23    2    1    0    0    0  0.20439614144E+02  0.20084161957E+02 -0.41842854181E+01  0.96040379279E+02  0.91570163370E+02 0.  0.
         13    1    3    3    0    0 -0.29833621829E+02 -0.62760173750E+01  0.17642528561E+02  0.35223619400E+02  0.10566000000E+00 0.  1.
         22    1    1    0    0    0 -0.20439614144E+02 -0.20084161957E+02  0.41842854181E+01  0.28959620721E+02  0.00000000000E+00 0. -1.
</event>
<event>
 5    1  0.8943113E-005  0.9118800E+02  0.7818608E-02  0.1130116E+00
         25   -1    0    0    0    0  0.00000000000E+00  0.00000000000E+00  0.99999998245E-14  0.12500000000E+03  0.12500000000E+03 0.  0.
        -13    1    3    3    0    0  0.31845111538E+02  0.25893652771E+02  0.14257585298E+02  0.43449767379E+02  0.10566000000E+00 0. -1.
         23    2    1    0    0    0  0.20415137891E+02 -0.16696023102E+02 -0.13314083353E+02  0.95456813678E+02  0.90770057946E+02 0.  0.
         13    1    3    3    0    0 -0.11429973647E+02 -0.42589675872E+02 -0.27571668652E+02  0.52007046299E+02  0.10566000000E+00 0.  1.
         22    1    1    0    0    0 -0.20415137891E+02  0.16696023102E+02  0.13314083353E+02  0.29543186322E+02  0.00000000000E+00 0.  1.
</event>
<event>
 5    1  0.8943113E-005  0.9118800E+02  0.7818608E-02  0.1130116E+00
         25   -1    0    0    0    0  0.00000000000E+00  0.00000000000E+00  0.99999998245E-14  0.12500000000E+03  0.12500000000E+03 0.  0.
        -13    1    3    3    0    0 -0.28212906443E+02  0.18573194771E+02 -0.51773384103E+02  0.61817684520E+02  0.10566000000E+00 0. -1.
         23    2    1    0    0    0 -0.10880410655E+02  0.14861868330E+02 -0.24414685958E+02  0.94416747120E+02  0.89326293890E+02 0.  0.
         13    1    3    3    0    0  0.17332495788E+02 -0.37113264411E+01  0.27358698145E+02  0.32599062600E+02  0.10566000000E+00 0.  1.
         22    1    1    0    0    0  0.10880410655E+02 -0.14861868330E+02  0.24414685958E+02  0.30583252880E+02  0.00000000000E+00 0. -1.
</event>
<event>
 5    1  0.8943113E-005  0.9118800E+02  0.7818608E-02  0.1130116E+00
         25   -1    0    0    0    0  0.00000000000E+00  0.00000000000E+00  0.99999998245E-14  0.12500000000E+03  0.12500000000E+03 0.  0.
        -13    1    3    3    0    0 -0.28725176052E+02 -0.44540057274E+00 -0.52519658061E+02  0.59863676530E+02  0.10566000000E+00 0. -1.
         23    2    1    0    0    0 -0.31114207366E+01 -0.88503485872E+01 -0.24591067403E+02  0.98680231667E+02  0.95105509392E+02 0.  0.
         13    1    3    3    0    0  0.25613755315E+02 -0.84049480144E+01  0.27928590658E+02  0.38816555136E+02  0.10566000000E+00 0.  1.
         22    1    1    0    0    0  0.31114207366E+01  0.88503485872E+01  0.24591067403E+02  0.26319768333E+02  0.00000000000E+00 0. -1.
</event>
<event>
 5    1  0.8943113E-005  0.9118800E+02  0.7818608E-02  0.1130116E+00
         25   -1    0    0    0    0  0.00000000000E+00  0.00000000000E+00  0.99999998245E-14  0.12500000000E+03  0.12500000000E+03 0.  0.
        -13    1    3    3    0    0 -0.14382627517E+02  0.27811423032E+02  0.48197640905E+02  0.57474855182E+02  0.10566000000E+00 0. -1.
         23    2    1    0    0    0 -0.18065599697E+02 -0.36307286996E+00  0.24986611308E+02  0.94164493534E+02  0.88972599061E+02 0.  0.
         13    1    3    3    0    0 -0.36829721803E+01 -0.28174495902E+02 -0.23211029597E+02  0.36689638352E+02  0.10566000000E+00 0.  1.
         22    1    1    0    0    0  0.18065599697E+02  0.36307286996E+00 -0.24986611308E+02  0.30835506466E+02  0.00000000000E+00 0. -1.
</event>
<event>
 5    1  0.8943113E-005  0.9118800E+02  0.7818608E-02  0.1130116E+00
         25   -1    0    0    0    0  0.00000000000E+00  0.00000000000E+00  0.99999998245E-14  0.12500000000E+03  0.12500000000E+03 0.  0.
        -13    1    3    3    0    0  0.32802609026E+02 -0.10037567949E+02 -0.35231453895E+02  0.49173472898E+02  0.10566000000E+00 0. -1.
         23    2    1    0    0    0  0.21346471685E+02 -0.22046934193E+02  0.60989767525E+01  0.93712036210E+02  0.88334642425E+02 0.  0.
         13    1    3    3    0    0 -0.11456137341E+02 -0.12009366244E+02  0.41330430647E+02  0.44538563312E+02  0.10566000000E+00 0.  1.
         22    1    1    0    0    0 -0.21346471685E+02  0.22046934193E+02 -0.60989767525E+01  0.31287963790E+02  0.00000000000E+00 0.  1.
</event>
<event>
 5    1  0.8943113E-005  0.9118800E+02  0.7818608E-02  0.1130116E+00
         25   -1    0    0    0    0  0.00000000000E+00  0.00000000000E+00  0.99999998245E-14  0.12500000000E+03  0.12500000000E+03 0.  0.
        -13    1    3    3    0    0  0.43483188952E+02 -0.12510061549E+02  0.67137801710E+01  0.45742489762E+02  0.10566000000E+00 0.  1.
         23    2    1    0    0    0  0.30484634196E+01 -0.21653173439E+02 -0.20251105080E+02  0.95196303817E+02  0.90410596471E+02 0.  0.
         13    1    3    3    0    0 -0.40434725533E+02 -0.91431118899E+01 -0.26964885251E+02  0.49453814055E+02  0.10566000000E+00 0. -1.
         22    1    1    0    0    0 -0.30484634196E+01  0.21653173439E+02  0.20251105080E+02  0.29803696183E+02  0.00000000000E+00 0. -1.
</event>
<event>
 5    1  0.8943113E-005  0.9118800E+02  0.7818608E-02  0.1130116E+00
         25   -1    0    0    0    0  0.00000000000E+00  0.00000000000E+00  0.99999998245E-14  0.12500000000E+03  0.12500000000E+03 0.  0.
        -13    1    3    3    0    0  0.29625402722E+02 -0.41803244204E+02 -0.26023639356E+02  0.57466657131E+02  0.10566000000E+00 0. -1.
         23    2    1    0    0    0 -0.52808449117E+00 -0.28470225422E+02 -0.64692417278E+01  0.95799251768E+02  0.91240412877E+02 0.  0.
         13    1    3    3    0    0 -0.30153487213E+02  0.13333018782E+02  0.19554397629E+02  0.38332594637E+02  0.10566000000E+00 0.  1.
         22    1    1    0    0    0  0.52808449117E+00  0.28470225422E+02  0.64692417278E+01  0.29200748232E+02  0.00000000000E+00 0. -1.
</event>
<event>
 5    1  0.8943113E-005  0.9118800E+02  0.7818608E-02  0.1130116E+00
         25   -1    0    0    0    0  0.00000000000E+00  0.00000000000E+00  0.99999998245E-14  0.12500000000E+03  0.12500000000E+03 0.  0.
        -13    1    3    3    0    0  0.47551979714E+02  0.20408627905E+02 -0.58156455247E+01  0.52072408861E+02  0.10566000000E+00 0.  1.
         23    2    1    0    0    0  0.19441356941E+02  0.24103686806E+01  0.22014397281E+02  0.95531204224E+02  0.90872443876E+02 0.  0.
         13    1    3    3    0    0 -0.28110622773E+02 -0.17998259224E+02  0.27830042805E+02  0.43458795363E+02  0.10566000000E+00 0. -1.
         22    1    1    0    0    0 -0.19441356941E+02 -0.24103686806E+01 -0.22014397281E+02  0.29468795776E+02  0.00000000000E+00 0.  1.
</event>
<event>
 5    1  0.8943113E-005  0.9118800E+02  0.7818608E-02  0.1130116E+00
         25   -1    0    0    0    0  0.00000000000E+00  0.00000000000E+00  0.99999998245E-14  0.12500000000E+03  0.12500000000E+03 0.  0.
        -13    1    3    3    0    0 -0.34625985791E+02 -0.19892597333E+02  0.11345579532E+02  0.41513945363E+02  0.10566000000E+00 0.  1.
         23    2    1    0    0    0 -0.21176550389E+01 -0.14625613686E+02 -0.28312310722E+02  0.93062874629E+02  0.87411204415E+02 0.  0.
         13    1    3    3    0    0  0.32508330752E+02  0.52669836471E+01 -0.39657890254E+02  0.51548929266E+02  0.10566000000E+00 0. -1.
         22    1    1    0    0    0  0.21176550389E+01  0.14625613686E+02  0.28312310722E+02  0.31937125371E+02  0.00000000000E+00 0. -1.
</event>
<event>
 5    1  0.8943113E-005  0.9118800E+02  0.7818608E-02  0.1130116E+00
         25   -1    0    0    0    0  0.00000000000E+00  0.00000000000E+00  0.99999998245E-14  0.12500000000E+03  0.12500000000E+03 0.  0.
        -13    1    3    3    0    0 -0.49049417707E+00 -0.44518129096E+02 -0.21022833851E+02  0.49234897277E+02  0.10566000000E+00 0. -1.
         23    2    1    0    0    0  0.22553464536E+02 -0.41997627377E+00 -0.25955940522E+01  0.10229378387E+03  0.99741896746E+02 0.  0.
         13    1    3    3    0    0  0.23043958713E+02  0.44098152822E+02  0.18427239799E+02  0.53058886589E+02  0.10566000000E+00 0.  1.
         22    1    1    0    0    0 -0.22553464536E+02  0.41997627377E+00  0.25955940522E+01  0.22706216134E+02  0.00000000000E+00 0. -1.
</event>
<event>
 5    1  0.8943113E-005  0.9118800E+02  0.7818608E-02  0.1130116E+00
         25   -1    0    0    0    0  0.00000000000E+00  0.00000000000E+00  0.99999998245E-14  0.12500000000E+03  0.12500000000E+03 0.  0.
        -13    1    3    3    0    0 -0.36054314281E+02  0.22916119373E+02 -0.33113980950E+02  0.54051910270E+02  0.10566000000E+00 0. -1.
         23    2    1    0    0    0 -0.22711669816E+02 -0.11571242812E+02 -0.16819263286E+02  0.94461479677E+02  0.89388869102E+02 0.  0.
         13    1    3    3    0    0  0.13342644466E+02 -0.34487362186E+02  0.16294717664E+02  0.40409569407E+02  0.10566000000E+00 0.  1.
         22    1    1    0    0    0  0.22711669816E+02  0.11571242812E+02  0.16819263286E+02  0.30538520323E+02  0.00000000000E+00 0. -1.
</event>
<event>
 5    1  0.8943113E-005  0.9118800E+02  0.7818608E-02  0.1130116E+00
         25   -1    0    0    0    0  0.00000000000E+00  0.00000000000E+00  0.99999998245E-14  0.12500000000E+03  0.12500000000E+03 0.  0.
        -13    1    3    3    0    0  0.39632675308E+02 -0.13341217344E+02 -0.79368088824E+01  0.42564552524E+02  0.10566000000E+00 0.  1.
         23    2    1    0    0    0  0.13066084903E+01  0.15241448130E+02 -0.26945131527E+02  0.94015341217E+02  0.88762803608E+02 0.  0.
         13    1    3    3    0    0 -0.38326066818E+02  0.28582665475E+02 -0.19008322645E+02  0.51450788693E+02  0.10566000000E+00 0. -1.
         22    1    1    0    0    0 -0.13066084903E+01 -0.15241448130E+02  0.26945131527E+02  0.30984658783E+02  0.00000000000E+00 0.  1.
</event>
<event>
 5    1  0.8943113E-005  0.9118800E+02  0.7818608E-02  0.1130116E+00
         25   -1    0    0    0    0  0.00000000000E+00  0.00000000000E+00  0.99999998245E-14  0.12500000000E+03  0.12500000000E+03 0.  0.
        -13    1    3    3    0    0  0.19681540522E+01 -0.54012070291E+02 -0.14196131611E+02  0.55881291004E+02  0.10566000000E+00 0. -1.
         23    2    1    0    0    0  0.19149209504E+02 -0.17907647115E+02 -0.12636358678E+02  0.95895814554E+02  0.91372608798E+02 0.  0.
         13    1    3    3    0    0  0.17181055452E+02  0.36104423176E+02  0.15597729322E+01  0.40014523550E+02  0.10566000000E+00 0.  1.
         22    1    1    0    0    0 -0.19149209504E+02  0.17907647115E+02  0.12636358678E+02  0.29104185446E+02  0.00000000000E+00 0.  1.
</event>
<event>
 5    1  0.8943113E-005  0.9118800E+02  0.7818608E-02  0.1130116E+00
         25   -1    0    0    0    0  0.00000000000E+00  0.00000000000E+00  0.99999998245E-14  0.12500000000E+03  0.12500000000E+03 0.  0.
        -13    1    3    3    0    0 -0.14727461090E+02  0.44957253077E+02  0.12634699342E+02  0.48966309907E+02  0.10566000000E+00 0. -1.
         23    2    1    0    0    0 -0.13943771189E+02  0.11143798397E+01  0.26566133435E+02  0.94976175408E+02  0.90105737066E+02 0.  0.
         13    1    3    3    0    0  0.78368990133E+00 -0.43842873237E+02  0.13931434093E+02  0.46009865502E+02  0.10566000000E+00 0.  1.
         22    1    1    0    0    0  0.13943771189E+02 -0.11143798397E+01 -0.26566133435E+02  0.30023824592E+02  0.00000000000E+00 0. -1.
</event>
<event>
 5    1  0.8943113E-005  0.9118800E+02  0.7818608E-02  0.1130116E+00
         25   -1    0    0    0    0  0.00000000000E+00  0.00000000000E+00  0.99999998245E-14  0.12500000000E+03  0.12500000000E+03 0.  0.
        -13    1    3    3    0    0  0.34671548400E+02  0.45474359865E+02 -0.88362200809E+01  0.57862972814E+02  0.10566000000E+00 0.  1.
         23    2    1    0    0    0  0.23100797512E+02  0.10116710373E+02 -0.15124298338E+02  0.95593553858E+02  0.90958168762E+02 0.  0.
         13    1    3    3    0    0 -0.11570750888E+02 -0.35357649492E+02 -0.62880782576E+01  0.37730581044E+02  0.10566000000E+00 0. -1.
         22    1    1    0    0    0 -0.23100797512E+02 -0.10116710373E+02  0.15124298338E+02  0.29406446142E+02  0.00000000000E+00 0.  1.
</event>
<event>
 5    1  0.8943113E-005  0.9118800E+02  0.7818608E-02  0.1130116E+00
         25   -1    0    0    0    0  0.00000000000E+00  0.00000000000E+00  0.99999998245E-14  0.12500000000E+03  0.12500000000E+03 0.  0.
        -13    1    3    3    0    0  0.65653996657E+01  0.59307983432E+01 -0.34996731509E+02  0.36097939306E+02  0.10566000000E+00 0.  1.
         23    2    1    0    0    0 -0.12116154715E+02  0.11877781899E+02  0.22485241509E+02  0.96831418324E+02  0.92643696930E+02 0.  0.
         13    1    3    3    0    0 -0.18681554381E+02  0.59469835557E+01  0.57481973018E+02  0.60733479018E+02  0.10566000000E+00 0. -1.
         22    1    1    0    0    0  0.12116154715E+02 -0.11877781899E+02 -0.22485241509E+02  0.28168581676E+02  0.00000000000E+00 0. -1.
</event>
<event>
 5    1  0.8943113E-005  0.9118800E+02  0.7818608E-02  0.1130116E+00
         25   -1    0    0    0    0  0.00000000000E+00  0.00000000000E+00  0.99999998245E-14  0.12500000000E+03  0.12500000000E+03 0.  0.
        -13    1    3    3    0    0  0.54243693538E+02  0.98509047171E+01 -0.13709286594E+02  0.56809984293E+02  0.10566000000E+00 0.  1.
         23    2    1    0    0    0  0.47922793617E+02 -0.60714571491E-01  0.27060997179E+01  0.77000824903E+02  0.60209685482E+02 0.  0.
         13    1    3    3    0    0 -0.63208999219E+01 -0.99116192886E+01  0.16415386312E+02  0.20190840610E+02  0.10566000000E+00 0. -1.
         22    1    1    0    0    0 -0.47922793617E+02  0.60714571491E-01 -0.27060997179E+01  0.47999175097E+02  0.00000000000E+00 0.  1.
</event>
<event>
 5    1  0.8943113E-005  0.9118800E+02  0.7818608E-02  0.1130116E+00
         25   -1    0    0    0    0  0.00000000000E+00  0.00000000000E+00  0.99999998245E-14  0.12500000000E+03  0.12500000000E+03 0.  0.
        -13    1    3    3    0    0 -0.36202897895E+02 -0.33409799875E+02  0.88586505646E+01  0.50053485369E+02  0.10566000000E+00 0.  1.
         23    2    1    0    0    0  0.85550014868E+01 -0.26744274908E+02 -0.27960824651E+01  0.96781878731E+02  0.92576831242E+02 0.  0.
         13    1    3    3    0    0  0.44757899382E+02  0.66655249666E+01 -0.11654733030E+02  0.46728393362E+02  0.10566000000E+00 0. -1.
         22    1    1    0    0    0 -0.85550014868E+01  0.26744274908E+02  0.27960824651E+01  0.28218121269E+02  0.00000000000E+00 0.  1.
</event>
<event>
 5    1  0.8943113E-005  0.9118800E+02  0.7818608E-02  0.1130116E+00
         25   -1    0    0    0    0  0.00000000000E+00  0.00000000000E+00  0.99999998245E-14  0.12500000000E+03  0.12500000000E+03 0.  0.
        -13    1    3    3    0    0 -0.14828177198E+02  0.46744379988E+01 -0.29644416302E+02  0.33474285527E+02  0.10566000000E+00 0. -1.
         23    2    1    0    0    0  0.10362377567E+02 -0.15877813679E+02  0.22903898661E+02  0.95266644826E+02  0.90507796385E+02 0.  0.
         13    1    3    3    0    0  0.25190554765E+02 -0.20552251678E+02  0.52548314962E+02  0.61792359299E+02  0.10566000000E+00 0.  1.
         22    1    1    0    0    0 -0.10362377567E+02  0.15877813679E+02 -0.22903898661E+02  0.29733355174E+02  0.00000000000E+00 0.  1.
</event>
<event>
 5    1  0.8943113E-005  0.9118800E+02  0.7818608E-02  0.1130116E+00
         25   -1    0    0    0    0  0.00000000000E+00  0.00000000000E+00  0.99999998245E-14  0.12500000000E+03  0.12500000000E+03 0.  0.
        -13    1    3    3    0    0  0.33982906509E+02 -0.18865953741E+02 -0.22355949684E+02  0.44839288528E+02  0.10566000000E+00 0.  1.
         23    2    1    0    0    0 -0.59682914603E+01  0.19270610490E+02 -0.13372965107E+02  0.10079642325E+03  0.97847359766E+02 0.  0.
         13    1    3    3    0    0 -0.39951197970E+02  0.38136564232E+02  0.89829845773E+01  0.55957134724E+02  0.10566000000E+00 0. -1.
         22    1    1    0    0    0  0.59682914603E+01 -0.19270610490E+02  0.13372965107E+02  0.24203576748E+02  0.00000000000E+00 0. -1.
</event>
<event>
 5    1  0.8943113E-005  0.9118800E+02  0.7818608E-02  0.1130116E+00
         25   -1    0    0    0    0  0.00000000000E+00  0.00000000000E+00  0.99999998245E-14  0.12500000000E+03  0.12500000000E+03 0.  0.
        -13    1    3    3    0    0  0.38604530655E+02  0.27076003024E+01  0.18310166894E+02  0.42812547953E+02  0.10566000000E+00 0.  1.
         23    2    1    0    0    0 -0.66357545828E+01  0.27446125556E+02  0.10024263366E+02  0.95036540538E+02  0.90189440260E+02 0.  0.
         13    1    3    3    0    0 -0.45240285238E+02  0.24738525254E+02 -0.82859035283E+01  0.52223992585E+02  0.10566000000E+00 0. -1.
         22    1    1    0    0    0  0.66357545828E+01 -0.27446125556E+02 -0.10024263366E+02  0.29963459462E+02  0.00000000000E+00 0.  1.
</event>
<event>
 5    1  0.8943113E-005  0.9118800E+02  0.7818608E-02  0.1130116E+00
         25   -1    0    0    0    0  0.00000000000E+00  0.00000000000E+00  0.99999998245E-14  0.12500000000E+03  0.12500000000E+03 0.  0.
        -13    1    3    3    0    0 -0.34569907518E+02  0.10365498958E+02 -0.23279182545E+02  0.42947102096E+02  0.10566000000E+00 0.  1.
         23    2    1    0    0    0 -0.23005745802E+02  0.13575351541E+02  0.22376372206E+02  0.90153815956E+02  0.83147182688E+02 0.  0.
         13    1    3    3    0    0  0.11564161716E+02  0.32098525823E+01  0.45655554750E+02  0.47206713860E+02  0.10566000000E+00 0. -1.
         22    1    1    0    0    0  0.23005745802E+02 -0.13575351541E+02 -0.22376372206E+02  0.34846184044E+02  0.00000000000E+00 0.  1.
</event>
<event>
 5    1  0.8943113E-005  0.9118800E+02  0.7818608E-02  0.1130116E+00
         25   -1    0    0    0    0  0.00000000000E+00  0.00000000000E+00  0.99999998245E-14  0.12500000000E+03  0.12500000000E+03 0.  0.
        -13    1    3    3    0    0  0.10506606812E+02 -0.34321222568E+02  0.90009749004E+01  0.37004916139E+02  0.10566000000E+00 0.  1.
         23    2    1    0    0    0 -0.23704347918E+02  0.13619397762E+02  0.99472416778E+01  0.95908218985E+02  0.91389576792E+02 0.  0.
         13    1    3    3    0    0 -0.34210954731E+02  0.47940620330E+02  0.94626677739E+00  0.58903302846E+02  0.10566000000E+00 0. -1.
         22    1    1    0    0    0  0.23704347918E+02 -0.13619397762E+02 -0.99472416778E+01  0.29091781015E+02  0.00000000000E+00 0. -1.
</event>
<event>
 5    1  0.8943113E-005  0.9118800E+02  0.7818608E-02  0.1130116E+00
         25   -1    0    0    0    0  0.00000000000E+00  0.00000000000E+00  0.99999998245E-14  0.12500000000E+03  0.12500000000E+03 0.  0.
        -13    1    3    3    0    0 -0.14521453039E+02 -0.47276665105E+02 -0.36129702450E+01  0.49588510563E+02  0.10566000000E+00 0. -1.
         23    2    1    0    0    0 -0.29120195391E+02 -0.41931400711E+01  0.24361230175E+01  0.95478772068E+02  0.90800291943E+02 0.  0.
         13    1    3    3    0    0 -0.14598742352E+02  0.43083525034E+02  0.60490932626E+01  0.45890261505E+02  0.10566000000E+00 0.  1.
         22    1    1    0    0    0  0.29120195391E+02  0.41931400711E+01 -0.24361230175E+01  0.29521227932E+02  0.00000000000E+00 0. -1.
</event>
<event>
 5    1  0.8943113E-005  0.9118800E+02  0.7818608E-02  0.1130116E+00
         25   -1    0    0    0    0  0.00000000000E+00  0.00000000000E+00  0.99999998245E-14  0.12500000000E+03  0.12500000000E+03 0.  0.
        -13    1    3    3    0    0  0.14564095644E+02 -0.52900877251E+02 -0.25854626956E+02  0.60655491053E+02  0.10566000000E+00 0. -1.
         23    2    1    0    0    0  0.15874759701E+02 -0.19790307781E+02 -0.15011058624E+02  0.95521259208E+02  0.90858762935E+02 0.  0.
         13    1    3    3    0    0  0.13106640571E+01  0.33110569469E+02  0.10843568332E+02  0.34865768155E+02  0.10566000000E+00 0.  1.
         22    1    1    0    0    0 -0.15874759701E+02  0.19790307781E+02  0.15011058624E+02  0.29478740792E+02  0.00000000000E+00 0. -1.
</event>
<event>
 5    1  0.8943113E-005  0.9118800E+02  0.7818608E-02  0.1130116E+00
         25   -1    0    0    0    0  0.00000000000E+00  0.00000000000E+00  0.99999998245E-14  0.12500000000E+03  0.12500000000E+03 0.  0.
        -13    1    3    3    0    0 -0.33222515605E+02  0.38243997310E+02  0.33966218095E+02  0.60992245483E+02  0.10566000000E+00 0.  1.
         23    2    1    0    0    0 -0.22610275561E+02  0.18472515277E+02  0.92557220922E+01  0.94371144764E+02  0.89262456784E+02 0.  0.
         13    1    3    3    0    0  0.10612240044E+02 -0.19771482033E+02 -0.24710496003E+02  0.33378899282E+02  0.10566000000E+00 0. -1.
         22    1    1    0    0    0  0.22610275561E+02 -0.18472515277E+02 -0.92557220922E+01  0.30628855236E+02  0.00000000000E+00 0.  1.
</event>
<event>
 5    1  0.8943113E-005  0.9118800E+02  0.7818608E-02  0.1130116E+00
         25   -1    0    0    0    0  0.00000000000E+00  0.00000000000E+00  0.99999998245E-14  0.12500000000E+03  0.12500000000E+03 0.  0.
        -13    1    3    3    0    0  0.40779380074E+02 -0.22349270970E+02  0.30066612001E+02  0.55375627070E+02  0.10566000000E+00 0. -1.
         23    2    1    0    0    0  0.33366479363E+01 -0.10402969602E+02  0.28239902898E+02  0.94720516655E+02  0.89750371385E+02 0.  0.
         13    1    3    3    0    0 -0.37442732137E+02  0.11946301368E+02 -0.18267091036E+01  0.39344889585E+02  0.10566000000E+00 0.  1.
         22    1    1    0    0    0 -0.33366479363E+01  0.10402969602E+02 -0.28239902898E+02  0.30279483345E+02  0.00000000000E+00 0. -1.
</event>
<event>
 5    1  0.8943113E-005  0.9118800E+02  0.7818608E-02  0.1130116E+00
         25   -1    0    0    0    0  0.00000000000E+00  0.00000000000E+00  0.99999998245E-14  0.12500000000E+03  0.12500000000E+03 0.  0.
        -13    1    3    3    0    0 -0.18698052402E+02  0.36884343978E+02  0.62013726789E+01  0.41815549517E+02  0.10566000000E+00 0. -1.
         23    2    1    0    0    0  0.19545421730E+02  0.22569349020E+01  0.21723292382E+02  0.95690979244E+02  0.91091957993E+02 0.  0.
         13    1    3    3    0    0  0.38243474132E+02 -0.34627409076E+02  0.15521919703E+02  0.53875429727E+02  0.10566000000E+00 0.  1.
         22    1    1    0    0    0 -0.19545421730E+02 -0.22569349020E+01 -0.21723292382E+02  0.29309020756E+02  0.00000000000E+00 0.  1.
</event>
<event>
 5    1  0.8943113E-005  0.9118800E+02  0.7818608E-02  0.1130116E+00
         25   -1    0    0    0    0  0.00000000000E+00  0.00000000000E+00  0.99999998245E-14  0.12500000000E+03  0.12500000000E+03 0.  0.
        -13    1    3    3    0    0 -0.34768726718E+02 -0.23691653365E+02  0.87305154479E+01  0.42969662097E+02  0.10566000000E+00 0. -1.
         23    2    1    0    0    0  0.11868760464E+02  0.14296371968E+02 -0.70008589772E+01  0.10514387367E+03  0.10325196568E+03 0.  0.
         13    1    3    3    0    0  0.46637487182E+02  0.37988025333E+02 -0.15731374425E+02  0.62174211573E+02  0.10566000000E+00 0.  1.
         22    1    1    0    0    0 -0.11868760464E+02 -0.14296371968E+02  0.70008589772E+01  0.19856126330E+02  0.00000000000E+00 0.  1.
</event>
<event>
 5    1  0.8943113E-005  0.9118800E+02  0.7818608E-02  0.1130116E+00
         25   -1    0    0    0    0  0.00000000000E+00  0.00000000000E+00  0.99999998245E-14  0.12500000000E+03  0.12500000000E+03 0.  0.
        -13    1    3    3    0    0  0.37958208587E+02 -0.19941493803E+02 -0.11756395838E+01  0.42893846490E+02  0.10566000000E+00 0. -1.
         23    2    1    0    0    0 -0.12117745638E+02 -0.18078237882E+02 -0.19029436673E+02  0.96090107154E+02  0.91638020431E+02 0.  0.
         13    1    3    3    0    0 -0.50075954225E+02  0.18632559205E+01 -0.17853797089E+02  0.53196260664E+02  0.10566000000E+00 0.  1.
         22    1    1    0    0    0  0.12117745638E+02  0.18078237882E+02  0.19029436673E+02  0.28909892846E+02  0.00000000000E+00 0.  1.
</event>
<event>
 5    1  0.8943113E-005  0.9118800E+02  0.7818608E-02  0.1130116E+00
         25   -1    0    0    0    0  0.00000000000E+00  0.00000000000E+00  0.99999998245E-14  0.12500000000E+03  0.12500000000E+03 0.  0.
        -13    1    3    3    0    0 -0.28344390105E+02  0.31221077372E+02  0.37124585398E+02  0.56181902137E+02  0.10566000000E+00 0.  1.
         23    2    1    0    0    0 -0.13930550523E+02  0.25408566723E+02  0.44349184547E+00  0.96019796657E+02  0.91542062268E+02 0.  0.
         13    1    3    3    0    0  0.14413839582E+02 -0.58125106487E+01 -0.36681093553E+02  0.39837894520E+02  0.10566000000E+00 0. -1.
         22    1    1    0    0    0  0.13930550523E+02 -0.25408566723E+02 -0.44349184547E+00  0.28980203343E+02  0.00000000000E+00 0.  1.
</event>
<event>
 5    1  0.8943113E-005  0.9118800E+02  0.7818608E-02  0.1130116E+00
         25   -1    0    0    0    0  0.00000000000E+00  0.00000000000E+00  0.99999998245E-14  0.12500000000E+03  0.12500000000E+03 0.  0.
        -13    1    3    3    0    0  0.27981827661E+02  0.23041363869E+02 -0.25442767943E+02  0.44285807352E+02  0.10566000000E+00 0.  1.
         23    2    1    0    0    0 -0.19599514397E+02  0.32896229698E+01 -0.21142704667E+02  0.95983167911E+02  0.91492032318E+02 0.  0.
         13    1    3    3    0    0 -0.47581342057E+02 -0.19751740899E+02  0.43000632759E+01  0.51697360559E+02  0.10566000000E+00 0. -1.
         22    1    1    0    0    0  0.19599514397E+02 -0.32896229698E+01  0.21142704667E+02  0.29016832089E+02  0.00000000000E+00 0. -1.
</event>
<event>
 5    1  0.8943113E-005  0.9118800E+02  0.7818608E-02  0.1130116E+00
         25   -1    0    0    0    0  0.00000000000E+00  0.00000000000E+00  0.99999998245E-14  0.12500000000E+03  0.12500000000E+03 0.  0.
        -13    1    3    3    0    0 -0.29384877923E+02 -0.42829051923E+02 -0.43337438165E+01  0.52120928989E+02  0.10566000000E+00 0.  1.
         23    2    1    0    0    0 -0.28422794340E+02  0.14464890018E+01 -0.20870211400E+01  0.96464001230E+02  0.92146623962E+02 0.  0.
         13    1    3    3    0    0  0.96208358231E+00  0.44275540925E+02  0.22467226765E+01  0.44343072242E+02  0.10566000000E+00 0. -1.
         22    1    1    0    0    0  0.28422794340E+02 -0.14464890018E+01  0.20870211400E+01  0.28535998770E+02  0.00000000000E+00 0. -1.
</event>
<event>
 5    1  0.8943113E-005  0.9118800E+02  0.7818608E-02  0.1130116E+00
         25   -1    0    0    0    0  0.00000000000E+00  0.00000000000E+00  0.99999998245E-14  0.12500000000E+03  0.12500000000E+03 0.  0.
        -13    1    3    3    0    0  0.32083861305E+02 -0.40371322530E+01 -0.49066405185E+02  0.58763899418E+02  0.10566000000E+00 0.  1.
         23    2    1    0    0    0  0.12042828611E+02  0.13263077939E+02 -0.22041126996E+02  0.96596650962E+02  0.92326392437E+02 0.  0.
         13    1    3    3    0    0 -0.20041032694E+02  0.17300210192E+02  0.27025278189E+02  0.37832751543E+02  0.10566000000E+00 0. -1.
         22    1    1    0    0    0 -0.12042828611E+02 -0.13263077939E+02  0.22041126996E+02  0.28403349038E+02  0.00000000000E+00 0.  1.
</event>
<event>
 5    1  0.8943113E-005  0.9118800E+02  0.7818608E-02  0.1130116E+00
         25   -1    0    0    0    0  0.00000000000E+00  0.00000000000E+00  0.99999998245E-14  0.12500000000E+03  0.12500000000E+03 0.  0.
        -13    1    3    3    0    0  0.16597846490E+02 -0.69941792734E+01  0.36503981311E+02  0.40705759635E+02  0.10566000000E+00 0.  1.
         23    2    1    0    0    0  0.23021403483E+02  0.80237884999E+01 -0.16097698688E+02  0.95785241688E+02  0.91221216951E+02 0.  0.
         13    1    3    3    0    0  0.64235569924E+01  0.15017967773E+02 -0.52601679999E+02  0.55079482053E+02  0.10566000000E+00 0. -1.
         22    1    1    0    0    0 -0.23021403483E+02 -0.80237884999E+01  0.16097698688E+02  0.29214758312E+02  0.00000000000E+00 0. -1.
</event>
<event>
 5    1  0.8943113E-005  0.9118800E+02  0.7818608E-02  0.1130116E+00
         25   -1    0    0    0    0  0.00000000000E+00  0.00000000000E+00  0.99999998245E-14  0.12500000000E+03  0.12500000000E+03 0.  0.
        -13    1    3    3    0    0 -0.39472424639E+01  0.53511744887E+01 -0.45273215885E+02  0.45759054099E+02  0.10566000000E+00 0.  1.
         23    2    1    0    0    0  0.26074470515E+02 -0.99466139955E+01 -0.80774484924E+01  0.95947318252E+02  0.91443039992E+02 0.  0.
         13    1    3    3    0    0  0.30021712979E+02 -0.15297788484E+02  0.37195767392E+02  0.50188264153E+02  0.10566000000E+00 0. -1.
         22    1    1    0    0    0 -0.26074470515E+02  0.99466139955E+01  0.80774484924E+01  0.29052681748E+02  0.00000000000E+00 0.  1.
</event>
<event>
 5    1  0.8943113E-005  0.9118800E+02  0.7818608E-02  0.1130116E+00
         25   -1    0    0    0    0  0.00000000000E+00  0.00000000000E+00  0.99999998245E-14  0.12500000000E+03  0.12500000000E+03 0.  0.
        -13    1    3    3    0    0  0.45392060694E+02  0.38170407493E+02 -0.48989225734E+01  0.59509913364E+02  0.10566000000E+00 0.  1.
         23    2    1    0    0    0  0.21575082323E+02  0.12784376482E+02  0.10798903816E+02  0.97695407293E+02  0.93802195195E+02 0.  0.
         13    1    3    3    0    0 -0.23816978371E+02 -0.25386031011E+02  0.15697826389E+02  0.38185493929E+02  0.10566000000E+00 0. -1.
         22    1    1    0    0    0 -0.21575082323E+02 -0.12784376482E+02 -0.10798903816E+02  0.27304592707E+02  0.00000000000E+00 0.  1.
</event>
<event>
 5    1  0.8943113E-005  0.9118800E+02  0.7818608E-02  0.1130116E+00
         25   -1    0    0    0    0  0.00000000000E+00  0.00000000000E+00  0.99999998245E-14  0.12500000000E+03  0.12500000000E+03 0.  0.
        -13    1    3    3    0    0  0.53225442256E+02  0.31023669946E+02  0.91859147293E+01  0.62288104753E+02  0.10566000000E+00 0.  1.
         23    2    1    0    0    0  0.25739450247E+02  0.16257181471E+02  0.10259434612E+01  0.94539077355E+02  0.89497314701E+02 0.  0.
         13    1    3    3    0    0 -0.27485992009E+02 -0.14766488476E+02 -0.81599712681E+01  0.32250972602E+02  0.10566000000E+00 0. -1.
         22    1    1    0    0    0 -0.25739450247E+02 -0.16257181471E+02 -0.10259434612E+01  0.30460922645E+02  0.00000000000E+00 0.  1.
</event>
<event>
 5    1  0.8943113E-005  0.9118800E+02  0.7818608E-02  0.1130116E+00
         25   -1    0    0    0    0  0.00000000000E+00  0.00000000000E+00  0.99999998245E-14  0.12500000000E+03  0.12500000000E+03 0.  0.
        -13    1    3    3    0    0  0.13719778789E+02  0.24401785912E+02  0.36064470708E+02  0.45654536436E+02  0.10566000000E+00 0.  1.
         23    2    1    0    0    0  0.21929817675E+02 -0.17034619429E+02  0.90595854425E+01  0.95790904657E+02  0.91228976561E+02 0.  0.
         13    1    3    3    0    0  0.82100388857E+01 -0.41436405341E+02 -0.27004885266E+02  0.50136368221E+02  0.10566000000E+00 0. -1.
         22    1    1    0    0    0 -0.21929817675E+02  0.17034619429E+02 -0.90595854425E+01  0.29209095343E+02  0.00000000000E+00 0. -1.
</event>
<event>
 5    1  0.8943113E-005  0.9118800E+02  0.7818608E-02  0.1130116E+00
         25   -1    0    0    0    0  0.00000000000E+00  0.00000000000E+00  0.99999998245E-14  0.12500000000E+03  0.12500000000E+03 0.  0.
        -13    1    3    3    0    0 -0.17040414644E+02  0.10804046332E+02 -0.34860720586E+02  0.40278830074E+02  0.10566000000E+00 0.  1.
         23    2    1    0    0    0  0.18199413014E+02 -0.21988029470E+02 -0.82152499080E+01  0.95298444399E+02  0.90551704014E+02 0.  0.
         13    1    3    3    0    0  0.35239827658E+02 -0.32792075803E+02  0.26645470678E+02  0.55019614325E+02  0.10566000000E+00 0. -1.
         22    1    1    0    0    0 -0.18199413014E+02  0.21988029470E+02  0.82152499080E+01  0.29701555601E+02  0.00000000000E+00 0. -1.
</event>
<event>
 5    1  0.8943113E-005  0.9118800E+02  0.7818608E-02  0.1130116E+00
         25   -1    0    0    0    0  0.00000000000E+00  0.00000000000E+00  0.99999998245E-14  0.12500000000E+03  0.12500000000E+03 0.  0.
        -13    1    3    3    0    0 -0.52827491714E+02 -0.86969859365E+01  0.24991245498E+02  0.59084303845E+02  0.10566000000E+00 0. -1.
         23    2    1    0    0    0 -0.29170512508E+02  0.56174225882E+01  0.16872267733E+01  0.95245656271E+02  0.90478804523E+02 0.  0.
         13    1    3    3    0    0  0.23656979206E+02  0.14314408525E+02 -0.23304018725E+02  0.36161352427E+02  0.10566000000E+00 0.  1.
         22    1    1    0    0    0  0.29170512508E+02 -0.56174225882E+01 -0.16872267733E+01  0.29754343729E+02  0.00000000000E+00 0. -1.
</event>
<event>
 5    1  0.8943113E-005  0.9118800E+02  0.7818608E-02  0.1130116E+00
         25   -1    0    0    0    0  0.00000000000E+00  0.00000000000E+00  0.99999998245E-14  0.12500000000E+03  0.12500000000E+03 0.  0.
        -13    1    3    3    0    0 -0.16540732997E+02  0.67529025581E+01  0.53115310184E+02  0.56039672385E+02  0.10566000000E+00 0.  1.
         23    2    1    0    0    0 -0.12337575924E+02  0.20139958720E+02  0.14120286510E+02  0.97482438188E+02  0.93517963767E+02 0.  0.
         13    1    3    3    0    0  0.42031570723E+01  0.13387056162E+02 -0.38995023674E+02  0.41442765803E+02  0.10566000000E+00 0. -1.
         22    1    1    0    0    0  0.12337575924E+02 -0.20139958720E+02 -0.14120286510E+02  0.27517561812E+02  0.00000000000E+00 0.  1.
</event>
<event>
 5    1  0.8943113E-005  0.9118800E+02  0.7818608E-02  0.1130116E+00
         25   -1    0    0    0    0  0.00000000000E+00  0.00000000000E+00  0.99999998245E-14  0.12500000000E+03  0.12500000000E+03 0.  0.
        -13    1    3    3    0    0 -0.38187957612E+02  0.12868336957E+02 -0.95412956833E+01  0.41412095937E+02  0.10566000000E+00 0.  1.
         23    2    1    0    0    0  0.76130658279E+01  0.17547319886E+02  0.20948805520E+02  0.96632418870E+02  0.92374805642E+02 0.  0.
         13    1    3    3    0    0  0.45801023440E+02  0.46789829291E+01  0.30490101203E+02  0.55220322932E+02  0.10566000000E+00 0. -1.
         22    1    1    0    0    0 -0.76130658279E+01 -0.17547319886E+02 -0.20948805520E+02  0.28367581130E+02  0.00000000000E+00 0. -1.
</event>
<event>
 5    1  0.8943113E-005  0.9118800E+02  0.7818608E-02  0.1130116E+00
         25   -1    0    0    0    0  0.00000000000E+00  0.00000000000E+00  0.99999998245E-14  0.12500000000E+03  0.12500000000E+03 0.  0.
        -13    1    3    3    0    0  0.19917827731E+02  0.56852843651E+02 -0.14441454602E+02  0.61947820525E+02  0.10566000000E+00 0. -1.
         23    2    1    0    0    0  0.37923879378E+01  0.28410107797E+02 -0.59858922689E+01  0.95719505851E+02  0.91131094928E+02 0.  0.
         13    1    3    3    0    0 -0.16125439793E+02 -0.28442735854E+02  0.84555623336E+01  0.33771685326E+02  0.10566000000E+00 0.  1.
         22    1    1    0    0    0 -0.37923879378E+01 -0.28410107797E+02  0.59858922689E+01  0.29280494149E+02  0.00000000000E+00 0. -1.
</event>
<event>
 5    1  0.8943113E-005  0.9118800E+02  0.7818608E-02  0.1130116E+00
         25   -1    0    0    0    0  0.00000000000E+00  0.00000000000E+00  0.99999998245E-14  0.12500000000E+03  0.12500000000E+03 0.  0.
        -13    1    3    3    0    0 -0.18560465054E+02 -0.30768577970E+02  0.19374918645E+02  0.40823949954E+02  0.10566000000E+00 0. -1.
         23    2    1    0    0    0  0.22043552748E+02 -0.14565676616E+02 -0.13316281901E+02  0.95412831891E+02  0.90709470138E+02 0.  0.
         13    1    3    3    0    0  0.40604017802E+02  0.16202901354E+02 -0.32691200546E+02  0.54588881937E+02  0.10566000000E+00 0.  1.
         22    1    1    0    0    0 -0.22043552748E+02  0.14565676616E+02  0.13316281901E+02  0.29587168109E+02  0.00000000000E+00 0. -1.
</event>
<event>
 5    1  0.8943113E-005  0.9118800E+02  0.7818608E-02  0.1130116E+00
         25   -1    0    0    0    0  0.00000000000E+00  0.00000000000E+00  0.99999998245E-14  0.12500000000E+03  0.12500000000E+03 0.  0.
        -13    1    3    3    0    0 -0.44158966628E+02 -0.21829907158E+02  0.29819236591E+02  0.57582612089E+02  0.10566000000E+00 0.  1.
         23    2    1    0    0    0 -0.75306126604E+01 -0.19309922567E+02  0.21314168679E+02  0.95269930658E+02  0.90512334323E+02 0.  0.
         13    1    3    3    0    0  0.36628353967E+02  0.25199845912E+01 -0.85050679117E+01  0.37687318569E+02  0.10566000000E+00 0. -1.
         22    1    1    0    0    0  0.75306126604E+01  0.19309922567E+02 -0.21314168679E+02  0.29730069342E+02  0.00000000000E+00 0.  1.
</event>
<event>
 5    1  0.8943113E-005  0.9118800E+02  0.7818608E-02  0.1130116E+00
         25   -1    0    0    0    0  0.00000000000E+00  0.00000000000E+00  0.99999998245E-14  0.12500000000E+03  0.12500000000E+03 0.  0.
        -13    1    3    3    0    0  0.81079201045E+01  0.52441861342E+02  0.11319251756E+02  0.54258859312E+02  0.10566000000E+00 0.  1.
         23    2    1    0    0    0  0.46680266448E+01  0.98090904613E+01  0.23820136792E+02  0.98819708840E+02  0.95288652053E+02 0.  0.
         13    1    3    3    0    0 -0.34398934597E+01 -0.42632770881E+02  0.12500885036E+02  0.44560849529E+02  0.10566000000E+00 0. -1.
         22    1    1    0    0    0 -0.46680266448E+01 -0.98090904613E+01 -0.23820136792E+02  0.26180291160E+02  0.00000000000E+00 0.  1.
</event>
<event>
 5    1  0.8943113E-005  0.9118800E+02  0.7818608E-02  0.1130116E+00
         25   -1    0    0    0    0  0.00000000000E+00  0.00000000000E+00  0.99999998245E-14  0.12500000000E+03  0.12500000000E+03 0.  0.
        -13    1    3    3    0    0 -0.24520359004E+02 -0.13457321313E+02  0.49974886540E+02  0.57269956795E+02  0.10566000000E+00 0.  1.
         23    2    1    0    0    0 -0.23284636214E+02  0.59176067508E+01  0.16884096720E+02  0.95635649585E+02  0.91016000770E+02 0.  0.
         13    1    3    3    0    0  0.12357227909E+01  0.19374928064E+02 -0.33090789819E+02  0.38365692789E+02  0.10566000000E+00 0. -1.
         22    1    1    0    0    0  0.23284636214E+02 -0.59176067508E+01 -0.16884096720E+02  0.29364350415E+02  0.00000000000E+00 0.  1.
</event>
<event>
 5    1  0.8943113E-005  0.9118800E+02  0.7818608E-02  0.1130116E+00
         25   -1    0    0    0    0  0.00000000000E+00  0.00000000000E+00  0.99999998245E-14  0.12500000000E+03  0.12500000000E+03 0.  0.
        -13    1    3    3    0    0  0.26736511013E+02  0.41822118536E+02  0.65203307188E+01  0.50064523334E+02  0.10566000000E+00 0.  1.
         23    2    1    0    0    0 -0.13373660684E+02  0.27564494876E+02 -0.44922942970E+01  0.94034908592E+02  0.88790355039E+02 0.  0.
         13    1    3    3    0    0 -0.40110171697E+02 -0.14257623660E+02 -0.11012625016E+02  0.43970385258E+02  0.10566000000E+00 0. -1.
         22    1    1    0    0    0  0.13373660684E+02 -0.27564494876E+02  0.44922942970E+01  0.30965091408E+02  0.00000000000E+00 0.  1.
</event>
<event>
 5    1  0.8943113E-005  0.9118800E+02  0.7818608E-02  0.1130116E+00
         25   -1    0    0    0    0  0.00000000000E+00  0.00000000000E+00  0.99999998245E-14  0.12500000000E+03  0.12500000000E+03 0.  0.
        -13    1    3    3    0    0 -0.60216697535E+02  0.63658496445E+01  0.33046694064E+01  0.60642449717E+02  0.10566000000E+00 0. -1.
         23    2    1    0    0    0 -0.37321706032E+02  0.81186970360E+01  0.11640636626E+02  0.85070970413E+02  0.75118190895E+02 0.  0.
         13    1    3    3    0    0  0.22894991503E+02  0.17528473915E+01  0.83359672197E+01  0.24428520697E+02  0.10566000000E+00 0.  1.
         22    1    1    0    0    0  0.37321706032E+02 -0.81186970360E+01 -0.11640636626E+02  0.39929029587E+02  0.00000000000E+00 0. -1.
</event>
<event>
 5    1  0.8943113E-005  0.9118800E+02  0.7818608E-02  0.1130116E+00
         25   -1    0    0    0    0  0.00000000000E+00  0.00000000000E+00  0.99999998245E-14  0.12500000000E+03  0.12500000000E+03 0.  0.
        -13    1    3    3    0    0  0.33096219922E+02 -0.13377631482E+02 -0.47898338459E+01  0.36017696615E+02  0.10566000000E+00 0.  1.
         23    2    1    0    0    0 -0.21017586070E+02 -0.20477476835E+02  0.12261992889E+02  0.93197131398E+02  0.87602984249E+02 0.  0.
         13    1    3    3    0    0 -0.54113805992E+02 -0.70998453526E+01  0.17051826734E+02  0.57179434782E+02  0.10566000000E+00 0. -1.
         22    1    1    0    0    0  0.21017586070E+02  0.20477476835E+02 -0.12261992889E+02  0.31802868602E+02  0.00000000000E+00 0. -1.
</event>
<event>
 5    1  0.8943113E-005  0.9118800E+02  0.7818608E-02  0.1130116E+00
         25   -1    0    0    0    0  0.00000000000E+00  0.00000000000E+00  0.99999998245E-14  0.12500000000E+03  0.12500000000E+03 0.  0.
        -13    1    3    3    0    0  0.37418225713E+02 -0.26575381690E+02 -0.40674910860E+02  0.61325639540E+02  0.10566000000E+00 0.  1.
         23    2    1    0    0    0  0.16884515409E+02 -0.19493941189E+02 -0.14237864015E+02  0.95541259780E+02  0.90886274788E+02 0.  0.
         13    1    3    3    0    0 -0.20533710304E+02  0.70814405008E+01  0.26437046845E+02  0.34215620239E+02  0.10566000000E+00 0. -1.
         22    1    1    0    0    0 -0.16884515409E+02  0.19493941189E+02  0.14237864015E+02  0.29458740220E+02  0.00000000000E+00 0.  1.
</event>
<event>
 5    1  0.8943113E-005  0.9118800E+02  0.7818608E-02  0.1130116E+00
         25   -1    0    0    0    0  0.00000000000E+00  0.00000000000E+00  0.99999998245E-14  0.12500000000E+03  0.12500000000E+03 0.  0.
        -13    1    3    3    0    0  0.90000226578E+01  0.97089341099E+01  0.34043856951E+02  0.36527512501E+02  0.10566000000E+00 0.  1.
         23    2    1    0    0    0 -0.20732956338E+02  0.46472631852E+01 -0.18312566131E+02  0.96949998005E+02  0.92803553279E+02 0.  0.
         13    1    3    3    0    0 -0.29732978996E+02 -0.50616709247E+01 -0.52356423082E+02  0.60422485504E+02  0.10566000000E+00 0. -1.
         22    1    1    0    0    0  0.20732956338E+02 -0.46472631852E+01  0.18312566131E+02  0.28050001995E+02  0.00000000000E+00 0. -1.
</event>
<event>
 5    1  0.8943113E-005  0.9118800E+02  0.7818608E-02  0.1130116E+00
         25   -1    0    0    0    0  0.00000000000E+00  0.00000000000E+00  0.99999998245E-14  0.12500000000E+03  0.12500000000E+03 0.  0.
        -13    1    3    3    0    0  0.37954984339E+02  0.19478933906E+02 -0.21556057106E+02  0.47798373029E+02  0.10566000000E+00 0.  1.
         23    2    1    0    0    0  0.29600474933E+01 -0.10496146851E+02 -0.28581451929E+02  0.94408655239E+02  0.89314969685E+02 0.  0.
         13    1    3    3    0    0 -0.34994936845E+02 -0.29975080758E+02 -0.70253948233E+01  0.46610282210E+02  0.10566000000E+00 0. -1.
         22    1    1    0    0    0 -0.29600474933E+01  0.10496146851E+02  0.28581451929E+02  0.30591344761E+02  0.00000000000E+00 0. -1.
</event>
<event>
 5    1  0.8943113E-005  0.9118800E+02  0.7818608E-02  0.1130116E+00
         25   -1    0    0    0    0  0.00000000000E+00  0.00000000000E+00  0.99999998245E-14  0.12500000000E+03  0.12500000000E+03 0.  0.
        -13    1    3    3    0    0 -0.19905066655E+02 -0.19719971073E+02 -0.14729688623E+02  0.31655391778E+02  0.10566000000E+00 0.  1.
         23    2    1    0    0    0 -0.61715040290E+01  0.34934001870E+02 -0.17620781953E+01  0.89481316632E+02  0.82129952867E+02 0.  0.
         13    1    3    3    0    0  0.13733562626E+02  0.54653972944E+02  0.12967610427E+02  0.57825924854E+02  0.10566000000E+00 0. -1.
         22    1    1    0    0    0  0.61715040290E+01 -0.34934001870E+02  0.17620781953E+01  0.35518683368E+02  0.00000000000E+00 0. -1.
</event>
<event>
 5    1  0.8943113E-005  0.9118800E+02  0.7818608E-02  0.1130116E+00
         25   -1    0    0    0    0  0.00000000000E+00  0.00000000000E+00  0.99999998245E-14  0.12500000000E+03  0.12500000000E+03 0.  0.
        -13    1    3    3    0    0  0.15680174833E+02 -0.26529908030E+02 -0.17155381853E+02  0.35270698795E+02  0.10566000000E+00 0.  1.
         23    2    1    0    0    0 -0.96395673606E+01  0.26991827400E+02 -0.27483037257E+01  0.96207063737E+02  0.91797417906E+02 0.  0.
         13    1    3    3    0    0 -0.25319742194E+02  0.53521735430E+02  0.14407078127E+02  0.60936364942E+02  0.10566000000E+00 0. -1.
         22    1    1    0    0    0  0.96395673606E+01 -0.26991827400E+02  0.27483037257E+01  0.28792936263E+02  0.00000000000E+00 0. -1.
</event>
<event>
 5    1  0.8943113E-005  0.9118800E+02  0.7818608E-02  0.1130116E+00
         25   -1    0    0    0    0  0.00000000000E+00  0.00000000000E+00  0.99999998245E-14  0.12500000000E+03  0.12500000000E+03 0.  0.
        -13    1    3    3    0    0  0.39220489565E+02 -0.32958949256E+02  0.24612444991E+02  0.56835928340E+02  0.10566000000E+00 0.  1.
         23    2    1    0    0    0  0.52042001817E+01 -0.27987348206E+02  0.60799705716E+01  0.95890870825E+02  0.91365845404E+02 0.  0.
         13    1    3    3    0    0 -0.34016289384E+02  0.49716010493E+01 -0.18532474419E+02  0.39054942486E+02  0.10566000000E+00 0. -1.
         22    1    1    0    0    0 -0.52042001817E+01  0.27987348206E+02 -0.60799705716E+01  0.29109129175E+02  0.00000000000E+00 0.  1.
</event>
<event>
 5    1  0.8943113E-005  0.9118800E+02  0.7818608E-02  0.1130116E+00
         25   -1    0    0    0    0  0.00000000000E+00  0.00000000000E+00  0.99999998245E-14  0.12500000000E+03  0.12500000000E+03 0.  0.
        -13    1    3    3    0    0  0.29000252783E+02 -0.36565795648E+02  0.85464229994E+01  0.47446017567E+02  0.10566000000E+00 0.  1.
         23    2    1    0    0    0 -0.99008133971E+01 -0.22753161838E+02 -0.16001504238E+02  0.95474068728E+02  0.90793816872E+02 0.  0.
         13    1    3    3    0    0 -0.38901066180E+02  0.13812633810E+02 -0.24547927238E+02  0.48028051162E+02  0.10566000000E+00 0. -1.
         22    1    1    0    0    0  0.99008133971E+01  0.22753161838E+02  0.16001504238E+02  0.29525931272E+02  0.00000000000E+00 0. -1.
</event>
<event>
 5    1  0.8943113E-005  0.9118800E+02  0.7818608E-02  0.1130116E+00
         25   -1    0    0    0    0  0.00000000000E+00  0.00000000000E+00  0.99999998245E-14  0.12500000000E+03  0.12500000000E+03 0.  0.
        -13    1    3    3    0    0 -0.22302123166E+02  0.51034704946E+02  0.14842596224E+01  0.55714809497E+02  0.10566000000E+00 0. -1.
         23    2    1    0    0    0 -0.19353514607E+01  0.22361712344E+02  0.19532567697E+02  0.95245790801E+02  0.90478990380E+02 0.  0.
         13    1    3    3    0    0  0.20366771705E+02 -0.28672992602E+02  0.18048308074E+02  0.39530981304E+02  0.10566000000E+00 0.  1.
         22    1    1    0    0    0  0.19353514607E+01 -0.22361712344E+02 -0.19532567697E+02  0.29754209199E+02  0.00000000000E+00 0. -1.
</event>
<event>
 5    1  0.8943113E-005  0.9118800E+02  0.7818608E-02  0.1130116E+00
         25   -1    0    0    0    0  0.00000000000E+00  0.00000000000E+00  0.99999998245E-14  0.12500000000E+03  0.12500000000E+03 0.  0.
        -13    1    3    3    0    0  0.20865870762E+02 -0.27095168245E+02  0.13562198926E+02  0.36789633168E+02  0.10566000000E+00 0.  1.
         23    2    1    0    0    0  0.14389530838E+02  0.22788606002E+02 -0.14505559737E+02  0.94392967727E+02  0.89293011662E+02 0.  0.
         13    1    3    3    0    0 -0.64763399239E+01  0.49883774247E+02 -0.28067758663E+02  0.57603334559E+02  0.10566000000E+00 0. -1.
         22    1    1    0    0    0 -0.14389530838E+02 -0.22788606002E+02  0.14505559737E+02  0.30607032273E+02  0.00000000000E+00 0. -1.
</event>
<event>
 5    1  0.8943113E-005  0.9118800E+02  0.7818608E-02  0.1130116E+00
         25   -1    0    0    0    0  0.00000000000E+00  0.00000000000E+00  0.99999998245E-14  0.12500000000E+03  0.12500000000E+03 0.  0.
        -13    1    3    3    0    0  0.40015079763E+02  0.34159587434E+02 -0.33081409276E+02  0.62148811942E+02  0.10566000000E+00 0.  1.
         23    2    1    0    0    0  0.17966113712E+02  0.18923302665E+02 -0.11844925547E+02  0.96343850802E+02  0.91983491456E+02 0.  0.
         13    1    3    3    0    0 -0.22048966050E+02 -0.15236284769E+02  0.21236483729E+02  0.34195038860E+02  0.10566000000E+00 0. -1.
         22    1    1    0    0    0 -0.17966113712E+02 -0.18923302665E+02  0.11844925547E+02  0.28656149198E+02  0.00000000000E+00 0.  1.
</event>
<event>
 5    1  0.8943113E-005  0.9118800E+02  0.7818608E-02  0.1130116E+00
         25   -1    0    0    0    0  0.00000000000E+00  0.00000000000E+00  0.99999998245E-14  0.12500000000E+03  0.12500000000E+03 0.  0.
        -13    1    3    3    0    0 -0.32532702238E+02 -0.14375108579E+02  0.77034500851E+01  0.36391960222E+02  0.10566000000E+00 0.  1.
         23    2    1    0    0    0  0.24454992775E+02 -0.17724203263E+02  0.89747072107E+01  0.93492232348E+02  0.88023054292E+02 0.  0.
         13    1    3    3    0    0  0.56987695013E+02 -0.33490946835E+01  0.12712571256E+01  0.57100272125E+02  0.10566000000E+00 0. -1.
         22    1    1    0    0    0 -0.24454992775E+02  0.17724203263E+02 -0.89747072107E+01  0.31507767652E+02  0.00000000000E+00 0. -1.
</event>
<event>
 5    1  0.8943113E-005  0.9118800E+02  0.7818608E-02  0.1130116E+00
         25   -1    0    0    0    0  0.00000000000E+00  0.00000000000E+00  0.99999998245E-14  0.12500000000E+03  0.12500000000E+03 0.  0.
        -13    1    3    3    0    0 -0.23674645695E+01 -0.11087492710E+02 -0.22017929337E+02  0.24765656854E+02  0.10566000000E+00 0. -1.
         23    2    1    0    0    0  0.61890819195E+01  0.10704555915E+02  0.35789843660E+02  0.87134380217E+02  0.78476716638E+02 0.  0.
         13    1    3    3    0    0  0.85565464890E+01  0.21792048625E+02  0.57807772997E+02  0.62368723363E+02  0.10566000000E+00 0.  1.
         22    1    1    0    0    0 -0.61890819195E+01 -0.10704555915E+02 -0.35789843660E+02  0.37865619783E+02  0.00000000000E+00 0.  1.
</event>
<event>
 5    1  0.8943113E-005  0.9118800E+02  0.7818608E-02  0.1130116E+00
         25   -1    0    0    0    0  0.00000000000E+00  0.00000000000E+00  0.99999998245E-14  0.12500000000E+03  0.12500000000E+03 0.  0.
        -13    1    3    3    0    0 -0.59417973602E+00 -0.36903776781E+02  0.18969901342E+01  0.36957428561E+02  0.10566000000E+00 0.  1.
         23    2    1    0    0    0 -0.87290684931E+01  0.17290742782E+02  0.22325870003E+02  0.95443090586E+02  0.90751157824E+02 0.  0.
         13    1    3    3    0    0 -0.81348887571E+01  0.54194519563E+02  0.20428879869E+02  0.58485662025E+02  0.10566000000E+00 0. -1.
         22    1    1    0    0    0  0.87290684931E+01 -0.17290742782E+02 -0.22325870003E+02  0.29556909414E+02  0.00000000000E+00 0. -1.
</event>
<event>
 5    1  0.8943113E-005  0.9118800E+02  0.7818608E-02  0.1130116E+00
         25   -1    0    0    0    0  0.00000000000E+00  0.00000000000E+00  0.99999998245E-14  0.12500000000E+03  0.12500000000E+03 0.  0.
        -13    1    3    3    0    0 -0.32569828859E+02 -0.21571066413E+01 -0.23995294072E+02  0.40512123649E+02  0.10566000000E+00 0. -1.
         23    2    1    0    0    0  0.13656373187E+02 -0.25672105206E+02 -0.10272487229E+02  0.94160455448E+02  0.88966925663E+02 0.  0.
         13    1    3    3    0    0  0.46226202046E+02 -0.23514998564E+02  0.13722806843E+02  0.53648331799E+02  0.10566000000E+00 0.  1.
         22    1    1    0    0    0 -0.13656373187E+02  0.25672105206E+02  0.10272487229E+02  0.30839544552E+02  0.00000000000E+00 0.  1.
</event>
<event>
 5    1  0.8943113E-005  0.9118800E+02  0.7818608E-02  0.1130116E+00
         25   -1    0    0    0    0  0.00000000000E+00  0.00000000000E+00  0.99999998245E-14  0.12500000000E+03  0.12500000000E+03 0.  0.
        -13    1    3    3    0    0 -0.43757986877E+02 -0.31880570979E+02  0.30778934625E+02  0.62277493544E+02  0.10566000000E+00 0.  1.
         23    2    1    0    0    0 -0.19265391972E+02 -0.10521294099E+02  0.15075409147E+02  0.98370675594E+02  0.94697776629E+02 0.  0.
         13    1    3    3    0    0  0.24492594905E+02  0.21359276879E+02 -0.15703525478E+02  0.36093182050E+02  0.10566000000E+00 0. -1.
         22    1    1    0    0    0  0.19265391972E+02  0.10521294099E+02 -0.15075409147E+02  0.26629324406E+02  0.00000000000E+00 0.  1.
</event>
<event>
 5    1  0.8943113E-005  0.9118800E+02  0.7818608E-02  0.1130116E+00
         25   -1    0    0    0    0  0.00000000000E+00  0.00000000000E+00  0.99999998245E-14  0.12500000000E+03  0.12500000000E+03 0.  0.
        -13    1    3    3    0    0 -0.39112598177E+02  0.23940883592E+02  0.27989548396E+02  0.53725107973E+02  0.10566000000E+00 0.  1.
         23    2    1    0    0    0 -0.23792125513E+02  0.13132486609E+02 -0.99621408419E+01  0.96055714017E+02  0.91591094022E+02 0.  0.
         13    1    3    3    0    0  0.15320472664E+02 -0.10808396984E+02 -0.37951689237E+02  0.42330606044E+02  0.10566000000E+00 0. -1.
         22    1    1    0    0    0  0.23792125513E+02 -0.13132486609E+02  0.99621408419E+01  0.28944285983E+02  0.00000000000E+00 0.  1.
</event>
<event>
 5    1  0.8943113E-005  0.9118800E+02  0.7818608E-02  0.1130116E+00
         25   -1    0    0    0    0  0.00000000000E+00  0.00000000000E+00  0.99999998245E-14  0.12500000000E+03  0.12500000000E+03 0.  0.
        -13    1    3    3    0    0  0.37164662143E+02  0.41076305877E+02  0.44157498786E+01  0.55569641242E+02  0.10566000000E+00 0.  1.
         23    2    1    0    0    0  0.48812205046E+01  0.20923680834E+02  0.18992922200E+02  0.96323217981E+02  0.91955448427E+02 0.  0.
         13    1    3    3    0    0 -0.32283441638E+02 -0.20152625043E+02  0.14577172321E+02  0.40753576740E+02  0.10566000000E+00 0. -1.
         22    1    1    0    0    0 -0.48812205046E+01 -0.20923680834E+02 -0.18992922200E+02  0.28676782019E+02  0.00000000000E+00 0.  1.
</event>
<event>
 5    1  0.8943113E-005  0.9118800E+02  0.7818608E-02  0.1130116E+00
         25   -1    0    0    0    0  0.00000000000E+00  0.00000000000E+00  0.99999998245E-14  0.12500000000E+03  0.12500000000E+03 0.  0.
        -13    1    3    3    0    0  0.30070746580E+01  0.35377409040E+02 -0.57232998192E+00  0.35509749282E+02  0.10566000000E+00 0.  1.
         23    2    1    0    0    0 -0.20751247371E+02 -0.20236731349E+02  0.83954277206E+00  0.96002682965E+02  0.91518690666E+02 0.  0.
         13    1    3    3    0    0 -0.23758322029E+02 -0.55614140389E+02  0.14118727540E+01  0.60492933683E+02  0.10566000000E+00 0. -1.
         22    1    1    0    0    0  0.20751247371E+02  0.20236731349E+02 -0.83954277206E+00  0.28997317035E+02  0.00000000000E+00 0. -1.
</event>
<event>
 5    1  0.8943113E-005  0.9118800E+02  0.7818608E-02  0.1130116E+00
         25   -1    0    0    0    0  0.00000000000E+00  0.00000000000E+00  0.99999998245E-14  0.12500000000E+03  0.12500000000E+03 0.  0.
        -13    1    3    3    0    0  0.50617786850E+02 -0.16425581807E+02  0.36373876642E+01  0.53340433410E+02  0.10566000000E+00 0.  1.
         23    2    1    0    0    0  0.21140300255E+02  0.14732140291E+02  0.11217026184E+02  0.96897154435E+02  0.92732349312E+02 0.  0.
         13    1    3    3    0    0 -0.29477486595E+02  0.31157722098E+02  0.75796385194E+01  0.43556721025E+02  0.10566000000E+00 0. -1.
         22    1    1    0    0    0 -0.21140300255E+02 -0.14732140291E+02 -0.11217026184E+02  0.28102845565E+02  0.00000000000E+00 0.  1.
</event>
<event>
 5    1  0.8943113E-005  0.9118800E+02  0.7818608E-02  0.1130116E+00
         25   -1    0    0    0    0  0.00000000000E+00  0.00000000000E+00  0.99999998245E-14  0.12500000000E+03  0.12500000000E+03 0.  0.
        -13    1    3    3    0    0  0.27386560902E+02 -0.20393941094E+02 -0.36107828985E+02  0.49696308006E+02  0.10566000000E+00 0. -1.
         23    2    1    0    0    0 -0.95043991633E+01  0.74084861824E+01 -0.25059418366E+02  0.97193638860E+02  0.93131142563E+02 0.  0.
         13    1    3    3    0    0 -0.36890960066E+02  0.27802427277E+02  0.11048410618E+02  0.47497330854E+02  0.10566000000E+00 0.  1.
         22    1    1    0    0    0  0.95043991633E+01 -0.74084861824E+01  0.25059418366E+02  0.27806361140E+02  0.00000000000E+00 0.  1.
</event>
<event>
 5    1  0.8943113E-005  0.9118800E+02  0.7818608E-02  0.1130116E+00
         25   -1    0    0    0    0  0.00000000000E+00  0.00000000000E+00  0.99999998245E-14  0.12500000000E+03  0.12500000000E+03 0.  0.
        -13    1    3    3    0    0 -0.58920081289E+00  0.32771587889E+02 -0.11809263188E+02  0.34839546372E+02  0.10566000000E+00 0. -1.
         23    2    1    0    0    0 -0.61501094423E+01 -0.27282806387E+02  0.27929998364E+01  0.96893484411E+02  0.92727402113E+02 0.  0.
         13    1    3    3    0    0 -0.55609086294E+01 -0.60054394276E+02  0.14602263024E+02  0.62053938038E+02  0.10566000000E+00 0.  1.
         22    1    1    0    0    0  0.61501094423E+01  0.27282806387E+02 -0.27929998364E+01  0.28106515589E+02  0.00000000000E+00 0.  1.
</event>
<event>
 5    1  0.8943113E-005  0.9118800E+02  0.7818608E-02  0.1130116E+00
         25   -1    0    0    0    0  0.00000000000E+00  0.00000000000E+00  0.99999998245E-14  0.12500000000E+03  0.12500000000E+03 0.  0.
        -13    1    3    3    0    0 -0.26623583568E+02  0.19925487150E+02  0.18584878764E+02  0.38095263786E+02  0.10566000000E+00 0. -1.
         23    2    1    0    0    0  0.26653026091E+02  0.65391244884E+00  0.13871801305E+02  0.94946077249E+02  0.90063973442E+02 0.  0.
         13    1    3    3    0    0  0.53276609659E+02 -0.19271574701E+02 -0.47130774591E+01  0.56850813463E+02  0.10566000000E+00 0.  1.
         22    1    1    0    0    0 -0.26653026091E+02 -0.65391244884E+00 -0.13871801305E+02  0.30053922751E+02  0.00000000000E+00 0.  1.
</event>
<event>
 5    1  0.8943113E-005  0.9118800E+02  0.7818608E-02  0.1130116E+00
         25   -1    0    0    0    0  0.00000000000E+00  0.00000000000E+00  0.99999998245E-14  0.12500000000E+03  0.12500000000E+03 0.  0.
        -13    1    3    3    0    0 -0.10137745863E+02  0.16855144056E+02 -0.33605783696E+02  0.38938793436E+02  0.10566000000E+00 0.  1.
         23    2    1    0    0    0 -0.70164239047E+01  0.14356253048E+02  0.23717738653E+02  0.96401690035E+02  0.92062057922E+02 0.  0.
         13    1    3    3    0    0  0.31213219588E+01 -0.24988910074E+01  0.57323522350E+02  0.57462896600E+02  0.10566000000E+00 0. -1.
         22    1    1    0    0    0  0.70164239047E+01 -0.14356253048E+02 -0.23717738653E+02  0.28598309965E+02  0.00000000000E+00 0. -1.
</event>
<event>
 5    1  0.8943113E-005  0.9118800E+02  0.7818608E-02  0.1130116E+00
         25   -1    0    0    0    0  0.00000000000E+00  0.00000000000E+00  0.99999998245E-14  0.12500000000E+03  0.12500000000E+03 0.  0.
        -13    1    3    3    0    0  0.33587785859E+02 -0.46276118307E+02 -0.29259308868E+01  0.57255486375E+02  0.10566000000E+00 0.  1.
         23    2    1    0    0    0  0.32697823665E+02 -0.14345219499E+02 -0.25779387792E+01  0.89200855272E+02  0.81701981726E+02 0.  0.
         13    1    3    3    0    0 -0.88996219334E+00  0.31930898808E+02  0.34799210756E+00  0.31945368897E+02  0.10566000000E+00 0. -1.
         22    1    1    0    0    0 -0.32697823665E+02  0.14345219499E+02  0.25779387792E+01  0.35799144728E+02  0.00000000000E+00 0.  1.
</event>
<event>
 5    1  0.8943113E-005  0.9118800E+02  0.7818608E-02  0.1130116E+00
         25   -1    0    0    0    0  0.00000000000E+00  0.00000000000E+00  0.99999998245E-14  0.12500000000E+03  0.12500000000E+03 0.  0.
        -13    1    3    3    0    0  0.58666882172E+02 -0.41013185530E+01  0.91703063294E+01  0.59520832990E+02  0.10566000000E+00 0. -1.
         23    2    1    0    0    0  0.24333097925E+02  0.93750081847E+01  0.11546613093E+02  0.96481327047E+02  0.92170124019E+02 0.  0.
         13    1    3    3    0    0 -0.34333784247E+02  0.13476326738E+02  0.23763067640E+01  0.36960494057E+02  0.10566000000E+00 0.  1.
         22    1    1    0    0    0 -0.24333097925E+02 -0.93750081847E+01 -0.11546613093E+02  0.28518672953E+02  0.00000000000E+00 0. -1.
</event>
<event>
 5    1  0.8943113E-005  0.9118800E+02  0.7818608E-02  0.1130116E+00
         25   -1    0    0    0    0  0.00000000000E+00  0.00000000000E+00  0.99999998245E-14  0.12500000000E+03  0.12500000000E+03 0.  0.
        -13    1    3    3    0    0  0.45854719336E+01 -0.10846165624E+02 -0.55909671234E+02  0.57136401384E+02  0.10566000000E+00 0.  1.
         23    2    1    0    0    0  0.15643078069E+02 -0.15902814252E+02 -0.20032021309E+02  0.95018551231E+02  0.90164504145E+02 0.  0.
         13    1    3    3    0    0  0.11057606136E+02 -0.50566486276E+01  0.35877649925E+02  0.37882149847E+02  0.10566000000E+00 0. -1.
         22    1    1    0    0    0 -0.15643078069E+02  0.15902814252E+02  0.20032021309E+02  0.29981448769E+02  0.00000000000E+00 0.  1.
</event>
<event>
 5    1  0.8943113E-005  0.9118800E+02  0.7818608E-02  0.1130116E+00
         25   -1    0    0    0    0  0.00000000000E+00  0.00000000000E+00  0.99999998245E-14  0.12500000000E+03  0.12500000000E+03 0.  0.
        -13    1    3    3    0    0  0.28490387875E+02  0.53412654963E+02  0.74146764666E+01  0.60988544027E+02  0.10566000000E+00 0. -1.
         23    2    1    0    0    0  0.13061060580E+02  0.26215705552E+02 -0.61485768043E+01  0.95072428803E+02  0.90239166667E+02 0.  0.
         13    1    3    3    0    0 -0.15429327295E+02 -0.27196949411E+02 -0.13563253271E+02  0.34083884775E+02  0.10566000000E+00 0.  1.
         22    1    1    0    0    0 -0.13061060580E+02 -0.26215705552E+02  0.61485768043E+01  0.29927571197E+02  0.00000000000E+00 0. -1.
</event>
<event>
 5    1  0.8943113E-005  0.9118800E+02  0.7818608E-02  0.1130116E+00
         25   -1    0    0    0    0  0.00000000000E+00  0.00000000000E+00  0.99999998245E-14  0.12500000000E+03  0.12500000000E+03 0.  0.
        -13    1    3    3    0    0 -0.13076556102E+02 -0.47164285265E+02  0.10089093689E+02  0.49972663523E+02  0.10566000000E+00 0.  1.
         23    2    1    0    0    0 -0.27420212682E+02 -0.36939549723E+01  0.94818276924E+01  0.95752462954E+02  0.91176289343E+02 0.  0.
         13    1    3    3    0    0 -0.14343656580E+02  0.43470330293E+02 -0.60726599639E+00  0.45779799431E+02  0.10566000000E+00 0. -1.
         22    1    1    0    0    0  0.27420212682E+02  0.36939549723E+01 -0.94818276924E+01  0.29247537046E+02  0.00000000000E+00 0.  1.
</event>
<event>
 5    1  0.8943113E-005  0.9118800E+02  0.7818608E-02  0.1130116E+00
         25   -1    0    0    0    0  0.00000000000E+00  0.00000000000E+00  0.99999998245E-14  0.12500000000E+03  0.12500000000E+03 0.  0.
        -13    1    3    3    0    0  0.59331015209E+02 -0.87927297486E+01 -0.43168894655E+01  0.60134251146E+02  0.10566000000E+00 0. -1.
         23    2    1    0    0    0  0.25914676877E+02  0.72433131107E+01 -0.66824933760E+01  0.97274708655E+02  0.93239890410E+02 0.  0.
         13    1    3    3    0    0 -0.33416338332E+02  0.16036042859E+02 -0.23656039105E+01  0.37140457509E+02  0.10566000000E+00 0.  1.
         22    1    1    0    0    0 -0.25914676877E+02 -0.72433131107E+01  0.66824933760E+01  0.27725291345E+02  0.00000000000E+00 0. -1.
</event>
<event>
 5    1  0.8943113E-005  0.9118800E+02  0.7818608E-02  0.1130116E+00
         25   -1    0    0    0    0  0.00000000000E+00  0.00000000000E+00  0.99999998245E-14  0.12500000000E+03  0.12500000000E+03 0.  0.
        -13    1    3    3    0    0  0.12316907707E+02  0.31005007900E+02 -0.19622921090E+02  0.38705127909E+02  0.10566000000E+00 0.  1.
         23    2    1    0    0    0  0.12503827369E+02 -0.14800578277E+02  0.18432976039E+02  0.98257198690E+02  0.94547869741E+02 0.  0.
         13    1    3    3    0    0  0.18691966228E+00 -0.45805586177E+02  0.38055897129E+02  0.59552070781E+02  0.10566000000E+00 0. -1.
         22    1    1    0    0    0 -0.12503827369E+02  0.14800578277E+02 -0.18432976039E+02  0.26742801310E+02  0.00000000000E+00 0. -1.
</event>
<event>
 5    1  0.8943113E-005  0.9118800E+02  0.7818608E-02  0.1130116E+00
         25   -1    0    0    0    0  0.00000000000E+00  0.00000000000E+00  0.99999998245E-14  0.12500000000E+03  0.12500000000E+03 0.  0.
        -13    1    3    3    0    0 -0.10144298262E+02 -0.21140015911E+02  0.24786739766E+02  0.34120385288E+02  0.10566000000E+00 0. -1.
         23    2    1    0    0    0  0.21382895111E+02  0.16174948080E+02 -0.12346725901E+02  0.95482229264E+02  0.90805051159E+02 0.  0.
         13    1    3    3    0    0  0.31527193373E+02  0.37314963992E+02 -0.37133465667E+02  0.61361843976E+02  0.10566000000E+00 0.  1.
         22    1    1    0    0    0 -0.21382895111E+02 -0.16174948080E+02  0.12346725901E+02  0.29517770736E+02  0.00000000000E+00 0.  1.
</event>
<event>
 5    1  0.8943113E-005  0.9118800E+02  0.7818608E-02  0.1130116E+00
         25   -1    0    0    0    0  0.00000000000E+00  0.00000000000E+00  0.99999998245E-14  0.12500000000E+03  0.12500000000E+03 0.  0.
        -13    1    3    3    0    0  0.22013365561E+02 -0.49855373606E+00  0.44977807648E+02  0.50078450096E+02  0.10566000000E+00 0.  1.
         23    2    1    0    0    0  0.64227339776E+01 -0.26485886785E+02  0.10992956798E+02  0.95612948265E+02  0.90984817779E+02 0.  0.
         13    1    3    3    0    0 -0.15590631583E+02 -0.25987333049E+02 -0.33984850850E+02  0.45534498169E+02  0.10566000000E+00 0. -1.
         22    1    1    0    0    0 -0.64227339776E+01  0.26485886785E+02 -0.10992956798E+02  0.29387051735E+02  0.00000000000E+00 0.  1.
</event>
<event>
 5    1  0.8943113E-005  0.9118800E+02  0.7818608E-02  0.1130116E+00
         25   -1    0    0    0    0  0.00000000000E+00  0.00000000000E+00  0.99999998245E-14  0.12500000000E+03  0.12500000000E+03 0.  0.
        -13    1    3    3    0    0  0.85912604563E+01  0.40628182828E+02 -0.44248832402E+02  0.60683023401E+02  0.10566000000E+00 0. -1.
         23    2    1    0    0    0  0.89006154213E+01  0.87476008356E+01 -0.22480267285E+02  0.99288059341E+02  0.95901067957E+02 0.  0.
         13    1    3    3    0    0  0.30935496500E+00 -0.31880581992E+02  0.21768565117E+02  0.38605035940E+02  0.10566000000E+00 0.  1.
         22    1    1    0    0    0 -0.89006154213E+01 -0.87476008356E+01  0.22480267285E+02  0.25711940659E+02  0.00000000000E+00 0. -1.
</event>
<event>
 5    1  0.8943113E-005  0.9118800E+02  0.7818608E-02  0.1130116E+00
         25   -1    0    0    0    0  0.00000000000E+00  0.00000000000E+00  0.99999998245E-14  0.12500000000E+03  0.12500000000E+03 0.  0.
        -13    1    3    3    0    0  0.22758814298E+02  0.34927561908E+02 -0.35960450932E+02  0.55055094264E+02  0.10566000000E+00 0.  1.
         23    2    1    0    0    0  0.21415633029E+02 -0.19936929008E+01 -0.21077053042E+02  0.94886110939E+02  0.89980707570E+02 0.  0.
         13    1    3    3    0    0 -0.13431812691E+01 -0.36921254809E+02  0.14883397890E+02  0.39831016675E+02  0.10566000000E+00 0. -1.
         22    1    1    0    0    0 -0.21415633029E+02  0.19936929008E+01  0.21077053042E+02  0.30113889061E+02  0.00000000000E+00 0.  1.
</event>
<event>
 5    1  0.8943113E-005  0.9118800E+02  0.7818608E-02  0.1130116E+00
         25   -1    0    0    0    0  0.00000000000E+00  0.00000000000E+00  0.99999998245E-14  0.12500000000E+03  0.12500000000E+03 0.  0.
        -13    1    3    3    0    0  0.39725277159E+02  0.35341594688E+01  0.37778022733E+02  0.54934307078E+02  0.10566000000E+00 0.  1.
         23    2    1    0    0    0  0.29351722903E+02 -0.67691881112E+01  0.61345952190E+00  0.94871576914E+02  0.89960514830E+02 0.  0.
         13    1    3    3    0    0 -0.10373554257E+02 -0.10303347580E+02 -0.37164563211E+02  0.39937269836E+02  0.10566000000E+00 0. -1.
         22    1    1    0    0    0 -0.29351722903E+02  0.67691881112E+01 -0.61345952190E+00  0.30128423086E+02  0.00000000000E+00 0.  1.
</event>
<event>
 5    1  0.8943113E-005  0.9118800E+02  0.7818608E-02  0.1130116E+00
         25   -1    0    0    0    0  0.00000000000E+00  0.00000000000E+00  0.99999998245E-14  0.12500000000E+03  0.12500000000E+03 0.  0.
        -13    1    3    3    0    0  0.13935299411E+02 -0.40478312876E+02 -0.38692762002E+02  0.57704656470E+02  0.10566000000E+00 0. -1.
         23    2    1    0    0    0  0.21639048756E+02 -0.12853110503E+02 -0.25145092966E+02  0.89422948676E+02  0.82041070013E+02 0.  0.
         13    1    3    3    0    0  0.77037493449E+01  0.27625202373E+02  0.13547669035E+02  0.31718292206E+02  0.10566000000E+00 0.  1.
         22    1    1    0    0    0 -0.21639048756E+02  0.12853110503E+02  0.25145092966E+02  0.35577051324E+02  0.00000000000E+00 0. -1.
</event>
<event>
 5    1  0.8943113E-005  0.9118800E+02  0.7818608E-02  0.1130116E+00
         25   -1    0    0    0    0  0.00000000000E+00  0.00000000000E+00  0.99999998245E-14  0.12500000000E+03  0.12500000000E+03 0.  0.
        -13    1    3    3    0    0  0.50067560085E+01 -0.33630524049E+01  0.34910139890E+02  0.35427485917E+02  0.10566000000E+00 0.  1.
         23    2    1    0    0    0 -0.73719343158E+01  0.34974933081E+02 -0.77764020229E+00  0.89248131743E+02  0.81774280406E+02 0.  0.
         13    1    3    3    0    0 -0.12378690324E+02  0.38337985485E+02 -0.35687780092E+02  0.53820645827E+02  0.10566000000E+00 0. -1.
         22    1    1    0    0    0  0.73719343158E+01 -0.34974933081E+02  0.77764020229E+00  0.35751868257E+02  0.00000000000E+00 0. -1.
</event>
<event>
 5    1  0.8943113E-005  0.9118800E+02  0.7818608E-02  0.1130116E+00
         25   -1    0    0    0    0  0.00000000000E+00  0.00000000000E+00  0.99999998245E-14  0.12500000000E+03  0.12500000000E+03 0.  0.
        -13    1    3    3    0    0  0.26631940814E+02  0.29090602615E+01  0.54725310956E+02  0.60931057158E+02  0.10566000000E+00 0.  1.
         23    2    1    0    0    0  0.19383332046E+02  0.73672542476E+01  0.21905172950E+02  0.94836667984E+02  0.89911995840E+02 0.  0.
         13    1    3    3    0    0 -0.72486087677E+01  0.44581939861E+01 -0.32820138007E+02  0.33905610826E+02  0.10566000000E+00 0. -1.
         22    1    1    0    0    0 -0.19383332046E+02 -0.73672542476E+01 -0.21905172950E+02  0.30163332016E+02  0.00000000000E+00 0.  1.
</event>
<event>
 5    1  0.8943113E-005  0.9118800E+02  0.7818608E-02  0.1130116E+00
         25   -1    0    0    0    0  0.00000000000E+00  0.00000000000E+00  0.99999998245E-14  0.12500000000E+03  0.12500000000E+03 0.  0.
        -13    1    3    3    0    0 -0.22190374285E+02  0.55357234709E+01  0.29613100174E+02  0.37416624797E+02  0.10566000000E+00 0.  1.
         23    2    1    0    0    0 -0.12985246549E+02  0.17109954782E+01 -0.27047883140E+02  0.94947843408E+02  0.90066424666E+02 0.  0.
         13    1    3    3    0    0  0.92051277358E+01 -0.38247279926E+01 -0.56660983314E+02  0.57531218612E+02  0.10566000000E+00 0. -1.
         22    1    1    0    0    0  0.12985246549E+02 -0.17109954782E+01  0.27047883140E+02  0.30052156592E+02  0.00000000000E+00 0. -1.
</event>
<event>
 5    1  0.8943113E-005  0.9118800E+02  0.7818608E-02  0.1130116E+00
         25   -1    0    0    0    0  0.00000000000E+00  0.00000000000E+00  0.99999998245E-14  0.12500000000E+03  0.12500000000E+03 0.  0.
        -13    1    3    3    0    0  0.41332802230E+02  0.35643129200E+02 -0.17044707087E+02  0.57178373561E+02  0.10566000000E+00 0.  1.
         23    2    1    0    0    0  0.69029735317E+01  0.28194888034E+02 -0.82215205243E+00  0.95960738839E+02  0.91461383707E+02 0.  0.
         13    1    3    3    0    0 -0.34429828699E+02 -0.74482411660E+01  0.16222555034E+02  0.38782365278E+02  0.10566000000E+00 0. -1.
         22    1    1    0    0    0 -0.69029735317E+01 -0.28194888034E+02  0.82215205243E+00  0.29039261161E+02  0.00000000000E+00 0.  1.
</event>
<event>
 5    1  0.8943113E-005  0.9118800E+02  0.7818608E-02  0.1130116E+00
         25   -1    0    0    0    0  0.00000000000E+00  0.00000000000E+00  0.99999998245E-14  0.12500000000E+03  0.12500000000E+03 0.  0.
        -13    1    3    3    0    0  0.17476047595E+02  0.10552444512E+02  0.30576628042E+02  0.36765577259E+02  0.10566000000E+00 0.  1.
         23    2    1    0    0    0  0.13737936309E+02 -0.83810383267E+01 -0.24815395205E+02  0.95423378546E+02  0.90724002538E+02 0.  0.
         13    1    3    3    0    0 -0.37381112859E+01 -0.18933482839E+02 -0.55392023247E+02  0.58657801287E+02  0.10566000000E+00 0. -1.
         22    1    1    0    0    0 -0.13737936309E+02  0.83810383267E+01  0.24815395205E+02  0.29576621454E+02  0.00000000000E+00 0. -1.
</event>
<event>
 5    1  0.8943113E-005  0.9118800E+02  0.7818608E-02  0.1130116E+00
         25   -1    0    0    0    0  0.00000000000E+00  0.00000000000E+00  0.99999998245E-14  0.12500000000E+03  0.12500000000E+03 0.  0.
        -13    1    3    3    0    0 -0.53999343985E+02 -0.22076984826E+02  0.10139247151E+02  0.59212649887E+02  0.10566000000E+00 0.  1.
         23    2    1    0    0    0 -0.19026609376E+02 -0.12748397067E+02  0.17534084248E+02  0.96155978045E+02  0.91727828445E+02 0.  0.
         13    1    3    3    0    0  0.34972734609E+02  0.93285877587E+01  0.73948370974E+01  0.36943328158E+02  0.10566000000E+00 0. -1.
         22    1    1    0    0    0  0.19026609376E+02  0.12748397067E+02 -0.17534084248E+02  0.28844021955E+02  0.00000000000E+00 0.  1.
</event>
<event>
 5    1  0.8943113E-005  0.9118800E+02  0.7818608E-02  0.1130116E+00
         25   -1    0    0    0    0  0.00000000000E+00  0.00000000000E+00  0.99999998245E-14  0.12500000000E+03  0.12500000000E+03 0.  0.
        -13    1    3    3    0    0  0.33784635533E+02 -0.46543965215E+02 -0.16298238018E+02  0.59777805434E+02  0.10566000000E+00 0. -1.
         23    2    1    0    0    0  0.18915688248E+02 -0.22416322366E+02  0.50209822100E+01  0.95242563406E+02  0.90474531508E+02 0.  0.
         13    1    3    3    0    0 -0.14868947286E+02  0.24127642849E+02  0.21319220228E+02  0.35464757972E+02  0.10566000000E+00 0.  1.
         22    1    1    0    0    0 -0.18915688248E+02  0.22416322366E+02 -0.50209822100E+01  0.29757436594E+02  0.00000000000E+00 0. -1.
</event>
<event>
 5    1  0.8943113E-005  0.9118800E+02  0.7818608E-02  0.1130116E+00
         25   -1    0    0    0    0  0.00000000000E+00  0.00000000000E+00  0.99999998245E-14  0.12500000000E+03  0.12500000000E+03 0.  0.
        -13    1    3    3    0    0 -0.28972370968E+02 -0.25659056745E+02 -0.20050634760E+01  0.38753282649E+02  0.10566000000E+00 0.  1.
         23    2    1    0    0    0 -0.12050955160E+02  0.27236836588E+02  0.52343728704E+01  0.94759804119E+02  0.89805072405E+02 0.  0.
         13    1    3    3    0    0  0.16921415808E+02  0.52895893333E+02  0.72394363464E+01  0.56006521469E+02  0.10566000000E+00 0. -1.
         22    1    1    0    0    0  0.12050955160E+02 -0.27236836588E+02 -0.52343728704E+01  0.30240195881E+02  0.00000000000E+00 0. -1.
</event>
<event>
 5    1  0.8943113E-005  0.9118800E+02  0.7818608E-02  0.1130116E+00
         25   -1    0    0    0    0  0.00000000000E+00  0.00000000000E+00  0.99999998245E-14  0.12500000000E+03  0.12500000000E+03 0.  0.
        -13    1    3    3    0    0  0.50958993351E+02  0.31921673469E+02 -0.12402467753E+02  0.61397431631E+02  0.10566000000E+00 0. -1.
         23    2    1    0    0    0  0.20082467892E+02  0.21725323781E+02 -0.89148964593E+01  0.94100637727E+02  0.88882841042E+02 0.  0.
         13    1    3    3    0    0 -0.30876525459E+02 -0.10196349688E+02  0.34875712933E+01  0.32703206096E+02  0.10566000000E+00 0.  1.
         22    1    1    0    0    0 -0.20082467892E+02 -0.21725323781E+02  0.89148964593E+01  0.30899362273E+02  0.00000000000E+00 0. -1.
</event>
<event>
 5    1  0.8943113E-005  0.9118800E+02  0.7818608E-02  0.1130116E+00
         25   -1    0    0    0    0  0.00000000000E+00  0.00000000000E+00  0.99999998245E-14  0.12500000000E+03  0.12500000000E+03 0.  0.
        -13    1    3    3    0    0  0.20633100222E+02  0.32871128677E+02 -0.24411226296E+02  0.45849264538E+02  0.10566000000E+00 0.  1.
         23    2    1    0    0    0  0.48793377865E+01  0.17478275592E+02  0.21557029844E+02  0.96821930680E+02  0.92630894792E+02 0.  0.
         13    1    3    3    0    0 -0.15753762436E+02 -0.15392853085E+02  0.45968256141E+02  0.50972666142E+02  0.10566000000E+00 0. -1.
         22    1    1    0    0    0 -0.48793377865E+01 -0.17478275592E+02 -0.21557029844E+02  0.28178069320E+02  0.00000000000E+00 0. -1.
</event>
<event>
 5    1  0.8943113E-005  0.9118800E+02  0.7818608E-02  0.1130116E+00
         25   -1    0    0    0    0  0.00000000000E+00  0.00000000000E+00  0.99999998245E-14  0.12500000000E+03  0.12500000000E+03 0.  0.
        -13    1    3    3    0    0  0.53766743292E+02  0.59923094768E+01 -0.13914457906E+02  0.55860484781E+02  0.10566000000E+00 0. -1.
         23    2    1    0    0    0  0.26369994900E+02 -0.12743144450E+02  0.67319575237E+01  0.94948650386E+02  0.90067544635E+02 0.  0.
         13    1    3    3    0    0 -0.27396748391E+02 -0.18735453927E+02  0.20646415430E+02  0.39088165606E+02  0.10566000000E+00 0.  1.
         22    1    1    0    0    0 -0.26369994900E+02  0.12743144450E+02 -0.67319575237E+01  0.30051349614E+02  0.00000000000E+00 0. -1.
</event>
<event>
 5    1  0.8943113E-005  0.9118800E+02  0.7818608E-02  0.1130116E+00
         25   -1    0    0    0    0  0.00000000000E+00  0.00000000000E+00  0.99999998245E-14  0.12500000000E+03  0.12500000000E+03 0.  0.
        -13    1    3    3    0    0 -0.24817574351E+02 -0.24934846275E+02 -0.48239811064E+01  0.35509724206E+02  0.10566000000E+00 0. -1.
         23    2    1    0    0    0  0.27551615220E+02  0.24297353204E+01 -0.11645189662E+02  0.94989909077E+02  0.90124787208E+02 0.  0.
         13    1    3    3    0    0  0.52369189570E+02  0.27364581595E+02 -0.68212085559E+01  0.59480184871E+02  0.10566000000E+00 0.  1.
         22    1    1    0    0    0 -0.27551615220E+02 -0.24297353204E+01  0.11645189662E+02  0.30010090923E+02  0.00000000000E+00 0.  1.
</event>
<event>
 5    1  0.8943113E-005  0.9118800E+02  0.7818608E-02  0.1130116E+00
         25   -1    0    0    0    0  0.00000000000E+00  0.00000000000E+00  0.99999998245E-14  0.12500000000E+03  0.12500000000E+03 0.  0.
        -13    1    3    3    0    0 -0.30077760194E+02 -0.49518912394E+02 -0.10071529769E+02  0.58806812692E+02  0.10566000000E+00 0. -1.
         23    2    1    0    0    0 -0.12207243109E+02 -0.18678248615E+02 -0.19157358256E+02  0.95590849536E+02  0.90954452250E+02 0.  0.
         13    1    3    3    0    0  0.17870517086E+02  0.30840663779E+02 -0.90858284874E+01  0.36784036844E+02  0.10566000000E+00 0.  1.
         22    1    1    0    0    0  0.12207243109E+02  0.18678248615E+02  0.19157358256E+02  0.29409150464E+02  0.00000000000E+00 0. -1.
</event>
<event>
 5    1  0.8943113E-005  0.9118800E+02  0.7818608E-02  0.1130116E+00
         25   -1    0    0    0    0  0.00000000000E+00  0.00000000000E+00  0.99999998245E-14  0.12500000000E+03  0.12500000000E+03 0.  0.
        -13    1    3    3    0    0 -0.22756311418E+02  0.44602855953E+02 -0.10959697459E+02  0.51258078397E+02  0.10566000000E+00 0.  1.
         23    2    1    0    0    0  0.11847845204E+02  0.23501093073E+02  0.99483159807E+01  0.96863870159E+02  0.92687472399E+02 0.  0.
         13    1    3    3    0    0  0.34604156622E+02 -0.21101762880E+02  0.20908013440E+02  0.45605791762E+02  0.10566000000E+00 0. -1.
         22    1    1    0    0    0 -0.11847845204E+02 -0.23501093073E+02 -0.99483159807E+01  0.28136129841E+02  0.00000000000E+00 0.  1.
</event>
<event>
 5    1  0.8943113E-005  0.9118800E+02  0.7818608E-02  0.1130116E+00
         25   -1    0    0    0    0  0.00000000000E+00  0.00000000000E+00  0.99999998245E-14  0.12500000000E+03  0.12500000000E+03 0.  0.
        -13    1    3    3    0    0  0.33666023412E+02  0.27213475855E+01  0.29638988449E+02  0.44936484791E+02  0.10566000000E+00 0.  1.
         23    2    1    0    0    0  0.19749973887E+02  0.99395074672E+01 -0.18880291512E+02  0.95925600870E+02  0.91413348136E+02 0.  0.
         13    1    3    3    0    0 -0.13916049525E+02  0.72181598817E+01 -0.48519279961E+02  0.50989116078E+02  0.10566000000E+00 0. -1.
         22    1    1    0    0    0 -0.19749973887E+02 -0.99395074672E+01  0.18880291512E+02  0.29074399130E+02  0.00000000000E+00 0. -1.
</event>
<event>
 5    1  0.8943113E-005  0.9118800E+02  0.7818608E-02  0.1130116E+00
         25   -1    0    0    0    0  0.00000000000E+00  0.00000000000E+00  0.99999998245E-14  0.12500000000E+03  0.12500000000E+03 0.  0.
        -13    1    3    3    0    0 -0.20592667301E+01 -0.77324281033E+00  0.57111441528E+02  0.57153883519E+02  0.10566000000E+00 0.  1.
         23    2    1    0    0    0 -0.12293027276E+02 -0.12970124321E+02  0.16893989502E+02  0.10040834439E+03  0.97350326639E+02 0.  0.
         13    1    3    3    0    0 -0.10233760546E+02 -0.12196881510E+02 -0.40217452025E+02  0.43254460867E+02  0.10566000000E+00 0. -1.
         22    1    1    0    0    0  0.12293027276E+02  0.12970124321E+02 -0.16893989502E+02  0.24591655613E+02  0.00000000000E+00 0.  1.
</event>
<event>
 5    1  0.8943113E-005  0.9118800E+02  0.7818608E-02  0.1130116E+00
         25   -1    0    0    0    0  0.00000000000E+00  0.00000000000E+00  0.99999998245E-14  0.12500000000E+03  0.12500000000E+03 0.  0.
        -13    1    3    3    0    0  0.21301645641E+02 -0.20006137362E+01 -0.36155859882E+02  0.42012140271E+02  0.10566000000E+00 0.  1.
         23    2    1    0    0    0 -0.98166793672E+01 -0.27570589615E+02 -0.61506379921E+00  0.95727437608E+02  0.91141973876E+02 0.  0.
         13    1    3    3    0    0 -0.31118325008E+02 -0.25569975879E+02  0.35540796083E+02  0.53715297337E+02  0.10566000000E+00 0. -1.
         22    1    1    0    0    0  0.98166793672E+01  0.27570589615E+02  0.61506379921E+00  0.29272562392E+02  0.00000000000E+00 0. -1.
</event>
<event>
 5    1  0.8943113E-005  0.9118800E+02  0.7818608E-02  0.1130116E+00
         25   -1    0    0    0    0  0.00000000000E+00  0.00000000000E+00  0.99999998245E-14  0.12500000000E+03  0.12500000000E+03 0.  0.
        -13    1    3    3    0    0  0.25885089237E+02 -0.42394723508E+02 -0.19464170934E+02  0.53349934773E+02  0.10566000000E+00 0. -1.
         23    2    1    0    0    0  0.26760114817E+02 -0.80777929532E+01  0.63913122638E+01  0.96325911410E+02  0.91959109677E+02 0.  0.
         13    1    3    3    0    0  0.87502557967E+00  0.34316930555E+02  0.25855483198E+02  0.42975976637E+02  0.10566000000E+00 0.  1.
         22    1    1    0    0    0 -0.26760114817E+02  0.80777929532E+01 -0.63913122638E+01  0.28674088590E+02  0.00000000000E+00 0.  1.
</event>
<event>
 5    1  0.8943113E-005  0.9118800E+02  0.7818608E-02  0.1130116E+00
         25   -1    0    0    0    0  0.00000000000E+00  0.00000000000E+00  0.99999998245E-14  0.12500000000E+03  0.12500000000E+03 0.  0.
        -13    1    3    3    0    0 -0.19757313676E+02 -0.39444774407E+02  0.39342175477E+02  0.59110571025E+02  0.10566000000E+00 0.  1.
         23    2    1    0    0    0 -0.17382414792E+02 -0.72225972051E+01  0.22879129380E+02  0.95372836525E+02  0.90654338733E+02 0.  0.
         13    1    3    3    0    0  0.23748988833E+01  0.32222177202E+02 -0.16463046097E+02  0.36262265499E+02  0.10566000000E+00 0. -1.
         22    1    1    0    0    0  0.17382414792E+02  0.72225972051E+01 -0.22879129380E+02  0.29627163475E+02  0.00000000000E+00 0.  1.
</event>
<event>
 5    1  0.8943113E-005  0.9118800E+02  0.7818608E-02  0.1130116E+00
         25   -1    0    0    0    0  0.00000000000E+00  0.00000000000E+00  0.99999998245E-14  0.12500000000E+03  0.12500000000E+03 0.  0.
        -13    1    3    3    0    0 -0.38451437067E+02 -0.27986104211E+02  0.14110126374E+01  0.47578746958E+02  0.10566000000E+00 0.  1.
         23    2    1    0    0    0 -0.80952672023E+01 -0.31710686033E+01 -0.27412522929E+02  0.96241776125E+02  0.91844673395E+02 0.  0.
         13    1    3    3    0    0  0.30356169865E+02  0.24815035608E+02 -0.28823535566E+02  0.48663029166E+02  0.10566000000E+00 0. -1.
         22    1    1    0    0    0  0.80952672023E+01  0.31710686033E+01  0.27412522929E+02  0.28758223875E+02  0.00000000000E+00 0.  1.
</event>
<event>
 5    1  0.8943113E-005  0.9118800E+02  0.7818608E-02  0.1130116E+00
         25   -1    0    0    0    0  0.00000000000E+00  0.00000000000E+00  0.99999998245E-14  0.12500000000E+03  0.12500000000E+03 0.  0.
        -13    1    3    3    0    0  0.22830980857E+02  0.47878970718E+02  0.15160466738E+02  0.55167929449E+02  0.10566000000E+00 0. -1.
         23    2    1    0    0    0 -0.95234813254E+01  0.23115303362E+02  0.14867724695E+02  0.95912834726E+02  0.91395889850E+02 0.  0.
         13    1    3    3    0    0 -0.32354462183E+02 -0.24763667356E+02 -0.29274204332E+00  0.40744905276E+02  0.10566000000E+00 0.  1.
         22    1    1    0    0    0  0.95234813254E+01 -0.23115303362E+02 -0.14867724695E+02  0.29087165274E+02  0.00000000000E+00 0. -1.
</event>
<event>
 5    1  0.8943113E-005  0.9118800E+02  0.7818608E-02  0.1130116E+00
         25   -1    0    0    0    0  0.00000000000E+00  0.00000000000E+00  0.99999998245E-14  0.12500000000E+03  0.12500000000E+03 0.  0.
        -13    1    3    3    0    0 -0.21150830956E+02 -0.44331971332E+02  0.15006592044E+02  0.51360396232E+02  0.10566000000E+00 0. -1.
         23    2    1    0    0    0  0.15692729945E+02 -0.24535560850E+02 -0.22915937251E+00  0.95874271968E+02  0.91343133251E+02 0.  0.
         13    1    3    3    0    0  0.36843560901E+02  0.19796410481E+02 -0.15235751417E+02  0.44513875736E+02  0.10566000000E+00 0.  1.
         22    1    1    0    0    0 -0.15692729945E+02  0.24535560850E+02  0.22915937251E+00  0.29125728032E+02  0.00000000000E+00 0. -1.
</event>
<event>
 5    1  0.8943113E-005  0.9118800E+02  0.7818608E-02  0.1130116E+00
         25   -1    0    0    0    0  0.00000000000E+00  0.00000000000E+00  0.99999998245E-14  0.12500000000E+03  0.12500000000E+03 0.  0.
        -13    1    3    3    0    0  0.55359503643E+01  0.51134385328E+02  0.12432975347E+02  0.52914668565E+02  0.10566000000E+00 0.  1.
         23    2    1    0    0    0 -0.18920422930E+02  0.19148492253E+02  0.16567814976E+02  0.93390829614E+02  0.87878936063E+02 0.  0.
         13    1    3    3    0    0 -0.24456373294E+02 -0.31985893075E+02  0.41348396288E+01  0.40476161049E+02  0.10566000000E+00 0. -1.
         22    1    1    0    0    0  0.18920422930E+02 -0.19148492253E+02 -0.16567814976E+02  0.31609170386E+02  0.00000000000E+00 0.  1.
</event>
<event>
 5    1  0.8943113E-005  0.9118800E+02  0.7818608E-02  0.1130116E+00
         25   -1    0    0    0    0  0.00000000000E+00  0.00000000000E+00  0.99999998245E-14  0.12500000000E+03  0.12500000000E+03 0.  0.
        -13    1    3    3    0    0  0.62886126716E+01  0.49335012167E+02 -0.16679511255E+02  0.52456718679E+02  0.10566000000E+00 0. -1.
         23    2    1    0    0    0 -0.61508648139E+01  0.54510938304E+01 -0.24876991906E+02  0.98800528857E+02  0.95263488358E+02 0.  0.
         13    1    3    3    0    0 -0.12439477486E+02 -0.43883918337E+02 -0.81974806513E+01  0.46343810177E+02  0.10566000000E+00 0.  1.
         22    1    1    0    0    0  0.61508648139E+01 -0.54510938304E+01  0.24876991906E+02  0.26199471143E+02  0.00000000000E+00 0.  1.
</event>
<event>
 5    1  0.8943113E-005  0.9118800E+02  0.7818608E-02  0.1130116E+00
         25   -1    0    0    0    0  0.00000000000E+00  0.00000000000E+00  0.99999998245E-14  0.12500000000E+03  0.12500000000E+03 0.  0.
        -13    1    3    3    0    0 -0.45281023242E+02 -0.26820120116E+02  0.24406766039E+02  0.58011992737E+02  0.10566000000E+00 0.  1.
         23    2    1    0    0    0 -0.19908984261E+02 -0.20514775222E+02 -0.34381521344E+01  0.96206866325E+02  0.91797149092E+02 0.  0.
         13    1    3    3    0    0  0.25372038981E+02  0.63053448938E+01 -0.27844918174E+02  0.38194873588E+02  0.10566000000E+00 0. -1.
         22    1    1    0    0    0  0.19908984261E+02  0.20514775222E+02  0.34381521344E+01  0.28793133675E+02  0.00000000000E+00 0.  1.
</event>
<event>
 5    1  0.8943113E-005  0.9118800E+02  0.7818608E-02  0.1130116E+00
         25   -1    0    0    0    0  0.00000000000E+00  0.00000000000E+00  0.99999998245E-14  0.12500000000E+03  0.12500000000E+03 0.  0.
        -13    1    3    3    0    0  0.35582156171E+02  0.39076144757E+02  0.18026921389E+02  0.55839197573E+02  0.10566000000E+00 0. -1.
         23    2    1    0    0    0  0.26087187702E+02 -0.39827264776E+00  0.87030777990E+01  0.97496481198E+02  0.93536732354E+02 0.  0.
         13    1    3    3    0    0 -0.94949684683E+01 -0.39474417405E+02 -0.93238435902E+01  0.41657283625E+02  0.10566000000E+00 0.  1.
         22    1    1    0    0    0 -0.26087187702E+02  0.39827264776E+00 -0.87030777990E+01  0.27503518802E+02  0.00000000000E+00 0. -1.
</event>
<event>
 5    1  0.8943113E-005  0.9118800E+02  0.7818608E-02  0.1130116E+00
         25   -1    0    0    0    0  0.00000000000E+00  0.00000000000E+00  0.99999998245E-14  0.12500000000E+03  0.12500000000E+03 0.  0.
        -13    1    3    3    0    0  0.34502857327E+02  0.97457016682E+01  0.30875126988E+02  0.47315013424E+02  0.10566000000E+00 0. -1.
         23    2    1    0    0    0 -0.11211463391E+02 -0.78522194141E+01  0.24797974356E+02  0.96675208858E+02  0.92432690183E+02 0.  0.
         13    1    3    3    0    0 -0.45714320718E+02 -0.17597921082E+02 -0.60771526319E+01  0.49360195434E+02  0.10566000000E+00 0.  1.
         22    1    1    0    0    0  0.11211463391E+02  0.78522194141E+01 -0.24797974356E+02  0.28324791142E+02  0.00000000000E+00 0.  1.
</event>
<event>
 5    1  0.8943113E-005  0.9118800E+02  0.7818608E-02  0.1130116E+00
         25   -1    0    0    0    0  0.00000000000E+00  0.00000000000E+00  0.99999998245E-14  0.12500000000E+03  0.12500000000E+03 0.  0.
        -13    1    3    3    0    0 -0.54186583722E+01 -0.21428007187E+02  0.24482237433E+02  0.32983518071E+02  0.10566000000E+00 0.  1.
         23    2    1    0    0    0  0.10108540599E+02  0.18953572368E+02 -0.20437730376E+02  0.95350019875E+02  0.90622872216E+02 0.  0.
         13    1    3    3    0    0  0.15527198971E+02  0.40381579555E+02 -0.44919967809E+02  0.62366501804E+02  0.10566000000E+00 0. -1.
         22    1    1    0    0    0 -0.10108540599E+02 -0.18953572368E+02  0.20437730376E+02  0.29649980125E+02  0.00000000000E+00 0. -1.
</event>
<event>
 5    1  0.8943113E-005  0.9118800E+02  0.7818608E-02  0.1130116E+00
         25   -1    0    0    0    0  0.00000000000E+00  0.00000000000E+00  0.99999998245E-14  0.12500000000E+03  0.12500000000E+03 0.  0.
        -13    1    3    3    0    0  0.23495388164E+02  0.24108018339E+02  0.18114114857E+02  0.38227766535E+02  0.10566000000E+00 0. -1.
         23    2    1    0    0    0  0.65860233403E+01 -0.28678470534E+02  0.57637325504E+01  0.95015821030E+02  0.90160719038E+02 0.  0.
         13    1    3    3    0    0 -0.16909364823E+02 -0.52786488872E+02 -0.12350382306E+02  0.56788054495E+02  0.10566000000E+00 0.  1.
         22    1    1    0    0    0 -0.65860233403E+01  0.28678470534E+02 -0.57637325504E+01  0.29984178970E+02  0.00000000000E+00 0.  1.
</event>
<event>
 5    1  0.8943113E-005  0.9118800E+02  0.7818608E-02  0.1130116E+00
         25   -1    0    0    0    0  0.00000000000E+00  0.00000000000E+00  0.99999998245E-14  0.12500000000E+03  0.12500000000E+03 0.  0.
        -13    1    3    3    0    0  0.24368760148E+02  0.62357971441E+01  0.31148092595E+02  0.40036689092E+02  0.10566000000E+00 0. -1.
         23    2    1    0    0    0  0.17951810541E+02 -0.19117227753E+02 -0.16234013991E+02  0.94157187078E+02  0.88962333431E+02 0.  0.
         13    1    3    3    0    0 -0.64169496062E+01 -0.25353024897E+02 -0.47382106586E+02  0.54120497986E+02  0.10566000000E+00 0.  1.
         22    1    1    0    0    0 -0.17951810541E+02  0.19117227753E+02  0.16234013991E+02  0.30842812922E+02  0.00000000000E+00 0.  1.
</event>
<event>
 5    1  0.8943113E-005  0.9118800E+02  0.7818608E-02  0.1130116E+00
         25   -1    0    0    0    0  0.00000000000E+00  0.00000000000E+00  0.99999998245E-14  0.12500000000E+03  0.12500000000E+03 0.  0.
        -13    1    3    3    0    0 -0.23760269753E+02 -0.17354078908E+02 -0.29161934016E+02  0.41426368814E+02  0.10566000000E+00 0. -1.
         23    2    1    0    0    0 -0.12961297258E+02  0.12989471156E+02  0.18495103211E+02  0.98946393142E+02  0.95454692318E+02 0.  0.
         13    1    3    3    0    0  0.10798972496E+02  0.30343550064E+02  0.47657037227E+02  0.57520024328E+02  0.10566000000E+00 0.  1.
         22    1    1    0    0    0  0.12961297258E+02 -0.12989471156E+02 -0.18495103211E+02  0.26053606858E+02  0.00000000000E+00 0.  1.
</event>
<event>
 5    1  0.8943113E-005  0.9118800E+02  0.7818608E-02  0.1130116E+00
         25   -1    0    0    0    0  0.00000000000E+00  0.00000000000E+00  0.99999998245E-14  0.12500000000E+03  0.12500000000E+03 0.  0.
        -13    1    3    3    0    0 -0.24888896162E+02 -0.57127362421E+02  0.26605964928E+00  0.62314321316E+02  0.10566000000E+00 0. -1.
         23    2    1    0    0    0 -0.11430407704E+02 -0.26938654923E+02  0.35134736257E+01  0.95526455146E+02  0.90865911025E+02 0.  0.
         13    1    3    3    0    0  0.13458488459E+02  0.30188707497E+02  0.32474139765E+01  0.33212133830E+02  0.10566000000E+00 0.  1.
         22    1    1    0    0    0  0.11430407704E+02  0.26938654923E+02 -0.35134736257E+01  0.29473544854E+02  0.00000000000E+00 0. -1.
</event>
<event>
 5    1  0.8943113E-005  0.9118800E+02  0.7818608E-02  0.1130116E+00
         25   -1    0    0    0    0  0.00000000000E+00  0.00000000000E+00  0.99999998245E-14  0.12500000000E+03  0.12500000000E+03 0.  0.
        -13    1    3    3    0    0 -0.18522360560E+02 -0.28887337418E+02 -0.82636767120E+01  0.35296680023E+02  0.10566000000E+00 0.  1.
         23    2    1    0    0    0  0.10016737462E+02  0.66195198727E+01  0.28653931793E+02  0.93932317757E+02  0.88645808921E+02 0.  0.
         13    1    3    3    0    0  0.28539098023E+02  0.35506857291E+02  0.36917608505E+02  0.58635637734E+02  0.10566000000E+00 0. -1.
         22    1    1    0    0    0 -0.10016737462E+02 -0.66195198727E+01 -0.28653931793E+02  0.31067682243E+02  0.00000000000E+00 0. -1.
</event>
<event>
 5    1  0.8943113E-005  0.9118800E+02  0.7818608E-02  0.1130116E+00
         25   -1    0    0    0    0  0.00000000000E+00  0.00000000000E+00  0.99999998245E-14  0.12500000000E+03  0.12500000000E+03 0.  0.
        -13    1    3    3    0    0  0.14196092511E+02 -0.27340436443E+02  0.30639891791E+02  0.43449311163E+02  0.10566000000E+00 0.  1.
         23    2    1    0    0    0 -0.37028882259E+01  0.13841188256E+02 -0.12697956296E+02  0.10585507985E+03  0.10410941342E+03 0.  0.
         13    1    3    3    0    0 -0.17898980737E+02  0.41181624699E+02 -0.43337848087E+02  0.62405768685E+02  0.10566000000E+00 0. -1.
         22    1    1    0    0    0  0.37028882259E+01 -0.13841188256E+02  0.12697956296E+02  0.19144920152E+02  0.00000000000E+00 0. -1.
</event>
<event>
 5    1  0.8943113E-005  0.9118800E+02  0.7818608E-02  0.1130116E+00
         25   -1    0    0    0    0  0.00000000000E+00  0.00000000000E+00  0.99999998245E-14  0.12500000000E+03  0.12500000000E+03 0.  0.
        -13    1    3    3    0    0 -0.37327186191E+02 -0.23183448677E+02 -0.27686028553E+02  0.51935714711E+02  0.10566000000E+00 0. -1.
         23    2    1    0    0    0  0.53792957075E+01 -0.20999290892E+02 -0.20241899677E+02  0.95341248462E+02  0.90610772624E+02 0.  0.
         13    1    3    3    0    0  0.42706481899E+02  0.21841577852E+01  0.74441288754E+01  0.43405533751E+02  0.10566000000E+00 0.  1.
         22    1    1    0    0    0 -0.53792957075E+01  0.20999290892E+02  0.20241899677E+02  0.29658751538E+02  0.00000000000E+00 0. -1.
</event>
<event>
 5    1  0.8943113E-005  0.9118800E+02  0.7818608E-02  0.1130116E+00
         25   -1    0    0    0    0  0.00000000000E+00  0.00000000000E+00  0.99999998245E-14  0.12500000000E+03  0.12500000000E+03 0.  0.
        -13    1    3    3    0    0 -0.46691902832E+02  0.34782091061E+02 -0.11412872704E+02  0.59331209967E+02  0.10566000000E+00 0. -1.
         23    2    1    0    0    0 -0.14637764160E+02  0.25332804572E+02  0.27224931633E+01  0.95615869996E+02  0.90988831726E+02 0.  0.
         13    1    3    3    0    0  0.32054138672E+02 -0.94492864895E+01  0.14135365868E+02  0.36284660029E+02  0.10566000000E+00 0.  1.
         22    1    1    0    0    0  0.14637764160E+02 -0.25332804572E+02 -0.27224931633E+01  0.29384130004E+02  0.00000000000E+00 0. -1.
</event>
<event>
 5    1  0.8943113E-005  0.9118800E+02  0.7818608E-02  0.1130116E+00
         25   -1    0    0    0    0  0.00000000000E+00  0.00000000000E+00  0.99999998245E-14  0.12500000000E+03  0.12500000000E+03 0.  0.
        -13    1    3    3    0    0  0.31326871033E+02  0.39230347652E+02  0.27817662169E+02  0.57395352758E+02  0.10566000000E+00 0. -1.
         23    2    1    0    0    0  0.13477885708E+02  0.54207435167E+01  0.25443949193E+02  0.95700982713E+02  0.91105684116E+02 0.  0.
         13    1    3    3    0    0 -0.17848985324E+02 -0.33809604136E+02 -0.23737129763E+01  0.38305629955E+02  0.10566000000E+00 0.  1.
         22    1    1    0    0    0 -0.13477885708E+02 -0.54207435167E+01 -0.25443949193E+02  0.29299017287E+02  0.00000000000E+00 0. -1.
</event>
<event>
 5    1  0.8943113E-005  0.9118800E+02  0.7818608E-02  0.1130116E+00
         25   -1    0    0    0    0  0.00000000000E+00  0.00000000000E+00  0.99999998245E-14  0.12500000000E+03  0.12500000000E+03 0.  0.
        -13    1    3    3    0    0 -0.31512714031E+02  0.21288469640E+02  0.24736507054E+02  0.45366904572E+02  0.10566000000E+00 0.  1.
         23    2    1    0    0    0 -0.16480493826E+02 -0.23091477314E+02  0.50814646890E+01  0.96179099863E+02  0.91759331765E+02 0.  0.
         13    1    3    3    0    0  0.15032220205E+02 -0.44379946954E+02 -0.19655042365E+02  0.50812195291E+02  0.10566000000E+00 0. -1.
         22    1    1    0    0    0  0.16480493826E+02  0.23091477314E+02 -0.50814646890E+01  0.28820900137E+02  0.00000000000E+00 0.  1.
</event>
<event>
 5    1  0.8943113E-005  0.9118800E+02  0.7818608E-02  0.1130116E+00
         25   -1    0    0    0    0  0.00000000000E+00  0.00000000000E+00  0.99999998245E-14  0.12500000000E+03  0.12500000000E+03 0.  0.
        -13    1    3    3    0    0  0.51870523788E+02 -0.16678311984E+02 -0.10028111795E+02  0.55401186981E+02  0.10566000000E+00 0. -1.
         23    2    1    0    0    0  0.23627031329E+02 -0.96365970970E+01  0.16359122388E+02  0.94689581027E+02  0.89707275383E+02 0.  0.
         13    1    3    3    0    0 -0.28243492459E+02  0.70417148874E+01  0.26387234183E+02  0.39288394046E+02  0.10566000000E+00 0.  1.
         22    1    1    0    0    0 -0.23627031329E+02  0.96365970970E+01 -0.16359122388E+02  0.30310418973E+02  0.00000000000E+00 0. -1.
</event>
<event>
 5    1  0.8943113E-005  0.9118800E+02  0.7818608E-02  0.1130116E+00
         25   -1    0    0    0    0  0.00000000000E+00  0.00000000000E+00  0.99999998245E-14  0.12500000000E+03  0.12500000000E+03 0.  0.
        -13    1    3    3    0    0 -0.14451221517E+01 -0.35874658063E+02 -0.40348897095E+02  0.54010407608E+02  0.10566000000E+00 0.  1.
         23    2    1    0    0    0 -0.18751846273E+02 -0.31068372649E+02 -0.13566808876E+02  0.86258112839E+02  0.77068334676E+02 0.  0.
         13    1    3    3    0    0 -0.17306724121E+02  0.48062854138E+01  0.26782088219E+02  0.32247705231E+02  0.10566000000E+00 0. -1.
         22    1    1    0    0    0  0.18751846273E+02  0.31068372649E+02  0.13566808876E+02  0.38741887161E+02  0.00000000000E+00 0.  1.
</event>
<event>
 5    1  0.8943113E-005  0.9118800E+02  0.7818608E-02  0.1130116E+00
         25   -1    0    0    0    0  0.00000000000E+00  0.00000000000E+00  0.99999998245E-14  0.12500000000E+03  0.12500000000E+03 0.  0.
        -13    1    3    3    0    0 -0.21617843741E+02  0.16013434404E+02  0.26759501597E+02  0.37945267678E+02  0.10566000000E+00 0. -1.
         23    2    1    0    0    0 -0.17526468364E+02 -0.27876579435E+02 -0.41904070627E+01  0.91806020340E+02  0.85595006192E+02 0.  0.
         13    1    3    3    0    0  0.40913753767E+01 -0.43890013839E+02 -0.30949908660E+02  0.53860752662E+02  0.10566000000E+00 0.  1.
         22    1    1    0    0    0  0.17526468364E+02  0.27876579435E+02  0.41904070627E+01  0.33193979660E+02  0.00000000000E+00 0.  1.
</event>
<event>
 5    1  0.8943113E-005  0.9118800E+02  0.7818608E-02  0.1130116E+00
         25   -1    0    0    0    0  0.00000000000E+00  0.00000000000E+00  0.99999998245E-14  0.12500000000E+03  0.12500000000E+03 0.  0.
        -13    1    3    3    0    0 -0.37853131916E+01 -0.58259900117E+02  0.11439084756E+02  0.59492927157E+02  0.10566000000E+00 0.  1.
         23    2    1    0    0    0 -0.15247875333E+02 -0.24604600673E+02  0.50141554667E+01  0.95622698702E+02  0.90998212486E+02 0.  0.
         13    1    3    3    0    0 -0.11462562142E+02  0.33655299444E+02 -0.64249292891E+01  0.36129771545E+02  0.10566000000E+00 0. -1.
         22    1    1    0    0    0  0.15247875333E+02  0.24604600673E+02 -0.50141554667E+01  0.29377301298E+02  0.00000000000E+00 0.  1.
</event>
<event>
 5    1  0.8943113E-005  0.9118800E+02  0.7818608E-02  0.1130116E+00
         25   -1    0    0    0    0  0.00000000000E+00  0.00000000000E+00  0.99999998245E-14  0.12500000000E+03  0.12500000000E+03 0.  0.
        -13    1    3    3    0    0 -0.23414491742E+01  0.96414867303E+01  0.42224846524E+02  0.43374986785E+02  0.10566000000E+00 0. -1.
         23    2    1    0    0    0 -0.16083713825E+02  0.22753705886E+02 -0.71124117598E+01  0.96242333492E+02  0.91845431966E+02 0.  0.
         13    1    3    3    0    0 -0.13742264651E+02  0.13112219155E+02 -0.49337258283E+02  0.52867346707E+02  0.10566000000E+00 0.  1.
         22    1    1    0    0    0  0.16083713825E+02 -0.22753705886E+02  0.71124117598E+01  0.28757666508E+02  0.00000000000E+00 0.  1.
</event>
<event>
 5    1  0.8943113E-005  0.9118800E+02  0.7818608E-02  0.1130116E+00
         25   -1    0    0    0    0  0.00000000000E+00  0.00000000000E+00  0.99999998245E-14  0.12500000000E+03  0.12500000000E+03 0.  0.
        -13    1    3    3    0    0  0.57576087895E+02  0.16626278106E+02 -0.54773096772E+01  0.60178493719E+02  0.10566000000E+00 0.  1.
         23    2    1    0    0    0  0.22129897220E+02  0.17759440610E+02  0.24548323184E+01  0.96519194473E+02  0.92221465063E+02 0.  0.
         13    1    3    3    0    0 -0.35446190675E+02  0.11331625035E+01  0.79321419956E+01  0.36340700754E+02  0.10566000000E+00 0. -1.
         22    1    1    0    0    0 -0.22129897220E+02 -0.17759440610E+02 -0.24548323184E+01  0.28480805527E+02  0.00000000000E+00 0.  1.
</event>
<event>
 5    1  0.8943113E-005  0.9118800E+02  0.7818608E-02  0.1130116E+00
         25   -1    0    0    0    0  0.00000000000E+00  0.00000000000E+00  0.99999998245E-14  0.12500000000E+03  0.12500000000E+03 0.  0.
        -13    1    3    3    0    0 -0.16288809332E+02  0.22588698679E+02  0.25923901416E+02  0.38047791607E+02  0.10566000000E+00 0.  1.
         23    2    1    0    0    0  0.13337345657E+02  0.15082922815E+02 -0.22183227724E+02  0.95042113858E+02  0.90197164393E+02 0.  0.
         13    1    3    3    0    0  0.29626154989E+02 -0.75057758636E+01 -0.48107129140E+02  0.56994322252E+02  0.10566000000E+00 0. -1.
         22    1    1    0    0    0 -0.13337345657E+02 -0.15082922815E+02  0.22183227724E+02  0.29957886142E+02  0.00000000000E+00 0. -1.
</event>
<event>
 5    1  0.8943113E-005  0.9118800E+02  0.7818608E-02  0.1130116E+00
         25   -1    0    0    0    0  0.00000000000E+00  0.00000000000E+00  0.99999998245E-14  0.12500000000E+03  0.12500000000E+03 0.  0.
        -13    1    3    3    0    0 -0.21896392933E+02 -0.45891755335E+02 -0.16507310388E+01  0.50874761014E+02  0.10566000000E+00 0. -1.
         23    2    1    0    0    0 -0.98791567189E-01 -0.13197686677E+02  0.23866390622E+02  0.97727425960E+02  0.93844853296E+02 0.  0.
         13    1    3    3    0    0  0.21797601366E+02  0.32694068657E+02  0.25517121661E+02  0.46852664947E+02  0.10566000000E+00 0.  1.
         22    1    1    0    0    0  0.98791567189E-01  0.13197686677E+02 -0.23866390622E+02  0.27272574040E+02  0.00000000000E+00 0.  1.
</event>
<event>
 5    1  0.8943113E-005  0.9118800E+02  0.7818608E-02  0.1130116E+00
         25   -1    0    0    0    0  0.00000000000E+00  0.00000000000E+00  0.99999998245E-14  0.12500000000E+03  0.12500000000E+03 0.  0.
        -13    1    3    3    0    0 -0.56335361047E+02  0.18527760922E+02 -0.12513229243E+02  0.60609759109E+02  0.10566000000E+00 0. -1.
         23    2    1    0    0    0 -0.26645260466E+02  0.81344426804E+01  0.51236350709E+01  0.96673498286E+02  0.92430376887E+02 0.  0.
         13    1    3    3    0    0  0.29690100581E+02 -0.10393318242E+02  0.17636864314E+02  0.36063739177E+02  0.10566000000E+00 0.  1.
         22    1    1    0    0    0  0.26645260466E+02 -0.81344426804E+01 -0.51236350709E+01  0.28326501714E+02  0.00000000000E+00 0. -1.
</event>
<event>
 5    1  0.8943113E-005  0.9118800E+02  0.7818608E-02  0.1130116E+00
         25   -1    0    0    0    0  0.00000000000E+00  0.00000000000E+00  0.99999998245E-14  0.12500000000E+03  0.12500000000E+03 0.  0.
        -13    1    3    3    0    0  0.21067101877E+02  0.14554741569E+01 -0.52328892236E+02  0.56429294815E+02  0.10566000000E+00 0. -1.
         23    2    1    0    0    0  0.14977099543E+02  0.18521319810E+02 -0.18370888693E+02  0.94919402440E+02  0.90026943800E+02 0.  0.
         13    1    3    3    0    0 -0.60900023339E+01  0.17065845653E+02  0.33958003544E+02  0.38490107625E+02  0.10566000000E+00 0.  1.
         22    1    1    0    0    0 -0.14977099543E+02 -0.18521319810E+02  0.18370888693E+02  0.30080597560E+02  0.00000000000E+00 0. -1.
</event>
<event>
 5    1  0.8943113E-005  0.9118800E+02  0.7818608E-02  0.1130116E+00
         25   -1    0    0    0    0  0.00000000000E+00  0.00000000000E+00  0.99999998245E-14  0.12500000000E+03  0.12500000000E+03 0.  0.
        -13    1    3    3    0    0  0.45663672510E+02 -0.24378956730E+02 -0.32560134770E+02  0.61152907196E+02  0.10566000000E+00 0.  1.
         23    2    1    0    0    0  0.18202813359E+02 -0.19341284197E+02 -0.11841657051E+02  0.95919894596E+02  0.91405544958E+02 0.  0.
         13    1    3    3    0    0 -0.27460859151E+02  0.50376725327E+01  0.20718477719E+02  0.34766987400E+02  0.10566000000E+00 0. -1.
         22    1    1    0    0    0 -0.18202813359E+02  0.19341284197E+02  0.11841657051E+02  0.29080105404E+02  0.00000000000E+00 0.  1.
</event>
<event>
 5    1  0.8943113E-005  0.9118800E+02  0.7818608E-02  0.1130116E+00
         25   -1    0    0    0    0  0.00000000000E+00  0.00000000000E+00  0.99999998245E-14  0.12500000000E+03  0.12500000000E+03 0.  0.
        -13    1    3    3    0    0  0.12101576970E+02  0.42354224773E+02  0.27534702240E+02  0.51947083775E+02  0.10566000000E+00 0.  1.
         23    2    1    0    0    0 -0.12269185518E+02  0.25126628844E+02 -0.55374580537E+01  0.96494845518E+02  0.92188455782E+02 0.  0.
         13    1    3    3    0    0 -0.24370762489E+02 -0.17227595929E+02 -0.33072160294E+02  0.44547761743E+02  0.10566000000E+00 0. -1.
         22    1    1    0    0    0  0.12269185518E+02 -0.25126628844E+02  0.55374580537E+01  0.28505154482E+02  0.00000000000E+00 0.  1.
</event>
<event>
 5    1  0.8943113E-005  0.9118800E+02  0.7818608E-02  0.1130116E+00
         25   -1    0    0    0    0  0.00000000000E+00  0.00000000000E+00  0.99999998245E-14  0.12500000000E+03  0.12500000000E+03 0.  0.
        -13    1    3    3    0    0  0.58046015449E+02 -0.49092495076E+01  0.17414140312E+02  0.60800527029E+02  0.10566000000E+00 0. -1.
         23    2    1    0    0    0  0.27089470628E+02 -0.21204361563E+01 -0.24968701413E+01  0.97713189470E+02  0.93825888578E+02 0.  0.
         13    1    3    3    0    0 -0.30956544820E+02  0.27888133512E+01 -0.19911010453E+02  0.36912662440E+02  0.10566000000E+00 0.  1.
         22    1    1    0    0    0 -0.27089470628E+02  0.21204361563E+01  0.24968701413E+01  0.27286810530E+02  0.00000000000E+00 0. -1.
</event>
<event>
 5    1  0.8943113E-005  0.9118800E+02  0.7818608E-02  0.1130116E+00
         25   -1    0    0    0    0  0.00000000000E+00  0.00000000000E+00  0.99999998245E-14  0.12500000000E+03  0.12500000000E+03 0.  0.
        -13    1    3    3    0    0  0.15020067427E+01  0.17614558802E+02  0.39205054317E+02  0.43006698944E+02  0.10566000000E+00 0. -1.
         23    2    1    0    0    0  0.79673628802E+01  0.29522680848E+02 -0.90354167163E+01  0.93114167551E+02  0.87484523705E+02 0.  0.
         13    1    3    3    0    0  0.64653561375E+01  0.11908122046E+02 -0.48240471033E+02  0.50107468607E+02  0.10566000000E+00 0.  1.
         22    1    1    0    0    0 -0.79673628802E+01 -0.29522680848E+02  0.90354167163E+01  0.31885832449E+02  0.00000000000E+00 0.  1.
</event>
<event>
 5    1  0.8943113E-005  0.9118800E+02  0.7818608E-02  0.1130116E+00
         25   -1    0    0    0    0  0.00000000000E+00  0.00000000000E+00  0.99999998245E-14  0.12500000000E+03  0.12500000000E+03 0.  0.
        -13    1    3    3    0    0 -0.27724929401E+02 -0.12791615730E+02  0.48459272256E+02  0.57276604080E+02  0.10566000000E+00 0.  1.
         23    2    1    0    0    0 -0.26629495602E+02 -0.90097802161E+00  0.11749681330E+02  0.95879615237E+02  0.91350445041E+02 0.  0.
         13    1    3    3    0    0  0.10954337990E+01  0.11890637709E+02 -0.36709590927E+02  0.38603011157E+02  0.10566000000E+00 0. -1.
         22    1    1    0    0    0  0.26629495602E+02  0.90097802161E+00 -0.11749681330E+02  0.29120384763E+02  0.00000000000E+00 0.  1.
</event>
<event>
 5    1  0.8943113E-005  0.9118800E+02  0.7818608E-02  0.1130116E+00
         25   -1    0    0    0    0  0.00000000000E+00  0.00000000000E+00  0.99999998245E-14  0.12500000000E+03  0.12500000000E+03 0.  0.
        -13    1    3    3    0    0 -0.67843836267E+01  0.42149539391E+02 -0.96338754576E+01  0.43765674363E+02  0.10566000000E+00 0.  1.
         23    2    1    0    0    0 -0.97015025650E+01 -0.63033477142E+01 -0.27243321714E+02  0.95401859477E+02  0.90694348607E+02 0.  0.
         13    1    3    3    0    0 -0.29171189382E+01 -0.48452887105E+02 -0.17609446256E+02  0.51636185115E+02  0.10566000000E+00 0. -1.
         22    1    1    0    0    0  0.97015025650E+01  0.63033477142E+01  0.27243321714E+02  0.29598140523E+02  0.00000000000E+00 0. -1.
</event>
<event>
 5    1  0.8943113E-005  0.9118800E+02  0.7818608E-02  0.1130116E+00
         25   -1    0    0    0    0  0.00000000000E+00  0.00000000000E+00  0.99999998245E-14  0.12500000000E+03  0.12500000000E+03 0.  0.
        -13    1    3    3    0    0 -0.22905594044E+02  0.21145521912E+02  0.53266639708E+02  0.61718274484E+02  0.10566000000E+00 0.  1.
         23    2    1    0    0    0 -0.14413129612E+02  0.41673843268E+01  0.26745321990E+02  0.94333770273E+02  0.89210103510E+02 0.  0.
         13    1    3    3    0    0  0.84924644328E+01 -0.16978137586E+02 -0.26521317718E+02  0.32615495789E+02  0.10566000000E+00 0. -1.
         22    1    1    0    0    0  0.14413129612E+02 -0.41673843268E+01 -0.26745321990E+02  0.30666229727E+02  0.00000000000E+00 0.  1.
</event>
<event>
 5    1  0.8943113E-005  0.9118800E+02  0.7818608E-02  0.1130116E+00
         25   -1    0    0    0    0  0.00000000000E+00  0.00000000000E+00  0.99999998245E-14  0.12500000000E+03  0.12500000000E+03 0.  0.
        -13    1    3    3    0    0 -0.38548442206E+02  0.12354281785E+02 -0.76319146969E+01  0.41193057192E+02  0.10566000000E+00 0. -1.
         23    2    1    0    0    0  0.20769772285E+02 -0.14116047941E+01 -0.95016687700E+01  0.10211642995E+03  0.99519382470E+02 0.  0.
         13    1    3    3    0    0  0.59318214491E+02 -0.13765886579E+02 -0.18697540731E+01  0.60923372756E+02  0.10566000000E+00 0.  1.
         22    1    1    0    0    0 -0.20769772285E+02  0.14116047941E+01  0.95016687700E+01  0.22883570051E+02  0.00000000000E+00 0.  1.
</event>
<event>
 5    1  0.8943113E-005  0.9118800E+02  0.7818608E-02  0.1130116E+00
         25   -1    0    0    0    0  0.00000000000E+00  0.00000000000E+00  0.99999998245E-14  0.12500000000E+03  0.12500000000E+03 0.  0.
        -13    1    3    3    0    0 -0.16248569401E+02  0.56446581038E+02  0.17253679116E+02  0.61220365284E+02  0.10566000000E+00 0.  1.
         23    2    1    0    0    0 -0.56040287012E+01  0.22077885099E+02  0.15892741347E+02  0.97225598554E+02  0.93174028777E+02 0.  0.
         13    1    3    3    0    0  0.10644540699E+02 -0.34368695939E+02 -0.13609377683E+01  0.36005233271E+02  0.10566000000E+00 0. -1.
         22    1    1    0    0    0  0.56040287012E+01 -0.22077885099E+02 -0.15892741347E+02  0.27774401446E+02  0.00000000000E+00 0.  1.
</event>
<event>
 5    1  0.8943113E-005  0.9118800E+02  0.7818608E-02  0.1130116E+00
         25   -1    0    0    0    0  0.00000000000E+00  0.00000000000E+00  0.99999998245E-14  0.12500000000E+03  0.12500000000E+03 0.  0.
        -13    1    3    3    0    0  0.36780474464E+02 -0.48434185323E+02  0.91376482083E+01  0.61499442180E+02  0.10566000000E+00 0. -1.
         23    2    1    0    0    0  0.16208665916E+02 -0.22353546422E+02 -0.37608340176E+01  0.97133429330E+02  0.93050294639E+02 0.  0.
         13    1    3    3    0    0 -0.20571808547E+02  0.26080638901E+02 -0.12898482226E+02  0.35633987150E+02  0.10566000000E+00 0.  1.
         22    1    1    0    0    0 -0.16208665916E+02  0.22353546422E+02  0.37608340176E+01  0.27866570670E+02  0.00000000000E+00 0. -1.
</event>
<event>
 5    1  0.8943113E-005  0.9118800E+02  0.7818608E-02  0.1130116E+00
         25   -1    0    0    0    0  0.00000000000E+00  0.00000000000E+00  0.99999998245E-14  0.12500000000E+03  0.12500000000E+03 0.  0.
        -13    1    3    3    0    0  0.30894710160E+02  0.33956145265E+02  0.35999187685E+02  0.58339142907E+02  0.10566000000E+00 0.  1.
         23    2    1    0    0    0  0.50241054165E+01  0.54276162506E+01  0.25774492646E+02  0.98185356155E+02  0.94452840289E+02 0.  0.
         13    1    3    3    0    0 -0.25870604743E+02 -0.28528529015E+02 -0.10224695039E+02  0.39846213248E+02  0.10566000000E+00 0. -1.
         22    1    1    0    0    0 -0.50241054165E+01 -0.54276162506E+01 -0.25774492646E+02  0.26814643845E+02  0.00000000000E+00 0.  1.
</event>
<event>
 5    1  0.8943113E-005  0.9118800E+02  0.7818608E-02  0.1130116E+00
         25   -1    0    0    0    0  0.00000000000E+00  0.00000000000E+00  0.99999998245E-14  0.12500000000E+03  0.12500000000E+03 0.  0.
        -13    1    3    3    0    0  0.26387599884E+02  0.48941923812E+02 -0.24322797101E+02  0.60689595129E+02  0.10566000000E+00 0. -1.
         23    2    1    0    0    0  0.22232373651E+02  0.18849770357E+02 -0.11389733082E+02  0.93705938257E+02  0.88326012954E+02 0.  0.
         13    1    3    3    0    0 -0.41552262337E+01 -0.30092153455E+02  0.12933064020E+02  0.33016343128E+02  0.10566000000E+00 0.  1.
         22    1    1    0    0    0 -0.22232373651E+02 -0.18849770357E+02  0.11389733082E+02  0.31294061743E+02  0.00000000000E+00 0. -1.
</event>
<event>
 5    1  0.8943113E-005  0.9118800E+02  0.7818608E-02  0.1130116E+00
         25   -1    0    0    0    0  0.00000000000E+00  0.00000000000E+00  0.99999998245E-14  0.12500000000E+03  0.12500000000E+03 0.  0.
        -13    1    3    3    0    0  0.26175182202E+02  0.48439052272E+02  0.31203811042E+01  0.55147347086E+02  0.10566000000E+00 0. -1.
         23    2    1    0    0    0  0.75136718327E+00  0.22817643982E+02  0.19678990397E+02  0.94859129200E+02  0.89943217087E+02 0.  0.
         13    1    3    3    0    0 -0.25423815019E+02 -0.25621408290E+02  0.16558609293E+02  0.39711782114E+02  0.10566000000E+00 0.  1.
         22    1    1    0    0    0 -0.75136718327E+00 -0.22817643982E+02 -0.19678990397E+02  0.30140870800E+02  0.00000000000E+00 0. -1.
</event>
<event>
 5    1  0.8943113E-005  0.9118800E+02  0.7818608E-02  0.1130116E+00
         25   -1    0    0    0    0  0.00000000000E+00  0.00000000000E+00  0.99999998245E-14  0.12500000000E+03  0.12500000000E+03 0.  0.
        -13    1    3    3    0    0  0.31627861049E+02  0.77280993899E+01  0.17371799203E+02  0.36903057953E+02  0.10566000000E+00 0. -1.
         23    2    1    0    0    0 -0.10921729708E+02 -0.27317464374E+02 -0.24395680301E+01  0.95479167834E+02  0.90800836772E+02 0.  0.
         13    1    3    3    0    0 -0.42549590756E+02 -0.35045563764E+02 -0.19811367233E+02  0.58576109881E+02  0.10566000000E+00 0.  1.
         22    1    1    0    0    0  0.10921729708E+02  0.27317464374E+02  0.24395680301E+01  0.29520832166E+02  0.00000000000E+00 0.  1.
</event>
<event>
 5    1  0.8943113E-005  0.9118800E+02  0.7818608E-02  0.1130116E+00
         25   -1    0    0    0    0  0.00000000000E+00  0.00000000000E+00  0.99999998245E-14  0.12500000000E+03  0.12500000000E+03 0.  0.
        -13    1    3    3    0    0 -0.30247345466E+02  0.22278754671E+02  0.24644734116E+02  0.44929042958E+02  0.10566000000E+00 0.  1.
         23    2    1    0    0    0 -0.29525591681E+02 -0.21265379932E+01 -0.15248736775E+02  0.91701250756E+02  0.85441867308E+02 0.  0.
         13    1    3    3    0    0  0.72175378446E+00 -0.24405292664E+02 -0.39893470891E+02  0.46772207798E+02  0.10566000000E+00 0. -1.
         22    1    1    0    0    0  0.29525591681E+02  0.21265379932E+01  0.15248736775E+02  0.33298749244E+02  0.00000000000E+00 0.  1.
</event>
<event>
 5    1  0.8943113E-005  0.9118800E+02  0.7818608E-02  0.1130116E+00
         25   -1    0    0    0    0  0.00000000000E+00  0.00000000000E+00  0.99999998245E-14  0.12500000000E+03  0.12500000000E+03 0.  0.
        -13    1    3    3    0    0  0.30714075951E+02 -0.10433192390E+02  0.15418152492E+02  0.35915686758E+02  0.10566000000E+00 0.  1.
         23    2    1    0    0    0 -0.26999609168E+02 -0.28087597775E+01  0.14688436689E+02  0.94135486412E+02  0.88931836835E+02 0.  0.
         13    1    3    3    0    0 -0.57713685118E+02  0.76244326129E+01 -0.72971580369E+00  0.58219799654E+02  0.10566000000E+00 0. -1.
         22    1    1    0    0    0  0.26999609168E+02  0.28087597775E+01 -0.14688436689E+02  0.30864513588E+02  0.00000000000E+00 0. -1.
</event>
<event>
 5    1  0.8943113E-005  0.9118800E+02  0.7818608E-02  0.1130116E+00
         25   -1    0    0    0    0  0.00000000000E+00  0.00000000000E+00  0.99999998245E-14  0.12500000000E+03  0.12500000000E+03 0.  0.
        -13    1    3    3    0    0  0.22866074607E+02  0.18394737375E+02 -0.38058603952E+02  0.48059257484E+02  0.10566000000E+00 0.  1.
         23    2    1    0    0    0 -0.12469908086E+02 -0.10313443396E+02 -0.24635839090E+02  0.95524751231E+02  0.90863566999E+02 0.  0.
         13    1    3    3    0    0 -0.35335982693E+02 -0.28708180771E+02  0.13422764863E+02  0.47465493747E+02  0.10566000000E+00 0. -1.
         22    1    1    0    0    0  0.12469908086E+02  0.10313443396E+02  0.24635839090E+02  0.29475248769E+02  0.00000000000E+00 0.  1.
</event>
<event>
 5    1  0.8943113E-005  0.9118800E+02  0.7818608E-02  0.1130116E+00
         25   -1    0    0    0    0  0.00000000000E+00  0.00000000000E+00  0.99999998245E-14  0.12500000000E+03  0.12500000000E+03 0.  0.
        -13    1    3    3    0    0 -0.26926577210E+02  0.20066219892E+02  0.37419265298E+02  0.50278288759E+02  0.10566000000E+00 0.  1.
         23    2    1    0    0    0  0.14265667078E+02  0.17579097657E+02  0.18891301193E+02  0.95514152677E+02  0.90848985516E+02 0.  0.
         13    1    3    3    0    0  0.41192244288E+02 -0.24871222356E+01 -0.18527964105E+02  0.45235863918E+02  0.10566000000E+00 0. -1.
         22    1    1    0    0    0 -0.14265667078E+02 -0.17579097657E+02 -0.18891301193E+02  0.29485847323E+02  0.00000000000E+00 0. -1.
</event>
<event>
 5    1  0.8943113E-005  0.9118800E+02  0.7818608E-02  0.1130116E+00
         25   -1    0    0    0    0  0.00000000000E+00  0.00000000000E+00  0.99999998245E-14  0.12500000000E+03  0.12500000000E+03 0.  0.
        -13    1    3    3    0    0 -0.40371606489E+02  0.22806836579E+02  0.38416646319E+02  0.60215183166E+02  0.10566000000E+00 0.  1.
         23    2    1    0    0    0 -0.13238373124E+02  0.39001412149E+01  0.26045013872E+02  0.95524444500E+02  0.90863145031E+02 0.  0.
         13    1    3    3    0    0  0.27133233366E+02 -0.18906695364E+02 -0.12371632448E+02  0.35309261334E+02  0.10566000000E+00 0. -1.
         22    1    1    0    0    0  0.13238373124E+02 -0.39001412149E+01 -0.26045013872E+02  0.29475555500E+02  0.00000000000E+00 0.  1.
</event>
<event>
 5    1  0.8943113E-005  0.9118800E+02  0.7818608E-02  0.1130116E+00
         25   -1    0    0    0    0  0.00000000000E+00  0.00000000000E+00  0.99999998245E-14  0.12500000000E+03  0.12500000000E+03 0.  0.
        -13    1    3    3    0    0 -0.26513358366E+02  0.10763323617E+02  0.52163617702E+02  0.59496735061E+02  0.10566000000E+00 0. -1.
         23    2    1    0    0    0 -0.14549610928E+02 -0.81584701864E+01  0.16992251266E+02  0.10118848142E+03  0.98346938719E+02 0.  0.
         13    1    3    3    0    0  0.11963747438E+02 -0.18921793804E+02 -0.35171366436E+02  0.41691746360E+02  0.10566000000E+00 0.  1.
         22    1    1    0    0    0  0.14549610928E+02  0.81584701864E+01 -0.16992251266E+02  0.23811518578E+02  0.00000000000E+00 0. -1.
</event>
<event>
 5    1  0.8943113E-005  0.9118800E+02  0.7818608E-02  0.1130116E+00
         25   -1    0    0    0    0  0.00000000000E+00  0.00000000000E+00  0.99999998245E-14  0.12500000000E+03  0.12500000000E+03 0.  0.
        -13    1    3    3    0    0 -0.18137542875E+02  0.12136908222E+02 -0.31380649082E+02  0.38223439191E+02  0.10566000000E+00 0.  1.
         23    2    1    0    0    0  0.14617947530E+02 -0.25904435279E+02 -0.53254295083E+01  0.94782714276E+02  0.89836955474E+02 0.  0.
         13    1    3    3    0    0  0.32755490405E+02 -0.38041343501E+02  0.26055219574E+02  0.56559275085E+02  0.10566000000E+00 0. -1.
         22    1    1    0    0    0 -0.14617947530E+02  0.25904435279E+02  0.53254295083E+01  0.30217285724E+02  0.00000000000E+00 0. -1.
</event>
<event>
 5    1  0.8943113E-005  0.9118800E+02  0.7818608E-02  0.1130116E+00
         25   -1    0    0    0    0  0.00000000000E+00  0.00000000000E+00  0.99999998245E-14  0.12500000000E+03  0.12500000000E+03 0.  0.
        -13    1    3    3    0    0 -0.33745203426E+02  0.18077508599E+02 -0.39524355597E+01  0.38485945257E+02  0.10566000000E+00 0.  1.
         23    2    1    0    0    0  0.22565449469E+02  0.13633918063E+02 -0.12854230947E+02  0.95668881973E+02  0.91061630192E+02 0.  0.
         13    1    3    3    0    0  0.56310652895E+02 -0.44435905357E+01 -0.89017953871E+01  0.57182936716E+02  0.10566000000E+00 0. -1.
         22    1    1    0    0    0 -0.22565449469E+02 -0.13633918063E+02  0.12854230947E+02  0.29331118027E+02  0.00000000000E+00 0. -1.
</event>
<event>
 5    1  0.8943113E-005  0.9118800E+02  0.7818608E-02  0.1130116E+00
         25   -1    0    0    0    0  0.00000000000E+00  0.00000000000E+00  0.99999998245E-14  0.12500000000E+03  0.12500000000E+03 0.  0.
        -13    1    3    3    0    0 -0.36084090695E+02  0.12167591976E+02 -0.29570306132E+02  0.48213339073E+02  0.10566000000E+00 0.  1.
         23    2    1    0    0    0  0.56958993793E+01 -0.75622436515E+01 -0.29077205950E+02  0.94420354734E+02  0.89331342111E+02 0.  0.
         13    1    3    3    0    0  0.41779990074E+02 -0.19729835627E+02  0.49310018219E+00  0.46207015661E+02  0.10566000000E+00 0. -1.
         22    1    1    0    0    0 -0.56958993793E+01  0.75622436515E+01  0.29077205950E+02  0.30579645266E+02  0.00000000000E+00 0.  1.
</event>
<event>
 5    1  0.8943113E-005  0.9118800E+02  0.7818608E-02  0.1130116E+00
         25   -1    0    0    0    0  0.00000000000E+00  0.00000000000E+00  0.99999998245E-14  0.12500000000E+03  0.12500000000E+03 0.  0.
        -13    1    3    3    0    0 -0.29564193041E+02 -0.24643007754E+02  0.51049709422E+01  0.38825136622E+02  0.10566000000E+00 0.  1.
         23    2    1    0    0    0  0.74956896854E+01  0.13411679099E+02  0.25090362711E+02  0.95579177424E+02  0.90938409684E+02 0.  0.
         13    1    3    3    0    0  0.37059882726E+02  0.38054686853E+02  0.19985391769E+02  0.56754040802E+02  0.10566000000E+00 0. -1.
         22    1    1    0    0    0 -0.74956896854E+01 -0.13411679099E+02 -0.25090362711E+02  0.29420822576E+02  0.00000000000E+00 0. -1.
</event>
<event>
 5    1  0.8943113E-005  0.9118800E+02  0.7818608E-02  0.1130116E+00
         25   -1    0    0    0    0  0.00000000000E+00  0.00000000000E+00  0.99999998245E-14  0.12500000000E+03  0.12500000000E+03 0.  0.
        -13    1    3    3    0    0  0.26320070327E+02  0.47025905638E+02 -0.35382055549E+00  0.53891727158E+02  0.10566000000E+00 0. -1.
         23    2    1    0    0    0  0.15532965282E+02  0.22112879849E+02  0.22854581009E+02  0.89608131742E+02  0.82322736444E+02 0.  0.
         13    1    3    3    0    0 -0.10787105044E+02 -0.24913025789E+02  0.23208401565E+02  0.35716404584E+02  0.10566000000E+00 0.  1.
         22    1    1    0    0    0 -0.15532965282E+02 -0.22112879849E+02 -0.22854581009E+02  0.35391868258E+02  0.00000000000E+00 0. -1.
</event>
<event>
 5    1  0.8943113E-005  0.9118800E+02  0.7818608E-02  0.1130116E+00
         25   -1    0    0    0    0  0.00000000000E+00  0.00000000000E+00  0.99999998245E-14  0.12500000000E+03  0.12500000000E+03 0.  0.
        -13    1    3    3    0    0  0.71148824175E+01 -0.32902708965E+02  0.14320216951E+01  0.33693792592E+02  0.10566000000E+00 0. -1.
         23    2    1    0    0    0  0.15691622659E+02  0.25698504518E+02  0.94078322690E+01  0.93454042032E+02  0.87968804175E+02 0.  0.
         13    1    3    3    0    0  0.85767402415E+01  0.58601213483E+02  0.79758105739E+01  0.59760249440E+02  0.10566000000E+00 0.  1.
         22    1    1    0    0    0 -0.15691622659E+02 -0.25698504518E+02 -0.94078322690E+01  0.31545957968E+02  0.00000000000E+00 0.  1.
</event>
<event>
 5    1  0.8943113E-005  0.9118800E+02  0.7818608E-02  0.1130116E+00
         25   -1    0    0    0    0  0.00000000000E+00  0.00000000000E+00  0.99999998245E-14  0.12500000000E+03  0.12500000000E+03 0.  0.
        -13    1    3    3    0    0 -0.21246014813E+02  0.16295676253E+02 -0.35300065178E+02  0.44306297245E+02  0.10566000000E+00 0. -1.
         23    2    1    0    0    0  0.32282872357E+01 -0.12935671969E+02  0.13361891738E+02  0.10612425899E+03  0.10443210593E+03 0.  0.
         13    1    3    3    0    0  0.24474302049E+02 -0.29231348222E+02  0.48661956916E+02  0.61817961747E+02  0.10566000000E+00 0.  1.
         22    1    1    0    0    0 -0.32282872357E+01  0.12935671969E+02 -0.13361891738E+02  0.18875741008E+02  0.00000000000E+00 0.  1.
</event>
<event>
 5    1  0.8943113E-005  0.9118800E+02  0.7818608E-02  0.1130116E+00
         25   -1    0    0    0    0  0.00000000000E+00  0.00000000000E+00  0.99999998245E-14  0.12500000000E+03  0.12500000000E+03 0.  0.
        -13    1    3    3    0    0 -0.75486460942E+01  0.28747687580E+02 -0.36567190327E+02  0.47123053503E+02  0.10566000000E+00 0.  1.
         23    2    1    0    0    0  0.13353958830E+02 -0.12612206922E+02 -0.23307271198E+02  0.95324675729E+02  0.90587907207E+02 0.  0.
         13    1    3    3    0    0  0.20902604924E+02 -0.41359894502E+02  0.13259919129E+02  0.48201622226E+02  0.10566000000E+00 0. -1.
         22    1    1    0    0    0 -0.13353958830E+02  0.12612206922E+02  0.23307271198E+02  0.29675324271E+02  0.00000000000E+00 0.  1.
</event>
<event>
 5    1  0.8943113E-005  0.9118800E+02  0.7818608E-02  0.1130116E+00
         25   -1    0    0    0    0  0.00000000000E+00  0.00000000000E+00  0.99999998245E-14  0.12500000000E+03  0.12500000000E+03 0.  0.
        -13    1    3    3    0    0  0.51541198768E+02  0.32454400579E+02 -0.35769678262E+01  0.61013024432E+02  0.10566000000E+00 0. -1.
         23    2    1    0    0    0  0.19772668613E+02  0.22988072725E+02  0.19319271285E+01  0.94616743853E+02  0.89605725059E+02 0.  0.
         13    1    3    3    0    0 -0.31768530156E+02 -0.94663278542E+01  0.55088949548E+01  0.33603719421E+02  0.10566000000E+00 0.  1.
         22    1    1    0    0    0 -0.19772668613E+02 -0.22988072725E+02 -0.19319271285E+01  0.30383256147E+02  0.00000000000E+00 0. -1.
</event>
<event>
 5    1  0.8943113E-005  0.9118800E+02  0.7818608E-02  0.1130116E+00
         25   -1    0    0    0    0  0.00000000000E+00  0.00000000000E+00  0.99999998245E-14  0.12500000000E+03  0.12500000000E+03 0.  0.
        -13    1    3    3    0    0  0.40103775915E+02 -0.21947762085E+02  0.13523069959E+01  0.45736823255E+02  0.10566000000E+00 0.  1.
         23    2    1    0    0    0 -0.52310675503E+01 -0.16844607340E+02  0.22821126960E+02  0.96157172471E+02  0.91729456107E+02 0.  0.
         13    1    3    3    0    0 -0.45334843465E+02  0.51031547450E+01  0.21468819964E+02  0.50420349216E+02  0.10566000000E+00 0. -1.
         22    1    1    0    0    0  0.52310675503E+01  0.16844607340E+02 -0.22821126960E+02  0.28842827529E+02  0.00000000000E+00 0. -1.
</event>
<event>
 5    1  0.8943113E-005  0.9118800E+02  0.7818608E-02  0.1130116E+00
         25   -1    0    0    0    0  0.00000000000E+00  0.00000000000E+00  0.99999998245E-14  0.12500000000E+03  0.12500000000E+03 0.  0.
        -13    1    3    3    0    0 -0.34069178338E+02  0.28989954891E+02  0.91184568786E+01  0.45653957299E+02  0.10566000000E+00 0.  1.
         23    2    1    0    0    0 -0.24684729303E+01  0.54416716327E+01 -0.25927698819E+02  0.98392656751E+02  0.94726787065E+02 0.  0.
         13    1    3    3    0    0  0.31600705407E+02 -0.23548283258E+02 -0.35046155697E+02  0.52738699452E+02  0.10566000000E+00 0. -1.
         22    1    1    0    0    0  0.24684729303E+01 -0.54416716327E+01  0.25927698819E+02  0.26607343249E+02  0.00000000000E+00 0.  1.
</event>
<event>
 5    1  0.8943113E-005  0.9118800E+02  0.7818608E-02  0.1130116E+00
         25   -1    0    0    0    0  0.00000000000E+00  0.00000000000E+00  0.99999998245E-14  0.12500000000E+03  0.12500000000E+03 0.  0.
        -13    1    3    3    0    0  0.32505323367E+02 -0.44188144330E+02 -0.25356385350E+02  0.60432984277E+02  0.10566000000E+00 0.  1.
         23    2    1    0    0    0  0.81544627389E+01 -0.22829120384E+02 -0.20632268379E+02  0.93166770530E+02  0.87559651852E+02 0.  0.
         13    1    3    3    0    0 -0.24350860628E+02  0.21359023946E+02  0.47241169712E+01  0.32733786253E+02  0.10566000000E+00 0. -1.
         22    1    1    0    0    0 -0.81544627389E+01  0.22829120384E+02  0.20632268379E+02  0.31833229470E+02  0.00000000000E+00 0.  1.
</event>
<event>
 5    1  0.8943113E-005  0.9118800E+02  0.7818608E-02  0.1130116E+00
         25   -1    0    0    0    0  0.00000000000E+00  0.00000000000E+00  0.99999998245E-14  0.12500000000E+03  0.12500000000E+03 0.  0.
        -13    1    3    3    0    0 -0.70618188883E+01  0.27667390284E+02 -0.33186579650E+02  0.43780292416E+02  0.10566000000E+00 0.  1.
         23    2    1    0    0    0  0.59307807969E+01  0.23703374526E+02  0.16648206624E+02  0.95433348032E+02  0.90737737508E+02 0.  0.
         13    1    3    3    0    0  0.12992599685E+02 -0.39640157585E+01  0.49834786274E+02  0.51653055616E+02  0.10566000000E+00 0. -1.
         22    1    1    0    0    0 -0.59307807969E+01 -0.23703374526E+02 -0.16648206624E+02  0.29566651968E+02  0.00000000000E+00 0.  1.
</event>
<event>
 5    1  0.8943113E-005  0.9118800E+02  0.7818608E-02  0.1130116E+00
         25   -1    0    0    0    0  0.00000000000E+00  0.00000000000E+00  0.99999998245E-14  0.12500000000E+03  0.12500000000E+03 0.  0.
        -13    1    3    3    0    0  0.34224137716E+02  0.15274113710E+02 -0.24101162355E+02  0.44558583269E+02  0.10566000000E+00 0. -1.
         23    2    1    0    0    0 -0.13769965270E+02  0.20568893440E+02 -0.20289960867E+02  0.92994159395E+02  0.87312884780E+02 0.  0.
         13    1    3    3    0    0 -0.47994102986E+02  0.52947797303E+01  0.38112014883E+01  0.48435576126E+02  0.10566000000E+00 0.  1.
         22    1    1    0    0    0  0.13769965270E+02 -0.20568893440E+02  0.20289960867E+02  0.32005840605E+02  0.00000000000E+00 0.  1.
</event>
<event>
 5    1  0.8943113E-005  0.9118800E+02  0.7818608E-02  0.1130116E+00
         25   -1    0    0    0    0  0.00000000000E+00  0.00000000000E+00  0.99999998245E-14  0.12500000000E+03  0.12500000000E+03 0.  0.
        -13    1    3    3    0    0 -0.31583302220E+02 -0.79488390681E+01 -0.48848999313E+02  0.58710517964E+02  0.10566000000E+00 0.  1.
         23    2    1    0    0    0 -0.18462707772E+02 -0.17847696066E+02 -0.18079048109E+02  0.93595162576E+02  0.88169102547E+02 0.  0.
         13    1    3    3    0    0  0.13120594448E+02 -0.98988569976E+01  0.30769951204E+02  0.34884644612E+02  0.10566000000E+00 0. -1.
         22    1    1    0    0    0  0.18462707772E+02  0.17847696066E+02  0.18079048109E+02  0.31404837424E+02  0.00000000000E+00 0. -1.
</event>
<event>
 5    1  0.8943113E-005  0.9118800E+02  0.7818608E-02  0.1130116E+00
         25   -1    0    0    0    0  0.00000000000E+00  0.00000000000E+00  0.99999998245E-14  0.12500000000E+03  0.12500000000E+03 0.  0.
        -13    1    3    3    0    0 -0.28103045403E+02 -0.28815900370E+02 -0.21840135393E+02  0.45794540647E+02  0.10566000000E+00 0.  1.
         23    2    1    0    0    0  0.56553466042E+01  0.46963542376E+01 -0.30048361785E+02  0.94065508986E+02  0.88833424152E+02 0.  0.
         13    1    3    3    0    0  0.33758392008E+02  0.33512254608E+02 -0.82082263925E+01  0.48270968339E+02  0.10566000000E+00 0. -1.
         22    1    1    0    0    0 -0.56553466042E+01 -0.46963542376E+01  0.30048361785E+02  0.30934491014E+02  0.00000000000E+00 0. -1.
</event>
<event>
 5    1  0.8943113E-005  0.9118800E+02  0.7818608E-02  0.1130116E+00
         25   -1    0    0    0    0  0.00000000000E+00  0.00000000000E+00  0.99999998245E-14  0.12500000000E+03  0.12500000000E+03 0.  0.
        -13    1    3    3    0    0 -0.75109765609E+01  0.49979376233E+01 -0.37299380199E+02  0.38375110119E+02  0.10566000000E+00 0.  1.
         23    2    1    0    0    0 -0.24983397469E+02 -0.23549508686E+01  0.16198149290E+02  0.95132024121E+02  0.90321680843E+02 0.  0.
         13    1    3    3    0    0 -0.17472420908E+02 -0.73528884919E+01  0.53497529489E+02  0.56756914002E+02  0.10566000000E+00 0. -1.
         22    1    1    0    0    0  0.24983397469E+02  0.23549508686E+01 -0.16198149290E+02  0.29867975879E+02  0.00000000000E+00 0. -1.
</event>
<event>
 5    1  0.8943113E-005  0.9118800E+02  0.7818608E-02  0.1130116E+00
         25   -1    0    0    0    0  0.00000000000E+00  0.00000000000E+00  0.99999998245E-14  0.12500000000E+03  0.12500000000E+03 0.  0.
        -13    1    3    3    0    0  0.17406670137E+02  0.26861015479E+02 -0.28735039740E+02  0.43014183599E+02  0.10566000000E+00 0.  1.
         23    2    1    0    0    0  0.16861172940E+02 -0.22046692960E+02 -0.82213833892E+01  0.96052686338E+02  0.91586961870E+02 0.  0.
         13    1    3    3    0    0 -0.54549719642E+00 -0.48907708439E+02  0.20513656351E+02  0.53038502739E+02  0.10566000000E+00 0. -1.
         22    1    1    0    0    0 -0.16861172940E+02  0.22046692960E+02  0.82213833892E+01  0.28947313662E+02  0.00000000000E+00 0. -1.
</event>
<event>
 5    1  0.8943113E-005  0.9118800E+02  0.7818608E-02  0.1130116E+00
         25   -1    0    0    0    0  0.00000000000E+00  0.00000000000E+00  0.99999998245E-14  0.12500000000E+03  0.12500000000E+03 0.  0.
        -13    1    3    3    0    0 -0.99544230275E+01  0.45827019059E+02 -0.28661345197E+02  0.54960804999E+02  0.10566000000E+00 0. -1.
         23    2    1    0    0    0 -0.13892057393E+02  0.19318848696E+02  0.75730318775E+01  0.10002885695E+03  0.96861830649E+02 0.  0.
         13    1    3    3    0    0 -0.39376343656E+01 -0.26508170362E+02  0.36234377074E+02  0.45068051948E+02  0.10566000000E+00 0.  1.
         22    1    1    0    0    0  0.13892057393E+02 -0.19318848696E+02 -0.75730318775E+01  0.24971143053E+02  0.00000000000E+00 0. -1.
</event>
<event>
 5    1  0.8943113E-005  0.9118800E+02  0.7818608E-02  0.1130116E+00
         25   -1    0    0    0    0  0.00000000000E+00  0.00000000000E+00  0.99999998245E-14  0.12500000000E+03  0.12500000000E+03 0.  0.
        -13    1    3    3    0    0  0.16234382260E+02  0.20114917960E+02  0.18043127250E+02  0.31523494364E+02  0.10566000000E+00 0.  1.
         23    2    1    0    0    0  0.15033862119E+02  0.26241071064E+02 -0.31426387097E+02  0.81385453955E+02  0.68712178605E+02 0.  0.
         13    1    3    3    0    0 -0.12005201409E+01  0.61261531034E+01 -0.49469514347E+02  0.49861959591E+02  0.10566000000E+00 0. -1.
         22    1    1    0    0    0 -0.15033862119E+02 -0.26241071064E+02  0.31426387097E+02  0.43614546045E+02  0.00000000000E+00 0.  1.
</event>
<event>
 5    1  0.8943113E-005  0.9118800E+02  0.7818608E-02  0.1130116E+00
         25   -1    0    0    0    0  0.00000000000E+00  0.00000000000E+00  0.99999998245E-14  0.12500000000E+03  0.12500000000E+03 0.  0.
        -13    1    3    3    0    0  0.37683265251E+01 -0.22487702257E+01  0.55145152193E+02  0.55319582670E+02  0.10566000000E+00 0. -1.
         23    2    1    0    0    0  0.21328809203E+02 -0.51905063524E+01  0.17630915655E+02  0.96844917953E+02  0.92661909587E+02 0.  0.
         13    1    3    3    0    0  0.17560482678E+02 -0.29417361267E+01 -0.37514236538E+02  0.41525335283E+02  0.10566000000E+00 0.  1.
         22    1    1    0    0    0 -0.21328809203E+02  0.51905063524E+01 -0.17630915655E+02  0.28155082047E+02  0.00000000000E+00 0. -1.
</event>
<event>
 5    1  0.8943113E-005  0.9118800E+02  0.7818608E-02  0.1130116E+00
         25   -1    0    0    0    0  0.00000000000E+00  0.00000000000E+00  0.99999998245E-14  0.12500000000E+03  0.12500000000E+03 0.  0.
        -13    1    3    3    0    0  0.23760707936E+02 -0.32370286579E+02 -0.17144962612E+02  0.43661969743E+02  0.10566000000E+00 0.  1.
         23    2    1    0    0    0  0.18671556234E+02  0.17445052630E+02  0.58839499358E+01  0.98778296388E+02  0.95234311553E+02 0.  0.
         13    1    3    3    0    0 -0.50891517019E+01  0.49815339209E+02  0.23028912548E+02  0.55116326645E+02  0.10566000000E+00 0. -1.
         22    1    1    0    0    0 -0.18671556234E+02 -0.17445052630E+02 -0.58839499358E+01  0.26221703612E+02  0.00000000000E+00 0. -1.
</event>
<event>
 5    1  0.8943113E-005  0.9118800E+02  0.7818608E-02  0.1130116E+00
         25   -1    0    0    0    0  0.00000000000E+00  0.00000000000E+00  0.99999998245E-14  0.12500000000E+03  0.12500000000E+03 0.  0.
        -13    1    3    3    0    0  0.46605378694E+02 -0.22102958667E+02  0.26284258560E+02  0.57891929637E+02  0.10566000000E+00 0.  1.
         23    2    1    0    0    0  0.11688426398E+02 -0.24073798378E+02  0.10725148887E+02  0.96169531765E+02  0.91746296608E+02 0.  0.
         13    1    3    3    0    0 -0.34916952296E+02 -0.19708397102E+01 -0.15559109672E+02  0.38277602128E+02  0.10566000000E+00 0. -1.
         22    1    1    0    0    0 -0.11688426398E+02  0.24073798378E+02 -0.10725148887E+02  0.28830468235E+02  0.00000000000E+00 0. -1.
</event>
<event>
 5    1  0.8943113E-005  0.9118800E+02  0.7818608E-02  0.1130116E+00
         25   -1    0    0    0    0  0.00000000000E+00  0.00000000000E+00  0.99999998245E-14  0.12500000000E+03  0.12500000000E+03 0.  0.
        -13    1    3    3    0    0  0.36049451557E+02  0.26703485468E+02 -0.34607617748E+02  0.56659839957E+02  0.10566000000E+00 0. -1.
         23    2    1    0    0    0  0.23775615223E+01  0.71501473975E+01 -0.27811110121E+02  0.96186196837E+02  0.91768999173E+02 0.  0.
         13    1    3    3    0    0 -0.33671890035E+02 -0.19553338071E+02  0.67965076275E+01  0.39526356880E+02  0.10566000000E+00 0.  1.
         22    1    1    0    0    0 -0.23775615223E+01 -0.71501473975E+01  0.27811110121E+02  0.28813803163E+02  0.00000000000E+00 0. -1.
</event>
<event>
 5    1  0.8943113E-005  0.9118800E+02  0.7818608E-02  0.1130116E+00
         25   -1    0    0    0    0  0.00000000000E+00  0.00000000000E+00  0.99999998245E-14  0.12500000000E+03  0.12500000000E+03 0.  0.
        -13    1    3    3    0    0 -0.33813071361E+02  0.23842979367E+02 -0.33999108780E+02  0.53551489445E+02  0.10566000000E+00 0.  1.
         23    2    1    0    0    0  0.55301198000E+01  0.77813345418E+01 -0.26668083428E+02  0.96674780390E+02  0.92432110749E+02 0.  0.
         13    1    3    3    0    0  0.39343191161E+02 -0.16061644825E+02  0.73310253520E+01  0.43123290945E+02  0.10566000000E+00 0. -1.
         22    1    1    0    0    0 -0.55301198000E+01 -0.77813345418E+01  0.26668083428E+02  0.28325219610E+02  0.00000000000E+00 0.  1.
</event>
<event>
 5    1  0.8943113E-005  0.9118800E+02  0.7818608E-02  0.1130116E+00
         25   -1    0    0    0    0  0.00000000000E+00  0.00000000000E+00  0.99999998245E-14  0.12500000000E+03  0.12500000000E+03 0.  0.
        -13    1    3    3    0    0 -0.34023490340E+02 -0.29159023393E+02  0.27752582404E+02  0.52707338524E+02  0.10566000000E+00 0. -1.
         23    2    1    0    0    0 -0.15968550600E+02  0.10904181055E+02  0.19724564169E+02  0.97378374334E+02  0.93378764093E+02 0.  0.
         13    1    3    3    0    0  0.18054939740E+02  0.40063204448E+02 -0.80280182342E+01  0.44671035811E+02  0.10566000000E+00 0.  1.
         22    1    1    0    0    0  0.15968550600E+02 -0.10904181055E+02 -0.19724564169E+02  0.27621625666E+02  0.00000000000E+00 0. -1.
</event>
<event>
 5    1  0.8943113E-005  0.9118800E+02  0.7818608E-02  0.1130116E+00
         25   -1    0    0    0    0  0.00000000000E+00  0.00000000000E+00  0.99999998245E-14  0.12500000000E+03  0.12500000000E+03 0.  0.
        -13    1    3    3    0    0  0.11146085493E+02  0.46430255071E+02 -0.30219895028E+02  0.56508911043E+02  0.10566000000E+00 0.  1.
         23    2    1    0    0    0  0.18246909414E+02  0.20623308211E+02  0.76337706208E+00  0.97452708132E+02  0.93478216890E+02 0.  0.
         13    1    3    3    0    0  0.71008239215E+01 -0.25806946860E+02  0.30983272090E+02  0.40943797088E+02  0.10566000000E+00 0. -1.
         22    1    1    0    0    0 -0.18246909414E+02 -0.20623308211E+02 -0.76337706208E+00  0.27547291868E+02  0.00000000000E+00 0. -1.
</event>
<event>
 5    1  0.8943113E-005  0.9118800E+02  0.7818608E-02  0.1130116E+00
         25   -1    0    0    0    0  0.00000000000E+00  0.00000000000E+00  0.99999998245E-14  0.12500000000E+03  0.12500000000E+03 0.  0.
        -13    1    3    3    0    0  0.12423792807E+02  0.47872659931E+02  0.42296492962E+01  0.49639130671E+02  0.10566000000E+00 0.  1.
         23    2    1    0    0    0 -0.41973599949E+01  0.26331883880E+02 -0.24200637246E+02  0.88990879174E+02  0.81380094577E+02 0.  0.
         13    1    3    3    0    0 -0.16621152802E+02 -0.21540776051E+02 -0.28430286542E+02  0.39351748503E+02  0.10566000000E+00 0. -1.
         22    1    1    0    0    0  0.41973599949E+01 -0.26331883880E+02  0.24200637246E+02  0.36009120826E+02  0.00000000000E+00 0.  1.
</event>
<event>
 5    1  0.8943113E-005  0.9118800E+02  0.7818608E-02  0.1130116E+00
         25   -1    0    0    0    0  0.00000000000E+00  0.00000000000E+00  0.99999998245E-14  0.12500000000E+03  0.12500000000E+03 0.  0.
        -13    1    3    3    0    0 -0.20196891258E+02  0.99138444239E+01 -0.16485377011E+02  0.27892248869E+02  0.10566000000E+00 0. -1.
         23    2    1    0    0    0  0.16898583421E+01 -0.15710204437E+02  0.33375521029E+02  0.88073159509E+02  0.79958050734E+02 0.  0.
         13    1    3    3    0    0  0.21886749600E+02 -0.25624048861E+02  0.49860898040E+02  0.60180910640E+02  0.10566000000E+00 0.  1.
         22    1    1    0    0    0 -0.16898583421E+01  0.15710204437E+02 -0.33375521029E+02  0.36926840491E+02  0.00000000000E+00 0.  1.
</event>
<event>
 5    1  0.8943113E-005  0.9118800E+02  0.7818608E-02  0.1130116E+00
         25   -1    0    0    0    0  0.00000000000E+00  0.00000000000E+00  0.99999998245E-14  0.12500000000E+03  0.12500000000E+03 0.  0.
        -13    1    3    3    0    0 -0.14922531304E+02  0.27267786975E+01 -0.44260816666E+02  0.46788335283E+02  0.10566000000E+00 0.  1.
         23    2    1    0    0    0  0.24546007901E+02 -0.24738339744E+01 -0.16586234081E+02  0.95272411477E+02  0.90515760336E+02 0.  0.
         13    1    3    3    0    0  0.39468539204E+02 -0.52006126718E+01  0.27674582585E+02  0.48484076194E+02  0.10566000000E+00 0. -1.
         22    1    1    0    0    0 -0.24546007901E+02  0.24738339744E+01  0.16586234081E+02  0.29727588523E+02  0.00000000000E+00 0. -1.
</event>
<event>
 5    1  0.8943113E-005  0.9118800E+02  0.7818608E-02  0.1130116E+00
         25   -1    0    0    0    0  0.00000000000E+00  0.00000000000E+00  0.99999998245E-14  0.12500000000E+03  0.12500000000E+03 0.  0.
        -13    1    3    3    0    0  0.35508406661E+02 -0.13125922550E+02 -0.46112694629E+02  0.59661784723E+02  0.10566000000E+00 0.  1.
         23    2    1    0    0    0  0.25071358570E+02 -0.37747046463E+00 -0.12751796878E+02  0.96869521367E+02  0.92695093408E+02 0.  0.
         13    1    3    3    0    0 -0.10437048091E+02  0.12748452086E+02  0.33360897750E+02  0.37207736644E+02  0.10566000000E+00 0. -1.
         22    1    1    0    0    0 -0.25071358570E+02  0.37747046463E+00  0.12751796878E+02  0.28130478633E+02  0.00000000000E+00 0.  1.
</event>
<event>
 5    1  0.8943113E-005  0.9118800E+02  0.7818608E-02  0.1130116E+00
         25   -1    0    0    0    0  0.00000000000E+00  0.00000000000E+00  0.99999998245E-14  0.12500000000E+03  0.12500000000E+03 0.  0.
        -13    1    3    3    0    0 -0.19518479636E+02  0.23552305720E+02 -0.51464262642E+02  0.59868720092E+02  0.10566000000E+00 0.  1.
         23    2    1    0    0    0 -0.19985761134E+02  0.52344688984E+01 -0.20208032322E+02  0.96100261539E+02  0.91651870602E+02 0.  0.
         13    1    3    3    0    0 -0.46728149788E+00 -0.18317836822E+02  0.31256230320E+02  0.36231541448E+02  0.10566000000E+00 0. -1.
         22    1    1    0    0    0  0.19985761134E+02 -0.52344688984E+01  0.20208032322E+02  0.28899738461E+02  0.00000000000E+00 0.  1.
</event>
<event>
 5    1  0.8943113E-005  0.9118800E+02  0.7818608E-02  0.1130116E+00
         25   -1    0    0    0    0  0.00000000000E+00  0.00000000000E+00  0.99999998245E-14  0.12500000000E+03  0.12500000000E+03 0.  0.
        -13    1    3    3    0    0 -0.17653114078E+02 -0.43465932088E+02  0.16295645568E+02  0.49663657915E+02  0.10566000000E+00 0.  1.
         23    2    1    0    0    0 -0.28426045716E+02  0.33849792827E+00  0.70396328669E+01  0.95713295050E+02  0.91122575482E+02 0.  0.
         13    1    3    3    0    0 -0.10772931638E+02  0.43804430016E+02 -0.92560127009E+01  0.46049637135E+02  0.10566000000E+00 0. -1.
         22    1    1    0    0    0  0.28426045716E+02 -0.33849792827E+00 -0.70396328669E+01  0.29286704950E+02  0.00000000000E+00 0. -1.
</event>
<event>
 5    1  0.8943113E-005  0.9118800E+02  0.7818608E-02  0.1130116E+00
         25   -1    0    0    0    0  0.00000000000E+00  0.00000000000E+00  0.99999998245E-14  0.12500000000E+03  0.12500000000E+03 0.  0.
        -13    1    3    3    0    0 -0.47145408334E+02  0.88946958219E+01  0.28556738292E+02  0.55832818366E+02  0.10566000000E+00 0. -1.
         23    2    1    0    0    0 -0.17359197938E+02  0.22589719251E+02  0.53154968422E+01  0.96019115342E+02  0.91541131932E+02 0.  0.
         13    1    3    3    0    0  0.29786210396E+02  0.13695023429E+02 -0.23241241450E+02  0.40186296976E+02  0.10566000000E+00 0.  1.
         22    1    1    0    0    0  0.17359197938E+02 -0.22589719251E+02 -0.53154968422E+01  0.28980884658E+02  0.00000000000E+00 0. -1.
</event>
<event>
 5    1  0.8943113E-005  0.9118800E+02  0.7818608E-02  0.1130116E+00
         25   -1    0    0    0    0  0.00000000000E+00  0.00000000000E+00  0.99999998245E-14  0.12500000000E+03  0.12500000000E+03 0.  0.
        -13    1    3    3    0    0 -0.24923418270E+02  0.28123832311E+02 -0.14392887352E+01  0.37605976097E+02  0.10566000000E+00 0.  1.
         23    2    1    0    0    0 -0.52235788808E+01 -0.26448425727E+02 -0.99847061584E+01  0.96251098163E+02  0.91857359753E+02 0.  0.
         13    1    3    3    0    0  0.19699839389E+02 -0.54572258037E+02 -0.85454174232E+01  0.58645122067E+02  0.10566000000E+00 0. -1.
         22    1    1    0    0    0  0.52235788808E+01  0.26448425727E+02  0.99847061584E+01  0.28748901837E+02  0.00000000000E+00 0. -1.
</event>
<event>
 5    1  0.8943113E-005  0.9118800E+02  0.7818608E-02  0.1130116E+00
         25   -1    0    0    0    0  0.00000000000E+00  0.00000000000E+00  0.99999998245E-14  0.12500000000E+03  0.12500000000E+03 0.  0.
        -13    1    3    3    0    0 -0.29448116287E+02 -0.37142676212E+02  0.14962618395E+02  0.49705744761E+02  0.10566000000E+00 0. -1.
         23    2    1    0    0    0 -0.14249439739E+02  0.52613668841E+01  0.24898168652E+02  0.95834141251E+02  0.91288199197E+02 0.  0.
         13    1    3    3    0    0  0.15198676547E+02  0.42404043096E+02  0.99355502572E+01  0.46128396489E+02  0.10566000000E+00 0.  1.
         22    1    1    0    0    0  0.14249439739E+02 -0.52613668841E+01 -0.24898168652E+02  0.29165858749E+02  0.00000000000E+00 0. -1.
</event>
<event>
 5    1  0.8943113E-005  0.9118800E+02  0.7818608E-02  0.1130116E+00
         25   -1    0    0    0    0  0.00000000000E+00  0.00000000000E+00  0.99999998245E-14  0.12500000000E+03  0.12500000000E+03 0.  0.
        -13    1    3    3    0    0 -0.32350377861E+02 -0.17026560490E+02  0.45767920608E+02  0.58576142163E+02  0.10566000000E+00 0. -1.
         23    2    1    0    0    0 -0.23814671959E+02 -0.14338671665E+02  0.99822928796E+01  0.95463881827E+02  0.90779791015E+02 0.  0.
         13    1    3    3    0    0  0.85357059022E+01  0.26878888250E+01 -0.35785627728E+02  0.36887739664E+02  0.10566000000E+00 0.  1.
         22    1    1    0    0    0  0.23814671959E+02  0.14338671665E+02 -0.99822928796E+01  0.29536118173E+02  0.00000000000E+00 0. -1.
</event>
<event>
 5    1  0.8943113E-005  0.9118800E+02  0.7818608E-02  0.1130116E+00
         25   -1    0    0    0    0  0.00000000000E+00  0.00000000000E+00  0.99999998245E-14  0.12500000000E+03  0.12500000000E+03 0.  0.
        -13    1    3    3    0    0  0.34187746678E+02 -0.33940266854E+02  0.30467010164E+01  0.48270459788E+02  0.10566000000E+00 0.  1.
         23    2    1    0    0    0  0.16515616447E+02  0.46368149604E+01  0.23924651474E+02  0.95561002263E+02  0.90913423463E+02 0.  0.
         13    1    3    3    0    0 -0.17672130231E+02  0.38577081814E+02  0.20877950458E+02  0.47290542475E+02  0.10566000000E+00 0. -1.
         22    1    1    0    0    0 -0.16515616447E+02 -0.46368149604E+01 -0.23924651474E+02  0.29438997737E+02  0.00000000000E+00 0.  1.
</event>
<event>
 5    1  0.8943113E-005  0.9118800E+02  0.7818608E-02  0.1130116E+00
         25   -1    0    0    0    0  0.00000000000E+00  0.00000000000E+00  0.99999998245E-14  0.12500000000E+03  0.12500000000E+03 0.  0.
        -13    1    3    3    0    0  0.86776407115E+01  0.36509287591E+02  0.32285834952E+01  0.37665162208E+02  0.10566000000E+00 0.  1.
         23    2    1    0    0    0  0.14017042078E+02 -0.22147899342E+02  0.99860486297E+01  0.96951326571E+02  0.92805342749E+02 0.  0.
         13    1    3    3    0    0  0.53394013660E+01 -0.58657186933E+02  0.67574651345E+01  0.59286164364E+02  0.10566000000E+00 0. -1.
         22    1    1    0    0    0 -0.14017042078E+02  0.22147899342E+02 -0.99860486297E+01  0.28048673429E+02  0.00000000000E+00 0. -1.
</event>
<event>
 5    1  0.8943113E-005  0.9118800E+02  0.7818608E-02  0.1130116E+00
         25   -1    0    0    0    0  0.00000000000E+00  0.00000000000E+00  0.99999998245E-14  0.12500000000E+03  0.12500000000E+03 0.  0.
        -13    1    3    3    0    0  0.70541795406E+01 -0.24148452554E+02 -0.27253249016E+02  0.37089890209E+02  0.10566000000E+00 0.  1.
         23    2    1    0    0    0  0.63360120719E+01 -0.62090957355E+01  0.28231679361E+02  0.95407338100E+02  0.90701899236E+02 0.  0.
         13    1    3    3    0    0 -0.71816746869E+00  0.17939356819E+02  0.55484928376E+02  0.58317447891E+02  0.10566000000E+00 0. -1.
         22    1    1    0    0    0 -0.63360120719E+01  0.62090957355E+01 -0.28231679361E+02  0.29592661900E+02  0.00000000000E+00 0. -1.
</event>
<event>
 5    1  0.8943113E-005  0.9118800E+02  0.7818608E-02  0.1130116E+00
         25   -1    0    0    0    0  0.00000000000E+00  0.00000000000E+00  0.99999998245E-14  0.12500000000E+03  0.12500000000E+03 0.  0.
        -13    1    3    3    0    0  0.41680921256E+02  0.21964081976E+02  0.38591277091E+02  0.60901707081E+02  0.10566000000E+00 0. -1.
         23    2    1    0    0    0  0.12446664045E+02  0.17688896972E+02  0.15882959868E+02  0.98165601626E+02  0.94426693295E+02 0.  0.
         13    1    3    3    0    0 -0.29234257211E+02 -0.42751850048E+01 -0.22708317223E+02  0.37263894545E+02  0.10566000000E+00 0.  1.
         22    1    1    0    0    0 -0.12446664045E+02 -0.17688896972E+02 -0.15882959868E+02  0.26834398374E+02  0.00000000000E+00 0. -1.
</event>
<event>
 5    1  0.8943113E-005  0.9118800E+02  0.7818608E-02  0.1130116E+00
         25   -1    0    0    0    0  0.00000000000E+00  0.00000000000E+00  0.99999998245E-14  0.12500000000E+03  0.12500000000E+03 0.  0.
        -13    1    3    3    0    0 -0.35322366604E+02  0.46239149039E+02  0.18276875351E+02  0.60990030522E+02  0.10566000000E+00 0.  1.
         23    2    1    0    0    0 -0.13334294079E+02  0.25256164953E+02  0.17721179978E+02  0.91388729769E+02  0.84983424515E+02 0.  0.
         13    1    3    3    0    0  0.21988072525E+02 -0.20982984086E+02 -0.55569537303E+00  0.30398699247E+02  0.10566000000E+00 0. -1.
         22    1    1    0    0    0  0.13334294079E+02 -0.25256164953E+02 -0.17721179978E+02  0.33611270231E+02  0.00000000000E+00 0.  1.
</event>
<event>
 5    1  0.8943113E-005  0.9118800E+02  0.7818608E-02  0.1130116E+00
         25   -1    0    0    0    0  0.00000000000E+00  0.00000000000E+00  0.99999998245E-14  0.12500000000E+03  0.12500000000E+03 0.  0.
        -13    1    3    3    0    0 -0.43017192730E+02 -0.39971189895E+02  0.65544143861E+01  0.59085923907E+02  0.10566000000E+00 0. -1.
         23    2    1    0    0    0 -0.98244737747E+01 -0.25554751494E+02 -0.51937189919E+01  0.97133526850E+02  0.93050425644E+02 0.  0.
         13    1    3    3    0    0  0.33192718955E+02  0.14416438401E+02 -0.11748133378E+02  0.38047602943E+02  0.10566000000E+00 0.  1.
         22    1    1    0    0    0  0.98244737747E+01  0.25554751494E+02  0.51937189919E+01  0.27866473150E+02  0.00000000000E+00 0. -1.
</event>
<event>
 5    1  0.8943113E-005  0.9118800E+02  0.7818608E-02  0.1130116E+00
         25   -1    0    0    0    0  0.00000000000E+00  0.00000000000E+00  0.99999998245E-14  0.12500000000E+03  0.12500000000E+03 0.  0.
        -13    1    3    3    0    0  0.30368004902E+01 -0.34561758837E+02  0.31119385992E+02  0.46606487528E+02  0.10566000000E+00 0. -1.
         23    2    1    0    0    0  0.29275986021E+02 -0.35386438291E+01  0.45301151519E+01  0.95164998728E+02  0.90367304275E+02 0.  0.
         13    1    3    3    0    0  0.26239185531E+02  0.31023115008E+02 -0.26589270840E+02  0.48558511200E+02  0.10566000000E+00 0.  1.
         22    1    1    0    0    0 -0.29275986021E+02  0.35386438291E+01 -0.45301151519E+01  0.29835001272E+02  0.00000000000E+00 0.  1.
</event>
<event>
 5    1  0.8943113E-005  0.9118800E+02  0.7818608E-02  0.1130116E+00
         25   -1    0    0    0    0  0.00000000000E+00  0.00000000000E+00  0.99999998245E-14  0.12500000000E+03  0.12500000000E+03 0.  0.
        -13    1    3    3    0    0  0.10785081661E+02 -0.14966883277E+02  0.29007301739E+02  0.34376740679E+02  0.10566000000E+00 0. -1.
         23    2    1    0    0    0 -0.26148447285E+02 -0.24745880063E+01 -0.16251282423E+02  0.94113610415E+02  0.88901083254E+02 0.  0.
         13    1    3    3    0    0 -0.36933528945E+02  0.12492295270E+02 -0.45258584162E+02  0.59736869736E+02  0.10566000000E+00 0.  1.
         22    1    1    0    0    0  0.26148447285E+02  0.24745880063E+01  0.16251282423E+02  0.30886389585E+02  0.00000000000E+00 0.  1.
</event>
<event>
 5    1  0.8943113E-005  0.9118800E+02  0.7818608E-02  0.1130116E+00
         25   -1    0    0    0    0  0.00000000000E+00  0.00000000000E+00  0.99999998245E-14  0.12500000000E+03  0.12500000000E+03 0.  0.
        -13    1    3    3    0    0  0.34717360783E+02 -0.40776040625E+02  0.86905046037E+01  0.54254185673E+02  0.10566000000E+00 0. -1.
         23    2    1    0    0    0  0.27271214101E+02 -0.29663078563E+01 -0.82568826548E+01  0.96352238970E+02  0.91994889763E+02 0.  0.
         13    1    3    3    0    0 -0.74461466818E+01  0.37809732769E+02 -0.16947387259E+02  0.42098053297E+02  0.10566000000E+00 0.  1.
         22    1    1    0    0    0 -0.27271214101E+02  0.29663078563E+01  0.82568826548E+01  0.28647761030E+02  0.00000000000E+00 0. -1.
</event>
<event>
 5    1  0.8943113E-005  0.9118800E+02  0.7818608E-02  0.1130116E+00
         25   -1    0    0    0    0  0.00000000000E+00  0.00000000000E+00  0.99999998245E-14  0.12500000000E+03  0.12500000000E+03 0.  0.
        -13    1    3    3    0    0 -0.37599934197E+02 -0.26019457866E+01 -0.68228318164E+00  0.37696178160E+02  0.10566000000E+00 0.  1.
         23    2    1    0    0    0  0.13347812335E+02 -0.18087509452E+00 -0.26844295018E+02  0.95019790112E+02  0.90166221658E+02 0.  0.
         13    1    3    3    0    0  0.50947746531E+02  0.24210706921E+01 -0.26162011836E+02  0.57323611952E+02  0.10566000000E+00 0. -1.
         22    1    1    0    0    0 -0.13347812335E+02  0.18087509452E+00  0.26844295018E+02  0.29980209888E+02  0.00000000000E+00 0. -1.
</event>
<event>
 5    1  0.8943113E-005  0.9118800E+02  0.7818608E-02  0.1130116E+00
         25   -1    0    0    0    0  0.00000000000E+00  0.00000000000E+00  0.99999998245E-14  0.12500000000E+03  0.12500000000E+03 0.  0.
        -13    1    3    3    0    0  0.41033092034E+02  0.10279896087E+02  0.86116317838E+01  0.43168996647E+02  0.10566000000E+00 0.  1.
         23    2    1    0    0    0  0.51969412682E+01 -0.22078016353E+02 -0.15883214573E+02  0.97310227343E+02  0.93287495602E+02 0.  0.
         13    1    3    3    0    0 -0.35836150766E+02 -0.32357912441E+02 -0.24494846356E+02  0.54141230696E+02  0.10566000000E+00 0. -1.
         22    1    1    0    0    0 -0.51969412682E+01  0.22078016353E+02  0.15883214573E+02  0.27689772657E+02  0.00000000000E+00 0. -1.
</event>
<event>
 5    1  0.8943113E-005  0.9118800E+02  0.7818608E-02  0.1130116E+00
         25   -1    0    0    0    0  0.00000000000E+00  0.00000000000E+00  0.99999998245E-14  0.12500000000E+03  0.12500000000E+03 0.  0.
        -13    1    3    3    0    0  0.54563768605E+01 -0.24884512904E+02 -0.44832881541E+02  0.51565584087E+02  0.10566000000E+00 0. -1.
         23    2    1    0    0    0 -0.23124226460E+02 -0.89514680991E+01 -0.14005363783E+02  0.96521782970E+02  0.92224973530E+02 0.  0.
         13    1    3    3    0    0 -0.28580603320E+02  0.15933044805E+02  0.30827517758E+02  0.44956198883E+02  0.10566000000E+00 0.  1.
         22    1    1    0    0    0  0.23124226460E+02  0.89514680991E+01  0.14005363783E+02  0.28478217030E+02  0.00000000000E+00 0. -1.
</event>
<event>
 5    1  0.8943113E-005  0.9118800E+02  0.7818608E-02  0.1130116E+00
         25   -1    0    0    0    0  0.00000000000E+00  0.00000000000E+00  0.99999998245E-14  0.12500000000E+03  0.12500000000E+03 0.  0.
        -13    1    3    3    0    0 -0.15689053009E+02  0.44500951267E+01 -0.81778971572E+01  0.18243872859E+02  0.10566000000E+00 0.  1.
         23    2    1    0    0    0  0.30591303891E+02  0.20803242011E+02  0.27482015269E+02  0.78914601931E+02  0.64059741513E+02 0.  0.
         13    1    3    3    0    0  0.46280356900E+02  0.16353146885E+02  0.35659912426E+02  0.60670729072E+02  0.10566000000E+00 0. -1.
         22    1    1    0    0    0 -0.30591303891E+02 -0.20803242011E+02 -0.27482015269E+02  0.46085398069E+02  0.00000000000E+00 0. -1.
</event>
<event>
 5    1  0.8943113E-005  0.9118800E+02  0.7818608E-02  0.1130116E+00
         25   -1    0    0    0    0  0.00000000000E+00  0.00000000000E+00  0.99999998245E-14  0.12500000000E+03  0.12500000000E+03 0.  0.
        -13    1    3    3    0    0  0.32926383859E+02 -0.13774282743E+02  0.10710020100E+02  0.37263833856E+02  0.10566000000E+00 0.  1.
         23    2    1    0    0    0 -0.47713246555E+01  0.23128780443E+02 -0.16079239265E+02  0.96429946463E+02  0.92100415937E+02 0.  0.
         13    1    3    3    0    0 -0.37697708514E+02  0.36903063185E+02 -0.26789259365E+02  0.59166112607E+02  0.10566000000E+00 0. -1.
         22    1    1    0    0    0  0.47713246555E+01 -0.23128780443E+02  0.16079239265E+02  0.28570053537E+02  0.00000000000E+00 0. -1.
</event>
<event>
 5    1  0.8943113E-005  0.9118800E+02  0.7818608E-02  0.1130116E+00
         25   -1    0    0    0    0  0.00000000000E+00  0.00000000000E+00  0.99999998245E-14  0.12500000000E+03  0.12500000000E+03 0.  0.
        -13    1    3    3    0    0 -0.25854621387E+02 -0.46798530455E+02  0.14928565523E+02  0.55510693856E+02  0.10566000000E+00 0.  1.
         23    2    1    0    0    0 -0.25276695148E+02 -0.11446337305E+02 -0.60188168502E+01  0.96607111602E+02  0.92340553932E+02 0.  0.
         13    1    3    3    0    0  0.57792623975E+00  0.35352193149E+02 -0.20947382373E+02  0.41096417746E+02  0.10566000000E+00 0. -1.
         22    1    1    0    0    0  0.25276695148E+02  0.11446337305E+02  0.60188168502E+01  0.28392888398E+02  0.00000000000E+00 0.  1.
</event>
<event>
 5    1  0.8943113E-005  0.9118800E+02  0.7818608E-02  0.1130116E+00
         25   -1    0    0    0    0  0.00000000000E+00  0.00000000000E+00  0.99999998245E-14  0.12500000000E+03  0.12500000000E+03 0.  0.
        -13    1    3    3    0    0  0.49866740427E+02 -0.27142144541E+02  0.52428651612E+01  0.57016546811E+02  0.10566000000E+00 0. -1.
         23    2    1    0    0    0  0.12838934247E+02 -0.24317569142E+02 -0.78667004204E+01  0.96398122839E+02  0.92057214328E+02 0.  0.
         13    1    3    3    0    0 -0.37027806180E+02  0.28245753988E+01 -0.13109565582E+02  0.39381576028E+02  0.10566000000E+00 0.  1.
         22    1    1    0    0    0 -0.12838934247E+02  0.24317569142E+02  0.78667004204E+01  0.28601877161E+02  0.00000000000E+00 0. -1.
</event>
<event>
 5    1  0.8943113E-005  0.9118800E+02  0.7818608E-02  0.1130116E+00
         25   -1    0    0    0    0  0.00000000000E+00  0.00000000000E+00  0.99999998245E-14  0.12500000000E+03  0.12500000000E+03 0.  0.
        -13    1    3    3    0    0 -0.84967156760E+00  0.56911382450E+02 -0.10895909988E+02  0.57951353846E+02  0.10566000000E+00 0. -1.
         23    2    1    0    0    0 -0.13502323180E+02  0.21652966772E+02  0.55873375588E+01  0.98877556732E+02  0.95364506935E+02 0.  0.
         13    1    3    3    0    0 -0.12652651612E+02 -0.35258415678E+02  0.16483247546E+02  0.40926202886E+02  0.10566000000E+00 0.  1.
         22    1    1    0    0    0  0.13502323180E+02 -0.21652966772E+02 -0.55873375588E+01  0.26122443268E+02  0.00000000000E+00 0. -1.
</event>
<event>
 5    1  0.8943113E-005  0.9118800E+02  0.7818608E-02  0.1130116E+00
         25   -1    0    0    0    0  0.00000000000E+00  0.00000000000E+00  0.99999998245E-14  0.12500000000E+03  0.12500000000E+03 0.  0.
        -13    1    3    3    0    0  0.18051284597E+01 -0.27519094706E+02 -0.61327508855E+01  0.28252094783E+02  0.10566000000E+00 0.  1.
         23    2    1    0    0    0 -0.11691581272E+02  0.29231541519E+02  0.14779086426E+02  0.90220731926E+02  0.83247720578E+02 0.  0.
         13    1    3    3    0    0 -0.13496709732E+02  0.56750636225E+02  0.20911837312E+02  0.61968637142E+02  0.10566000000E+00 0. -1.
         22    1    1    0    0    0  0.11691581272E+02 -0.29231541519E+02 -0.14779086426E+02  0.34779268074E+02  0.00000000000E+00 0. -1.
</event>
<event>
 5    1  0.8943113E-005  0.9118800E+02  0.7818608E-02  0.1130116E+00
         25   -1    0    0    0    0  0.00000000000E+00  0.00000000000E+00  0.99999998245E-14  0.12500000000E+03  0.12500000000E+03 0.  0.
        -13    1    3    3    0    0 -0.59234836733E+01 -0.32227728485E+02 -0.12376120692E+02  0.35027041975E+02  0.10566000000E+00 0.  1.
         23    2    1    0    0    0  0.56972855724E+01  0.12620095030E+02  0.26234309861E+02  0.95335798084E+02  0.90603253369E+02 0.  0.
         13    1    3    3    0    0  0.11620769246E+02  0.44847823515E+02  0.38610430553E+02  0.60308756109E+02  0.10566000000E+00 0. -1.
         22    1    1    0    0    0 -0.56972855724E+01 -0.12620095030E+02 -0.26234309861E+02  0.29664201916E+02  0.00000000000E+00 0. -1.
</event>
<event>
 5    1  0.8943113E-005  0.9118800E+02  0.7818608E-02  0.1130116E+00
         25   -1    0    0    0    0  0.00000000000E+00  0.00000000000E+00  0.99999998245E-14  0.12500000000E+03  0.12500000000E+03 0.  0.
        -13    1    3    3    0    0  0.16753439208E+01  0.48965704502E+02  0.21254828471E+02  0.53406234580E+02  0.10566000000E+00 0.  1.
         23    2    1    0    0    0  0.19367303057E+02  0.10115061331E+02  0.18815757438E+02  0.96165305249E+02  0.91740537998E+02 0.  0.
         13    1    3    3    0    0  0.17691959137E+02 -0.38850643171E+02 -0.24390710332E+01  0.42759070669E+02  0.10566000000E+00 0. -1.
         22    1    1    0    0    0 -0.19367303057E+02 -0.10115061331E+02 -0.18815757438E+02  0.28834694751E+02  0.00000000000E+00 0.  1.
</event>
<event>
 5    1  0.8943113E-005  0.9118800E+02  0.7818608E-02  0.1130116E+00
         25   -1    0    0    0    0  0.00000000000E+00  0.00000000000E+00  0.99999998245E-14  0.12500000000E+03  0.12500000000E+03 0.  0.
        -13    1    3    3    0    0 -0.88299190959E+01  0.42893494186E+02 -0.10981994405E+02  0.45149027452E+02  0.10566000000E+00 0.  1.
         23    2    1    0    0    0  0.26487831677E+02  0.76952133826E+01  0.37998683132E+01  0.97156499230E+02  0.93081280650E+02 0.  0.
         13    1    3    3    0    0  0.35317750773E+02 -0.35198280804E+02  0.14781862718E+02  0.52007471777E+02  0.10566000000E+00 0. -1.
         22    1    1    0    0    0 -0.26487831677E+02 -0.76952133826E+01 -0.37998683132E+01  0.27843500770E+02  0.00000000000E+00 0. -1.
</event>
<event>
 5    1  0.8943113E-005  0.9118800E+02  0.7818608E-02  0.1130116E+00
         25   -1    0    0    0    0  0.00000000000E+00  0.00000000000E+00  0.99999998245E-14  0.12500000000E+03  0.12500000000E+03 0.  0.
        -13    1    3    3    0    0 -0.32902981214E+02 -0.26057953601E+02  0.82606083552E+01  0.42777002386E+02  0.10566000000E+00 0. -1.
         23    2    1    0    0    0 -0.23046462483E+01  0.14240112591E+02  0.25054328327E+02  0.96089594108E+02  0.91637320601E+02 0.  0.
         13    1    3    3    0    0  0.30598334966E+02  0.40298066192E+02  0.16793719972E+02  0.53312591722E+02  0.10566000000E+00 0.  1.
         22    1    1    0    0    0  0.23046462483E+01 -0.14240112591E+02 -0.25054328327E+02  0.28910405892E+02  0.00000000000E+00 0.  1.
</event>
<event>
 5    1  0.8943113E-005  0.9118800E+02  0.7818608E-02  0.1130116E+00
         25   -1    0    0    0    0  0.00000000000E+00  0.00000000000E+00  0.99999998245E-14  0.12500000000E+03  0.12500000000E+03 0.  0.
        -13    1    3    3    0    0  0.45316382979E+02  0.13444684946E+02 -0.19272547535E+02  0.51046805700E+02  0.10566000000E+00 0. -1.
         23    2    1    0    0    0 -0.30094698668E+00  0.13661025365E+02 -0.24483597861E+02  0.96961441775E+02  0.92818965970E+02 0.  0.
         13    1    3    3    0    0 -0.45617329966E+02  0.21634041974E+00 -0.52110503260E+01  0.45914636075E+02  0.10566000000E+00 0.  1.
         22    1    1    0    0    0  0.30094698668E+00 -0.13661025365E+02  0.24483597861E+02  0.28038558225E+02  0.00000000000E+00 0. -1.
</event>
<event>
 5    1  0.8943113E-005  0.9118800E+02  0.7818608E-02  0.1130116E+00
         25   -1    0    0    0    0  0.00000000000E+00  0.00000000000E+00  0.99999998245E-14  0.12500000000E+03  0.12500000000E+03 0.  0.
        -13    1    3    3    0    0  0.41394138588E+01 -0.41122830098E+02 -0.21448968333E+02  0.46564915000E+02  0.10566000000E+00 0.  1.
         23    2    1    0    0    0 -0.93921105975E+01 -0.18022739746E+02  0.20374073307E+02  0.96222686843E+02  0.91818689333E+02 0.  0.
         13    1    3    3    0    0 -0.13531524456E+02  0.23100090353E+02  0.41823041640E+02  0.49657771843E+02  0.10566000000E+00 0. -1.
         22    1    1    0    0    0  0.93921105975E+01  0.18022739746E+02 -0.20374073307E+02  0.28777313157E+02  0.00000000000E+00 0.  1.
</event>
<event>
 5    1  0.8943113E-005  0.9118800E+02  0.7818608E-02  0.1130116E+00
         25   -1    0    0    0    0  0.00000000000E+00  0.00000000000E+00  0.99999998245E-14  0.12500000000E+03  0.12500000000E+03 0.  0.
        -13    1    3    3    0    0 -0.16457136793E+02 -0.37416480650E+02 -0.83662949743E+00  0.40884489585E+02  0.10566000000E+00 0.  1.
         23    2    1    0    0    0 -0.15952903751E+01  0.10925355845E+02  0.24995414459E+02  0.97674570530E+02  0.93774424192E+02 0.  0.
         13    1    3    3    0    0  0.14861846418E+02  0.48341836495E+02  0.25832043957E+02  0.56790080945E+02  0.10566000000E+00 0. -1.
         22    1    1    0    0    0  0.15952903751E+01 -0.10925355845E+02 -0.24995414459E+02  0.27325429470E+02  0.00000000000E+00 0. -1.
</event>
<event>
 5    1  0.8943113E-005  0.9118800E+02  0.7818608E-02  0.1130116E+00
         25   -1    0    0    0    0  0.00000000000E+00  0.00000000000E+00  0.99999998245E-14  0.12500000000E+03  0.12500000000E+03 0.  0.
        -13    1    3    3    0    0  0.26607376307E+02  0.29135563680E+02 -0.73084165615E-01  0.39456939190E+02  0.10566000000E+00 0.  1.
         23    2    1    0    0    0  0.87655389712E+00 -0.20130106151E+02  0.18081531028E+02  0.97927296317E+02  0.94110701195E+02 0.  0.
         13    1    3    3    0    0 -0.25730822410E+02 -0.49265669831E+02  0.18154615193E+02  0.58470357128E+02  0.10566000000E+00 0. -1.
         22    1    1    0    0    0 -0.87655389712E+00  0.20130106151E+02 -0.18081531028E+02  0.27072703683E+02  0.00000000000E+00 0. -1.
</event>
<event>
 5    1  0.8943113E-005  0.9118800E+02  0.7818608E-02  0.1130116E+00
         25   -1    0    0    0    0  0.00000000000E+00  0.00000000000E+00  0.99999998245E-14  0.12500000000E+03  0.12500000000E+03 0.  0.
        -13    1    3    3    0    0 -0.44172878518E+01  0.35130092365E+02  0.15303757698E+02  0.38572684444E+02  0.10566000000E+00 0.  1.
         23    2    1    0    0    0  0.23342246691E+02 -0.12426804838E+02  0.16820757691E+02  0.93659549327E+02  0.88260338385E+02 0.  0.
         13    1    3    3    0    0  0.27759534543E+02 -0.47556897203E+02  0.15169999936E+01  0.55086864883E+02  0.10566000000E+00 0. -1.
         22    1    1    0    0    0 -0.23342246691E+02  0.12426804838E+02 -0.16820757691E+02  0.31340450673E+02  0.00000000000E+00 0. -1.
</event>
<event>
 5    1  0.8943113E-005  0.9118800E+02  0.7818608E-02  0.1130116E+00
         25   -1    0    0    0    0  0.00000000000E+00  0.00000000000E+00  0.99999998245E-14  0.12500000000E+03  0.12500000000E+03 0.  0.
        -13    1    3    3    0    0  0.35449045882E+02 -0.19462762858E+02 -0.15816806250E+02  0.43423686117E+02  0.10566000000E+00 0.  1.
         23    2    1    0    0    0  0.12085054328E+02  0.50171865959E+00  0.26585775106E+02  0.95792061050E+02  0.91230561012E+02 0.  0.
         13    1    3    3    0    0 -0.23363991554E+02  0.19964481517E+02  0.42402581355E+02  0.52368374934E+02  0.10566000000E+00 0. -1.
         22    1    1    0    0    0 -0.12085054328E+02 -0.50171865959E+00 -0.26585775106E+02  0.29207938950E+02  0.00000000000E+00 0. -1.
</event>
<event>
 5    1  0.8943113E-005  0.9118800E+02  0.7818608E-02  0.1130116E+00
         25   -1    0    0    0    0  0.00000000000E+00  0.00000000000E+00  0.99999998245E-14  0.12500000000E+03  0.12500000000E+03 0.  0.
        -13    1    3    3    0    0  0.41645910256E+02 -0.12899119305E+02 -0.21212510002E+02  0.48484542532E+02  0.10566000000E+00 0. -1.
         23    2    1    0    0    0 -0.11012561483E+02 -0.92415730735E+01 -0.18810664356E+02  0.10132460609E+03  0.98519802692E+02 0.  0.
         13    1    3    3    0    0 -0.52658471739E+02  0.36575462319E+01  0.24018456462E+01  0.52840063558E+02  0.10566000000E+00 0.  1.
         22    1    1    0    0    0  0.11012561483E+02  0.92415730735E+01  0.18810664356E+02  0.23675393910E+02  0.00000000000E+00 0. -1.
</event>
<event>
 5    1  0.8943113E-005  0.9118800E+02  0.7818608E-02  0.1130116E+00
         25   -1    0    0    0    0  0.00000000000E+00  0.00000000000E+00  0.99999998245E-14  0.12500000000E+03  0.12500000000E+03 0.  0.
        -13    1    3    3    0    0 -0.27332776933E+02  0.17642552472E+02 -0.24720655576E+02  0.40859054428E+02  0.10566000000E+00 0. -1.
         23    2    1    0    0    0 -0.16960915130E+02 -0.95556366128E+01  0.21823040750E+02  0.95755719522E+02  0.91180753893E+02 0.  0.
         13    1    3    3    0    0  0.10371861803E+02 -0.27198189085E+02  0.46543696326E+02  0.54896665094E+02  0.10566000000E+00 0.  1.
         22    1    1    0    0    0  0.16960915130E+02  0.95556366128E+01 -0.21823040750E+02  0.29244280478E+02  0.00000000000E+00 0.  1.
</event>
<event>
 5    1  0.8943113E-005  0.9118800E+02  0.7818608E-02  0.1130116E+00
         25   -1    0    0    0    0  0.00000000000E+00  0.00000000000E+00  0.99999998245E-14  0.12500000000E+03  0.12500000000E+03 0.  0.
        -13    1    3    3    0    0  0.78680748941E+01  0.27674740104E+02  0.44242567950E+02  0.52775125061E+02  0.10566000000E+00 0.  1.
         23    2    1    0    0    0  0.26153562381E+02  0.97314147341E+01  0.10403020157E+02  0.95218594957E+02  0.90441410533E+02 0.  0.
         13    1    3    3    0    0  0.18285487487E+02 -0.17943325370E+02 -0.33839547793E+02  0.42443469896E+02  0.10566000000E+00 0. -1.
         22    1    1    0    0    0 -0.26153562381E+02 -0.97314147341E+01 -0.10403020157E+02  0.29781405043E+02  0.00000000000E+00 0.  1.
</event>
<event>
 5    1  0.8943113E-005  0.9118800E+02  0.7818608E-02  0.1130116E+00
         25   -1    0    0    0    0  0.00000000000E+00  0.00000000000E+00  0.99999998245E-14  0.12500000000E+03  0.12500000000E+03 0.  0.
        -13    1    3    3    0    0 -0.24944063075E+02 -0.55518164909E+01 -0.51592096596E+02  0.57574165598E+02  0.10566000000E+00 0. -1.
         23    2    1    0    0    0 -0.58886519863E+01 -0.19113611318E+02 -0.22720215383E+02  0.94730963893E+02  0.89764920616E+02 0.  0.
         13    1    3    3    0    0  0.19055411089E+02 -0.13561794827E+02  0.28871881214E+02  0.37156798295E+02  0.10566000000E+00 0.  1.
         22    1    1    0    0    0  0.58886519863E+01  0.19113611318E+02  0.22720215383E+02  0.30269036107E+02  0.00000000000E+00 0. -1.
</event>
<event>
 4    1  0.8943113E-005  0.9118800E+02  0.7818608E-02  0.1130116E+00
         25   -1    0    0    0    0  0.00000000000E+00  0.00000000000E+00  0.99999998245E-14  0.12500000000E+03  0.12500000000E+03 0.  0.
        -13    1    1    0    0    0  0.47696003863E+00 -0.21022117347E+02  0.12519640137E+01  0.21065029944E+02  0.10566000000E+00 0.  1.
         13    1    1    0    0    0  0.38269845727E+02  0.12417521463E+02 -0.33845375124E+02  0.52576577604E+02  0.10566000000E+00 0. -1.
         22    1    1    0    0    0 -0.38746805766E+02  0.86045958837E+01  0.32593411110E+02  0.51358392451E+02  0.00000000000E+00 0. -1.
</event>
<event>
 5    1  0.8943113E-005  0.9118800E+02  0.7818608E-02  0.1130116E+00
         25   -1    0    0    0    0  0.00000000000E+00  0.00000000000E+00  0.99999998245E-14  0.12500000000E+03  0.12500000000E+03 0.  0.
        -13    1    3    3    0    0 -0.52708714348E+02  0.21008408472E+02 -0.61246098715E+01  0.57070866516E+02  0.10566000000E+00 0. -1.
         23    2    1    0    0    0 -0.27061644283E+02 -0.81723815916E+01 -0.67938119852E+01  0.95926364289E+02  0.91414392041E+02 0.  0.
         13    1    3    3    0    0  0.25647070065E+02 -0.29180790064E+02 -0.66920211365E+00  0.38855497773E+02  0.10566000000E+00 0.  1.
         22    1    1    0    0    0  0.27061644283E+02  0.81723815916E+01  0.67938119852E+01  0.29073635711E+02  0.00000000000E+00 0. -1.
</event>
<event>
 5    1  0.8943113E-005  0.9118800E+02  0.7818608E-02  0.1130116E+00
         25   -1    0    0    0    0  0.00000000000E+00  0.00000000000E+00  0.99999998245E-14  0.12500000000E+03  0.12500000000E+03 0.  0.
        -13    1    3    3    0    0 -0.20524664737E+02 -0.21759267643E+01  0.18870225501E+02  0.27965927382E+02  0.10566000000E+00 0. -1.
         23    2    1    0    0    0  0.28243122481E+02 -0.13072191130E+02 -0.17056577014E+02  0.89510804914E+02  0.82174821134E+02 0.  0.
         13    1    3    3    0    0  0.48767787219E+02 -0.10896264366E+02 -0.35926802516E+02  0.61544877531E+02  0.10566000000E+00 0.  1.
         22    1    1    0    0    0 -0.28243122481E+02  0.13072191130E+02  0.17056577014E+02  0.35489195086E+02  0.00000000000E+00 0.  1.
</event>
<event>
 5    1  0.8943113E-005  0.9118800E+02  0.7818608E-02  0.1130116E+00
         25   -1    0    0    0    0  0.00000000000E+00  0.00000000000E+00  0.99999998245E-14  0.12500000000E+03  0.12500000000E+03 0.  0.
        -13    1    3    3    0    0 -0.29526573295E+02 -0.69073819154E+01 -0.50197261109E+02  0.58645602071E+02  0.10566000000E+00 0.  1.
         23    2    1    0    0    0 -0.25022321743E+01  0.57706494650E+01 -0.29172265988E+02  0.95157368347E+02  0.90356748982E+02 0.  0.
         13    1    3    3    0    0  0.27024341120E+02  0.12678031380E+02  0.21024995121E+02  0.36511766275E+02  0.10566000000E+00 0. -1.
         22    1    1    0    0    0  0.25022321743E+01 -0.57706494650E+01  0.29172265988E+02  0.29842631653E+02  0.00000000000E+00 0.  1.
</event>
<event>
 5    1  0.8943113E-005  0.9118800E+02  0.7818608E-02  0.1130116E+00
         25   -1    0    0    0    0  0.00000000000E+00  0.00000000000E+00  0.99999998245E-14  0.12500000000E+03  0.12500000000E+03 0.  0.
        -13    1    3    3    0    0 -0.10324347458E+02 -0.62051706487E+01 -0.34676198289E+02  0.36708938762E+02  0.10566000000E+00 0.  1.
         23    2    1    0    0    0  0.71304308649E+01  0.25232579551E+02  0.12439078133E+02  0.95978339470E+02  0.91485435275E+02 0.  0.
         13    1    3    3    0    0  0.17454778323E+02  0.31437750200E+02  0.47115276422E+02  0.59269400708E+02  0.10566000000E+00 0. -1.
         22    1    1    0    0    0 -0.71304308649E+01 -0.25232579551E+02 -0.12439078133E+02  0.29021660530E+02  0.00000000000E+00 0. -1.
</event>
<event>
 5    1  0.8943113E-005  0.9118800E+02  0.7818608E-02  0.1130116E+00
         25   -1    0    0    0    0  0.00000000000E+00  0.00000000000E+00  0.99999998245E-14  0.12500000000E+03  0.12500000000E+03 0.  0.
        -13    1    3    3    0    0 -0.14703351089E+02 -0.26835069075E+02  0.18822676974E+02  0.35925113751E+02  0.10566000000E+00 0. -1.
         23    2    1    0    0    0  0.11770382451E+02  0.24845919956E+02 -0.15525333006E+01  0.97463260884E+02  0.93492327070E+02 0.  0.
         13    1    3    3    0    0  0.26473733541E+02  0.51680989031E+02 -0.20375210274E+02  0.61538147133E+02  0.10566000000E+00 0.  1.
         22    1    1    0    0    0 -0.11770382451E+02 -0.24845919956E+02  0.15525333006E+01  0.27536739116E+02  0.00000000000E+00 0.  1.
</event>
<event>
 5    1  0.8943113E-005  0.9118800E+02  0.7818608E-02  0.1130116E+00
         25   -1    0    0    0    0  0.00000000000E+00  0.00000000000E+00  0.99999998245E-14  0.12500000000E+03  0.12500000000E+03 0.  0.
        -13    1    3    3    0    0  0.32158814298E+02 -0.26795268035E+02  0.19640720520E+02  0.46237915099E+02  0.10566000000E+00 0.  1.
         23    2    1    0    0    0  0.63924726875E+00  0.10259736907E+02  0.27614297855E+02  0.95534422040E+02  0.90876870050E+02 0.  0.
         13    1    3    3    0    0 -0.31519567030E+02  0.37055004942E+02  0.79735773354E+01  0.49296506941E+02  0.10566000000E+00 0. -1.
         22    1    1    0    0    0 -0.63924726875E+00 -0.10259736907E+02 -0.27614297855E+02  0.29465577960E+02  0.00000000000E+00 0. -1.
</event>
<event>
 5    1  0.8943113E-005  0.9118800E+02  0.7818608E-02  0.1130116E+00
         25   -1    0    0    0    0  0.00000000000E+00  0.00000000000E+00  0.99999998245E-14  0.12500000000E+03  0.12500000000E+03 0.  0.
        -13    1    3    3    0    0 -0.19134002387E+02 -0.47720663158E+01  0.27297623889E+02  0.33675719714E+02  0.10566000000E+00 0.  1.
         23    2    1    0    0    0  0.37652369102E+01 -0.84113638656E+01 -0.29005133524E+02  0.94566041634E+02  0.89534967518E+02 0.  0.
         13    1    3    3    0    0  0.22899239297E+02 -0.36392975498E+01 -0.56302757413E+02  0.60890321919E+02  0.10566000000E+00 0. -1.
         22    1    1    0    0    0 -0.37652369102E+01  0.84113638656E+01  0.29005133524E+02  0.30433958366E+02  0.00000000000E+00 0. -1.
</event>
<event>
 5    1  0.8943113E-005  0.9118800E+02  0.7818608E-02  0.1130116E+00
         25   -1    0    0    0    0  0.00000000000E+00  0.00000000000E+00  0.99999998245E-14  0.12500000000E+03  0.12500000000E+03 0.  0.
        -13    1    3    3    0    0 -0.21421041009E+01 -0.85099149371E+01 -0.46276107096E+02  0.47100918401E+02  0.10566000000E+00 0.  1.
         23    2    1    0    0    0 -0.10756626752E+02 -0.28918448363E+02 -0.52828518309E+01  0.93696802107E+02  0.88313082422E+02 0.  0.
         13    1    3    3    0    0 -0.86145226512E+01 -0.20408533426E+02  0.40993255265E+02  0.46595883706E+02  0.10566000000E+00 0. -1.
         22    1    1    0    0    0  0.10756626752E+02  0.28918448363E+02  0.52828518309E+01  0.31303197893E+02  0.00000000000E+00 0. -1.
</event>
<event>
 5    1  0.8943113E-005  0.9118800E+02  0.7818608E-02  0.1130116E+00
         25   -1    0    0    0    0  0.00000000000E+00  0.00000000000E+00  0.99999998245E-14  0.12500000000E+03  0.12500000000E+03 0.  0.
        -13    1    3    3    0    0  0.83490653121E+01 -0.34700571226E+02  0.26292042930E+02  0.44329665242E+02  0.10566000000E+00 0. -1.
         23    2    1    0    0    0 -0.25591361895E+02 -0.39250783136E+00  0.18970547568E+02  0.93141664496E+02  0.87523803186E+02 0.  0.
         13    1    3    3    0    0 -0.33940427207E+02  0.34308063394E+02 -0.73214953620E+01  0.48811999254E+02  0.10566000000E+00 0.  1.
         22    1    1    0    0    0  0.25591361895E+02  0.39250783136E+00 -0.18970547568E+02  0.31858335504E+02  0.00000000000E+00 0. -1.
</event>
<event>
 5    1  0.8943113E-005  0.9118800E+02  0.7818608E-02  0.1130116E+00
         25   -1    0    0    0    0  0.00000000000E+00  0.00000000000E+00  0.99999998245E-14  0.12500000000E+03  0.12500000000E+03 0.  0.
        -13    1    3    3    0    0  0.22876562479E+02 -0.39172350434E+02 -0.19064865971E+02  0.49206609596E+02  0.10566000000E+00 0.  1.
         23    2    1    0    0    0 -0.56917609190E+01 -0.18936307226E+01 -0.27438167269E+02  0.96913793372E+02  0.92754775310E+02 0.  0.
         13    1    3    3    0    0 -0.28568323398E+02  0.37278719712E+02 -0.83733012987E+01  0.47707183776E+02  0.10566000000E+00 0. -1.
         22    1    1    0    0    0  0.56917609190E+01  0.18936307226E+01  0.27438167269E+02  0.28086206628E+02  0.00000000000E+00 0.  1.
</event>
<event>
 5    1  0.8943113E-005  0.9118800E+02  0.7818608E-02  0.1130116E+00
         25   -1    0    0    0    0  0.00000000000E+00  0.00000000000E+00  0.99999998245E-14  0.12500000000E+03  0.12500000000E+03 0.  0.
        -13    1    3    3    0    0 -0.11310513154E+02  0.23994248467E+02  0.29210887300E+02  0.39458063411E+02  0.10566000000E+00 0. -1.
         23    2    1    0    0    0 -0.35019647625E+02 -0.40707107632E+01 -0.46720224046E+01  0.89436335970E+02  0.82061464723E+02 0.  0.
         13    1    3    3    0    0 -0.23709134471E+02 -0.28064959230E+02 -0.33882909704E+02  0.49978272559E+02  0.10566000000E+00 0.  1.
         22    1    1    0    0    0  0.35019647625E+02  0.40707107632E+01  0.46720224046E+01  0.35563664030E+02  0.00000000000E+00 0.  1.
</event>
<event>
 5    1  0.8943113E-005  0.9118800E+02  0.7818608E-02  0.1130116E+00
         25   -1    0    0    0    0  0.00000000000E+00  0.00000000000E+00  0.99999998245E-14  0.12500000000E+03  0.12500000000E+03 0.  0.
        -13    1    3    3    0    0  0.12613536372E+02 -0.11770566259E+02  0.55428093504E+02  0.58051117503E+02  0.10566000000E+00 0.  1.
         23    2    1    0    0    0  0.19584911345E+02  0.32572159377E+01  0.21955450513E+02  0.95398986245E+02  0.90690388473E+02 0.  0.
         13    1    3    3    0    0  0.69713749728E+01  0.15027782197E+02 -0.33472642991E+02  0.37347868742E+02  0.10566000000E+00 0. -1.
         22    1    1    0    0    0 -0.19584911345E+02 -0.32572159377E+01 -0.21955450513E+02  0.29601013755E+02  0.00000000000E+00 0.  1.
</event>
<event>
 5    1  0.8943113E-005  0.9118800E+02  0.7818608E-02  0.1130116E+00
         25   -1    0    0    0    0  0.00000000000E+00  0.00000000000E+00  0.99999998245E-14  0.12500000000E+03  0.12500000000E+03 0.  0.
        -13    1    3    3    0    0  0.43008602872E+00  0.38815299867E+02  0.12395065329E+02  0.40748758095E+02  0.10566000000E+00 0.  1.
         23    2    1    0    0    0  0.15453594369E+02 -0.13054927195E+02  0.21461711041E+02  0.95506784783E+02  0.90838847394E+02 0.  0.
         13    1    3    3    0    0  0.15023508341E+02 -0.51870227062E+02  0.90666457119E+01  0.54758026688E+02  0.10566000000E+00 0. -1.
         22    1    1    0    0    0 -0.15453594369E+02  0.13054927195E+02 -0.21461711041E+02  0.29493215217E+02  0.00000000000E+00 0. -1.
</event>
<event>
 5    1  0.8943113E-005  0.9118800E+02  0.7818608E-02  0.1130116E+00
         25   -1    0    0    0    0  0.00000000000E+00  0.00000000000E+00  0.99999998245E-14  0.12500000000E+03  0.12500000000E+03 0.  0.
        -13    1    3    3    0    0  0.13091764590E+02  0.13387127644E+02  0.50307219597E+02  0.53679018194E+02  0.10566000000E+00 0.  1.
         23    2    1    0    0    0 -0.68787297852E+01 -0.13627421711E+02  0.24874497486E+02  0.95815000923E+02  0.91261986778E+02 0.  0.
         13    1    3    3    0    0 -0.19970494375E+02 -0.27014549356E+02 -0.25432722111E+02  0.42135982729E+02  0.10566000000E+00 0. -1.
         22    1    1    0    0    0  0.68787297852E+01  0.13627421711E+02 -0.24874497486E+02  0.29184999077E+02  0.00000000000E+00 0.  1.
</event>
<event>
 5    1  0.8943113E-005  0.9118800E+02  0.7818608E-02  0.1130116E+00
         25   -1    0    0    0    0  0.00000000000E+00  0.00000000000E+00  0.99999998245E-14  0.12500000000E+03  0.12500000000E+03 0.  0.
        -13    1    3    3    0    0 -0.14718217229E+02 -0.30876351336E+02 -0.10605023677E+01  0.34221496454E+02  0.10566000000E+00 0. -1.
         23    2    1    0    0    0  0.11100402913E+02  0.25168340543E+02 -0.80924781156E+01  0.96326798006E+02  0.91960314818E+02 0.  0.
         13    1    3    3    0    0  0.25818620142E+02  0.56044691880E+02 -0.70319757479E+01  0.62105301552E+02  0.10566000000E+00 0.  1.
         22    1    1    0    0    0 -0.11100402913E+02 -0.25168340543E+02  0.80924781156E+01  0.28673201994E+02  0.00000000000E+00 0.  1.
</event>
<event>
 5    1  0.8943113E-005  0.9118800E+02  0.7818608E-02  0.1130116E+00
         25   -1    0    0    0    0  0.00000000000E+00  0.00000000000E+00  0.99999998245E-14  0.12500000000E+03  0.12500000000E+03 0.  0.
        -13    1    3    3    0    0  0.26186610128E+02  0.30045898173E+02  0.57146353317E+01  0.40263665606E+02  0.10566000000E+00 0.  1.
         23    2    1    0    0    0 -0.20221068450E+02  0.47577077394E+01  0.21182722692E+02  0.95331243154E+02  0.90596968980E+02 0.  0.
         13    1    3    3    0    0 -0.46407678577E+02 -0.25288190434E+02  0.15468087360E+02  0.55067577548E+02  0.10566000000E+00 0. -1.
         22    1    1    0    0    0  0.20221068450E+02 -0.47577077394E+01 -0.21182722692E+02  0.29668756846E+02  0.00000000000E+00 0. -1.
</event>
<event>
 5    1  0.8943113E-005  0.9118800E+02  0.7818608E-02  0.1130116E+00
         25   -1    0    0    0    0  0.00000000000E+00  0.00000000000E+00  0.99999998245E-14  0.12500000000E+03  0.12500000000E+03 0.  0.
        -13    1    3    3    0    0  0.22983889024E+02  0.89181625934E+01  0.26598181547E+02  0.36266612805E+02  0.10566000000E+00 0.  1.
         23    2    1    0    0    0  0.36577554275E+01 -0.16661054482E+02 -0.23631374510E+02  0.95855330291E+02  0.91317208525E+02 0.  0.
         13    1    3    3    0    0 -0.19326133596E+02 -0.25579217076E+02 -0.50229556057E+02  0.59588717486E+02  0.10566000000E+00 0. -1.
         22    1    1    0    0    0 -0.36577554275E+01  0.16661054482E+02  0.23631374510E+02  0.29144669709E+02  0.00000000000E+00 0. -1.
</event>
<event>
 5    1  0.8943113E-005  0.9118800E+02  0.7818608E-02  0.1130116E+00
         25   -1    0    0    0    0  0.00000000000E+00  0.00000000000E+00  0.99999998245E-14  0.12500000000E+03  0.12500000000E+03 0.  0.
        -13    1    3    3    0    0  0.80896057261E+01 -0.32736262844E+02 -0.29637459569E+02  0.44894262435E+02  0.10566000000E+00 0.  1.
         23    2    1    0    0    0 -0.25720583093E+02 -0.94120489577E+01  0.31231294249E+01  0.97433915809E+02  0.93453084231E+02 0.  0.
         13    1    3    3    0    0 -0.33810188819E+02  0.23324213887E+02  0.32760588994E+02  0.52539653374E+02  0.10566000000E+00 0. -1.
         22    1    1    0    0    0  0.25720583093E+02  0.94120489577E+01 -0.31231294249E+01  0.27566084191E+02  0.00000000000E+00 0.  1.
</event>
<event>
 5    1  0.8943113E-005  0.9118800E+02  0.7818608E-02  0.1130116E+00
         25   -1    0    0    0    0  0.00000000000E+00  0.00000000000E+00  0.99999998245E-14  0.12500000000E+03  0.12500000000E+03 0.  0.
        -13    1    3    3    0    0 -0.28568058241E+02  0.10500748527E+02  0.22627512587E+02  0.37926444088E+02  0.10566000000E+00 0. -1.
         23    2    1    0    0    0  0.24489863428E+02  0.68053149861E+01 -0.67690993728E+01  0.98696265872E+02  0.95126581290E+02 0.  0.
         13    1    3    3    0    0  0.53057921669E+02 -0.36954335408E+01 -0.29396611959E+02  0.60769821783E+02  0.10566000000E+00 0.  1.
         22    1    1    0    0    0 -0.24489863428E+02 -0.68053149861E+01  0.67690993728E+01  0.26303734128E+02  0.00000000000E+00 0.  1.
</event>
<event>
 5    1  0.8943113E-005  0.9118800E+02  0.7818608E-02  0.1130116E+00
         25   -1    0    0    0    0  0.00000000000E+00  0.00000000000E+00  0.99999998245E-14  0.12500000000E+03  0.12500000000E+03 0.  0.
        -13    1    3    3    0    0  0.41426000853E+02 -0.10823536179E+02  0.21375305524E+02  0.47855797270E+02  0.10566000000E+00 0. -1.
         23    2    1    0    0    0  0.21532643268E+02  0.16839351433E+02 -0.11629946383E+02  0.95293533773E+02  0.90544925000E+02 0.  0.
         13    1    3    3    0    0 -0.19893357584E+02  0.27662887613E+02 -0.33005251907E+02  0.47437736503E+02  0.10566000000E+00 0.  1.
         22    1    1    0    0    0 -0.21532643268E+02 -0.16839351433E+02  0.11629946383E+02  0.29706466227E+02  0.00000000000E+00 0. -1.
</event>
<event>
 5    1  0.8943113E-005  0.9118800E+02  0.7818608E-02  0.1130116E+00
         25   -1    0    0    0    0  0.00000000000E+00  0.00000000000E+00  0.99999998245E-14  0.12500000000E+03  0.12500000000E+03 0.  0.
        -13    1    3    3    0    0 -0.50608033011E+02  0.77330518433E+01 -0.59897924976E+01  0.51544756030E+02  0.10566000000E+00 0. -1.
         23    2    1    0    0    0 -0.19776965334E+02 -0.10200186812E+02  0.19522782360E+02  0.95397446057E+02  0.90688265582E+02 0.  0.
         13    1    3    3    0    0  0.30831067676E+02 -0.17933238656E+02  0.25512574858E+02  0.43852690027E+02  0.10566000000E+00 0.  1.
         22    1    1    0    0    0  0.19776965334E+02  0.10200186812E+02 -0.19522782360E+02  0.29602553943E+02  0.00000000000E+00 0. -1.
</event>
<event>
 5    1  0.8943113E-005  0.9118800E+02  0.7818608E-02  0.1130116E+00
         25   -1    0    0    0    0  0.00000000000E+00  0.00000000000E+00  0.99999998245E-14  0.12500000000E+03  0.12500000000E+03 0.  0.
        -13    1    3    3    0    0 -0.45736864775E+02  0.64384809831E+01 -0.73777517362E+01  0.46773467067E+02  0.10566000000E+00 0. -1.
         23    2    1    0    0    0 -0.61476931294E+01 -0.25899671892E+02 -0.47585411345E+01  0.97958719545E+02  0.94152428998E+02 0.  0.
         13    1    3    3    0    0  0.39589171645E+02 -0.32338152875E+02  0.26192106017E+01  0.51185252477E+02  0.10566000000E+00 0.  1.
         22    1    1    0    0    0  0.61476931294E+01  0.25899671892E+02  0.47585411345E+01  0.27041280455E+02  0.00000000000E+00 0.  1.
</event>
<event>
 5    1  0.8943113E-005  0.9118800E+02  0.7818608E-02  0.1130116E+00
         25   -1    0    0    0    0  0.00000000000E+00  0.00000000000E+00  0.99999998245E-14  0.12500000000E+03  0.12500000000E+03 0.  0.
        -13    1    3    3    0    0  0.26315057400E+01  0.52204577078E+02 -0.81745283841E+01  0.52906301787E+02  0.10566000000E+00 0. -1.
         23    2    1    0    0    0 -0.22594192578E+02  0.18950085733E+02  0.35577659179E+00  0.95508817173E+02  0.90841644048E+02 0.  0.
         13    1    3    3    0    0 -0.25225698318E+02 -0.33254491345E+02  0.85303049759E+01  0.42602515387E+02  0.10566000000E+00 0.  1.
         22    1    1    0    0    0  0.22594192578E+02 -0.18950085733E+02 -0.35577659179E+00  0.29491182827E+02  0.00000000000E+00 0. -1.
</event>
<event>
 5    1  0.8943113E-005  0.9118800E+02  0.7818608E-02  0.1130116E+00
         25   -1    0    0    0    0  0.00000000000E+00  0.00000000000E+00  0.99999998245E-14  0.12500000000E+03  0.12500000000E+03 0.  0.
        -13    1    3    3    0    0  0.10413781230E+02 -0.53863237954E+01  0.56848875327E+02  0.58045371164E+02  0.10566000000E+00 0. -1.
         23    2    1    0    0    0  0.77393426454E+01 -0.18044120828E+02  0.20561952384E+02  0.96569706177E+02  0.92289904888E+02 0.  0.
         13    1    3    3    0    0 -0.26744385842E+01 -0.12657797032E+02 -0.36286922944E+02  0.38524335013E+02  0.10566000000E+00 0.  1.
         22    1    1    0    0    0 -0.77393426454E+01  0.18044120828E+02 -0.20561952384E+02  0.28430293823E+02  0.00000000000E+00 0. -1.
</event>
<event>
 5    1  0.8943113E-005  0.9118800E+02  0.7818608E-02  0.1130116E+00
         25   -1    0    0    0    0  0.00000000000E+00  0.00000000000E+00  0.99999998245E-14  0.12500000000E+03  0.12500000000E+03 0.  0.
        -13    1    3    3    0    0 -0.37205885287E+02  0.13357311781E+02  0.40025960139E+02  0.56256415875E+02  0.10566000000E+00 0.  1.
         23    2    1    0    0    0  0.17894276690E+00  0.31326502400E+01  0.27982053919E+02  0.96842570083E+02  0.92658742279E+02 0.  0.
         13    1    3    3    0    0  0.37384828054E+02 -0.10224661541E+02 -0.12043906220E+02  0.40586154208E+02  0.10566000000E+00 0. -1.
         22    1    1    0    0    0 -0.17894276690E+00 -0.31326502400E+01 -0.27982053919E+02  0.28157429917E+02  0.00000000000E+00 0.  1.
</event>
<event>
 5    1  0.8943113E-005  0.9118800E+02  0.7818608E-02  0.1130116E+00
         25   -1    0    0    0    0  0.00000000000E+00  0.00000000000E+00  0.99999998245E-14  0.12500000000E+03  0.12500000000E+03 0.  0.
        -13    1    3    3    0    0  0.52732260056E+01  0.21662987494E+02  0.44662610374E+02  0.49918452191E+02  0.10566000000E+00 0.  1.
         23    2    1    0    0    0 -0.14781979785E+02  0.21707873230E+02  0.15425190266E+00  0.98736670429E+02  0.95179659629E+02 0.  0.
         13    1    3    3    0    0 -0.20055205791E+02  0.44885735835E-01 -0.44508358471E+02  0.48818218238E+02  0.10566000000E+00 0. -1.
         22    1    1    0    0    0  0.14781979785E+02 -0.21707873230E+02 -0.15425190266E+00  0.26263329571E+02  0.00000000000E+00 0.  1.
</event>
<event>
 5    1  0.8943113E-005  0.9118800E+02  0.7818608E-02  0.1130116E+00
         25   -1    0    0    0    0  0.00000000000E+00  0.00000000000E+00  0.99999998245E-14  0.12500000000E+03  0.12500000000E+03 0.  0.
        -13    1    3    3    0    0 -0.14028469856E+02 -0.21553812532E+02 -0.42967827816E+02  0.50076044097E+02  0.10566000000E+00 0.  1.
         23    2    1    0    0    0 -0.78338521212E+00 -0.27444945870E+02  0.21444212648E+01  0.97460259828E+02  0.93488314548E+02 0.  0.
         13    1    3    3    0    0  0.13245084644E+02 -0.58911333373E+01  0.45112249081E+02  0.47384215731E+02  0.10566000000E+00 0. -1.
         22    1    1    0    0    0  0.78338521212E+00  0.27444945870E+02 -0.21444212648E+01  0.27539740172E+02  0.00000000000E+00 0. -1.
</event>
<event>
 5    1  0.8943113E-005  0.9118800E+02  0.7818608E-02  0.1130116E+00
         25   -1    0    0    0    0  0.00000000000E+00  0.00000000000E+00  0.99999998245E-14  0.12500000000E+03  0.12500000000E+03 0.  0.
        -13    1    3    3    0    0 -0.24482962077E+01 -0.38873382488E+02 -0.61257649871E+01  0.39429306120E+02  0.10566000000E+00 0.  1.
         23    2    1    0    0    0 -0.21711550954E+02  0.95724579824E+01 -0.20644221707E+02  0.93548334122E+02  0.88102687419E+02 0.  0.
         13    1    3    3    0    0 -0.19263254747E+02  0.48445840470E+02 -0.14518456719E+02  0.54119028002E+02  0.10566000000E+00 0. -1.
         22    1    1    0    0    0  0.21711550954E+02 -0.95724579824E+01  0.20644221707E+02  0.31451665878E+02  0.00000000000E+00 0. -1.
</event>
<event>
 4    1  0.8943113E-005  0.9118800E+02  0.7818608E-02  0.1130116E+00
         25   -1    0    0    0    0  0.00000000000E+00  0.00000000000E+00  0.99999998245E-14  0.12500000000E+03  0.12500000000E+03 0.  0.
        -13    1    1    0    0    0  0.15357715607E+02  0.57595031055E+01 -0.94917554507E+00  0.16429954441E+02  0.10566000000E+00 0.  1.
         13    1    1    0    0    0  0.99617340857E+01  0.45214100891E+02  0.17183301932E+02  0.49384492452E+02  0.10566000000E+00 0. -1.
         22    1    1    0    0    0 -0.25319449692E+02 -0.50973603997E+02 -0.16234126387E+02  0.59185553108E+02  0.00000000000E+00 0. -1.
</event>
<event>
 5    1  0.8943113E-005  0.9118800E+02  0.7818608E-02  0.1130116E+00
         25   -1    0    0    0    0  0.00000000000E+00  0.00000000000E+00  0.99999998245E-14  0.12500000000E+03  0.12500000000E+03 0.  0.
        -13    1    3    3    0    0  0.17655599347E+02 -0.27063979888E+01  0.59091543409E+02  0.61732215616E+02  0.10566000000E+00 0. -1.
         23    2    1    0    0    0  0.20932506176E+01  0.10807108146E+01  0.29717526642E+02  0.95189246509E+02  0.90400838642E+02 0.  0.
         13    1    3    3    0    0 -0.15562348730E+02  0.37871088034E+01 -0.29374016767E+02  0.33457030893E+02  0.10566000000E+00 0.  1.
         22    1    1    0    0    0 -0.20932506176E+01 -0.10807108146E+01 -0.29717526642E+02  0.29810753491E+02  0.00000000000E+00 0. -1.
</event>
<event>
 5    1  0.8943113E-005  0.9118800E+02  0.7818608E-02  0.1130116E+00
         25   -1    0    0    0    0  0.00000000000E+00  0.00000000000E+00  0.99999998245E-14  0.12500000000E+03  0.12500000000E+03 0.  0.
        -13    1    3    3    0    0  0.96123425513E+01 -0.53768897692E+02 -0.21062275206E+02  0.58541626978E+02  0.10566000000E+00 0.  1.
         23    2    1    0    0    0  0.11676076688E+02 -0.15357898002E+02 -0.20270434091E+02  0.97016320898E+02  0.92892842698E+02 0.  0.
         13    1    3    3    0    0  0.20637341364E+01  0.38410999690E+02  0.79184111516E+00  0.38474693919E+02  0.10566000000E+00 0. -1.
         22    1    1    0    0    0 -0.11676076688E+02  0.15357898002E+02  0.20270434091E+02  0.27983679102E+02  0.00000000000E+00 0.  1.
</event>
<event>
 5    1  0.8943113E-005  0.9118800E+02  0.7818608E-02  0.1130116E+00
         25   -1    0    0    0    0  0.00000000000E+00  0.00000000000E+00  0.99999998245E-14  0.12500000000E+03  0.12500000000E+03 0.  0.
        -13    1    3    3    0    0 -0.48974889569E+02  0.13926255709E+02  0.32306726157E+02  0.60301045807E+02  0.10566000000E+00 0.  1.
         23    2    1    0    0    0 -0.27294572682E+02  0.12942538719E+02  0.63559105488E+01  0.94130911816E+02  0.88925406685E+02 0.  0.
         13    1    3    3    0    0  0.21680316887E+02 -0.98371699023E+00 -0.25950815609E+02  0.33829866009E+02  0.10566000000E+00 0. -1.
         22    1    1    0    0    0  0.27294572682E+02 -0.12942538719E+02 -0.63559105488E+01  0.30869088184E+02  0.00000000000E+00 0.  1.
</event>
<event>
 5    1  0.8943113E-005  0.9118800E+02  0.7818608E-02  0.1130116E+00
         25   -1    0    0    0    0  0.00000000000E+00  0.00000000000E+00  0.99999998245E-14  0.12500000000E+03  0.12500000000E+03 0.  0.
        -13    1    3    3    0    0  0.24746313090E+02  0.92184703837E+01  0.31819442243E+02  0.41350311685E+02  0.10566000000E+00 0.  1.
         23    2    1    0    0    0 -0.14512124368E+02 -0.20950208490E+02  0.13657069132E+01  0.99477889100E+02  0.96148178739E+02 0.  0.
         13    1    3    3    0    0 -0.39258437458E+02 -0.30168678873E+02 -0.30453735329E+02  0.58127577415E+02  0.10566000000E+00 0. -1.
         22    1    1    0    0    0  0.14512124368E+02  0.20950208490E+02 -0.13657069132E+01  0.25522110900E+02  0.00000000000E+00 0. -1.
</event>
<event>
 5    1  0.8943113E-005  0.9118800E+02  0.7818608E-02  0.1130116E+00
         25   -1    0    0    0    0  0.00000000000E+00  0.00000000000E+00  0.99999998245E-14  0.12500000000E+03  0.12500000000E+03 0.  0.
        -13    1    3    3    0    0  0.25129642499E+02  0.20802190421E+02 -0.15220979767E+02  0.35998881198E+02  0.10566000000E+00 0.  1.
         23    2    1    0    0    0 -0.27981105379E+02 -0.48564649428E+01 -0.14822836098E+01  0.96561915067E+02  0.92279351789E+02 0.  0.
         13    1    3    3    0    0 -0.53110747878E+02 -0.25658655364E+02  0.13738696157E+02  0.60563033868E+02  0.10566000000E+00 0. -1.
         22    1    1    0    0    0  0.27981105379E+02  0.48564649428E+01  0.14822836098E+01  0.28438084933E+02  0.00000000000E+00 0. -1.
</event>
<event>
 5    1  0.8943113E-005  0.9118800E+02  0.7818608E-02  0.1130116E+00
         25   -1    0    0    0    0  0.00000000000E+00  0.00000000000E+00  0.99999998245E-14  0.12500000000E+03  0.12500000000E+03 0.  0.
        -13    1    3    3    0    0  0.24804958323E+02  0.15221714614E+02 -0.24262583613E+02  0.37890245193E+02  0.10566000000E+00 0. -1.
         23    2    1    0    0    0  0.21006979652E+01  0.69925858551E+01  0.28320307413E+02  0.95753649786E+02  0.91177916441E+02 0.  0.
         13    1    3    3    0    0 -0.22704260357E+02 -0.82291287591E+01  0.52582891025E+02  0.57863404593E+02  0.10566000000E+00 0.  1.
         22    1    1    0    0    0 -0.21006979652E+01 -0.69925858551E+01 -0.28320307413E+02  0.29246350214E+02  0.00000000000E+00 0.  1.
</event>
<event>
 5    1  0.8943113E-005  0.9118800E+02  0.7818608E-02  0.1130116E+00
         25   -1    0    0    0    0  0.00000000000E+00  0.00000000000E+00  0.99999998245E-14  0.12500000000E+03  0.12500000000E+03 0.  0.
        -13    1    3    3    0    0 -0.28840122963E+01  0.52641634317E+01 -0.19544502518E+02  0.20445725379E+02  0.10566000000E+00 0. -1.
         23    2    1    0    0    0  0.18414759713E+02  0.60156501100E+01  0.38293374499E+02  0.82085271153E+02  0.69973693544E+02 0.  0.
         13    1    3    3    0    0  0.21298772009E+02  0.75148667838E+00  0.57837877017E+02  0.61639545774E+02  0.10566000000E+00 0.  1.
         22    1    1    0    0    0 -0.18414759713E+02 -0.60156501100E+01 -0.38293374499E+02  0.42914728847E+02  0.00000000000E+00 0.  1.
</event>
<event>
 5    1  0.8943113E-005  0.9118800E+02  0.7818608E-02  0.1130116E+00
         25   -1    0    0    0    0  0.00000000000E+00  0.00000000000E+00  0.99999998245E-14  0.12500000000E+03  0.12500000000E+03 0.  0.
        -13    1    3    3    0    0  0.47814932344E+02 -0.26007079093E+02  0.14054741805E+02  0.56215503638E+02  0.10566000000E+00 0. -1.
         23    2    1    0    0    0  0.28250160869E+02  0.57212731197E+01 -0.34061136170E+00  0.96174307097E+02  0.91752802541E+02 0.  0.
         13    1    3    3    0    0 -0.19564771475E+02  0.31728352213E+02 -0.14395353167E+02  0.39958803459E+02  0.10566000000E+00 0.  1.
         22    1    1    0    0    0 -0.28250160869E+02 -0.57212731197E+01  0.34061136170E+00  0.28825692903E+02  0.00000000000E+00 0.  1.
</event>
<event>
 5    1  0.8943113E-005  0.9118800E+02  0.7818608E-02  0.1130116E+00
         25   -1    0    0    0    0  0.00000000000E+00  0.00000000000E+00  0.99999998245E-14  0.12500000000E+03  0.12500000000E+03 0.  0.
        -13    1    3    3    0    0  0.12383876939E+01 -0.41661789438E+02 -0.16760759158E+01  0.41714010809E+02  0.10566000000E+00 0.  1.
         23    2    1    0    0    0 -0.30234589188E+02 -0.21727109627E+01  0.91059510823E+01  0.93349259070E+02  0.87819785740E+02 0.  0.
         13    1    3    3    0    0 -0.31472976882E+02  0.39489078476E+02  0.10782026998E+02  0.51635248260E+02  0.10566000000E+00 0. -1.
         22    1    1    0    0    0  0.30234589188E+02  0.21727109627E+01 -0.91059510823E+01  0.31650740930E+02  0.00000000000E+00 0.  1.
</event>
<event>
 5    1  0.8943113E-005  0.9118800E+02  0.7818608E-02  0.1130116E+00
         25   -1    0    0    0    0  0.00000000000E+00  0.00000000000E+00  0.99999998245E-14  0.12500000000E+03  0.12500000000E+03 0.  0.
        -13    1    3    3    0    0 -0.22206679268E+02 -0.20299715228E+02 -0.20018235061E+02  0.36138012417E+02  0.10566000000E+00 0.  1.
         23    2    1    0    0    0 -0.66858737009E+01  0.28906941560E+02  0.71932946398E+01  0.94470413280E+02  0.89401360840E+02 0.  0.
         13    1    3    3    0    0  0.15520805567E+02  0.49206656788E+02  0.27211529701E+02  0.58332400863E+02  0.10566000000E+00 0. -1.
         22    1    1    0    0    0  0.66858737009E+01 -0.28906941560E+02 -0.71932946398E+01  0.30529586720E+02  0.00000000000E+00 0. -1.
</event>
<event>
 5    1  0.8943113E-005  0.9118800E+02  0.7818608E-02  0.1130116E+00
         25   -1    0    0    0    0  0.00000000000E+00  0.00000000000E+00  0.99999998245E-14  0.12500000000E+03  0.12500000000E+03 0.  0.
        -13    1    3    3    0    0 -0.33691533761E+02 -0.17573541378E+02  0.77717074298E+01  0.38786072296E+02  0.10566000000E+00 0.  1.
         23    2    1    0    0    0 -0.11469320255E+02  0.28054357089E+02 -0.10793891445E+02  0.92827024519E+02  0.87073280229E+02 0.  0.
         13    1    3    3    0    0  0.22222213507E+02  0.45627898466E+02 -0.18565598875E+02  0.54040952223E+02  0.10566000000E+00 0. -1.
         22    1    1    0    0    0  0.11469320255E+02 -0.28054357089E+02  0.10793891445E+02  0.32172975481E+02  0.00000000000E+00 0. -1.
</event>
<event>
 5    1  0.8943113E-005  0.9118800E+02  0.7818608E-02  0.1130116E+00
         25   -1    0    0    0    0  0.00000000000E+00  0.00000000000E+00  0.99999998245E-14  0.12500000000E+03  0.12500000000E+03 0.  0.
        -13    1    3    3    0    0  0.86741532259E+00  0.57216022183E+02  0.62191059140E+01  0.57559656412E+02  0.10566000000E+00 0.  1.
         23    2    1    0    0    0 -0.16917606226E+02  0.23698306230E+02  0.44467972502E+01  0.95545134113E+02  0.90891603178E+02 0.  0.
         13    1    3    3    0    0 -0.17785021549E+02 -0.33517715953E+02 -0.17723086638E+01  0.37985477702E+02  0.10566000000E+00 0. -1.
         22    1    1    0    0    0  0.16917606226E+02 -0.23698306230E+02 -0.44467972502E+01  0.29454865887E+02  0.00000000000E+00 0.  1.
</event>
<event>
 5    1  0.8943113E-005  0.9118800E+02  0.7818608E-02  0.1130116E+00
         25   -1    0    0    0    0  0.00000000000E+00  0.00000000000E+00  0.99999998245E-14  0.12500000000E+03  0.12500000000E+03 0.  0.
        -13    1    3    3    0    0  0.24333867779E+02  0.12599577710E+02 -0.22874606399E+02  0.35695171403E+02  0.10566000000E+00 0. -1.
         23    2    1    0    0    0 -0.83449151707E+01 -0.27761441141E+02  0.64047790469E+01  0.95312352433E+02  0.90570901001E+02 0.  0.
         13    1    3    3    0    0 -0.32678782949E+02 -0.40361018851E+02  0.29279385446E+02  0.59617181030E+02  0.10566000000E+00 0.  1.
         22    1    1    0    0    0  0.83449151707E+01  0.27761441141E+02 -0.64047790469E+01  0.29687647567E+02  0.00000000000E+00 0.  1.
</event>
<event>
 5    1  0.8943113E-005  0.9118800E+02  0.7818608E-02  0.1130116E+00
         25   -1    0    0    0    0  0.00000000000E+00  0.00000000000E+00  0.99999998245E-14  0.12500000000E+03  0.12500000000E+03 0.  0.
        -13    1    3    3    0    0  0.10365348986E+01  0.20840303903E+02 -0.57136249281E+02  0.60827253903E+02  0.10566000000E+00 0.  1.
         23    2    1    0    0    0  0.10576360792E+02  0.86640469823E+01 -0.24514807548E+02  0.96930427384E+02  0.92777189255E+02 0.  0.
         13    1    3    3    0    0  0.95398258933E+01 -0.12176256921E+02  0.32621441733E+02  0.36103173482E+02  0.10566000000E+00 0. -1.
         22    1    1    0    0    0 -0.10576360792E+02 -0.86640469823E+01  0.24514807548E+02  0.28069572616E+02  0.00000000000E+00 0.  1.
</event>
<event>
 5    1  0.8943113E-005  0.9118800E+02  0.7818608E-02  0.1130116E+00
         25   -1    0    0    0    0  0.00000000000E+00  0.00000000000E+00  0.99999998245E-14  0.12500000000E+03  0.12500000000E+03 0.  0.
        -13    1    3    3    0    0  0.20036344804E+02  0.35779952937E+02 -0.12040646558E+02  0.42739308357E+02  0.10566000000E+00 0.  1.
         23    2    1    0    0    0 -0.13873991934E+02  0.13833857992E+02  0.21983971268E+02  0.95552448797E+02  0.90901662247E+02 0.  0.
         13    1    3    3    0    0 -0.33910336738E+02 -0.21946094945E+02  0.34024617825E+02  0.52813140441E+02  0.10566000000E+00 0. -1.
         22    1    1    0    0    0  0.13873991934E+02 -0.13833857992E+02 -0.21983971268E+02  0.29447551203E+02  0.00000000000E+00 0. -1.
</event>
<event>
 5    1  0.8943113E-005  0.9118800E+02  0.7818608E-02  0.1130116E+00
         25   -1    0    0    0    0  0.00000000000E+00  0.00000000000E+00  0.99999998245E-14  0.12500000000E+03  0.12500000000E+03 0.  0.
        -13    1    3    3    0    0 -0.30973878388E+02  0.16630738673E+02 -0.11469343152E+02  0.36979989286E+02  0.10566000000E+00 0.  1.
         23    2    1    0    0    0  0.25092452002E+02  0.12403045133E+02  0.69749893974E+01  0.96153559090E+02  0.91724532011E+02 0.  0.
         13    1    3    3    0    0  0.56066330391E+02 -0.42276935404E+01  0.18444332550E+02  0.59173569804E+02  0.10566000000E+00 0. -1.
         22    1    1    0    0    0 -0.25092452002E+02 -0.12403045133E+02 -0.69749893974E+01  0.28846440910E+02  0.00000000000E+00 0. -1.
</event>
<event>
 5    1  0.8943113E-005  0.9118800E+02  0.7818608E-02  0.1130116E+00
         25   -1    0    0    0    0  0.00000000000E+00  0.00000000000E+00  0.99999998245E-14  0.12500000000E+03  0.12500000000E+03 0.  0.
        -13    1    3    3    0    0  0.17093150699E+02  0.29825692191E+02 -0.40117621347E+02  0.52831642243E+02  0.10566000000E+00 0.  1.
         23    2    1    0    0    0  0.98106470336E+01  0.27815719314E+02  0.18241412689E+01  0.95448510570E+02  0.90758622965E+02 0.  0.
         13    1    3    3    0    0 -0.72825036652E+01 -0.20099728768E+01  0.41941762616E+02  0.42616868327E+02  0.10566000000E+00 0. -1.
         22    1    1    0    0    0 -0.98106470336E+01 -0.27815719314E+02 -0.18241412689E+01  0.29551489430E+02  0.00000000000E+00 0.  1.
</event>
<event>
 5    1  0.8943113E-005  0.9118800E+02  0.7818608E-02  0.1130116E+00
         25   -1    0    0    0    0  0.00000000000E+00  0.00000000000E+00  0.99999998245E-14  0.12500000000E+03  0.12500000000E+03 0.  0.
        -13    1    3    3    0    0  0.31032401728E+02 -0.32132063969E+02  0.16554409008E+02  0.47639680033E+02  0.10566000000E+00 0. -1.
         23    2    1    0    0    0 -0.13547503249E+02 -0.19208651707E+02  0.19936798838E+02  0.94178204261E+02  0.88991859544E+02 0.  0.
         13    1    3    3    0    0 -0.44579904978E+02  0.12923412262E+02  0.33823898295E+01  0.46538524228E+02  0.10566000000E+00 0.  1.
         22    1    1    0    0    0  0.13547503249E+02  0.19208651707E+02 -0.19936798838E+02  0.30821795739E+02  0.00000000000E+00 0.  1.
</event>
<event>
 5    1  0.8943113E-005  0.9118800E+02  0.7818608E-02  0.1130116E+00
         25   -1    0    0    0    0  0.00000000000E+00  0.00000000000E+00  0.99999998245E-14  0.12500000000E+03  0.12500000000E+03 0.  0.
        -13    1    3    3    0    0 -0.58260603236E+01  0.31295048719E+02  0.34826222939E+02  0.47182624147E+02  0.10566000000E+00 0.  1.
         23    2    1    0    0    0  0.39852031432E+01 -0.15305326896E+02  0.24383795388E+02  0.95936202020E+02  0.91427843161E+02 0.  0.
         13    1    3    3    0    0  0.98112634667E+01 -0.46600375615E+02 -0.10442427551E+02  0.48753577873E+02  0.10566000000E+00 0. -1.
         22    1    1    0    0    0 -0.39852031432E+01  0.15305326896E+02 -0.24383795388E+02  0.29063797980E+02  0.00000000000E+00 0.  1.
</event>
<event>
 5    1  0.8943113E-005  0.9118800E+02  0.7818608E-02  0.1130116E+00
         25   -1    0    0    0    0  0.00000000000E+00  0.00000000000E+00  0.99999998245E-14  0.12500000000E+03  0.12500000000E+03 0.  0.
        -13    1    3    3    0    0  0.52798650007E+01  0.62847919602E+01 -0.60082173674E+02  0.60640368912E+02  0.10566000000E+00 0. -1.
         23    2    1    0    0    0 -0.18893769428E+01  0.12677017870E+02 -0.26601193090E+02  0.95472047123E+02  0.90791033592E+02 0.  0.
         13    1    3    3    0    0 -0.71692419435E+01  0.63922259094E+01  0.33480980583E+02  0.34831678211E+02  0.10566000000E+00 0.  1.
         22    1    1    0    0    0  0.18893769428E+01 -0.12677017870E+02  0.26601193090E+02  0.29527952877E+02  0.00000000000E+00 0. -1.
</event>
<event>
 5    1  0.8943113E-005  0.9118800E+02  0.7818608E-02  0.1130116E+00
         25   -1    0    0    0    0  0.00000000000E+00  0.00000000000E+00  0.99999998245E-14  0.12500000000E+03  0.12500000000E+03 0.  0.
        -13    1    3    3    0    0  0.29440559651E+02  0.18219928489E+02  0.24329360882E+02  0.42315969936E+02  0.10566000000E+00 0. -1.
         23    2    1    0    0    0  0.28123794013E+02 -0.23780884361E+02  0.86499187649E+01  0.87167482964E+02  0.78529425956E+02 0.  0.
         13    1    3    3    0    0 -0.13167656379E+01 -0.42000812849E+02 -0.15679442117E+02  0.44851513028E+02  0.10566000000E+00 0.  1.
         22    1    1    0    0    0 -0.28123794013E+02  0.23780884361E+02 -0.86499187649E+01  0.37832517036E+02  0.00000000000E+00 0.  1.
</event>
<event>
 5    1  0.8943113E-005  0.9118800E+02  0.7818608E-02  0.1130116E+00
         25   -1    0    0    0    0  0.00000000000E+00  0.00000000000E+00  0.99999998245E-14  0.12500000000E+03  0.12500000000E+03 0.  0.
        -13    1    3    3    0    0 -0.51918379526E+02  0.26078822505E+02 -0.14022161531E+02  0.59768346923E+02  0.10566000000E+00 0. -1.
         23    2    1    0    0    0 -0.22196310750E+02  0.22992246790E+02  0.60026369225E+00  0.93036271496E+02  0.87373153051E+02 0.  0.
         13    1    3    3    0    0  0.29722068776E+02 -0.30865757151E+01  0.14622425223E+02  0.33267924574E+02  0.10566000000E+00 0.  1.
         22    1    1    0    0    0  0.22196310750E+02 -0.22992246790E+02 -0.60026369225E+00  0.31963728504E+02  0.00000000000E+00 0. -1.
</event>
<event>
 5    1  0.8943113E-005  0.9118800E+02  0.7818608E-02  0.1130116E+00
         25   -1    0    0    0    0  0.00000000000E+00  0.00000000000E+00  0.99999998245E-14  0.12500000000E+03  0.12500000000E+03 0.  0.
        -13    1    3    3    0    0 -0.21080111164E+02  0.17688481212E+02 -0.26620190705E+02  0.38287062717E+02  0.10566000000E+00 0. -1.
         23    2    1    0    0    0 -0.27328798992E+02 -0.15350165283E+02  0.13703676429E+02  0.90790621516E+02  0.84099080726E+02 0.  0.
         13    1    3    3    0    0 -0.62486878280E+01 -0.33038646495E+02  0.40323867134E+02  0.52503558799E+02  0.10566000000E+00 0.  1.
         22    1    1    0    0    0  0.27328798992E+02  0.15350165283E+02 -0.13703676429E+02  0.34209378484E+02  0.00000000000E+00 0.  1.
</event>
<event>
 5    1  0.8943113E-005  0.9118800E+02  0.7818608E-02  0.1130116E+00
         25   -1    0    0    0    0  0.00000000000E+00  0.00000000000E+00  0.99999998245E-14  0.12500000000E+03  0.12500000000E+03 0.  0.
        -13    1    3    3    0    0  0.32833416509E+02 -0.67971505802E+01  0.51999117029E+01  0.33930587107E+02  0.10566000000E+00 0.  1.
         23    2    1    0    0    0 -0.26782830928E+02 -0.35917117802E+00 -0.11001069797E+02  0.96043609114E+02  0.91574572227E+02 0.  0.
         13    1    3    3    0    0 -0.59616247437E+02  0.64379794022E+01 -0.16200981500E+02  0.62113022007E+02  0.10566000000E+00 0. -1.
         22    1    1    0    0    0  0.26782830928E+02  0.35917117802E+00  0.11001069797E+02  0.28956390886E+02  0.00000000000E+00 0. -1.
</event>
<event>
 5    1  0.8943113E-005  0.9118800E+02  0.7818608E-02  0.1130116E+00
         25   -1    0    0    0    0  0.00000000000E+00  0.00000000000E+00  0.99999998245E-14  0.12500000000E+03  0.12500000000E+03 0.  0.
        -13    1    3    3    0    0  0.41146527613E+02 -0.33475409312E+02 -0.79601582300E+01  0.53637813586E+02  0.10566000000E+00 0. -1.
         23    2    1    0    0    0  0.49210294231E+00 -0.28180429742E+02  0.44348754396E+01  0.96468492751E+02  0.92152716659E+02 0.  0.
         13    1    3    3    0    0 -0.40654424671E+02  0.52949795694E+01  0.12395033670E+02  0.42830679164E+02  0.10566000000E+00 0.  1.
         22    1    1    0    0    0 -0.49210294231E+00  0.28180429742E+02 -0.44348754396E+01  0.28531507249E+02  0.00000000000E+00 0. -1.
</event>
<event>
 5    1  0.8943113E-005  0.9118800E+02  0.7818608E-02  0.1130116E+00
         25   -1    0    0    0    0  0.00000000000E+00  0.00000000000E+00  0.99999998245E-14  0.12500000000E+03  0.12500000000E+03 0.  0.
        -13    1    3    3    0    0 -0.64228289445E+01  0.64298644671E+01  0.42273569117E+02  0.43239584857E+02  0.10566000000E+00 0. -1.
         23    2    1    0    0    0  0.25541492741E+02 -0.13278068078E+02  0.57084529200E+01  0.95652744966E+02  0.91039476280E+02 0.  0.
         13    1    3    3    0    0  0.31964321686E+02 -0.19707932545E+02 -0.36565116197E+02  0.52413160108E+02  0.10566000000E+00 0.  1.
         22    1    1    0    0    0 -0.25541492741E+02  0.13278068078E+02 -0.57084529200E+01  0.29347255034E+02  0.00000000000E+00 0. -1.
</event>
<event>
 5    1  0.8943113E-005  0.9118800E+02  0.7818608E-02  0.1130116E+00
         25   -1    0    0    0    0  0.00000000000E+00  0.00000000000E+00  0.99999998245E-14  0.12500000000E+03  0.12500000000E+03 0.  0.
        -13    1    3    3    0    0 -0.16423999961E+02 -0.18736871186E+02 -0.20402794865E+02  0.32204088543E+02  0.10566000000E+00 0. -1.
         23    2    1    0    0    0  0.31316461878E+02  0.42242223684E+01  0.81247555528E+01  0.92372151588E+02  0.86417810069E+02 0.  0.
         13    1    3    3    0    0  0.47740461839E+02  0.22961093554E+02  0.28527550418E+02  0.60168063046E+02  0.10566000000E+00 0.  1.
         22    1    1    0    0    0 -0.31316461878E+02 -0.42242223684E+01 -0.81247555528E+01  0.32627848412E+02  0.00000000000E+00 0.  1.
</event>
<event>
 5    1  0.8943113E-005  0.9118800E+02  0.7818608E-02  0.1130116E+00
         25   -1    0    0    0    0  0.00000000000E+00  0.00000000000E+00  0.99999998245E-14  0.12500000000E+03  0.12500000000E+03 0.  0.
        -13    1    3    3    0    0  0.54214274833E+01  0.58572514552E+02 -0.19023978740E+02  0.61822764966E+02  0.10566000000E+00 0.  1.
         23    2    1    0    0    0  0.41773965161E+01  0.29715658333E+02 -0.30290241669E+01  0.94839662150E+02  0.89916158379E+02 0.  0.
         13    1    3    3    0    0 -0.12440309673E+01 -0.28856856219E+02  0.15994954573E+02  0.33016897185E+02  0.10566000000E+00 0. -1.
         22    1    1    0    0    0 -0.41773965161E+01 -0.29715658333E+02  0.30290241669E+01  0.30160337850E+02  0.00000000000E+00 0.  1.
</event>
<event>
 5    1  0.8943113E-005  0.9118800E+02  0.7818608E-02  0.1130116E+00
         25   -1    0    0    0    0  0.00000000000E+00  0.00000000000E+00  0.99999998245E-14  0.12500000000E+03  0.12500000000E+03 0.  0.
        -13    1    3    3    0    0 -0.31765223444E+02  0.37382257588E+01 -0.21791686222E+02  0.38702616252E+02  0.10566000000E+00 0. -1.
         23    2    1    0    0    0  0.76740495699E+00  0.18579362243E+02  0.22618266235E+02  0.95719160203E+02  0.91130620818E+02 0.  0.
         13    1    3    3    0    0  0.32532628401E+02  0.14841136485E+02  0.44409952457E+02  0.57016543951E+02  0.10566000000E+00 0.  1.
         22    1    1    0    0    0 -0.76740495699E+00 -0.18579362243E+02 -0.22618266235E+02  0.29280839797E+02  0.00000000000E+00 0.  1.
</event>
<event>
 5    1  0.8943113E-005  0.9118800E+02  0.7818608E-02  0.1130116E+00
         25   -1    0    0    0    0  0.00000000000E+00  0.00000000000E+00  0.99999998245E-14  0.12500000000E+03  0.12500000000E+03 0.  0.
        -13    1    3    3    0    0 -0.80257980770E+01  0.56423503568E+02  0.24143177454E+02  0.61894501947E+02  0.10566000000E+00 0. -1.
         23    2    1    0    0    0 -0.92323982322E+01  0.22000353098E+02  0.10061393976E+02  0.99106287205E+02  0.95663847933E+02 0.  0.
         13    1    3    3    0    0 -0.12066001552E+01 -0.34423150469E+02 -0.14081783478E+02  0.37211785259E+02  0.10566000000E+00 0.  1.
         22    1    1    0    0    0  0.92323982322E+01 -0.22000353098E+02 -0.10061393976E+02  0.25893712795E+02  0.00000000000E+00 0. -1.
</event>
<event>
 5    1  0.8943113E-005  0.9118800E+02  0.7818608E-02  0.1130116E+00
         25   -1    0    0    0    0  0.00000000000E+00  0.00000000000E+00  0.99999998245E-14  0.12500000000E+03  0.12500000000E+03 0.  0.
        -13    1    3    3    0    0 -0.38893895649E+02 -0.16168542255E+02 -0.16423236434E+02  0.45209409821E+02  0.10566000000E+00 0.  1.
         23    2    1    0    0    0  0.10252486221E+02 -0.22763280799E+02 -0.16993515341E+02  0.94799669041E+02  0.89860543400E+02 0.  0.
         13    1    3    3    0    0  0.49146381870E+02 -0.65947385439E+01 -0.57027890671E+00  0.49590259219E+02  0.10566000000E+00 0. -1.
         22    1    1    0    0    0 -0.10252486221E+02  0.22763280799E+02  0.16993515341E+02  0.30200330959E+02  0.00000000000E+00 0. -1.
</event>
<event>
 5    1  0.8943113E-005  0.9118800E+02  0.7818608E-02  0.1130116E+00
         25   -1    0    0    0    0  0.00000000000E+00  0.00000000000E+00  0.99999998245E-14  0.12500000000E+03  0.12500000000E+03 0.  0.
        -13    1    3    3    0    0 -0.52160934963E+02  0.19040737658E+02  0.28160475143E+02  0.62260230895E+02  0.10566000000E+00 0. -1.
         23    2    1    0    0    0 -0.24174664056E+02  0.12876465789E+02  0.14544231500E+02  0.93987866515E+02  0.88724103989E+02 0.  0.
         13    1    3    3    0    0  0.27986270908E+02 -0.61642718693E+01 -0.13616243643E+02  0.31727635619E+02  0.10566000000E+00 0.  1.
         22    1    1    0    0    0  0.24174664056E+02 -0.12876465789E+02 -0.14544231500E+02  0.31012133485E+02  0.00000000000E+00 0. -1.
</event>
<event>
 5    1  0.8943113E-005  0.9118800E+02  0.7818608E-02  0.1130116E+00
         25   -1    0    0    0    0  0.00000000000E+00  0.00000000000E+00  0.99999998245E-14  0.12500000000E+03  0.12500000000E+03 0.  0.
        -13    1    3    3    0    0  0.13371640183E+01  0.33970570014E+02  0.39436952938E+01  0.34225013241E+02  0.10566000000E+00 0.  1.
         23    2    1    0    0    0 -0.12146974823E+02 -0.26059997334E+02  0.52866176879E+01  0.95766102125E+02  0.91194986327E+02 0.  0.
         13    1    3    3    0    0 -0.13484138841E+02 -0.60030567348E+02  0.13429223942E+01  0.61541088884E+02  0.10566000000E+00 0. -1.
         22    1    1    0    0    0  0.12146974823E+02  0.26059997334E+02 -0.52866176879E+01  0.29233897875E+02  0.00000000000E+00 0. -1.
</event>
<event>
 5    1  0.8943113E-005  0.9118800E+02  0.7818608E-02  0.1130116E+00
         25   -1    0    0    0    0  0.00000000000E+00  0.00000000000E+00  0.99999998245E-14  0.12500000000E+03  0.12500000000E+03 0.  0.
        -13    1    3    3    0    0  0.47471288139E+01 -0.18447221421E+02  0.31662917575E+02  0.36951139679E+02  0.10566000000E+00 0.  1.
         23    2    1    0    0    0  0.13500863197E+02  0.10816186383E+02 -0.20976248213E+02  0.97810550134E+02  0.93955508265E+02 0.  0.
         13    1    3    3    0    0  0.87537343836E+01  0.29263407805E+02 -0.52639165788E+02  0.60859410455E+02  0.10566000000E+00 0. -1.
         22    1    1    0    0    0 -0.13500863197E+02 -0.10816186383E+02  0.20976248213E+02  0.27189449866E+02  0.00000000000E+00 0. -1.
</event>
<event>
 5    1  0.8943113E-005  0.9118800E+02  0.7818608E-02  0.1130116E+00
         25   -1    0    0    0    0  0.00000000000E+00  0.00000000000E+00  0.99999998245E-14  0.12500000000E+03  0.12500000000E+03 0.  0.
        -13    1    3    3    0    0  0.30906092773E+02  0.22023523780E+02 -0.10734725744E+02  0.39439417732E+02  0.10566000000E+00 0. -1.
         23    2    1    0    0    0  0.15743931074E+01 -0.84654740296E+01  0.27327059734E+02  0.96348452784E+02  0.91989745058E+02 0.  0.
         13    1    3    3    0    0 -0.29331699666E+02 -0.30488997810E+02  0.38061785478E+02  0.56909035052E+02  0.10566000000E+00 0.  1.
         22    1    1    0    0    0 -0.15743931074E+01  0.84654740296E+01 -0.27327059734E+02  0.28651547216E+02  0.00000000000E+00 0.  1.
</event>
<event>
 5    1  0.8943113E-005  0.9118800E+02  0.7818608E-02  0.1130116E+00
         25   -1    0    0    0    0  0.00000000000E+00  0.00000000000E+00  0.99999998245E-14  0.12500000000E+03  0.12500000000E+03 0.  0.
        -13    1    3    3    0    0  0.47680708890E+02  0.29474689886E+02  0.18517378052E+02  0.59034835462E+02  0.10566000000E+00 0.  1.
         23    2    1    0    0    0  0.25393128799E+02 -0.17774550594E+00  0.23560935170E+01  0.99497181326E+02  0.96173256842E+02 0.  0.
         13    1    3    3    0    0 -0.22287580091E+02 -0.29652435392E+02 -0.16161284535E+02  0.40462345864E+02  0.10566000000E+00 0. -1.
         22    1    1    0    0    0 -0.25393128799E+02  0.17774550594E+00 -0.23560935170E+01  0.25502818674E+02  0.00000000000E+00 0.  1.
</event>
<event>
 5    1  0.8943113E-005  0.9118800E+02  0.7818608E-02  0.1130116E+00
         25   -1    0    0    0    0  0.00000000000E+00  0.00000000000E+00  0.99999998245E-14  0.12500000000E+03  0.12500000000E+03 0.  0.
        -13    1    3    3    0    0  0.53501378515E+01 -0.29260464834E+02  0.17859291964E+02  0.34695305890E+02  0.10566000000E+00 0. -1.
         23    2    1    0    0    0 -0.24611404880E+02  0.14734234633E+02 -0.98081359263E+01  0.94684682902E+02  0.89700449974E+02 0.  0.
         13    1    3    3    0    0 -0.29961542732E+02  0.43994699468E+02 -0.27667427890E+02  0.59989377011E+02  0.10566000000E+00 0.  1.
         22    1    1    0    0    0  0.24611404880E+02 -0.14734234633E+02  0.98081359263E+01  0.30315317098E+02  0.00000000000E+00 0.  1.
</event>
<event>
 5    1  0.8943113E-005  0.9118800E+02  0.7818608E-02  0.1130116E+00
         25   -1    0    0    0    0  0.00000000000E+00  0.00000000000E+00  0.99999998245E-14  0.12500000000E+03  0.12500000000E+03 0.  0.
        -13    1    3    3    0    0  0.23981133022E+01  0.16122327413E+02 -0.59363567574E+02  0.61560739987E+02  0.10566000000E+00 0.  1.
         23    2    1    0    0    0 -0.33247790632E+01  0.14688392586E+01 -0.29146697851E+02  0.95627536021E+02  0.91004857042E+02 0.  0.
         13    1    3    3    0    0 -0.57228923654E+01 -0.14653488155E+02  0.30216869723E+02  0.34066796034E+02  0.10566000000E+00 0. -1.
         22    1    1    0    0    0  0.33247790632E+01 -0.14688392586E+01  0.29146697851E+02  0.29372463979E+02  0.00000000000E+00 0.  1.
</event>
<event>
 5    1  0.8943113E-005  0.9118800E+02  0.7818608E-02  0.1130116E+00
         25   -1    0    0    0    0  0.00000000000E+00  0.00000000000E+00  0.99999998245E-14  0.12500000000E+03  0.12500000000E+03 0.  0.
        -13    1    3    3    0    0  0.26061117371E+02 -0.37561921979E+02  0.98070926173E+01  0.46757566779E+02  0.10566000000E+00 0.  1.
         23    2    1    0    0    0  0.22330620420E+02  0.11474334949E+02  0.14242746672E+02  0.96135267130E+02  0.91699600776E+02 0.  0.
         13    1    3    3    0    0 -0.37304969507E+01  0.49036256929E+02  0.44356540547E+01  0.49377700351E+02  0.10566000000E+00 0. -1.
         22    1    1    0    0    0 -0.22330620420E+02 -0.11474334949E+02 -0.14242746672E+02  0.28864732870E+02  0.00000000000E+00 0.  1.
</event>
<event>
 5    1  0.8943113E-005  0.9118800E+02  0.7818608E-02  0.1130116E+00
         25   -1    0    0    0    0  0.00000000000E+00  0.00000000000E+00  0.99999998245E-14  0.12500000000E+03  0.12500000000E+03 0.  0.
        -13    1    3    3    0    0 -0.36860603307E+02 -0.28156522779E+02  0.34041365732E+02  0.57535376910E+02  0.10566000000E+00 0.  1.
         23    2    1    0    0    0 -0.19561116241E+02 -0.19912629823E+02 -0.55104578680E+00  0.97081301132E+02  0.92980241358E+02 0.  0.
         13    1    3    3    0    0  0.17299487066E+02  0.82438929568E+01 -0.34592411519E+02  0.39545924222E+02  0.10566000000E+00 0. -1.
         22    1    1    0    0    0  0.19561116241E+02  0.19912629823E+02  0.55104578680E+00  0.27918698868E+02  0.00000000000E+00 0.  1.
</event>
<event>
 5    1  0.8943113E-005  0.9118800E+02  0.7818608E-02  0.1130116E+00
         25   -1    0    0    0    0  0.00000000000E+00  0.00000000000E+00  0.99999998245E-14  0.12500000000E+03  0.12500000000E+03 0.  0.
        -13    1    3    3    0    0 -0.18018973962E+02 -0.16499410720E+02  0.22971485135E+02  0.33535269048E+02  0.10566000000E+00 0. -1.
         23    2    1    0    0    0  0.11534829724E+02  0.96033161448E+01 -0.25127602943E+02  0.95731033373E+02  0.91146905287E+02 0.  0.
         13    1    3    3    0    0  0.29553803686E+02  0.26102726865E+02 -0.48099088078E+02  0.62195764326E+02  0.10566000000E+00 0.  1.
         22    1    1    0    0    0 -0.11534829724E+02 -0.96033161448E+01  0.25127602943E+02  0.29268966627E+02  0.00000000000E+00 0.  1.
</event>
<event>
 5    1  0.8943113E-005  0.9118800E+02  0.7818608E-02  0.1130116E+00
         25   -1    0    0    0    0  0.00000000000E+00  0.00000000000E+00  0.99999998245E-14  0.12500000000E+03  0.12500000000E+03 0.  0.
        -13    1    3    3    0    0 -0.60697195022E+02  0.82615381736E+01  0.66989152361E+01  0.61622148014E+02  0.10566000000E+00 0.  1.
         23    2    1    0    0    0 -0.30134352390E+02 -0.29605853418E+01  0.56548242674E+01  0.94197057007E+02  0.89018336604E+02 0.  0.
         13    1    3    3    0    0  0.30562842631E+02 -0.11222123515E+02 -0.10440909687E+01  0.32574908993E+02  0.10566000000E+00 0. -1.
         22    1    1    0    0    0  0.30134352390E+02  0.29605853418E+01 -0.56548242674E+01  0.30802942993E+02  0.00000000000E+00 0.  1.
</event>
<event>
 5    1  0.8943113E-005  0.9118800E+02  0.7818608E-02  0.1130116E+00
         25   -1    0    0    0    0  0.00000000000E+00  0.00000000000E+00  0.99999998245E-14  0.12500000000E+03  0.12500000000E+03 0.  0.
        -13    1    3    3    0    0 -0.39815850031E+02  0.16346828675E+02  0.43086122957E+01  0.43256167484E+02  0.10566000000E+00 0.  1.
         23    2    1    0    0    0  0.13157488838E+02  0.24260816543E+02 -0.26783868410E+01  0.97271305694E+02  0.93235328195E+02 0.  0.
         13    1    3    3    0    0  0.52973338869E+02  0.79139878681E+01 -0.69869991367E+01  0.54015138210E+02  0.10566000000E+00 0. -1.
         22    1    1    0    0    0 -0.13157488838E+02 -0.24260816543E+02  0.26783868410E+01  0.27728694306E+02  0.00000000000E+00 0. -1.
</event>
<event>
 5    1  0.8943113E-005  0.9118800E+02  0.7818608E-02  0.1130116E+00
         25   -1    0    0    0    0  0.00000000000E+00  0.00000000000E+00  0.99999998245E-14  0.12500000000E+03  0.12500000000E+03 0.  0.
        -13    1    3    3    0    0 -0.65534730145E+01 -0.44469452562E+02 -0.23589076599E+02  0.50763529413E+02  0.10566000000E+00 0.  1.
         23    2    1    0    0    0 -0.18598272873E+01 -0.15980421261E+02  0.17657860877E+02  0.10111207686E+03  0.98249779718E+02 0.  0.
         13    1    3    3    0    0  0.46936457272E+01  0.28489031300E+02  0.41246937476E+02  0.50348547445E+02  0.10566000000E+00 0. -1.
         22    1    1    0    0    0  0.18598272873E+01  0.15980421261E+02 -0.17657860877E+02  0.23887923141E+02  0.00000000000E+00 0. -1.
</event>
<event>
 5    1  0.8943113E-005  0.9118800E+02  0.7818608E-02  0.1130116E+00
         25   -1    0    0    0    0  0.00000000000E+00  0.00000000000E+00  0.99999998245E-14  0.12500000000E+03  0.12500000000E+03 0.  0.
        -13    1    3    3    0    0 -0.39473452473E+02 -0.13693710198E+02  0.35778393609E+02  0.55007051934E+02  0.10566000000E+00 0. -1.
         23    2    1    0    0    0 -0.84937106995E+01 -0.25469689442E+02  0.13436758810E+02  0.94976764181E+02  0.90106553842E+02 0.  0.
         13    1    3    3    0    0  0.30979741774E+02 -0.11775979244E+02 -0.22341634800E+02  0.39969712247E+02  0.10566000000E+00 0.  1.
         22    1    1    0    0    0  0.84937106995E+01  0.25469689442E+02 -0.13436758810E+02  0.30023235819E+02  0.00000000000E+00 0. -1.
</event>
<event>
 5    1  0.8943113E-005  0.9118800E+02  0.7818608E-02  0.1130116E+00
         25   -1    0    0    0    0  0.00000000000E+00  0.00000000000E+00  0.99999998245E-14  0.12500000000E+03  0.12500000000E+03 0.  0.
        -13    1    3    3    0    0  0.22554356622E+02 -0.45518478021E+02  0.52949930841E+01  0.51075228435E+02  0.10566000000E+00 0. -1.
         23    2    1    0    0    0  0.25644903477E+02 -0.26309129842E+01  0.15025381878E+02  0.95161352610E+02  0.90362260665E+02 0.  0.
         13    1    3    3    0    0  0.30905468553E+01  0.42887565036E+02  0.97303887939E+01  0.44086124174E+02  0.10566000000E+00 0.  1.
         22    1    1    0    0    0 -0.25644903477E+02  0.26309129842E+01 -0.15025381878E+02  0.29838647390E+02  0.00000000000E+00 0.  1.
</event>
<event>
 5    1  0.8943113E-005  0.9118800E+02  0.7818608E-02  0.1130116E+00
         25   -1    0    0    0    0  0.00000000000E+00  0.00000000000E+00  0.99999998245E-14  0.12500000000E+03  0.12500000000E+03 0.  0.
        -13    1    3    3    0    0  0.33546630370E+02  0.87979686761E+01  0.33284465142E+02  0.48069194354E+02  0.10566000000E+00 0.  1.
         23    2    1    0    0    0 -0.13097628755E+02  0.12723075016E+02  0.22351070979E+02  0.96138349132E+02  0.91703801901E+02 0.  0.
         13    1    3    3    0    0 -0.46644259126E+02  0.39251063402E+01 -0.10933394163E+02  0.48069154778E+02  0.10566000000E+00 0. -1.
         22    1    1    0    0    0  0.13097628755E+02 -0.12723075016E+02 -0.22351070979E+02  0.28861650868E+02  0.00000000000E+00 0. -1.
</event>
<event>
 5    1  0.8943113E-005  0.9118800E+02  0.7818608E-02  0.1130116E+00
         25   -1    0    0    0    0  0.00000000000E+00  0.00000000000E+00  0.99999998245E-14  0.12500000000E+03  0.12500000000E+03 0.  0.
        -13    1    3    3    0    0  0.34888768010E+02 -0.56417601612E+01  0.40718836187E+02  0.53917440364E+02  0.10566000000E+00 0.  1.
         23    2    1    0    0    0  0.14449855170E+01  0.13251714638E+02  0.27324101162E+02  0.94597657520E+02  0.89579095664E+02 0.  0.
         13    1    3    3    0    0 -0.33443782493E+02  0.18893474799E+02 -0.13394735025E+02  0.40680217156E+02  0.10566000000E+00 0. -1.
         22    1    1    0    0    0 -0.14449855170E+01 -0.13251714638E+02 -0.27324101162E+02  0.30402342480E+02  0.00000000000E+00 0.  1.
</event>
<event>
 5    1  0.8943113E-005  0.9118800E+02  0.7818608E-02  0.1130116E+00
         25   -1    0    0    0    0  0.00000000000E+00  0.00000000000E+00  0.99999998245E-14  0.12500000000E+03  0.12500000000E+03 0.  0.
        -13    1    3    3    0    0 -0.24422214680E+02 -0.26471138872E+02 -0.35752227798E+02  0.50748386374E+02  0.10566000000E+00 0. -1.
         23    2    1    0    0    0 -0.13854266497E+02 -0.15210055883E+02  0.12168979307E+02  0.10109664129E+03  0.98230139586E+02 0.  0.
         13    1    3    3    0    0  0.10567948183E+02  0.11261082989E+02  0.47921207105E+02  0.50348254918E+02  0.10566000000E+00 0.  1.
         22    1    1    0    0    0  0.13854266497E+02  0.15210055883E+02 -0.12168979307E+02  0.23903358708E+02  0.00000000000E+00 0.  1.
</event>
<event>
 5    1  0.8943113E-005  0.9118800E+02  0.7818608E-02  0.1130116E+00
         25   -1    0    0    0    0  0.00000000000E+00  0.00000000000E+00  0.99999998245E-14  0.12500000000E+03  0.12500000000E+03 0.  0.
        -13    1    3    3    0    0  0.14661313262E+02  0.47548483511E+02 -0.27846558175E+01  0.49835508052E+02  0.10566000000E+00 0.  1.
         23    2    1    0    0    0 -0.21007783671E+02  0.25125658118E+02 -0.41363236557E+01  0.91988867877E+02  0.85861615227E+02 0.  0.
         13    1    3    3    0    0 -0.35669096932E+02 -0.22422825393E+02 -0.13516678382E+01  0.42153359825E+02  0.10566000000E+00 0. -1.
         22    1    1    0    0    0  0.21007783671E+02 -0.25125658118E+02  0.41363236557E+01  0.33011132123E+02  0.00000000000E+00 0.  1.
</event>
<event>
 5    1  0.8943113E-005  0.9118800E+02  0.7818608E-02  0.1130116E+00
         25   -1    0    0    0    0  0.00000000000E+00  0.00000000000E+00  0.99999998245E-14  0.12500000000E+03  0.12500000000E+03 0.  0.
        -13    1    3    3    0    0 -0.26677404047E+02 -0.27490566726E+02 -0.21569530516E+02  0.43962153681E+02  0.10566000000E+00 0.  1.
         23    2    1    0    0    0 -0.20699337710E+02  0.88245869729E+00  0.21020327820E+02  0.95485673028E+02  0.90809791636E+02 0.  0.
         13    1    3    3    0    0  0.59780663371E+01  0.28373025423E+02  0.42589858335E+02  0.51523519347E+02  0.10566000000E+00 0. -1.
         22    1    1    0    0    0  0.20699337710E+02 -0.88245869729E+00 -0.21020327820E+02  0.29514326972E+02  0.00000000000E+00 0. -1.
</event>
<event>
 5    1  0.8943113E-005  0.9118800E+02  0.7818608E-02  0.1130116E+00
         25   -1    0    0    0    0  0.00000000000E+00  0.00000000000E+00  0.99999998245E-14  0.12500000000E+03  0.12500000000E+03 0.  0.
        -13    1    3    3    0    0 -0.20327980784E+02  0.62640790038E+01  0.47237028064E+02  0.51805535157E+02  0.10566000000E+00 0.  1.
         23    2    1    0    0    0  0.14912271989E+02 -0.66134184237E+01  0.24141504966E+02  0.95863675229E+02  0.91328630819E+02 0.  0.
         13    1    3    3    0    0  0.35240252773E+02 -0.12877497427E+02 -0.23095523098E+02  0.44058140073E+02  0.10566000000E+00 0. -1.
         22    1    1    0    0    0 -0.14912271989E+02  0.66134184237E+01 -0.24141504966E+02  0.29136324771E+02  0.00000000000E+00 0. -1.
</event>
<event>
 5    1  0.8943113E-005  0.9118800E+02  0.7818608E-02  0.1130116E+00
         25   -1    0    0    0    0  0.00000000000E+00  0.00000000000E+00  0.99999998245E-14  0.12500000000E+03  0.12500000000E+03 0.  0.
        -13    1    3    3    0    0  0.91637710867E+01  0.22066400259E+01 -0.40770593449E+02  0.41846103940E+02  0.10566000000E+00 0. -1.
         23    2    1    0    0    0 -0.28477885967E+02  0.48862248376E+01 -0.18666879274E+01  0.96045730779E+02  0.91577468270E+02 0.  0.
         13    1    3    3    0    0 -0.37641657054E+02  0.26795848117E+01  0.38903905522E+02  0.54199626838E+02  0.10566000000E+00 0.  1.
         22    1    1    0    0    0  0.28477885967E+02 -0.48862248376E+01  0.18666879274E+01  0.28954269221E+02  0.00000000000E+00 0. -1.
</event>
<event>
 5    1  0.8943113E-005  0.9118800E+02  0.7818608E-02  0.1130116E+00
         25   -1    0    0    0    0  0.00000000000E+00  0.00000000000E+00  0.99999998245E-14  0.12500000000E+03  0.12500000000E+03 0.  0.
        -13    1    3    3    0    0 -0.83616967848E-02 -0.46366256760E+02 -0.17122889533E+02  0.49427060866E+02  0.10566000000E+00 0.  1.
         23    2    1    0    0    0  0.22710677785E+02 -0.15835105728E+02  0.93408289843E+01  0.95780545095E+02  0.91214781004E+02 0.  0.
         13    1    3    3    0    0  0.22719039481E+02  0.30531151032E+02  0.26463718517E+02  0.46353484228E+02  0.10566000000E+00 0. -1.
         22    1    1    0    0    0 -0.22710677785E+02  0.15835105728E+02 -0.93408289843E+01  0.29219454905E+02  0.00000000000E+00 0. -1.
</event>
<event>
 5    1  0.8943113E-005  0.9118800E+02  0.7818608E-02  0.1130116E+00
         25   -1    0    0    0    0  0.00000000000E+00  0.00000000000E+00  0.99999998245E-14  0.12500000000E+03  0.12500000000E+03 0.  0.
        -13    1    3    3    0    0 -0.17573266397E+02 -0.18683195894E+02  0.29940217115E+02  0.39424729112E+02  0.10566000000E+00 0.  1.
         23    2    1    0    0    0 -0.74720314085E+01  0.28041917062E+02 -0.27615019888E+00  0.95978342142E+02  0.91485438926E+02 0.  0.
         13    1    3    3    0    0  0.10101234989E+02  0.46725112956E+02 -0.30216367314E+02  0.56553613030E+02  0.10566000000E+00 0. -1.
         22    1    1    0    0    0  0.74720314085E+01 -0.28041917062E+02  0.27615019888E+00  0.29021657858E+02  0.00000000000E+00 0. -1.
</event>
<event>
 5    1  0.8943113E-005  0.9118800E+02  0.7818608E-02  0.1130116E+00
         25   -1    0    0    0    0  0.00000000000E+00  0.00000000000E+00  0.99999998245E-14  0.12500000000E+03  0.12500000000E+03 0.  0.
        -13    1    3    3    0    0 -0.25121097621E+02  0.52334179855E+02  0.83810776600E+01  0.58653129103E+02  0.10566000000E+00 0. -1.
         23    2    1    0    0    0 -0.13480319862E+02  0.21144491140E+02 -0.11482404168E+02  0.97420041069E+02  0.93434523958E+02 0.  0.
         13    1    3    3    0    0  0.11640777759E+02 -0.31189688716E+02 -0.19863481828E+02  0.38766911966E+02  0.10566000000E+00 0.  1.
         22    1    1    0    0    0  0.13480319862E+02 -0.21144491140E+02  0.11482404168E+02  0.27579958931E+02  0.00000000000E+00 0. -1.
</event>
<event>
 5    1  0.8943113E-005  0.9118800E+02  0.7818608E-02  0.1130116E+00
         25   -1    0    0    0    0  0.00000000000E+00  0.00000000000E+00  0.99999998245E-14  0.12500000000E+03  0.12500000000E+03 0.  0.
        -13    1    3    3    0    0  0.24183357057E+02 -0.17671489623E+02  0.12598502192E+02  0.32493841348E+02  0.10566000000E+00 0. -1.
         23    2    1    0    0    0 -0.16948720464E+02  0.16820492480E+02 -0.18734348023E+02  0.94649318155E+02  0.89651154698E+02 0.  0.
         13    1    3    3    0    0 -0.41132077520E+02  0.34491982103E+02 -0.31332850214E+02  0.62155476807E+02  0.10566000000E+00 0.  1.
         22    1    1    0    0    0  0.16948720464E+02 -0.16820492480E+02  0.18734348023E+02  0.30350681845E+02  0.00000000000E+00 0.  1.
</event>
<event>
 5    1  0.8943113E-005  0.9118800E+02  0.7818608E-02  0.1130116E+00
         25   -1    0    0    0    0  0.00000000000E+00  0.00000000000E+00  0.99999998245E-14  0.12500000000E+03  0.12500000000E+03 0.  0.
        -13    1    3    3    0    0 -0.48494350357E+02  0.25270727349E+02 -0.18124701472E+02  0.57609267005E+02  0.10566000000E+00 0. -1.
         23    2    1    0    0    0 -0.18988959497E+02  0.20482833864E+02  0.64829980364E+01  0.96326731449E+02  0.91960224348E+02 0.  0.
         13    1    3    3    0    0  0.29505390860E+02 -0.47878934854E+01  0.24607699509E+02  0.38717464444E+02  0.10566000000E+00 0.  1.
         22    1    1    0    0    0  0.18988959497E+02 -0.20482833864E+02 -0.64829980364E+01  0.28673268551E+02  0.00000000000E+00 0. -1.
</event>
<event>
 5    1  0.8943113E-005  0.9118800E+02  0.7818608E-02  0.1130116E+00
         25   -1    0    0    0    0  0.00000000000E+00  0.00000000000E+00  0.99999998245E-14  0.12500000000E+03  0.12500000000E+03 0.  0.
        -13    1    3    3    0    0 -0.36780460029E+02 -0.23682716701E+02  0.87324134372E+01  0.44608738143E+02  0.10566000000E+00 0.  1.
         23    2    1    0    0    0  0.11016868157E+02 -0.28224801735E+02 -0.43960341977E+01  0.94384057525E+02  0.89280537527E+02 0.  0.
         13    1    3    3    0    0  0.47797328186E+02 -0.45420850346E+01 -0.13128447635E+02  0.49775319381E+02  0.10566000000E+00 0. -1.
         22    1    1    0    0    0 -0.11016868157E+02  0.28224801735E+02  0.43960341977E+01  0.30615942475E+02  0.00000000000E+00 0.  1.
</event>
<event>
 5    1  0.8943113E-005  0.9118800E+02  0.7818608E-02  0.1130116E+00
         25   -1    0    0    0    0  0.00000000000E+00  0.00000000000E+00  0.99999998245E-14  0.12500000000E+03  0.12500000000E+03 0.  0.
        -13    1    3    3    0    0 -0.19760722428E+02 -0.34897847907E+02  0.28894207070E+02  0.49429063371E+02  0.10566000000E+00 0.  1.
         23    2    1    0    0    0 -0.28123569691E+02 -0.59633275746E+01 -0.61115788663E+01  0.95608711424E+02  0.90978996785E+02 0.  0.
         13    1    3    3    0    0 -0.83628472634E+01  0.28934520333E+02 -0.35005785937E+02  0.46179648053E+02  0.10566000000E+00 0. -1.
         22    1    1    0    0    0  0.28123569691E+02  0.59633275746E+01  0.61115788663E+01  0.29391288576E+02  0.00000000000E+00 0. -1.
</event>
<event>
 5    1  0.8943113E-005  0.9118800E+02  0.7818608E-02  0.1130116E+00
         25   -1    0    0    0    0  0.00000000000E+00  0.00000000000E+00  0.99999998245E-14  0.12500000000E+03  0.12500000000E+03 0.  0.
        -13    1    3    3    0    0 -0.18936982238E+02  0.47495865049E+02  0.25008344298E+02  0.56920075031E+02  0.10566000000E+00 0.  1.
         23    2    1    0    0    0  0.80935458109E+01  0.27071215748E+02  0.48841814654E+01  0.96325770551E+02  0.91958918207E+02 0.  0.
         13    1    3    3    0    0  0.27030528049E+02 -0.20424649300E+02 -0.20124162833E+02  0.39405695520E+02  0.10566000000E+00 0. -1.
         22    1    1    0    0    0 -0.80935458109E+01 -0.27071215748E+02 -0.48841814654E+01  0.28674229449E+02  0.00000000000E+00 0.  1.
</event>
<event>
 5    1  0.8943113E-005  0.9118800E+02  0.7818608E-02  0.1130116E+00
         25   -1    0    0    0    0  0.00000000000E+00  0.00000000000E+00  0.99999998245E-14  0.12500000000E+03  0.12500000000E+03 0.  0.
        -13    1    3    3    0    0 -0.60148421139E+01 -0.35390529375E+02  0.50988959044E+01  0.36258485884E+02  0.10566000000E+00 0. -1.
         23    2    1    0    0    0 -0.18066865162E+02  0.17224270355E+02 -0.17226823767E+02  0.94670961718E+02  0.89681327094E+02 0.  0.
         13    1    3    3    0    0 -0.12052023048E+02  0.52614799730E+02 -0.22325719672E+02  0.58412475834E+02  0.10566000000E+00 0.  1.
         22    1    1    0    0    0  0.18066865162E+02 -0.17224270355E+02  0.17226823767E+02  0.30329038282E+02  0.00000000000E+00 0.  1.
</event>
<event>
 5    1  0.8943113E-005  0.9118800E+02  0.7818608E-02  0.1130116E+00
         25   -1    0    0    0    0  0.00000000000E+00  0.00000000000E+00  0.99999998245E-14  0.12500000000E+03  0.12500000000E+03 0.  0.
        -13    1    3    3    0    0  0.39259139782E+02  0.16719821415E+00  0.36335885960E+02  0.53494072421E+02  0.10566000000E+00 0.  1.
         23    2    1    0    0    0 -0.39967623218E+00 -0.12388813372E+02  0.25754545638E+02  0.96417854194E+02  0.92084002674E+02 0.  0.
         13    1    3    3    0    0 -0.39658816014E+02 -0.12556011586E+02 -0.10581340323E+02  0.42923781773E+02  0.10566000000E+00 0. -1.
         22    1    1    0    0    0  0.39967623218E+00  0.12388813372E+02 -0.25754545638E+02  0.28582145806E+02  0.00000000000E+00 0.  1.
</event>
<event>
 5    1  0.8943113E-005  0.9118800E+02  0.7818608E-02  0.1130116E+00
         25   -1    0    0    0    0  0.00000000000E+00  0.00000000000E+00  0.99999998245E-14  0.12500000000E+03  0.12500000000E+03 0.  0.
        -13    1    3    3    0    0 -0.27592353095E+02 -0.43503391637E+02  0.12117365256E+02  0.52921873909E+02  0.10566000000E+00 0. -1.
         23    2    1    0    0    0  0.43751584479E+01 -0.26672565622E+02 -0.11006194203E+02  0.95816030442E+02  0.91263396882E+02 0.  0.
         13    1    3    3    0    0  0.31967511543E+02  0.16830826014E+02 -0.23123559459E+02  0.42894156533E+02  0.10566000000E+00 0.  1.
         22    1    1    0    0    0 -0.43751584479E+01  0.26672565622E+02  0.11006194203E+02  0.29183969558E+02  0.00000000000E+00 0. -1.
</event>
<event>
 5    1  0.8943113E-005  0.9118800E+02  0.7818608E-02  0.1130116E+00
         25   -1    0    0    0    0  0.00000000000E+00  0.00000000000E+00  0.99999998245E-14  0.12500000000E+03  0.12500000000E+03 0.  0.
        -13    1    3    3    0    0  0.15599330641E+02  0.11628392269E+02  0.58563596826E+02  0.61711138868E+02  0.10566000000E+00 0.  1.
         23    2    1    0    0    0  0.47330091471E+01 -0.94368927390E+00  0.28790414912E+02  0.95807879217E+02  0.91252231777E+02 0.  0.
         13    1    3    3    0    0 -0.10866321494E+02 -0.12572081543E+02 -0.29773181914E+02  0.34096740349E+02  0.10566000000E+00 0. -1.
         22    1    1    0    0    0 -0.47330091471E+01  0.94368927390E+00 -0.28790414912E+02  0.29192120783E+02  0.00000000000E+00 0.  1.
</event>
<event>
 5    1  0.8943113E-005  0.9118800E+02  0.7818608E-02  0.1130116E+00
         25   -1    0    0    0    0  0.00000000000E+00  0.00000000000E+00  0.99999998245E-14  0.12500000000E+03  0.12500000000E+03 0.  0.
        -13    1    3    3    0    0  0.18853235557E+02 -0.23369193581E+02 -0.17711096919E+02  0.34860548155E+02  0.10566000000E+00 0.  1.
         23    2    1    0    0    0  0.41811883492E+01  0.60551770251E+01  0.30727159061E+02  0.93404022269E+02  0.87897699442E+02 0.  0.
         13    1    3    3    0    0 -0.14672047208E+02  0.29424370606E+02  0.48438255980E+02  0.58543474113E+02  0.10566000000E+00 0. -1.
         22    1    1    0    0    0 -0.41811883492E+01 -0.60551770251E+01 -0.30727159061E+02  0.31595977731E+02  0.00000000000E+00 0. -1.
</event>
<event>
 5    1  0.8943113E-005  0.9118800E+02  0.7818608E-02  0.1130116E+00
         25   -1    0    0    0    0  0.00000000000E+00  0.00000000000E+00  0.99999998245E-14  0.12500000000E+03  0.12500000000E+03 0.  0.
        -13    1    3    3    0    0 -0.25115790846E+02 -0.18345711798E+02 -0.49093073658E+02  0.58116341388E+02  0.10566000000E+00 0. -1.
         23    2    1    0    0    0 -0.16413171124E+02  0.38883189857E+01 -0.35755212061E+02  0.85465883083E+02  0.75772493497E+02 0.  0.
         13    1    3    3    0    0  0.87026197222E+01  0.22234030783E+02  0.13337861597E+02  0.27349541695E+02  0.10566000000E+00 0.  1.
         22    1    1    0    0    0  0.16413171124E+02 -0.38883189857E+01  0.35755212061E+02  0.39534116917E+02  0.00000000000E+00 0. -1.
</event>
<event>
 5    1  0.8943113E-005  0.9118800E+02  0.7818608E-02  0.1130116E+00
         25   -1    0    0    0    0  0.00000000000E+00  0.00000000000E+00  0.99999998245E-14  0.12500000000E+03  0.12500000000E+03 0.  0.
        -13    1    3    3    0    0 -0.53247855130E+02 -0.72583581217E+00 -0.13573241644E+02  0.54955481677E+02  0.10566000000E+00 0. -1.
         23    2    1    0    0    0 -0.15752887119E+02  0.41560889475E+01 -0.25619048218E+02  0.94639463781E+02  0.89637413758E+02 0.  0.
         13    1    3    3    0    0  0.37494968011E+02  0.48819247597E+01 -0.12045806574E+02  0.39683982103E+02  0.10566000000E+00 0.  1.
         22    1    1    0    0    0  0.15752887119E+02 -0.41560889475E+01  0.25619048218E+02  0.30360536219E+02  0.00000000000E+00 0. -1.
</event>
<event>
 5    1  0.8943113E-005  0.9118800E+02  0.7818608E-02  0.1130116E+00
         25   -1    0    0    0    0  0.00000000000E+00  0.00000000000E+00  0.99999998245E-14  0.12500000000E+03  0.12500000000E+03 0.  0.
        -13    1    3    3    0    0  0.26893859502E+02 -0.23145821391E+02  0.68891990745E+01  0.36145275690E+02  0.10566000000E+00 0. -1.
         23    2    1    0    0    0 -0.20404429991E+02  0.13652061441E+02  0.14395507210E+02  0.96540376449E+02  0.92250171340E+02 0.  0.
         13    1    3    3    0    0 -0.47298289493E+02  0.36797882831E+02  0.75063081351E+01  0.60395100759E+02  0.10566000000E+00 0.  1.
         22    1    1    0    0    0  0.20404429991E+02 -0.13652061441E+02 -0.14395507210E+02  0.28459623551E+02  0.00000000000E+00 0.  1.
</event>
<event>
 5    1  0.8943113E-005  0.9118800E+02  0.7818608E-02  0.1130116E+00
         25   -1    0    0    0    0  0.00000000000E+00  0.00000000000E+00  0.99999998245E-14  0.12500000000E+03  0.12500000000E+03 0.  0.
        -13    1    3    3    0    0  0.38140121252E+02 -0.61609652601E+01  0.41963638117E+02  0.57040200123E+02  0.10566000000E+00 0.  1.
         23    2    1    0    0    0  0.20755487042E+02 -0.19204347819E+02  0.11473250110E+02  0.94483894652E+02  0.89420208360E+02 0.  0.
         13    1    3    3    0    0 -0.17384634209E+02 -0.13043382559E+02 -0.30490388007E+02  0.37443694529E+02  0.10566000000E+00 0. -1.
         22    1    1    0    0    0 -0.20755487042E+02  0.19204347819E+02 -0.11473250110E+02  0.30516105348E+02  0.00000000000E+00 0.  1.
</event>
<event>
 5    1  0.8943113E-005  0.9118800E+02  0.7818608E-02  0.1130116E+00
         25   -1    0    0    0    0  0.00000000000E+00  0.00000000000E+00  0.99999998245E-14  0.12500000000E+03  0.12500000000E+03 0.  0.
        -13    1    3    3    0    0 -0.21527718397E+02  0.29231858882E+02  0.28467645063E+02  0.46134176187E+02  0.10566000000E+00 0.  1.
         23    2    1    0    0    0 -0.11981208873E+02 -0.18899412807E+02  0.17938852906E+02  0.96320048569E+02  0.91951139973E+02 0.  0.
         13    1    3    3    0    0  0.95465095236E+01 -0.48131271688E+02 -0.10528792157E+02  0.50185872382E+02  0.10566000000E+00 0. -1.
         22    1    1    0    0    0  0.11981208873E+02  0.18899412807E+02 -0.17938852906E+02  0.28679951431E+02  0.00000000000E+00 0. -1.
</event>
<event>
 5    1  0.8943113E-005  0.9118800E+02  0.7818608E-02  0.1130116E+00
         25   -1    0    0    0    0  0.00000000000E+00  0.00000000000E+00  0.99999998245E-14  0.12500000000E+03  0.12500000000E+03 0.  0.
        -13    1    3    3    0    0 -0.40989234702E+02 -0.31569823913E+02 -0.30287906252E+02  0.59951143213E+02  0.10566000000E+00 0.  1.
         23    2    1    0    0    0 -0.26865980999E+02 -0.13344252558E+02 -0.42958175564E+01  0.94696467865E+02  0.89716871135E+02 0.  0.
         13    1    3    3    0    0  0.14123253703E+02  0.18225571355E+02  0.25992088696E+02  0.34745324652E+02  0.10566000000E+00 0. -1.
         22    1    1    0    0    0  0.26865980999E+02  0.13344252558E+02  0.42958175564E+01  0.30303532135E+02  0.00000000000E+00 0.  1.
</event>
<event>
 5    1  0.8943113E-005  0.9118800E+02  0.7818608E-02  0.1130116E+00
         25   -1    0    0    0    0  0.00000000000E+00  0.00000000000E+00  0.99999998245E-14  0.12500000000E+03  0.12500000000E+03 0.  0.
        -13    1    3    3    0    0  0.34982679566E+02 -0.49737540119E+02  0.12802183440E+02  0.62141112249E+02  0.10566000000E+00 0.  1.
         23    2    1    0    0    0  0.15271243069E+02 -0.23601254048E+02  0.10619510916E+02  0.94949973884E+02  0.90069381428E+02 0.  0.
         13    1    3    3    0    0 -0.19711436497E+02  0.26136286071E+02 -0.21826725248E+01  0.32808861634E+02  0.10566000000E+00 0. -1.
         22    1    1    0    0    0 -0.15271243069E+02  0.23601254048E+02 -0.10619510916E+02  0.30050026116E+02  0.00000000000E+00 0.  1.
</event>
<event>
 5    1  0.8943113E-005  0.9118800E+02  0.7818608E-02  0.1130116E+00
         25   -1    0    0    0    0  0.00000000000E+00  0.00000000000E+00  0.99999998245E-14  0.12500000000E+03  0.12500000000E+03 0.  0.
        -13    1    3    3    0    0 -0.33596312235E+02 -0.38579847483E+02 -0.34306580996E+02  0.61596018469E+02  0.10566000000E+00 0.  1.
         23    2    1    0    0    0 -0.20418990763E+02 -0.15958874737E+02 -0.10311701575E+02  0.97108208089E+02  0.93016407275E+02 0.  0.
         13    1    3    3    0    0  0.13177321473E+02  0.22620972746E+02  0.23994879421E+02  0.35512189620E+02  0.10566000000E+00 0. -1.
         22    1    1    0    0    0  0.20418990763E+02  0.15958874737E+02  0.10311701575E+02  0.27891791911E+02  0.00000000000E+00 0.  1.
</event>
<event>
 5    1  0.8943113E-005  0.9118800E+02  0.7818608E-02  0.1130116E+00
         25   -1    0    0    0    0  0.00000000000E+00  0.00000000000E+00  0.99999998245E-14  0.12500000000E+03  0.12500000000E+03 0.  0.
        -13    1    3    3    0    0  0.68689036249E+01  0.11818718268E+02  0.44286210120E+02  0.46348069101E+02  0.10566000000E+00 0.  1.
         23    2    1    0    0    0  0.27515957153E+02 -0.93415132668E+01  0.50021142343E+01  0.95514191295E+02  0.90849038651E+02 0.  0.
         13    1    3    3    0    0  0.20647053528E+02 -0.21160231534E+02 -0.39284095886E+02  0.49166122194E+02  0.10566000000E+00 0. -1.
         22    1    1    0    0    0 -0.27515957153E+02  0.93415132668E+01 -0.50021142343E+01  0.29485808705E+02  0.00000000000E+00 0.  1.
</event>
<event>
 5    1  0.8943113E-005  0.9118800E+02  0.7818608E-02  0.1130116E+00
         25   -1    0    0    0    0  0.00000000000E+00  0.00000000000E+00  0.99999998245E-14  0.12500000000E+03  0.12500000000E+03 0.  0.
        -13    1    3    3    0    0  0.16188806067E+01 -0.67544676832E+00 -0.35933913281E+02  0.35976857707E+02  0.10566000000E+00 0.  1.
         23    2    1    0    0    0 -0.15100619901E+02 -0.16846782996E+02  0.18887087105E+02  0.95528575230E+02  0.90868827479E+02 0.  0.
         13    1    3    3    0    0 -0.16719500508E+02 -0.16171336227E+02  0.54821000386E+02  0.59551717523E+02  0.10566000000E+00 0. -1.
         22    1    1    0    0    0  0.15100619901E+02  0.16846782996E+02 -0.18887087105E+02  0.29471424770E+02  0.00000000000E+00 0. -1.
</event>
<event>
 5    1  0.8943113E-005  0.9118800E+02  0.7818608E-02  0.1130116E+00
         25   -1    0    0    0    0  0.00000000000E+00  0.00000000000E+00  0.99999998245E-14  0.12500000000E+03  0.12500000000E+03 0.  0.
        -13    1    3    3    0    0  0.63188392702E+01 -0.45611852293E+02 -0.33867820269E+02  0.57161256224E+02  0.10566000000E+00 0.  1.
         23    2    1    0    0    0  0.18164914398E+02 -0.10421036514E+02 -0.17366794489E+02  0.97793977359E+02  0.93933456978E+02 0.  0.
         13    1    3    3    0    0  0.11846075128E+02  0.35190815778E+02  0.16501025780E+02  0.40632721136E+02  0.10566000000E+00 0. -1.
         22    1    1    0    0    0 -0.18164914398E+02  0.10421036514E+02  0.17366794489E+02  0.27206022641E+02  0.00000000000E+00 0.  1.
</event>
<event>
 5    1  0.8943113E-005  0.9118800E+02  0.7818608E-02  0.1130116E+00
         25   -1    0    0    0    0  0.00000000000E+00  0.00000000000E+00  0.99999998245E-14  0.12500000000E+03  0.12500000000E+03 0.  0.
        -13    1    3    3    0    0 -0.20144611253E+02 -0.21808378007E+02 -0.34149009815E+02  0.45250157450E+02  0.10566000000E+00 0. -1.
         23    2    1    0    0    0 -0.18087562540E+02 -0.15784023589E+02  0.16225104775E+02  0.96025022101E+02  0.91549197294E+02 0.  0.
         13    1    3    3    0    0  0.20570487132E+01  0.60243544175E+01  0.50374114590E+02  0.50774864651E+02  0.10566000000E+00 0.  1.
         22    1    1    0    0    0  0.18087562540E+02  0.15784023589E+02 -0.16225104775E+02  0.28974977899E+02  0.00000000000E+00 0.  1.
</event>
<event>
 5    1  0.8943113E-005  0.9118800E+02  0.7818608E-02  0.1130116E+00
         25   -1    0    0    0    0  0.00000000000E+00  0.00000000000E+00  0.99999998245E-14  0.12500000000E+03  0.12500000000E+03 0.  0.
        -13    1    3    3    0    0 -0.35415661775E+02  0.11312187584E+02 -0.28469288890E+02  0.46826768635E+02  0.10566000000E+00 0. -1.
         23    2    1    0    0    0 -0.13163277906E+02  0.23652054099E+02  0.12602454408E+02  0.95141778260E+02  0.90335179001E+02 0.  0.
         13    1    3    3    0    0  0.22252383869E+02  0.12339866515E+02  0.41071743298E+02  0.48315009625E+02  0.10566000000E+00 0.  1.
         22    1    1    0    0    0  0.13163277906E+02 -0.23652054099E+02 -0.12602454408E+02  0.29858221740E+02  0.00000000000E+00 0.  1.
</event>
<event>
 5    1  0.8943113E-005  0.9118800E+02  0.7818608E-02  0.1130116E+00
         25   -1    0    0    0    0  0.00000000000E+00  0.00000000000E+00  0.99999998245E-14  0.12500000000E+03  0.12500000000E+03 0.  0.
        -13    1    3    3    0    0  0.36555250132E+02 -0.44491363833E+02 -0.15628889836E+02  0.59666080226E+02  0.10566000000E+00 0. -1.
         23    2    1    0    0    0  0.17251935101E+02 -0.23447312314E+02  0.57355966067E+01  0.95330103002E+02  0.90595395856E+02 0.  0.
         13    1    3    3    0    0 -0.19303315031E+02  0.21044051519E+02  0.21364486443E+02  0.35664022776E+02  0.10566000000E+00 0.  1.
         22    1    1    0    0    0 -0.17251935101E+02  0.23447312314E+02 -0.57355966067E+01  0.29669896998E+02  0.00000000000E+00 0. -1.
</event>
<event>
 5    1  0.8943113E-005  0.9118800E+02  0.7818608E-02  0.1130116E+00
         25   -1    0    0    0    0  0.00000000000E+00  0.00000000000E+00  0.99999998245E-14  0.12500000000E+03  0.12500000000E+03 0.  0.
        -13    1    3    3    0    0  0.12993356679E+02 -0.44468733360E+02 -0.44716980023E+01  0.46543558217E+02  0.10566000000E+00 0.  1.
         23    2    1    0    0    0  0.37746506763E+01 -0.13930524824E+01 -0.28155900978E+02  0.96558070691E+02  0.92274144119E+02 0.  0.
         13    1    3    3    0    0 -0.92187060031E+01  0.43075680878E+02 -0.23684202975E+02  0.50014512474E+02  0.10566000000E+00 0. -1.
         22    1    1    0    0    0 -0.37746506763E+01  0.13930524824E+01  0.28155900978E+02  0.28441929309E+02  0.00000000000E+00 0.  1.
</event>
<event>
 5    1  0.8943113E-005  0.9118800E+02  0.7818608E-02  0.1130116E+00
         25   -1    0    0    0    0  0.00000000000E+00  0.00000000000E+00  0.99999998245E-14  0.12500000000E+03  0.12500000000E+03 0.  0.
        -13    1    3    3    0    0  0.33429106539E+02 -0.25299594468E+01  0.40261372817E+01  0.33765763789E+02  0.10566000000E+00 0. -1.
         23    2    1    0    0    0 -0.15683426393E+02 -0.13794902423E+02 -0.25398484569E+02  0.92116079695E+02  0.86046614830E+02 0.  0.
         13    1    3    3    0    0 -0.49112532932E+02 -0.11264942976E+02 -0.29424621850E+02  0.58350315906E+02  0.10566000000E+00 0.  1.
         22    1    1    0    0    0  0.15683426393E+02  0.13794902423E+02  0.25398484569E+02  0.32883920305E+02  0.00000000000E+00 0.  1.
</event>
<event>
 5    1  0.8943113E-005  0.9118800E+02  0.7818608E-02  0.1130116E+00
         25   -1    0    0    0    0  0.00000000000E+00  0.00000000000E+00  0.99999998245E-14  0.12500000000E+03  0.12500000000E+03 0.  0.
        -13    1    3    3    0    0 -0.51884220206E+02 -0.20734483225E+02  0.12690655441E+02  0.57297076719E+02  0.10566000000E+00 0.  1.
         23    2    1    0    0    0 -0.31333912663E+02 -0.12816175148E+02 -0.10769369972E+02  0.89474688491E+02  0.82119864362E+02 0.  0.
         13    1    3    3    0    0  0.20550307543E+02  0.79183080769E+01 -0.23460025413E+02  0.32177611772E+02  0.10566000000E+00 0. -1.
         22    1    1    0    0    0  0.31333912663E+02  0.12816175148E+02  0.10769369972E+02  0.35525311509E+02  0.00000000000E+00 0.  1.
</event>
<event>
 5    1  0.8943113E-005  0.9118800E+02  0.7818608E-02  0.1130116E+00
         25   -1    0    0    0    0  0.00000000000E+00  0.00000000000E+00  0.99999998245E-14  0.12500000000E+03  0.12500000000E+03 0.  0.
        -13    1    3    3    0    0 -0.38721941755E+02 -0.20535715824E+02  0.89041356553E+01  0.44725822446E+02  0.10566000000E+00 0.  1.
         23    2    1    0    0    0 -0.13590691210E+02  0.44818169684E+01 -0.26530204555E+02  0.94856255630E+02  0.89939223410E+02 0.  0.
         13    1    3    3    0    0  0.25131250545E+02  0.25017532792E+02 -0.35434340210E+02  0.50130433184E+02  0.10566000000E+00 0. -1.
         22    1    1    0    0    0  0.13590691210E+02 -0.44818169684E+01  0.26530204555E+02  0.30143744370E+02  0.00000000000E+00 0. -1.
</event>
<event>
 5    1  0.8943113E-005  0.9118800E+02  0.7818608E-02  0.1130116E+00
         25   -1    0    0    0    0  0.00000000000E+00  0.00000000000E+00  0.99999998245E-14  0.12500000000E+03  0.12500000000E+03 0.  0.
        -13    1    3    3    0    0 -0.52905624045E+01 -0.44252248995E+02 -0.35729537007E+01  0.44710499369E+02  0.10566000000E+00 0. -1.
         23    2    1    0    0    0  0.57386680580E+01 -0.95742871166E+00 -0.28527710950E+02  0.95885067871E+02  0.91357905886E+02 0.  0.
         13    1    3    3    0    0  0.11029230462E+02  0.43294820283E+02 -0.24954757249E+02  0.51174568502E+02  0.10566000000E+00 0.  1.
         22    1    1    0    0    0 -0.57386680580E+01  0.95742871166E+00  0.28527710950E+02  0.29114932129E+02  0.00000000000E+00 0.  1.
</event>
<event>
 5    1  0.8943113E-005  0.9118800E+02  0.7818608E-02  0.1130116E+00
         25   -1    0    0    0    0  0.00000000000E+00  0.00000000000E+00  0.99999998245E-14  0.12500000000E+03  0.12500000000E+03 0.  0.
        -13    1    3    3    0    0  0.18038103725E+01  0.28508234868E+01 -0.37755371532E+02  0.37905938452E+02  0.10566000000E+00 0.  1.
         23    2    1    0    0    0 -0.36370200899E+02  0.18289171856E+01 -0.31993649944E+02  0.76525985433E+02  0.59215676625E+02 0.  0.
         13    1    3    3    0    0 -0.38174011272E+02 -0.10219063012E+01  0.57617215878E+01  0.38620046980E+02  0.10566000000E+00 0. -1.
         22    1    1    0    0    0  0.36370200899E+02 -0.18289171856E+01  0.31993649944E+02  0.48474014567E+02  0.00000000000E+00 0.  1.
</event>
<event>
 5    1  0.8943113E-005  0.9118800E+02  0.7818608E-02  0.1130116E+00
         25   -1    0    0    0    0  0.00000000000E+00  0.00000000000E+00  0.99999998245E-14  0.12500000000E+03  0.12500000000E+03 0.  0.
        -13    1    3    3    0    0  0.95357313422E+01 -0.38617877466E+02 -0.97482661833E+01  0.40954981258E+02  0.10566000000E+00 0.  1.
         23    2    1    0    0    0  0.17994720995E+02  0.14674594491E+02 -0.18102509776E+02  0.95557605951E+02  0.90908753636E+02 0.  0.
         13    1    3    3    0    0  0.84589896524E+01  0.53292471958E+02 -0.83542435928E+01  0.54602624693E+02  0.10566000000E+00 0. -1.
         22    1    1    0    0    0 -0.17994720995E+02 -0.14674594491E+02  0.18102509776E+02  0.29442394049E+02  0.00000000000E+00 0. -1.
</event>
<event>
 5    1  0.8943113E-005  0.9118800E+02  0.7818608E-02  0.1130116E+00
         25   -1    0    0    0    0  0.00000000000E+00  0.00000000000E+00  0.99999998245E-14  0.12500000000E+03  0.12500000000E+03 0.  0.
        -13    1    3    3    0    0 -0.16503398578E+01  0.22033655694E+02 -0.17353947546E+02  0.28095840695E+02  0.10566000000E+00 0.  1.
         23    2    1    0    0    0  0.19506041429E+02 -0.10673968695E+02 -0.44280532485E+02  0.75450178435E+02  0.56899425382E+02 0.  0.
         13    1    3    3    0    0  0.21156381287E+02 -0.32707624389E+02 -0.26926584939E+02  0.47354337741E+02  0.10566000000E+00 0. -1.
         22    1    1    0    0    0 -0.19506041429E+02  0.10673968695E+02  0.44280532485E+02  0.49549821565E+02  0.00000000000E+00 0. -1.
</event>
<event>
 5    1  0.8943113E-005  0.9118800E+02  0.7818608E-02  0.1130116E+00
         25   -1    0    0    0    0  0.00000000000E+00  0.00000000000E+00  0.99999998245E-14  0.12500000000E+03  0.12500000000E+03 0.  0.
        -13    1    3    3    0    0  0.51357177599E+01  0.29569751661E+00 -0.41212674263E+02  0.41532622334E+02  0.10566000000E+00 0.  1.
         23    2    1    0    0    0 -0.57206709722E+01  0.31795002875E+02 -0.25156910559E+01  0.92596651628E+02  0.86741932807E+02 0.  0.
         13    1    3    3    0    0 -0.10856388732E+02  0.31499305359E+02  0.38696983207E+02  0.51064029294E+02  0.10566000000E+00 0. -1.
         22    1    1    0    0    0  0.57206709722E+01 -0.31795002875E+02  0.25156910559E+01  0.32403348372E+02  0.00000000000E+00 0.  1.
</event>
<event>
 5    1  0.8943113E-005  0.9118800E+02  0.7818608E-02  0.1130116E+00
         25   -1    0    0    0    0  0.00000000000E+00  0.00000000000E+00  0.99999998245E-14  0.12500000000E+03  0.12500000000E+03 0.  0.
        -13    1    3    3    0    0 -0.13249607683E+02  0.13222077610E+02 -0.36031204145E+02  0.40603377646E+02  0.10566000000E+00 0. -1.
         23    2    1    0    0    0 -0.12762243543E+02 -0.25731327325E+02  0.34531610614E+01  0.96070769324E+02  0.91611638622E+02 0.  0.
         13    1    3    3    0    0  0.48736414022E+00 -0.38953404935E+02  0.39484365206E+02  0.55467391678E+02  0.10566000000E+00 0.  1.
         22    1    1    0    0    0  0.12762243543E+02  0.25731327325E+02 -0.34531610614E+01  0.28929230676E+02  0.00000000000E+00 0.  1.
</event>
<event>
 5    1  0.8943113E-005  0.9118800E+02  0.7818608E-02  0.1130116E+00
         25   -1    0    0    0    0  0.00000000000E+00  0.00000000000E+00  0.99999998245E-14  0.12500000000E+03  0.12500000000E+03 0.  0.
        -13    1    3    3    0    0 -0.69725039369E+01  0.29591596683E+01  0.33927727019E+02  0.34763116399E+02  0.10566000000E+00 0.  1.
         23    2    1    0    0    0 -0.28009158321E+01  0.11388850845E+02 -0.26553692122E+02  0.95971572237E+02  0.91476188482E+02 0.  0.
         13    1    3    3    0    0  0.41715881048E+01  0.84296911767E+01 -0.60481419141E+02  0.61208455838E+02  0.10566000000E+00 0. -1.
         22    1    1    0    0    0  0.28009158321E+01 -0.11388850845E+02  0.26553692122E+02  0.29028427763E+02  0.00000000000E+00 0. -1.
</event>
<event>
 5    1  0.8943113E-005  0.9118800E+02  0.7818608E-02  0.1130116E+00
         25   -1    0    0    0    0  0.00000000000E+00  0.00000000000E+00  0.99999998245E-14  0.12500000000E+03  0.12500000000E+03 0.  0.
        -13    1    3    3    0    0  0.31991460891E+02 -0.33057481886E+02  0.37832653270E+02  0.59561493400E+02  0.10566000000E+00 0.  1.
         23    2    1    0    0    0  0.61326839153E+01 -0.25252693905E+02  0.14579938881E+02  0.95202634693E+02  0.90419348998E+02 0.  0.
         13    1    3    3    0    0 -0.25858776976E+02  0.78047879804E+01 -0.23252714389E+02  0.35641141292E+02  0.10566000000E+00 0. -1.
         22    1    1    0    0    0 -0.61326839153E+01  0.25252693905E+02 -0.14579938881E+02  0.29797365307E+02  0.00000000000E+00 0.  1.
</event>
<event>
 5    1  0.8943113E-005  0.9118800E+02  0.7818608E-02  0.1130116E+00
         25   -1    0    0    0    0  0.00000000000E+00  0.00000000000E+00  0.99999998245E-14  0.12500000000E+03  0.12500000000E+03 0.  0.
        -13    1    3    3    0    0 -0.83084409227E+01  0.22803174177E+02 -0.22363278794E+02  0.33002156680E+02  0.10566000000E+00 0.  1.
         23    2    1    0    0    0 -0.35258102347E+01 -0.18107624515E+02  0.23811463928E+02  0.94878525638E+02  0.89970169553E+02 0.  0.
         13    1    3    3    0    0  0.47826306880E+01 -0.40910798692E+02  0.46174742722E+02  0.61876368957E+02  0.10566000000E+00 0. -1.
         22    1    1    0    0    0  0.35258102347E+01  0.18107624515E+02 -0.23811463928E+02  0.30121474362E+02  0.00000000000E+00 0. -1.
</event>
<event>
 5    1  0.8943113E-005  0.9118800E+02  0.7818608E-02  0.1130116E+00
         25   -1    0    0    0    0  0.00000000000E+00  0.00000000000E+00  0.99999998245E-14  0.12500000000E+03  0.12500000000E+03 0.  0.
        -13    1    3    3    0    0  0.29317814649E+02 -0.33039404288E+02 -0.10673150480E+02  0.45442973017E+02  0.10566000000E+00 0.  1.
         23    2    1    0    0    0  0.72840014340E+01 -0.42631336354E+01  0.26396951754E+02  0.97286644967E+02  0.93255891190E+02 0.  0.
         13    1    3    3    0    0 -0.22033813215E+02  0.28776270652E+02  0.37070102235E+02  0.51843671949E+02  0.10566000000E+00 0. -1.
         22    1    1    0    0    0 -0.72840014340E+01  0.42631336354E+01 -0.26396951754E+02  0.27713355033E+02  0.00000000000E+00 0. -1.
</event>
<event>
 5    1  0.8943113E-005  0.9118800E+02  0.7818608E-02  0.1130116E+00
         25   -1    0    0    0    0  0.00000000000E+00  0.00000000000E+00  0.99999998245E-14  0.12500000000E+03  0.12500000000E+03 0.  0.
        -13    1    3    3    0    0 -0.24481199342E+02  0.51699934605E+02  0.84033204506E+01  0.57817292552E+02  0.10566000000E+00 0. -1.
         23    2    1    0    0    0 -0.19427217772E+02  0.20210695743E+02 -0.10700326866E+02  0.94993567226E+02  0.90129860793E+02 0.  0.
         13    1    3    3    0    0  0.50539815703E+01 -0.31489238862E+02 -0.19103647317E+02  0.37176274674E+02  0.10566000000E+00 0.  1.
         22    1    1    0    0    0  0.19427217772E+02 -0.20210695743E+02  0.10700326866E+02  0.30006432774E+02  0.00000000000E+00 0. -1.
</event>
<event>
 5    1  0.8943113E-005  0.9118800E+02  0.7818608E-02  0.1130116E+00
         25   -1    0    0    0    0  0.00000000000E+00  0.00000000000E+00  0.99999998245E-14  0.12500000000E+03  0.12500000000E+03 0.  0.
        -13    1    3    3    0    0  0.22231176665E+02 -0.42409402182E+02  0.28020072706E+02  0.55478989246E+02  0.10566000000E+00 0.  1.
         23    2    1    0    0    0 -0.55573037753E+01 -0.28624936638E+02  0.23441651741E+01  0.95746526135E+02  0.91168149777E+02 0.  0.
         13    1    3    3    0    0 -0.27788480440E+02  0.13784465543E+02 -0.25675907532E+02  0.40267536889E+02  0.10566000000E+00 0. -1.
         22    1    1    0    0    0  0.55573037753E+01  0.28624936638E+02 -0.23441651741E+01  0.29253473865E+02  0.00000000000E+00 0.  1.
</event>
<event>
 5    1  0.8943113E-005  0.9118800E+02  0.7818608E-02  0.1130116E+00
         25   -1    0    0    0    0  0.00000000000E+00  0.00000000000E+00  0.99999998245E-14  0.12500000000E+03  0.12500000000E+03 0.  0.
        -13    1    3    3    0    0 -0.37862460756E+02  0.74387844160E+01 -0.22495909513E+02  0.44665182827E+02  0.10566000000E+00 0.  1.
         23    2    1    0    0    0 -0.21724665449E+02  0.37300997458E+02 -0.13253861987E+02  0.79844819148E+02  0.65849865504E+02 0.  0.
         13    1    3    3    0    0  0.16137795308E+02  0.29862213042E+02  0.92420475253E+01  0.35179636321E+02  0.10566000000E+00 0. -1.
         22    1    1    0    0    0  0.21724665449E+02 -0.37300997458E+02  0.13253861987E+02  0.45155180852E+02  0.00000000000E+00 0. -1.
</event>
<event>
 5    1  0.8943113E-005  0.9118800E+02  0.7818608E-02  0.1130116E+00
         25   -1    0    0    0    0  0.00000000000E+00  0.00000000000E+00  0.99999998245E-14  0.12500000000E+03  0.12500000000E+03 0.  0.
        -13    1    3    3    0    0  0.18596221231E+02 -0.19993633670E+01 -0.32391691009E+02  0.37403872906E+02  0.10566000000E+00 0. -1.
         23    2    1    0    0    0  0.13361979775E+02  0.14097414388E+01  0.25789919496E+02  0.95919941162E+02  0.91405608638E+02 0.  0.
         13    1    3    3    0    0 -0.52342414556E+01  0.34091048058E+01  0.58181610504E+02  0.58516068256E+02  0.10566000000E+00 0.  1.
         22    1    1    0    0    0 -0.13361979775E+02 -0.14097414388E+01 -0.25789919496E+02  0.29080058838E+02  0.00000000000E+00 0.  1.
</event>
<event>
 5    1  0.8943113E-005  0.9118800E+02  0.7818608E-02  0.1130116E+00
         25   -1    0    0    0    0  0.00000000000E+00  0.00000000000E+00  0.99999998245E-14  0.12500000000E+03  0.12500000000E+03 0.  0.
        -13    1    3    3    0    0  0.23512867582E+02 -0.48543605875E+02  0.21654231941E+02  0.58122745446E+02  0.10566000000E+00 0. -1.
         23    2    1    0    0    0 -0.40220426919E+01 -0.28806092118E+02  0.67119937318E+01  0.95150064818E+02  0.90346644677E+02 0.  0.
         13    1    3    3    0    0 -0.27534910274E+02  0.19737513756E+02 -0.14942238209E+02  0.37027319371E+02  0.10566000000E+00 0.  1.
         22    1    1    0    0    0  0.40220426919E+01  0.28806092118E+02 -0.67119937318E+01  0.29849935182E+02  0.00000000000E+00 0. -1.
</event>
<event>
 5    1  0.8943113E-005  0.9118800E+02  0.7818608E-02  0.1130116E+00
         25   -1    0    0    0    0  0.00000000000E+00  0.00000000000E+00  0.99999998245E-14  0.12500000000E+03  0.12500000000E+03 0.  0.
        -13    1    3    3    0    0  0.31542141932E+02  0.49686322710E+02 -0.26289350805E+01  0.58911457678E+02  0.10566000000E+00 0. -1.
         23    2    1    0    0    0  0.13672941238E+02  0.22553972703E+02 -0.16119558265E+02  0.94089303381E+02  0.88866899605E+02 0.  0.
         13    1    3    3    0    0 -0.17869200694E+02 -0.27132350007E+02 -0.13490623185E+02  0.35177845703E+02  0.10566000000E+00 0.  1.
         22    1    1    0    0    0 -0.13672941238E+02 -0.22553972703E+02  0.16119558265E+02  0.30910696619E+02  0.00000000000E+00 0. -1.
</event>
<event>
 5    1  0.8943113E-005  0.9118800E+02  0.7818608E-02  0.1130116E+00
         25   -1    0    0    0    0  0.00000000000E+00  0.00000000000E+00  0.99999998245E-14  0.12500000000E+03  0.12500000000E+03 0.  0.
        -13    1    3    3    0    0 -0.30094295707E+02  0.16733084427E+02  0.23135734077E+02  0.41484166905E+02  0.10566000000E+00 0. -1.
         23    2    1    0    0    0 -0.13398536134E+02 -0.23711807835E+02 -0.95914649253E+01  0.96124979641E+02  0.91685576347E+02 0.  0.
         13    1    3    3    0    0  0.16695759573E+02 -0.40444892262E+02 -0.32727199002E+02  0.54640812735E+02  0.10566000000E+00 0.  1.
         22    1    1    0    0    0  0.13398536134E+02  0.23711807835E+02  0.95914649253E+01  0.28875020359E+02  0.00000000000E+00 0.  1.
</event>
<event>
 5    1  0.8943113E-005  0.9118800E+02  0.7818608E-02  0.1130116E+00
         25   -1    0    0    0    0  0.00000000000E+00  0.00000000000E+00  0.99999998245E-14  0.12500000000E+03  0.12500000000E+03 0.  0.
        -13    1    3    3    0    0  0.18174543190E+02 -0.46880193532E+02 -0.11343976249E+02  0.51543802022E+02  0.10566000000E+00 0. -1.
         23    2    1    0    0    0 -0.10673938094E+01 -0.22093301956E+02  0.19477098181E+02  0.95527798277E+02  0.90867758689E+02 0.  0.
         13    1    3    3    0    0 -0.19241937000E+02  0.24786891576E+02  0.30821074429E+02  0.43983996254E+02  0.10566000000E+00 0.  1.
         22    1    1    0    0    0  0.10673938094E+01  0.22093301956E+02 -0.19477098181E+02  0.29472201723E+02  0.00000000000E+00 0. -1.
</event>
<event>
 5    1  0.8943113E-005  0.9118800E+02  0.7818608E-02  0.1130116E+00
         25   -1    0    0    0    0  0.00000000000E+00  0.00000000000E+00  0.99999998245E-14  0.12500000000E+03  0.12500000000E+03 0.  0.
        -13    1    3    3    0    0  0.66705801816E+01 -0.19608617705E+02 -0.36840123708E+02  0.42263464211E+02  0.10566000000E+00 0.  1.
         23    2    1    0    0    0  0.26256595541E+02 -0.57394407529E+01  0.11136153262E+02  0.95907665975E+02  0.91388820397E+02 0.  0.
         13    1    3    3    0    0  0.19586015360E+02  0.13869176953E+02  0.47976276969E+02  0.53644201764E+02  0.10566000000E+00 0. -1.
         22    1    1    0    0    0 -0.26256595541E+02  0.57394407529E+01 -0.11136153262E+02  0.29092334025E+02  0.00000000000E+00 0. -1.
</event>
<event>
 5    1  0.8943113E-005  0.9118800E+02  0.7818608E-02  0.1130116E+00
         25   -1    0    0    0    0  0.00000000000E+00  0.00000000000E+00  0.99999998245E-14  0.12500000000E+03  0.12500000000E+03 0.  0.
        -13    1    3    3    0    0 -0.25460843740E+02  0.20768542360E+02 -0.13245822615E+02  0.35426683396E+02  0.10566000000E+00 0. -1.
         23    2    1    0    0    0  0.11446794479E+02 -0.26339113599E+02 -0.53022743802E+01  0.95795683151E+02  0.91235523716E+02 0.  0.
         13    1    3    3    0    0  0.36907638219E+02 -0.47107655958E+02  0.79435482345E+01  0.60368999755E+02  0.10566000000E+00 0.  1.
         22    1    1    0    0    0 -0.11446794479E+02  0.26339113599E+02  0.53022743802E+01  0.29204316849E+02  0.00000000000E+00 0.  1.
</event>
<event>
 5    1  0.8943113E-005  0.9118800E+02  0.7818608E-02  0.1130116E+00
         25   -1    0    0    0    0  0.00000000000E+00  0.00000000000E+00  0.99999998245E-14  0.12500000000E+03  0.12500000000E+03 0.  0.
        -13    1    3    3    0    0 -0.54746519009E+02 -0.17613253503E+01 -0.12760576751E+02  0.56241684662E+02  0.10566000000E+00 0.  1.
         23    2    1    0    0    0 -0.78440826977E+01  0.11469155178E+02  0.77212907374E+01  0.10910379025E+03  0.10793955513E+03 0.  0.
         13    1    3    3    0    0  0.46902436312E+02  0.13230480528E+02  0.20481867488E+02  0.52862105584E+02  0.10566000000E+00 0. -1.
         22    1    1    0    0    0  0.78440826977E+01 -0.11469155178E+02 -0.77212907374E+01  0.15896209753E+02  0.00000000000E+00 0. -1.
</event>
<event>
 5    1  0.8943113E-005  0.9118800E+02  0.7818608E-02  0.1130116E+00
         25   -1    0    0    0    0  0.00000000000E+00  0.00000000000E+00  0.99999998245E-14  0.12500000000E+03  0.12500000000E+03 0.  0.
        -13    1    3    3    0    0 -0.22591067214E+02 -0.33195009876E+01  0.33652083947E+02  0.40667546308E+02  0.10566000000E+00 0.  1.
         23    2    1    0    0    0  0.57118534219E+01  0.37637418577E+01 -0.21160419442E+02  0.10276142151E+03  0.10032624471E+03 0.  0.
         13    1    3    3    0    0  0.28302920636E+02  0.70832428453E+01 -0.54812503390E+02  0.62093875202E+02  0.10566000000E+00 0. -1.
         22    1    1    0    0    0 -0.57118534219E+01 -0.37637418577E+01  0.21160419442E+02  0.22238578490E+02  0.00000000000E+00 0. -1.
</event>
<event>
 5    1  0.8943113E-005  0.9118800E+02  0.7818608E-02  0.1130116E+00
         25   -1    0    0    0    0  0.00000000000E+00  0.00000000000E+00  0.99999998245E-14  0.12500000000E+03  0.12500000000E+03 0.  0.
        -13    1    3    3    0    0  0.33860003114E+02  0.62369537573E+01  0.39756364533E+02  0.52592576358E+02  0.10566000000E+00 0.  1.
         23    2    1    0    0    0  0.24696482813E+01  0.24060413824E+02  0.19087054218E+02  0.94188990365E+02  0.89007008663E+02 0.  0.
         13    1    3    3    0    0 -0.31390354833E+02  0.17823460067E+02 -0.20669310315E+02  0.41596414007E+02  0.10566000000E+00 0. -1.
         22    1    1    0    0    0 -0.24696482813E+01 -0.24060413824E+02 -0.19087054218E+02  0.30811009635E+02  0.00000000000E+00 0.  1.
</event>
<event>
 5    1  0.8943113E-005  0.9118800E+02  0.7818608E-02  0.1130116E+00
         25   -1    0    0    0    0  0.00000000000E+00  0.00000000000E+00  0.99999998245E-14  0.12500000000E+03  0.12500000000E+03 0.  0.
        -13    1    3    3    0    0 -0.13992096493E+02 -0.34049906697E+02 -0.29640776752E+01  0.36931989262E+02  0.10566000000E+00 0. -1.
         23    2    1    0    0    0  0.10359333773E+02  0.15426445174E+02 -0.22846080359E+02  0.95551156309E+02  0.90899884914E+02 0.  0.
         13    1    3    3    0    0  0.24351430266E+02  0.49476351872E+02 -0.19882002684E+02  0.58619167047E+02  0.10566000000E+00 0.  1.
         22    1    1    0    0    0 -0.10359333773E+02 -0.15426445174E+02  0.22846080359E+02  0.29448843691E+02  0.00000000000E+00 0.  1.
</event>
<event>
 5    1  0.8943113E-005  0.9118800E+02  0.7818608E-02  0.1130116E+00
         25   -1    0    0    0    0  0.00000000000E+00  0.00000000000E+00  0.99999998245E-14  0.12500000000E+03  0.12500000000E+03 0.  0.
        -13    1    3    3    0    0 -0.30541016739E+02 -0.12471862520E+02  0.49253342837E+02  0.59280722016E+02  0.10566000000E+00 0.  1.
         23    2    1    0    0    0 -0.28753005084E+01 -0.13238268736E+02  0.26992308029E+02  0.94798943647E+02  0.89859534339E+02 0.  0.
         13    1    3    3    0    0  0.27665716230E+02 -0.76640621610E+00 -0.22261034808E+02  0.35518221630E+02  0.10566000000E+00 0. -1.
         22    1    1    0    0    0  0.28753005084E+01  0.13238268736E+02 -0.26992308029E+02  0.30201056353E+02  0.00000000000E+00 0.  1.
</event>
<event>
 5    1  0.8943113E-005  0.9118800E+02  0.7818608E-02  0.1130116E+00
         25   -1    0    0    0    0  0.00000000000E+00  0.00000000000E+00  0.99999998245E-14  0.12500000000E+03  0.12500000000E+03 0.  0.
        -13    1    3    3    0    0 -0.19412238746E+02 -0.37858487153E+02  0.37589975983E+02  0.56772506736E+02  0.10566000000E+00 0. -1.
         23    2    1    0    0    0 -0.22663239663E+02 -0.49063764245E+01  0.20570080938E+02  0.94002851882E+02  0.88745213790E+02 0.  0.
         13    1    3    3    0    0 -0.32510009164E+01  0.32952110728E+02 -0.17019895045E+02  0.37230345147E+02  0.10566000000E+00 0.  1.
         22    1    1    0    0    0  0.22663239663E+02  0.49063764245E+01 -0.20570080938E+02  0.30997148118E+02  0.00000000000E+00 0. -1.
</event>
<event>
 5    1  0.8943113E-005  0.9118800E+02  0.7818608E-02  0.1130116E+00
         25   -1    0    0    0    0  0.00000000000E+00  0.00000000000E+00  0.99999998245E-14  0.12500000000E+03  0.12500000000E+03 0.  0.
        -13    1    3    3    0    0  0.49673721076E+02  0.16235533780E+02 -0.20926186166E+01  0.52301638018E+02  0.10566000000E+00 0. -1.
         23    2    1    0    0    0  0.17001480396E+02  0.24514746284E+02  0.16616717893E+02  0.90851230848E+02  0.84189118728E+02 0.  0.
         13    1    3    3    0    0 -0.32672240680E+02  0.82792125048E+01  0.18709336509E+02  0.38549592831E+02  0.10566000000E+00 0.  1.
         22    1    1    0    0    0 -0.17001480396E+02 -0.24514746284E+02 -0.16616717893E+02  0.34148769152E+02  0.00000000000E+00 0. -1.
</event>
<event>
 5    1  0.8943113E-005  0.9118800E+02  0.7818608E-02  0.1130116E+00
         25   -1    0    0    0    0  0.00000000000E+00  0.00000000000E+00  0.99999998245E-14  0.12500000000E+03  0.12500000000E+03 0.  0.
        -13    1    3    3    0    0 -0.26700086123E+02 -0.40068822925E+02 -0.78618028647E+01  0.48787542240E+02  0.10566000000E+00 0.  1.
         23    2    1    0    0    0 -0.26373239830E+02  0.80958242932E+01 -0.15045202293E+01  0.97371143143E+02  0.93369083672E+02 0.  0.
         13    1    3    3    0    0  0.32684629314E+00  0.48164647218E+02  0.63572826354E+01  0.48583600903E+02  0.10566000000E+00 0. -1.
         22    1    1    0    0    0  0.26373239830E+02 -0.80958242932E+01  0.15045202293E+01  0.27628856857E+02  0.00000000000E+00 0.  1.
</event>
<event>
 5    1  0.8943113E-005  0.9118800E+02  0.7818608E-02  0.1130116E+00
         25   -1    0    0    0    0  0.00000000000E+00  0.00000000000E+00  0.99999998245E-14  0.12500000000E+03  0.12500000000E+03 0.  0.
        -13    1    3    3    0    0  0.17857140265E+02  0.58615745887E+02 -0.52458047164E+01  0.61499697199E+02  0.10566000000E+00 0. -1.
         23    2    1    0    0    0  0.10627792347E+02  0.25616476146E+02 -0.97967570659E+01  0.95586903099E+02  0.90949028443E+02 0.  0.
         13    1    3    3    0    0 -0.72293479186E+01 -0.32999269741E+02 -0.45509523496E+01  0.34087205900E+02  0.10566000000E+00 0.  1.
         22    1    1    0    0    0 -0.10627792347E+02 -0.25616476146E+02  0.97967570659E+01  0.29413096901E+02  0.00000000000E+00 0. -1.
</event>
<event>
 5    1  0.8943113E-005  0.9118800E+02  0.7818608E-02  0.1130116E+00
         25   -1    0    0    0    0  0.00000000000E+00  0.00000000000E+00  0.99999998245E-14  0.12500000000E+03  0.12500000000E+03 0.  0.
        -13    1    3    3    0    0  0.38904851173E+02 -0.94412907311E+01  0.11072931133E+02  0.41537289071E+02  0.10566000000E+00 0. -1.
         23    2    1    0    0    0  0.82082822188E+01  0.60363644428E+01 -0.28956719795E+02  0.94303009692E+02  0.89166991779E+02 0.  0.
         13    1    3    3    0    0 -0.30696568954E+02  0.15477655174E+02 -0.40029650928E+02  0.52765720621E+02  0.10566000000E+00 0.  1.
         22    1    1    0    0    0 -0.82082822188E+01 -0.60363644428E+01  0.28956719795E+02  0.30696990308E+02  0.00000000000E+00 0.  1.
</event>
<event>
 5    1  0.8943113E-005  0.9118800E+02  0.7818608E-02  0.1130116E+00
         25   -1    0    0    0    0  0.00000000000E+00  0.00000000000E+00  0.99999998245E-14  0.12500000000E+03  0.12500000000E+03 0.  0.
        -13    1    3    3    0    0 -0.88351410484E+01  0.17271160339E+02 -0.41178906089E+02  0.45519953510E+02  0.10566000000E+00 0.  1.
         23    2    1    0    0    0 -0.17566792617E+02 -0.21576971684E+02 -0.13070308762E+02  0.94259296022E+02  0.89105690085E+02 0.  0.
         13    1    3    3    0    0 -0.87316515684E+01 -0.38848132023E+02  0.28108597327E+02  0.48739342512E+02  0.10566000000E+00 0. -1.
         22    1    1    0    0    0  0.17566792617E+02  0.21576971684E+02  0.13070308762E+02  0.30740703978E+02  0.00000000000E+00 0. -1.
</event>
<event>
 5    1  0.8943113E-005  0.9118800E+02  0.7818608E-02  0.1130116E+00
         25   -1    0    0    0    0  0.00000000000E+00  0.00000000000E+00  0.99999998245E-14  0.12500000000E+03  0.12500000000E+03 0.  0.
        -13    1    3    3    0    0  0.54882501179E+01  0.48591947062E+01  0.32104247512E+02  0.32930632166E+02  0.10566000000E+00 0.  1.
         23    2    1    0    0    0 -0.16211499073E+02  0.12665962848E+02 -0.23880913599E+02  0.93479572474E+02  0.88005074391E+02 0.  0.
         13    1    3    3    0    0 -0.21699749191E+02  0.78067681417E+01 -0.55985161111E+02  0.60548940308E+02  0.10566000000E+00 0. -1.
         22    1    1    0    0    0  0.16211499073E+02 -0.12665962848E+02  0.23880913599E+02  0.31520427526E+02  0.00000000000E+00 0. -1.
</event>
<event>
 5    1  0.8943113E-005  0.9118800E+02  0.7818608E-02  0.1130116E+00
         25   -1    0    0    0    0  0.00000000000E+00  0.00000000000E+00  0.99999998245E-14  0.12500000000E+03  0.12500000000E+03 0.  0.
        -13    1    3    3    0    0 -0.87826966685E+01  0.27906333318E+02  0.26989749700E+02  0.39803981621E+02  0.10566000000E+00 0.  1.
         23    2    1    0    0    0  0.16860800327E+02 -0.19890347343E+02  0.13216316872E+02  0.95766739204E+02  0.91195859561E+02 0.  0.
         13    1    3    3    0    0  0.25643496996E+02 -0.47796680661E+02 -0.13773432828E+02  0.55962757583E+02  0.10566000000E+00 0. -1.
         22    1    1    0    0    0 -0.16860800327E+02  0.19890347343E+02 -0.13216316872E+02  0.29233260796E+02  0.00000000000E+00 0. -1.
</event>
<event>
 5    1  0.8943113E-005  0.9118800E+02  0.7818608E-02  0.1130116E+00
         25   -1    0    0    0    0  0.00000000000E+00  0.00000000000E+00  0.99999998245E-14  0.12500000000E+03  0.12500000000E+03 0.  0.
        -13    1    3    3    0    0  0.29254355333E+02  0.19793301468E+02 -0.17465742253E+02  0.39403748622E+02  0.10566000000E+00 0.  1.
         23    2    1    0    0    0 -0.10774154786E+02  0.12250039295E+02  0.22987690632E+02  0.96811708198E+02  0.92617099121E+02 0.  0.
         13    1    3    3    0    0 -0.40028510119E+02 -0.75432621730E+01  0.40453432885E+02  0.57407959577E+02  0.10566000000E+00 0. -1.
         22    1    1    0    0    0  0.10774154786E+02 -0.12250039295E+02 -0.22987690632E+02  0.28188291802E+02  0.00000000000E+00 0. -1.
</event>
<event>
 5    1  0.8943113E-005  0.9118800E+02  0.7818608E-02  0.1130116E+00
         25   -1    0    0    0    0  0.00000000000E+00  0.00000000000E+00  0.99999998245E-14  0.12500000000E+03  0.12500000000E+03 0.  0.
        -13    1    3    3    0    0  0.27998668578E+02  0.36151535145E+02  0.16060696595E+02  0.48464585778E+02  0.10566000000E+00 0.  1.
         23    2    1    0    0    0  0.27170290242E+02 -0.91949240334E+01  0.84312194263E+00  0.96303621231E+02  0.91928805648E+02 0.  0.
         13    1    3    3    0    0 -0.82837833543E+00 -0.45346459179E+02 -0.15217574653E+02  0.47839035453E+02  0.10566000000E+00 0. -1.
         22    1    1    0    0    0 -0.27170290242E+02  0.91949240334E+01 -0.84312194263E+00  0.28696378769E+02  0.00000000000E+00 0.  1.
</event>
<event>
 5    1  0.8943113E-005  0.9118800E+02  0.7818608E-02  0.1130116E+00
         25   -1    0    0    0    0  0.00000000000E+00  0.00000000000E+00  0.99999998245E-14  0.12500000000E+03  0.12500000000E+03 0.  0.
        -13    1    3    3    0    0  0.32426877583E+02 -0.30809931598E+01  0.25153749407E+02  0.41154795369E+02  0.10566000000E+00 0.  1.
         23    2    1    0    0    0 -0.21454140758E+02 -0.22428328669E+01  0.20497710699E+02  0.95243209198E+02  0.90475423732E+02 0.  0.
         13    1    3    3    0    0 -0.53881018340E+02  0.83816029290E+00 -0.46560387074E+01  0.54088413829E+02  0.10566000000E+00 0. -1.
         22    1    1    0    0    0  0.21454140758E+02  0.22428328669E+01 -0.20497710699E+02  0.29756790802E+02  0.00000000000E+00 0. -1.
</event>
<event>
 5    1  0.8943113E-005  0.9118800E+02  0.7818608E-02  0.1130116E+00
         25   -1    0    0    0    0  0.00000000000E+00  0.00000000000E+00  0.99999998245E-14  0.12500000000E+03  0.12500000000E+03 0.  0.
        -13    1    3    3    0    0  0.11186177138E+02  0.26165068011E+01 -0.32694517432E+02  0.34654282578E+02  0.10566000000E+00 0.  1.
         23    2    1    0    0    0 -0.15459695763E+02 -0.13628414945E+02  0.20246971133E+02  0.96109244955E+02  0.91664121873E+02 0.  0.
         13    1    3    3    0    0 -0.26645872901E+02 -0.16244921746E+02  0.52941488566E+02  0.61454962377E+02  0.10566000000E+00 0. -1.
         22    1    1    0    0    0  0.15459695763E+02  0.13628414945E+02 -0.20246971133E+02  0.28890755045E+02  0.00000000000E+00 0. -1.
</event>
<event>
 5    1  0.8943113E-005  0.9118800E+02  0.7818608E-02  0.1130116E+00
         25   -1    0    0    0    0  0.00000000000E+00  0.00000000000E+00  0.99999998245E-14  0.12500000000E+03  0.12500000000E+03 0.  0.
        -13    1    3    3    0    0  0.10941657460E+02 -0.39633622430E+02 -0.54708072242E+01  0.41478726965E+02  0.10566000000E+00 0. -1.
         23    2    1    0    0    0 -0.22762093428E+02 -0.45002577650E+01  0.18102205099E+02  0.95571186796E+02  0.90927425450E+02 0.  0.
         13    1    3    3    0    0 -0.33703750887E+02  0.35133364665E+02  0.23573012323E+02  0.54092459831E+02  0.10566000000E+00 0.  1.
         22    1    1    0    0    0  0.22762093428E+02  0.45002577650E+01 -0.18102205099E+02  0.29428813204E+02  0.00000000000E+00 0.  1.
</event>
<event>
 5    1  0.8943113E-005  0.9118800E+02  0.7818608E-02  0.1130116E+00
         25   -1    0    0    0    0  0.00000000000E+00  0.00000000000E+00  0.99999998245E-14  0.12500000000E+03  0.12500000000E+03 0.  0.
        -13    1    3    3    0    0  0.35436014132E+02  0.12851647439E+02 -0.43545493844E+02  0.57594245699E+02  0.10566000000E+00 0. -1.
         23    2    1    0    0    0  0.11572048793E+02  0.22121094399E+02 -0.15281547427E+02  0.95729181385E+02  0.91144365411E+02 0.  0.
         13    1    3    3    0    0 -0.23863965340E+02  0.92694469599E+01  0.28263946417E+02  0.38134935686E+02  0.10566000000E+00 0.  1.
         22    1    1    0    0    0 -0.11572048793E+02 -0.22121094399E+02  0.15281547427E+02  0.29270818615E+02  0.00000000000E+00 0. -1.
</event>
<event>
 5    1  0.8943113E-005  0.9118800E+02  0.7818608E-02  0.1130116E+00
         25   -1    0    0    0    0  0.00000000000E+00  0.00000000000E+00  0.99999998245E-14  0.12500000000E+03  0.12500000000E+03 0.  0.
        -13    1    3    3    0    0 -0.34739151050E+02  0.14770709153E+02  0.37851820264E+02  0.53457964102E+02  0.10566000000E+00 0.  1.
         23    2    1    0    0    0 -0.27499680305E+02 -0.10447662546E+02  0.55656032040E+01  0.95060694588E+02  0.90222910876E+02 0.  0.
         13    1    3    3    0    0  0.72394707448E+01 -0.25218371699E+02 -0.32286217060E+02  0.41602730486E+02  0.10566000000E+00 0. -1.
         22    1    1    0    0    0  0.27499680305E+02  0.10447662546E+02 -0.55656032040E+01  0.29939305412E+02  0.00000000000E+00 0.  1.
</event>
<event>
 5    1  0.8943113E-005  0.9118800E+02  0.7818608E-02  0.1130116E+00
         25   -1    0    0    0    0  0.00000000000E+00  0.00000000000E+00  0.99999998245E-14  0.12500000000E+03  0.12500000000E+03 0.  0.
        -13    1    3    3    0    0 -0.35282363087E+02  0.44099607056E+02  0.72189712366E+01  0.56936325815E+02  0.10566000000E+00 0.  1.
         23    2    1    0    0    0 -0.27481249900E+02  0.60006671157E+01  0.77271111170E+01  0.95829203848E+02  0.91281438212E+02 0.  0.
         13    1    3    3    0    0  0.78011131874E+01 -0.38098939941E+02  0.50813988040E+00  0.38892878034E+02  0.10566000000E+00 0. -1.
         22    1    1    0    0    0  0.27481249900E+02 -0.60006671157E+01 -0.77271111170E+01  0.29170796152E+02  0.00000000000E+00 0.  1.
</event>
<event>
 5    1  0.8943113E-005  0.9118800E+02  0.7818608E-02  0.1130116E+00
         25   -1    0    0    0    0  0.00000000000E+00  0.00000000000E+00  0.99999998245E-14  0.12500000000E+03  0.12500000000E+03 0.  0.
        -13    1    3    3    0    0 -0.37050217771E+00 -0.92343384664E+01 -0.37646128950E+02  0.38764061549E+02  0.10566000000E+00 0.  1.
         23    2    1    0    0    0  0.51430238946E+01 -0.28453544193E+02  0.13062033362E+02  0.93271911696E+02  0.87709622755E+02 0.  0.
         13    1    3    3    0    0  0.55135260723E+01 -0.19219205726E+02  0.50708162312E+02  0.54507850147E+02  0.10566000000E+00 0. -1.
         22    1    1    0    0    0 -0.51430238946E+01  0.28453544193E+02 -0.13062033362E+02  0.31728088304E+02  0.00000000000E+00 0. -1.
</event>
<event>
 5    1  0.8943113E-005  0.9118800E+02  0.7818608E-02  0.1130116E+00
         25   -1    0    0    0    0  0.00000000000E+00  0.00000000000E+00  0.99999998245E-14  0.12500000000E+03  0.12500000000E+03 0.  0.
        -13    1    3    3    0    0  0.35644008698E+02 -0.37950162036E+01  0.13279185647E+02  0.38226240196E+02  0.10566000000E+00 0.  1.
         23    2    1    0    0    0 -0.42086389287E+01  0.12080004871E+02 -0.25766141006E+02  0.96233123533E+02  0.91832896520E+02 0.  0.
         13    1    3    3    0    0 -0.39852647627E+02  0.15875021074E+02 -0.39045326653E+02  0.58006883337E+02  0.10566000000E+00 0. -1.
         22    1    1    0    0    0  0.42086389287E+01 -0.12080004871E+02  0.25766141006E+02  0.28766876467E+02  0.00000000000E+00 0. -1.
</event>
<event>
 5    1  0.8943113E-005  0.9118800E+02  0.7818608E-02  0.1130116E+00
         25   -1    0    0    0    0  0.00000000000E+00  0.00000000000E+00  0.99999998245E-14  0.12500000000E+03  0.12500000000E+03 0.  0.
        -13    1    3    3    0    0  0.15203248454E+02 -0.25839999199E+02 -0.36391776946E+02  0.47151001214E+02  0.10566000000E+00 0. -1.
         23    2    1    0    0    0 -0.14616659721E+02 -0.31931871611E+02 -0.75552769631E+01  0.89078232560E+02  0.81514159138E+02 0.  0.
         13    1    3    3    0    0 -0.29819908175E+02 -0.60918724125E+01  0.28836499983E+02  0.41927231346E+02  0.10566000000E+00 0.  1.
         22    1    1    0    0    0  0.14616659721E+02  0.31931871611E+02  0.75552769631E+01  0.35921767440E+02  0.00000000000E+00 0.  1.
</event>
<event>
 5    1  0.8943113E-005  0.9118800E+02  0.7818608E-02  0.1130116E+00
         25   -1    0    0    0    0  0.00000000000E+00  0.00000000000E+00  0.99999998245E-14  0.12500000000E+03  0.12500000000E+03 0.  0.
        -13    1    3    3    0    0  0.36744702785E+02 -0.46940264926E+01 -0.37528841423E+02  0.52731699860E+02  0.10566000000E+00 0.  1.
         23    2    1    0    0    0  0.70455767696E+01 -0.24854109813E+02 -0.14576867224E+02  0.95337700954E+02  0.90605878609E+02 0.  0.
         13    1    3    3    0    0 -0.29699126015E+02 -0.20160083321E+02  0.22951974199E+02  0.42606001094E+02  0.10566000000E+00 0. -1.
         22    1    1    0    0    0 -0.70455767696E+01  0.24854109813E+02  0.14576867224E+02  0.29662299046E+02  0.00000000000E+00 0.  1.
</event>
<event>
 5    1  0.8943113E-005  0.9118800E+02  0.7818608E-02  0.1130116E+00
         25   -1    0    0    0    0  0.00000000000E+00  0.00000000000E+00  0.99999998245E-14  0.12500000000E+03  0.12500000000E+03 0.  0.
        -13    1    3    3    0    0 -0.22200644137E+02 -0.42255303396E+02  0.12153414802E+02  0.49255415140E+02  0.10566000000E+00 0. -1.
         23    2    1    0    0    0  0.64549622995E+01 -0.13931797095E+02  0.28412918989E+02  0.92703630637E+02  0.86895958820E+02 0.  0.
         13    1    3    3    0    0  0.28655606436E+02  0.28323506302E+02  0.16259504186E+02  0.43448215497E+02  0.10566000000E+00 0.  1.
         22    1    1    0    0    0 -0.64549622995E+01  0.13931797095E+02 -0.28412918989E+02  0.32296369363E+02  0.00000000000E+00 0. -1.
</event>
<event>
 5    1  0.8943113E-005  0.9118800E+02  0.7818608E-02  0.1130116E+00
         25   -1    0    0    0    0  0.00000000000E+00  0.00000000000E+00  0.99999998245E-14  0.12500000000E+03  0.12500000000E+03 0.  0.
        -13    1    3    3    0    0 -0.10833677540E+02  0.54078972683E+02 -0.21327742946E+02  0.59133642191E+02  0.10566000000E+00 0.  1.
         23    2    1    0    0    0  0.68927715033E+01  0.34694790049E+02 -0.16995556820E+02  0.85756048782E+02  0.76249670134E+02 0.  0.
         13    1    3    3    0    0  0.17726449043E+02 -0.19384182634E+02  0.43321861258E+01  0.26622406592E+02  0.10566000000E+00 0. -1.
         22    1    1    0    0    0 -0.68927715033E+01 -0.34694790049E+02  0.16995556820E+02  0.39243951218E+02  0.00000000000E+00 0.  1.
</event>
<event>
 5    1  0.8943113E-005  0.9118800E+02  0.7818608E-02  0.1130116E+00
         25   -1    0    0    0    0  0.00000000000E+00  0.00000000000E+00  0.99999998245E-14  0.12500000000E+03  0.12500000000E+03 0.  0.
        -13    1    3    3    0    0  0.89118266824E+01  0.16249734314E+02 -0.26780462948E+02  0.32568065338E+02  0.10566000000E+00 0. -1.
         23    2    1    0    0    0  0.35014924438E+01 -0.23127818941E+01  0.31113165349E+02  0.93605120362E+02  0.88183218872E+02 0.  0.
         13    1    3    3    0    0 -0.54103342386E+01 -0.18562516208E+02  0.57893628297E+02  0.61037055024E+02  0.10566000000E+00 0.  1.
         22    1    1    0    0    0 -0.35014924438E+01  0.23127818941E+01 -0.31113165349E+02  0.31394879638E+02  0.00000000000E+00 0.  1.
</event>
<event>
 5    1  0.8943113E-005  0.9118800E+02  0.7818608E-02  0.1130116E+00
         25   -1    0    0    0    0  0.00000000000E+00  0.00000000000E+00  0.99999998245E-14  0.12500000000E+03  0.12500000000E+03 0.  0.
        -13    1    3    3    0    0 -0.96827220368E+01 -0.60346723726E+01 -0.40094165853E+02  0.41686036945E+02  0.10566000000E+00 0. -1.
         23    2    1    0    0    0 -0.17459666980E+02  0.27249365889E+02 -0.24327996468E+01  0.92545625464E+02  0.86668370043E+02 0.  0.
         13    1    3    3    0    0 -0.77769449432E+01  0.33284038262E+02  0.37661366207E+02  0.50859588518E+02  0.10566000000E+00 0.  1.
         22    1    1    0    0    0  0.17459666980E+02 -0.27249365889E+02  0.24327996468E+01  0.32454374536E+02  0.00000000000E+00 0.  1.
</event>
<event>
 5    1  0.8943113E-005  0.9118800E+02  0.7818608E-02  0.1130116E+00
         25   -1    0    0    0    0  0.00000000000E+00  0.00000000000E+00  0.99999998245E-14  0.12500000000E+03  0.12500000000E+03 0.  0.
        -13    1    3    3    0    0  0.24788859097E+02 -0.27004908087E+02 -0.42310595407E+02  0.55981695614E+02  0.10566000000E+00 0.  1.
         23    2    1    0    0    0 -0.44037881940E+00  0.32949760039E+01 -0.26224912294E+02  0.98565234534E+02  0.94954244948E+02 0.  0.
         13    1    3    3    0    0 -0.25229237916E+02  0.30299884091E+02  0.16085683112E+02  0.42583538920E+02  0.10566000000E+00 0. -1.
         22    1    1    0    0    0  0.44037881940E+00 -0.32949760039E+01  0.26224912294E+02  0.26434765466E+02  0.00000000000E+00 0.  1.
</event>
<event>
 5    1  0.8943113E-005  0.9118800E+02  0.7818608E-02  0.1130116E+00
         25   -1    0    0    0    0  0.00000000000E+00  0.00000000000E+00  0.99999998245E-14  0.12500000000E+03  0.12500000000E+03 0.  0.
        -13    1    3    3    0    0 -0.24954420721E+02 -0.51677278082E+02  0.42888487321E+01  0.57547107408E+02  0.10566000000E+00 0.  1.
         23    2    1    0    0    0 -0.20452924697E+02 -0.16877560393E+02 -0.11587419500E+02  0.96061401829E+02  0.91598856200E+02 0.  0.
         13    1    3    3    0    0  0.45014960242E+01  0.34799717690E+02 -0.15876268232E+02  0.38514294421E+02  0.10566000000E+00 0. -1.
         22    1    1    0    0    0  0.20452924697E+02  0.16877560393E+02  0.11587419500E+02  0.28938598171E+02  0.00000000000E+00 0.  1.
</event>
<event>
 5    1  0.8943113E-005  0.9118800E+02  0.7818608E-02  0.1130116E+00
         25   -1    0    0    0    0  0.00000000000E+00  0.00000000000E+00  0.99999998245E-14  0.12500000000E+03  0.12500000000E+03 0.  0.
        -13    1    3    3    0    0  0.28644847234E+02  0.29202184759E+02 -0.10765588678E+02  0.42298982628E+02  0.10566000000E+00 0.  1.
         23    2    1    0    0    0  0.15533426106E+02 -0.57755267287E+01  0.25647067250E+02  0.94464510908E+02  0.89393107827E+02 0.  0.
         13    1    3    3    0    0 -0.13111421128E+02 -0.34977711487E+02  0.36412655928E+02  0.52165528279E+02  0.10566000000E+00 0. -1.
         22    1    1    0    0    0 -0.15533426106E+02  0.57755267287E+01 -0.25647067250E+02  0.30535489092E+02  0.00000000000E+00 0. -1.
</event>
<event>
 5    1  0.8943113E-005  0.9118800E+02  0.7818608E-02  0.1130116E+00
         25   -1    0    0    0    0  0.00000000000E+00  0.00000000000E+00  0.99999998245E-14  0.12500000000E+03  0.12500000000E+03 0.  0.
        -13    1    3    3    0    0 -0.36656320965E+02 -0.17259724973E+02 -0.91356115509E+01  0.41533775837E+02  0.10566000000E+00 0.  1.
         23    2    1    0    0    0  0.13985714085E+02 -0.21053854998E+01 -0.24611967729E+02  0.96613703974E+02  0.92349477495E+02 0.  0.
         13    1    3    3    0    0  0.50642035051E+02  0.15154339473E+02 -0.15476356178E+02  0.55079928137E+02  0.10566000000E+00 0. -1.
         22    1    1    0    0    0 -0.13985714085E+02  0.21053854998E+01  0.24611967729E+02  0.28386296026E+02  0.00000000000E+00 0. -1.
</event>
<event>
 5    1  0.8943113E-005  0.9118800E+02  0.7818608E-02  0.1130116E+00
         25   -1    0    0    0    0  0.00000000000E+00  0.00000000000E+00  0.99999998245E-14  0.12500000000E+03  0.12500000000E+03 0.  0.
        -13    1    3    3    0    0 -0.30675409041E+01 -0.27646285505E+02 -0.44342290852E+02  0.52344788007E+02  0.10566000000E+00 0.  1.
         23    2    1    0    0    0  0.15700840118E+02  0.64059970959E+01 -0.22115716648E+02  0.97131413705E+02  0.93047586891E+02 0.  0.
         13    1    3    3    0    0  0.18768381023E+02  0.34052282601E+02  0.22226574204E+02  0.44786625698E+02  0.10566000000E+00 0. -1.
         22    1    1    0    0    0 -0.15700840118E+02 -0.64059970959E+01  0.22115716648E+02  0.27868586295E+02  0.00000000000E+00 0.  1.
</event>
<event>
 5    1  0.8943113E-005  0.9118800E+02  0.7818608E-02  0.1130116E+00
         25   -1    0    0    0    0  0.00000000000E+00  0.00000000000E+00  0.99999998245E-14  0.12500000000E+03  0.12500000000E+03 0.  0.
        -13    1    3    3    0    0  0.26231966906E+02  0.30428639503E+02 -0.19453030328E+02  0.44636865288E+02  0.10566000000E+00 0.  1.
         23    2    1    0    0    0  0.10507581098E+02  0.68520009061E+01  0.24812398811E+02  0.97196865074E+02  0.93135472665E+02 0.  0.
         13    1    3    3    0    0 -0.15724385808E+02 -0.23576638597E+02  0.44265429139E+02  0.52559999786E+02  0.10566000000E+00 0. -1.
         22    1    1    0    0    0 -0.10507581098E+02 -0.68520009061E+01 -0.24812398811E+02  0.27803134926E+02  0.00000000000E+00 0.  1.
</event>
<event>
 5    1  0.8943113E-005  0.9118800E+02  0.7818608E-02  0.1130116E+00
         25   -1    0    0    0    0  0.00000000000E+00  0.00000000000E+00  0.99999998245E-14  0.12500000000E+03  0.12500000000E+03 0.  0.
        -13    1    3    3    0    0  0.11340781053E+02  0.27887171018E+02 -0.26807794803E+02  0.40310999101E+02  0.10566000000E+00 0. -1.
         23    2    1    0    0    0  0.28247266758E+02 -0.85969668464E+01  0.89766835140E+01  0.94139073812E+02  0.88936879038E+02 0.  0.
         13    1    3    3    0    0  0.16906485705E+02 -0.36484137865E+02  0.35784478317E+02  0.53828074711E+02  0.10566000000E+00 0.  1.
         22    1    1    0    0    0 -0.28247266758E+02  0.85969668464E+01 -0.89766835140E+01  0.30860926188E+02  0.00000000000E+00 0. -1.
</event>
<event>
 5    1  0.8943113E-005  0.9118800E+02  0.7818608E-02  0.1130116E+00
         25   -1    0    0    0    0  0.00000000000E+00  0.00000000000E+00  0.99999998245E-14  0.12500000000E+03  0.12500000000E+03 0.  0.
        -13    1    3    3    0    0 -0.87548118726E+01 -0.34239717027E+02  0.11771449666E+02  0.37250277104E+02  0.10566000000E+00 0.  1.
         23    2    1    0    0    0  0.30693239390E+01  0.53452865325E+01 -0.29034459578E+02  0.95318479140E+02  0.90579356285E+02 0.  0.
         13    1    3    3    0    0  0.11824135812E+02  0.39585003560E+02 -0.40805909244E+02  0.58068202037E+02  0.10566000000E+00 0. -1.
         22    1    1    0    0    0 -0.30693239390E+01 -0.53452865325E+01  0.29034459578E+02  0.29681520860E+02  0.00000000000E+00 0. -1.
</event>
<event>
 5    1  0.8943113E-005  0.9118800E+02  0.7818608E-02  0.1130116E+00
         25   -1    0    0    0    0  0.00000000000E+00  0.00000000000E+00  0.99999998245E-14  0.12500000000E+03  0.12500000000E+03 0.  0.
        -13    1    3    3    0    0 -0.37170138327E+01  0.42069027627E+02  0.56807884847E+01  0.42613399292E+02  0.10566000000E+00 0. -1.
         23    2    1    0    0    0 -0.23793594087E+02 -0.77803942538E+01  0.12902822727E+02  0.96837036934E+02  0.92651277560E+02 0.  0.
         13    1    3    3    0    0 -0.20076580254E+02 -0.49849421881E+02  0.72220342428E+01  0.54223637643E+02  0.10566000000E+00 0.  1.
         22    1    1    0    0    0  0.23793594087E+02  0.77803942538E+01 -0.12902822727E+02  0.28162963066E+02  0.00000000000E+00 0.  1.
</event>
<event>
 5    1  0.8943113E-005  0.9118800E+02  0.7818608E-02  0.1130116E+00
         25   -1    0    0    0    0  0.00000000000E+00  0.00000000000E+00  0.99999998245E-14  0.12500000000E+03  0.12500000000E+03 0.  0.
        -13    1    3    3    0    0  0.29007435454E+02 -0.74173205884E+00  0.18389916845E+02  0.34353772481E+02  0.10566000000E+00 0.  1.
         23    2    1    0    0    0 -0.22185100574E+02 -0.42126436985E+01 -0.17042524245E+02  0.96709141281E+02  0.92478566815E+02 0.  0.
         13    1    3    3    0    0 -0.51192536028E+02 -0.34709116397E+01 -0.35432441090E+02  0.62355368800E+02  0.10566000000E+00 0. -1.
         22    1    1    0    0    0  0.22185100574E+02  0.42126436985E+01  0.17042524245E+02  0.28290858719E+02  0.00000000000E+00 0. -1.
</event>
<event>
 5    1  0.8943113E-005  0.9118800E+02  0.7818608E-02  0.1130116E+00
         25   -1    0    0    0    0  0.00000000000E+00  0.00000000000E+00  0.99999998245E-14  0.12500000000E+03  0.12500000000E+03 0.  0.
        -13    1    3    3    0    0 -0.34126978806E+02  0.17546446994E+02  0.48342377991E+02  0.61721350913E+02  0.10566000000E+00 0. -1.
         23    2    1    0    0    0 -0.22837887068E+02  0.41331928621E+01  0.25439137379E+02  0.90564522951E+02  0.83762346778E+02 0.  0.
         13    1    3    3    0    0  0.11289091739E+02 -0.13413254132E+02 -0.22903240612E+02  0.28843172039E+02  0.10566000000E+00 0.  1.
         22    1    1    0    0    0  0.22837887068E+02 -0.41331928621E+01 -0.25439137379E+02  0.34435477049E+02  0.00000000000E+00 0. -1.
</event>
<event>
 4    1  0.8943113E-005  0.9118800E+02  0.7818608E-02  0.1130116E+00
         25   -1    0    0    0    0  0.00000000000E+00  0.00000000000E+00  0.99999998245E-14  0.12500000000E+03  0.12500000000E+03 0.  0.
        -13    1    1    0    0    0 -0.22039294179E+01 -0.38330711325E+01  0.42166808509E+02  0.42398120749E+02  0.10566000000E+00 0.  1.
         13    1    1    0    0    0  0.10556427679E+02  0.26491463896E+02  0.56143755080E+01  0.29064896371E+02  0.10566000000E+00 0. -1.
         22    1    1    0    0    0 -0.83524982611E+01 -0.22658392763E+02 -0.47781184017E+02  0.53536982880E+02  0.00000000000E+00 0.  1.
</event>
<event>
 5    1  0.8943113E-005  0.9118800E+02  0.7818608E-02  0.1130116E+00
         25   -1    0    0    0    0  0.00000000000E+00  0.00000000000E+00  0.99999998245E-14  0.12500000000E+03  0.12500000000E+03 0.  0.
        -13    1    3    3    0    0 -0.11145922383E+02 -0.33135513482E+02  0.13922713760E+02  0.37630399439E+02  0.10566000000E+00 0.  1.
         23    2    1    0    0    0 -0.12856221306E+02  0.24896457500E+02  0.19276538112E+01  0.96913849116E+02  0.92754850433E+02 0.  0.
         13    1    3    3    0    0 -0.17102989231E+01  0.58031970981E+02 -0.11995059949E+02  0.59283449677E+02  0.10566000000E+00 0. -1.
         22    1    1    0    0    0  0.12856221306E+02 -0.24896457500E+02 -0.19276538112E+01  0.28086150884E+02  0.00000000000E+00 0. -1.
</event>
<event>
 5    1  0.8943113E-005  0.9118800E+02  0.7818608E-02  0.1130116E+00
         25   -1    0    0    0    0  0.00000000000E+00  0.00000000000E+00  0.99999998245E-14  0.12500000000E+03  0.12500000000E+03 0.  0.
        -13    1    3    3    0    0 -0.10380633582E+01  0.35853059362E+02  0.32364793445E+02  0.48311597572E+02  0.10566000000E+00 0. -1.
         23    2    1    0    0    0  0.20053309924E+02 -0.59104038005E+01  0.18430564386E+02  0.97129696529E+02  0.93045280010E+02 0.  0.
         13    1    3    3    0    0  0.21091373282E+02 -0.41763463163E+02 -0.13934229059E+02  0.48818098957E+02  0.10566000000E+00 0.  1.
         22    1    1    0    0    0 -0.20053309924E+02  0.59104038005E+01 -0.18430564386E+02  0.27870303471E+02  0.00000000000E+00 0.  1.
</event>
<event>
 5    1  0.8943113E-005  0.9118800E+02  0.7818608E-02  0.1130116E+00
         25   -1    0    0    0    0  0.00000000000E+00  0.00000000000E+00  0.99999998245E-14  0.12500000000E+03  0.12500000000E+03 0.  0.
        -13    1    3    3    0    0 -0.30089764147E+02 -0.18896928943E+02  0.47510803645E+02  0.59327695530E+02  0.10566000000E+00 0.  1.
         23    2    1    0    0    0 -0.25369896811E+02  0.44220066462E+00  0.24972640168E+02  0.89398596059E+02  0.82003957311E+02 0.  0.
         13    1    3    3    0    0  0.47198673357E+01  0.19339129607E+02 -0.22538163477E+02  0.30070900528E+02  0.10566000000E+00 0. -1.
         22    1    1    0    0    0  0.25369896811E+02 -0.44220066462E+00 -0.24972640168E+02  0.35601403941E+02  0.00000000000E+00 0.  1.
</event>
<event>
 5    1  0.8943113E-005  0.9118800E+02  0.7818608E-02  0.1130116E+00
         25   -1    0    0    0    0  0.00000000000E+00  0.00000000000E+00  0.99999998245E-14  0.12500000000E+03  0.12500000000E+03 0.  0.
        -13    1    3    3    0    0 -0.42944795144E+01  0.50079375145E+02  0.19234139148E+02  0.53817744676E+02  0.10566000000E+00 0.  1.
         23    2    1    0    0    0 -0.24585465602E+02  0.18610543810E+02  0.56354074312E+01  0.93654262225E+02  0.88252850130E+02 0.  0.
         13    1    3    3    0    0 -0.20290986088E+02 -0.31468831335E+02 -0.13598731717E+02  0.39836517548E+02  0.10566000000E+00 0. -1.
         22    1    1    0    0    0  0.24585465602E+02 -0.18610543810E+02 -0.56354074312E+01  0.31345737775E+02  0.00000000000E+00 0.  1.
</event>
<event>
 5    1  0.8943113E-005  0.9118800E+02  0.7818608E-02  0.1130116E+00
         25   -1    0    0    0    0  0.00000000000E+00  0.00000000000E+00  0.99999998245E-14  0.12500000000E+03  0.12500000000E+03 0.  0.
        -13    1    3    3    0    0  0.83812941480E+01 -0.24990899978E+02  0.24039489689E+02  0.35674912780E+02  0.10566000000E+00 0.  1.
         23    2    1    0    0    0 -0.22865130702E+02  0.17293109796E+02 -0.52436005986E+01  0.95856197988E+02  0.91318396269E+02 0.  0.
         13    1    3    3    0    0 -0.31246424850E+02  0.42284009774E+02 -0.29283090288E+02  0.60181285208E+02  0.10566000000E+00 0. -1.
         22    1    1    0    0    0  0.22865130702E+02 -0.17293109796E+02  0.52436005986E+01  0.29143802012E+02  0.00000000000E+00 0. -1.
</event>
<event>
 5    1  0.8943113E-005  0.9118800E+02  0.7818608E-02  0.1130116E+00
         25   -1    0    0    0    0  0.00000000000E+00  0.00000000000E+00  0.99999998245E-14  0.12500000000E+03  0.12500000000E+03 0.  0.
        -13    1    3    3    0    0  0.94603310351E+01 -0.11449380637E+02 -0.37157955529E+02  0.40016384187E+02  0.10566000000E+00 0.  1.
         23    2    1    0    0    0 -0.29075430361E+02  0.50196115401E+01 -0.82198727342E+00  0.95483008051E+02  0.90806123211E+02 0.  0.
         13    1    3    3    0    0 -0.38535761396E+02  0.16468992177E+02  0.36335968256E+02  0.55466623863E+02  0.10566000000E+00 0. -1.
         22    1    1    0    0    0  0.29075430361E+02 -0.50196115401E+01  0.82198727342E+00  0.29516991949E+02  0.00000000000E+00 0.  1.
</event>
<event>
 5    1  0.8943113E-005  0.9118800E+02  0.7818608E-02  0.1130116E+00
         25   -1    0    0    0    0  0.00000000000E+00  0.00000000000E+00  0.99999998245E-14  0.12500000000E+03  0.12500000000E+03 0.  0.
        -13    1    3    3    0    0  0.20776005447E+01 -0.16735881917E+02  0.29993755391E+02  0.34409921448E+02  0.10566000000E+00 0. -1.
         23    2    1    0    0    0  0.10947035977E+02  0.68731980403E+01 -0.26079002911E+02  0.95893422722E+02  0.91369336654E+02 0.  0.
         13    1    3    3    0    0  0.88694354319E+01  0.23609079958E+02 -0.56072758302E+02  0.61483501274E+02  0.10566000000E+00 0.  1.
         22    1    1    0    0    0 -0.10947035977E+02 -0.68731980403E+01  0.26079002911E+02  0.29106577278E+02  0.00000000000E+00 0.  1.
</event>
<event>
 5    1  0.8943113E-005  0.9118800E+02  0.7818608E-02  0.1130116E+00
         25   -1    0    0    0    0  0.00000000000E+00  0.00000000000E+00  0.99999998245E-14  0.12500000000E+03  0.12500000000E+03 0.  0.
        -13    1    3    3    0    0  0.66170472072E+01  0.33635516000E+02 -0.95656323168E+01  0.35589966789E+02  0.10566000000E+00 0. -1.
         23    2    1    0    0    0 -0.29876192412E+02 -0.10085911458E+02 -0.75506966138E+01  0.92575850013E+02  0.86711951329E+02 0.  0.
         13    1    3    3    0    0 -0.36493239620E+02 -0.43721427459E+02  0.20149357031E+01  0.56985883225E+02  0.10566000000E+00 0.  1.
         22    1    1    0    0    0  0.29876192412E+02  0.10085911458E+02  0.75506966138E+01  0.32424149987E+02  0.00000000000E+00 0.  1.
</event>
<event>
 5    1  0.8943113E-005  0.9118800E+02  0.7818608E-02  0.1130116E+00
         25   -1    0    0    0    0  0.00000000000E+00  0.00000000000E+00  0.99999998245E-14  0.12500000000E+03  0.12500000000E+03 0.  0.
        -13    1    3    3    0    0 -0.25034656398E+02  0.41757357794E+02 -0.22462066422E+02  0.53618714484E+02  0.10566000000E+00 0.  1.
         23    2    1    0    0    0 -0.22688841529E+02  0.20720874787E+02  0.10273149038E+02  0.92601299825E+02  0.86748630861E+02 0.  0.
         13    1    3    3    0    0  0.23458148698E+01 -0.21036483006E+02  0.32735215460E+02  0.38982585342E+02  0.10566000000E+00 0. -1.
         22    1    1    0    0    0  0.22688841529E+02 -0.20720874787E+02 -0.10273149038E+02  0.32398700175E+02  0.00000000000E+00 0.  1.
</event>
<event>
 5    1  0.8943113E-005  0.9118800E+02  0.7818608E-02  0.1130116E+00
         25   -1    0    0    0    0  0.00000000000E+00  0.00000000000E+00  0.99999998245E-14  0.12500000000E+03  0.12500000000E+03 0.  0.
        -13    1    3    3    0    0  0.33262846912E+02  0.67598506134E+01  0.22125662522E+02  0.40517510672E+02  0.10566000000E+00 0.  1.
         23    2    1    0    0    0 -0.17226823253E+02  0.22689917466E+02  0.57341836813E+01  0.95940119469E+02  0.91433198934E+02 0.  0.
         13    1    3    3    0    0 -0.50489670165E+02  0.15930066852E+02 -0.16391478841E+02  0.55422608797E+02  0.10566000000E+00 0. -1.
         22    1    1    0    0    0  0.17226823253E+02 -0.22689917466E+02 -0.57341836813E+01  0.29059880531E+02  0.00000000000E+00 0. -1.
</event>
<event>
 5    1  0.8943113E-005  0.9118800E+02  0.7818608E-02  0.1130116E+00
         25   -1    0    0    0    0  0.00000000000E+00  0.00000000000E+00  0.99999998245E-14  0.12500000000E+03  0.12500000000E+03 0.  0.
        -13    1    3    3    0    0  0.37490697641E+02 -0.21416608821E+01 -0.15207602835E+02  0.40514459999E+02  0.10566000000E+00 0.  1.
         23    2    1    0    0    0 -0.19955396009E+02  0.99563186886E+01 -0.12835800342E+02  0.99268620672E+02  0.95875727731E+02 0.  0.
         13    1    3    3    0    0 -0.57446093650E+02  0.12097979571E+02  0.23718024931E+01  0.58754160673E+02  0.10566000000E+00 0. -1.
         22    1    1    0    0    0  0.19955396009E+02 -0.99563186886E+01  0.12835800342E+02  0.25731379328E+02  0.00000000000E+00 0. -1.
</event>
<event>
 5    1  0.8943113E-005  0.9118800E+02  0.7818608E-02  0.1130116E+00
         25   -1    0    0    0    0  0.00000000000E+00  0.00000000000E+00  0.99999998245E-14  0.12500000000E+03  0.12500000000E+03 0.  0.
        -13    1    3    3    0    0 -0.43210378505E+02 -0.71065217087E+01  0.11480325683E+02  0.45270835017E+02  0.10566000000E+00 0.  1.
         23    2    1    0    0    0 -0.10411266152E+02  0.15868934863E+02 -0.20898874462E+02  0.96769156755E+02  0.92559652056E+02 0.  0.
         13    1    3    3    0    0  0.32799112353E+02  0.22975456571E+02 -0.32379200145E+02  0.51498321738E+02  0.10566000000E+00 0. -1.
         22    1    1    0    0    0  0.10411266152E+02 -0.15868934863E+02  0.20898874462E+02  0.28230843245E+02  0.00000000000E+00 0. -1.
</event>
<event>
 5    1  0.8943113E-005  0.9118800E+02  0.7818608E-02  0.1130116E+00
         25   -1    0    0    0    0  0.00000000000E+00  0.00000000000E+00  0.99999998245E-14  0.12500000000E+03  0.12500000000E+03 0.  0.
        -13    1    3    3    0    0  0.32826564017E+02 -0.44450972212E+01 -0.25326293026E+02  0.41698614808E+02  0.10566000000E+00 0. -1.
         23    2    1    0    0    0  0.37469410872E+01  0.27151377560E+02  0.84349565071E+01  0.96322737889E+02  0.91954795809E+02 0.  0.
         13    1    3    3    0    0 -0.29079622930E+02  0.31596474781E+02  0.33761249533E+02  0.54624123081E+02  0.10566000000E+00 0.  1.
         22    1    1    0    0    0 -0.37469410872E+01 -0.27151377560E+02 -0.84349565071E+01  0.28677262111E+02  0.00000000000E+00 0.  1.
</event>
<event>
 5    1  0.8943113E-005  0.9118800E+02  0.7818608E-02  0.1130116E+00
         25   -1    0    0    0    0  0.00000000000E+00  0.00000000000E+00  0.99999998245E-14  0.12500000000E+03  0.12500000000E+03 0.  0.
        -13    1    3    3    0    0  0.50610601370E+02  0.28268591065E+00 -0.29108138180E+02  0.58384995973E+02  0.10566000000E+00 0.  1.
         23    2    1    0    0    0  0.15773125023E+02  0.10840493813E+02 -0.22634304590E+02  0.95358483113E+02  0.90634545170E+02 0.  0.
         13    1    3    3    0    0 -0.34837476347E+02  0.10557807902E+02  0.64738335901E+01  0.36973487140E+02  0.10566000000E+00 0. -1.
         22    1    1    0    0    0 -0.15773125023E+02 -0.10840493813E+02  0.22634304590E+02  0.29641516887E+02  0.00000000000E+00 0.  1.
</event>
<event>
 5    1  0.8943113E-005  0.9118800E+02  0.7818608E-02  0.1130116E+00
         25   -1    0    0    0    0  0.00000000000E+00  0.00000000000E+00  0.99999998245E-14  0.12500000000E+03  0.12500000000E+03 0.  0.
        -13    1    3    3    0    0  0.13730116351E+02  0.41086123336E+02  0.13389654725E+02  0.45341809001E+02  0.10566000000E+00 0.  1.
         23    2    1    0    0    0 -0.25340062718E+02  0.79191370913E+01 -0.52212611698E+00  0.98446203162E+02  0.94797419746E+02 0.  0.
         13    1    3    3    0    0 -0.39070179068E+02 -0.33166986245E+02 -0.13911780842E+02  0.53104394161E+02  0.10566000000E+00 0. -1.
         22    1    1    0    0    0  0.25340062718E+02 -0.79191370913E+01  0.52212611698E+00  0.26553796838E+02  0.00000000000E+00 0.  1.
</event>
<event>
 5    1  0.8943113E-005  0.9118800E+02  0.7818608E-02  0.1130116E+00
         25   -1    0    0    0    0  0.00000000000E+00  0.00000000000E+00  0.99999998245E-14  0.12500000000E+03  0.12500000000E+03 0.  0.
        -13    1    3    3    0    0 -0.42078395546E+02 -0.19527057812E+02  0.19450238367E+02  0.50301295163E+02  0.10566000000E+00 0. -1.
         23    2    1    0    0    0 -0.91044156399E+00  0.58603476427E+00  0.28057692706E+02  0.96921423459E+02  0.92765057348E+02 0.  0.
         13    1    3    3    0    0  0.41167953982E+02  0.20113092577E+02  0.86074543390E+01  0.46620128296E+02  0.10566000000E+00 0.  1.
         22    1    1    0    0    0  0.91044156399E+00 -0.58603476427E+00 -0.28057692706E+02  0.28078576541E+02  0.00000000000E+00 0. -1.
</event>
<event>
 5    1  0.8943113E-005  0.9118800E+02  0.7818608E-02  0.1130116E+00
         25   -1    0    0    0    0  0.00000000000E+00  0.00000000000E+00  0.99999998245E-14  0.12500000000E+03  0.12500000000E+03 0.  0.
        -13    1    3    3    0    0 -0.15371300435E+02  0.18141298081E+02  0.44010587641E+02  0.50023260207E+02  0.10566000000E+00 0. -1.
         23    2    1    0    0    0 -0.17311881898E+02 -0.17726273292E+02  0.18338687197E+02  0.94174207751E+02  0.88986245779E+02 0.  0.
         13    1    3    3    0    0 -0.19405814624E+01 -0.35867571373E+02 -0.25671900445E+02  0.44150947545E+02  0.10566000000E+00 0.  1.
         22    1    1    0    0    0  0.17311881898E+02  0.17726273292E+02 -0.18338687197E+02  0.30825792249E+02  0.00000000000E+00 0. -1.
</event>
<event>
 5    1  0.8943113E-005  0.9118800E+02  0.7818608E-02  0.1130116E+00
         25   -1    0    0    0    0  0.00000000000E+00  0.00000000000E+00  0.99999998245E-14  0.12500000000E+03  0.12500000000E+03 0.  0.
        -13    1    3    3    0    0  0.47674471474E+02  0.20272384551E+02 -0.16979045799E+01  0.51833568754E+02  0.10566000000E+00 0. -1.
         23    2    1    0    0    0  0.19247730750E+02 -0.37084096591E+01  0.21688301712E+02  0.95766288769E+02  0.91195242157E+02 0.  0.
         13    1    3    3    0    0 -0.28426740725E+02 -0.23980794210E+02  0.23386206292E+02  0.43932720015E+02  0.10566000000E+00 0.  1.
         22    1    1    0    0    0 -0.19247730750E+02  0.37084096591E+01 -0.21688301712E+02  0.29233711231E+02  0.00000000000E+00 0. -1.
</event>
<event>
 5    1  0.8943113E-005  0.9118800E+02  0.7818608E-02  0.1130116E+00
         25   -1    0    0    0    0  0.00000000000E+00  0.00000000000E+00  0.99999998245E-14  0.12500000000E+03  0.12500000000E+03 0.  0.
        -13    1    3    3    0    0  0.27744670151E+02  0.28511676323E+01 -0.26306983652E+02  0.38340115174E+02  0.10566000000E+00 0.  1.
         23    2    1    0    0    0 -0.21054164650E+02  0.15704656457E+02  0.57327239429E+01  0.98115465275E+02  0.94360300545E+02 0.  0.
         13    1    3    3    0    0 -0.48798834801E+02  0.12853488825E+02  0.32039707595E+02  0.59775350101E+02  0.10566000000E+00 0. -1.
         22    1    1    0    0    0  0.21054164650E+02 -0.15704656457E+02 -0.57327239429E+01  0.26884534725E+02  0.00000000000E+00 0. -1.
</event>
<event>
 5    1  0.8943113E-005  0.9118800E+02  0.7818608E-02  0.1130116E+00
         25   -1    0    0    0    0  0.00000000000E+00  0.00000000000E+00  0.99999998245E-14  0.12500000000E+03  0.12500000000E+03 0.  0.
        -13    1    3    3    0    0 -0.35480280495E+02 -0.13672070644E+01 -0.18340272686E+02  0.39963687585E+02  0.10566000000E+00 0.  1.
         23    2    1    0    0    0 -0.10290746766E+02 -0.17154844329E+02  0.25287036100E+02  0.92756824789E+02  0.86972445046E+02 0.  0.
         13    1    3    3    0    0  0.25189533729E+02 -0.15787637265E+02  0.43627308786E+02  0.52793137204E+02  0.10566000000E+00 0. -1.
         22    1    1    0    0    0  0.10290746766E+02  0.17154844329E+02 -0.25287036100E+02  0.32243175211E+02  0.00000000000E+00 0. -1.
</event>
<event>
 5    1  0.8943113E-005  0.9118800E+02  0.7818608E-02  0.1130116E+00
         25   -1    0    0    0    0  0.00000000000E+00  0.00000000000E+00  0.99999998245E-14  0.12500000000E+03  0.12500000000E+03 0.  0.
        -13    1    3    3    0    0 -0.47735491951E+01 -0.36122733058E+02  0.37592401971E+01  0.36630338060E+02  0.10566000000E+00 0.  1.
         23    2    1    0    0    0 -0.24667566191E+02  0.13087700737E+02 -0.15459019621E+02  0.93082011028E+02  0.87438565616E+02 0.  0.
         13    1    3    3    0    0 -0.19894016996E+02  0.49210433794E+02 -0.19218259819E+02  0.56451672968E+02  0.10566000000E+00 0. -1.
         22    1    1    0    0    0  0.24667566191E+02 -0.13087700737E+02  0.15459019621E+02  0.31917988972E+02  0.00000000000E+00 0. -1.
</event>
<event>
 5    1  0.8943113E-005  0.9118800E+02  0.7818608E-02  0.1130116E+00
         25   -1    0    0    0    0  0.00000000000E+00  0.00000000000E+00  0.99999998245E-14  0.12500000000E+03  0.12500000000E+03 0.  0.
        -13    1    3    3    0    0  0.72144512918E+01  0.26808074032E+00  0.33311529520E+02  0.34085030992E+02  0.10566000000E+00 0.  1.
         23    2    1    0    0    0 -0.13545833885E+02 -0.27799725386E+01 -0.25205538294E+02  0.96250443071E+02  0.91856468296E+02 0.  0.
         13    1    3    3    0    0 -0.20760285176E+02 -0.30480532789E+01 -0.58517067814E+02  0.62165412079E+02  0.10566000000E+00 0. -1.
         22    1    1    0    0    0  0.13545833885E+02  0.27799725386E+01  0.25205538294E+02  0.28749556929E+02  0.00000000000E+00 0. -1.
</event>
<event>
 5    1  0.8943113E-005  0.9118800E+02  0.7818608E-02  0.1130116E+00
         25   -1    0    0    0    0  0.00000000000E+00  0.00000000000E+00  0.99999998245E-14  0.12500000000E+03  0.12500000000E+03 0.  0.
        -13    1    3    3    0    0 -0.45466331186E+02 -0.31590096850E+02 -0.67242613889E+01  0.55770497091E+02  0.10566000000E+00 0.  1.
         23    2    1    0    0    0 -0.66085789772E+01 -0.26259381048E+02  0.64834603994E+01  0.97156442974E+02  0.93081205103E+02 0.  0.
         13    1    3    3    0    0  0.38857752209E+02  0.53307158020E+01  0.13207721788E+02  0.41385945883E+02  0.10566000000E+00 0. -1.
         22    1    1    0    0    0  0.66085789772E+01  0.26259381048E+02 -0.64834603994E+01  0.27843557026E+02  0.00000000000E+00 0.  1.
</event>
<event>
 5    1  0.8943113E-005  0.9118800E+02  0.7818608E-02  0.1130116E+00
         25   -1    0    0    0    0  0.00000000000E+00  0.00000000000E+00  0.99999998245E-14  0.12500000000E+03  0.12500000000E+03 0.  0.
        -13    1    3    3    0    0 -0.80342277391E+01 -0.36152600984E+02 -0.38378349860E+01  0.37233043317E+02  0.10566000000E+00 0.  1.
         23    2    1    0    0    0 -0.25197927394E+02  0.16593245969E+02  0.76413655133E+01  0.93876667537E+02  0.88567301439E+02 0.  0.
         13    1    3    3    0    0 -0.17163699654E+02  0.52745846953E+02  0.11479200499E+02  0.56643624219E+02  0.10566000000E+00 0. -1.
         22    1    1    0    0    0  0.25197927394E+02 -0.16593245969E+02 -0.76413655133E+01  0.31123332463E+02  0.00000000000E+00 0. -1.
</event>
<event>
 5    1  0.8943113E-005  0.9118800E+02  0.7818608E-02  0.1130116E+00
         25   -1    0    0    0    0  0.00000000000E+00  0.00000000000E+00  0.99999998245E-14  0.12500000000E+03  0.12500000000E+03 0.  0.
        -13    1    3    3    0    0  0.75621704132E+01  0.18039558782E+02 -0.33343285370E+02  0.38657443600E+02  0.10566000000E+00 0.  1.
         23    2    1    0    0    0  0.72309912977E+01  0.18540511843E+02  0.22761488074E+02  0.94765530368E+02  0.89813042438E+02 0.  0.
         13    1    3    3    0    0 -0.33117911547E+00  0.50095306171E+00  0.56104773444E+02  0.56108086768E+02  0.10566000000E+00 0. -1.
         22    1    1    0    0    0 -0.72309912977E+01 -0.18540511843E+02 -0.22761488074E+02  0.30234469632E+02  0.00000000000E+00 0. -1.
</event>
<event>
 5    1  0.8943113E-005  0.9118800E+02  0.7818608E-02  0.1130116E+00
         25   -1    0    0    0    0  0.00000000000E+00  0.00000000000E+00  0.99999998245E-14  0.12500000000E+03  0.12500000000E+03 0.  0.
        -13    1    3    3    0    0  0.41767202984E+01  0.46938126031E+02 -0.21159816912E+01  0.47171190469E+02  0.10566000000E+00 0. -1.
         23    2    1    0    0    0  0.23375985101E+02  0.39813224713E+01 -0.16195155365E+02  0.96284661497E+02  0.91903021572E+02 0.  0.
         13    1    3    3    0    0  0.19199264803E+02 -0.42956803559E+02 -0.14079173673E+02  0.49113471028E+02  0.10566000000E+00 0.  1.
         22    1    1    0    0    0 -0.23375985101E+02 -0.39813224713E+01  0.16195155365E+02  0.28715338503E+02  0.00000000000E+00 0. -1.
</event>
<event>
 5    1  0.8943113E-005  0.9118800E+02  0.7818608E-02  0.1130116E+00
         25   -1    0    0    0    0  0.00000000000E+00  0.00000000000E+00  0.99999998245E-14  0.12500000000E+03  0.12500000000E+03 0.  0.
        -13    1    3    3    0    0 -0.34549342129E+02 -0.84827213969E+01  0.15476034932E+02  0.38796036203E+02  0.10566000000E+00 0. -1.
         23    2    1    0    0    0  0.17908360519E+02  0.17775250352E+02  0.10502873475E+02  0.97669078815E+02  0.93767103527E+02 0.  0.
         13    1    3    3    0    0  0.52457702648E+02  0.26257971749E+02 -0.49731614574E+01  0.58873042612E+02  0.10566000000E+00 0.  1.
         22    1    1    0    0    0 -0.17908360519E+02 -0.17775250352E+02 -0.10502873475E+02  0.27330921185E+02  0.00000000000E+00 0.  1.
</event>
<event>
 5    1  0.8943113E-005  0.9118800E+02  0.7818608E-02  0.1130116E+00
         25   -1    0    0    0    0  0.00000000000E+00  0.00000000000E+00  0.99999998245E-14  0.12500000000E+03  0.12500000000E+03 0.  0.
        -13    1    3    3    0    0 -0.38088352467E+00 -0.49325236103E+02  0.23499295549E+02  0.54638375198E+02  0.10566000000E+00 0.  1.
         23    2    1    0    0    0  0.21106865055E+02 -0.20090554826E+02  0.16242139076E+02  0.91639286167E+02  0.85351166025E+02 0.  0.
         13    1    3    3    0    0  0.21487748580E+02  0.29234681278E+02 -0.72571564728E+01  0.37000910969E+02  0.10566000000E+00 0. -1.
         22    1    1    0    0    0 -0.21106865055E+02  0.20090554826E+02 -0.16242139076E+02  0.33360713833E+02  0.00000000000E+00 0.  1.
</event>
<event>
 5    1  0.8943113E-005  0.9118800E+02  0.7818608E-02  0.1130116E+00
         25   -1    0    0    0    0  0.00000000000E+00  0.00000000000E+00  0.99999998245E-14  0.12500000000E+03  0.12500000000E+03 0.  0.
        -13    1    3    3    0    0 -0.44282293321E+02 -0.16623469690E+02 -0.23578364918E+02  0.52850843915E+02  0.10566000000E+00 0.  1.
         23    2    1    0    0    0 -0.25281097753E+02 -0.22603045387E+02  0.79719258271E+01  0.90163479425E+02  0.83161709075E+02 0.  0.
         13    1    3    3    0    0  0.19001195568E+02 -0.59795756976E+01  0.31550290745E+02  0.37312635510E+02  0.10566000000E+00 0. -1.
         22    1    1    0    0    0  0.25281097753E+02  0.22603045387E+02 -0.79719258271E+01  0.34836520575E+02  0.00000000000E+00 0.  1.
</event>
<event>
 5    1  0.8943113E-005  0.9118800E+02  0.7818608E-02  0.1130116E+00
         25   -1    0    0    0    0  0.00000000000E+00  0.00000000000E+00  0.99999998245E-14  0.12500000000E+03  0.12500000000E+03 0.  0.
        -13    1    3    3    0    0 -0.19477009580E+02  0.50983798882E+02 -0.27454805065E+02  0.61094018822E+02  0.10566000000E+00 0.  1.
         23    2    1    0    0    0  0.15293611903E+00  0.25036852355E+02 -0.14110875930E+02  0.96260059416E+02  0.91869553465E+02 0.  0.
         13    1    3    3    0    0  0.19629945699E+02 -0.25946946528E+02  0.13343929135E+02  0.35166040594E+02  0.10566000000E+00 0. -1.
         22    1    1    0    0    0 -0.15293611903E+00 -0.25036852355E+02  0.14110875930E+02  0.28739940584E+02  0.00000000000E+00 0.  1.
</event>
<event>
 5    1  0.8943113E-005  0.9118800E+02  0.7818608E-02  0.1130116E+00
         25   -1    0    0    0    0  0.00000000000E+00  0.00000000000E+00  0.99999998245E-14  0.12500000000E+03  0.12500000000E+03 0.  0.
        -13    1    3    3    0    0  0.28392601161E+02 -0.42632438236E+02  0.35797321967E+02  0.62490991468E+02  0.10566000000E+00 0.  1.
         23    2    1    0    0    0  0.13574453701E+02 -0.20468706900E+02  0.16254755428E+02  0.95547481781E+02  0.90894831785E+02 0.  0.
         13    1    3    3    0    0 -0.14818147460E+02  0.22163731336E+02 -0.19542566539E+02  0.33056490313E+02  0.10566000000E+00 0. -1.
         22    1    1    0    0    0 -0.13574453701E+02  0.20468706900E+02 -0.16254755428E+02  0.29452518219E+02  0.00000000000E+00 0.  1.
</event>
<event>
 5    1  0.8943113E-005  0.9118800E+02  0.7818608E-02  0.1130116E+00
         25   -1    0    0    0    0  0.00000000000E+00  0.00000000000E+00  0.99999998245E-14  0.12500000000E+03  0.12500000000E+03 0.  0.
        -13    1    3    3    0    0  0.39058825797E+02 -0.29417067753E+02 -0.60066069117E+01  0.49265061031E+02  0.10566000000E+00 0. -1.
         23    2    1    0    0    0  0.14008131867E+02 -0.80261223934E+01  0.25481201242E+02  0.94834821137E+02  0.89909428228E+02 0.  0.
         13    1    3    3    0    0 -0.25050693929E+02  0.21390945359E+02  0.31487808154E+02  0.45569760106E+02  0.10566000000E+00 0.  1.
         22    1    1    0    0    0 -0.14008131867E+02  0.80261223934E+01 -0.25481201242E+02  0.30165178863E+02  0.00000000000E+00 0. -1.
</event>
<event>
 5    1  0.8943113E-005  0.9118800E+02  0.7818608E-02  0.1130116E+00
         25   -1    0    0    0    0  0.00000000000E+00  0.00000000000E+00  0.99999998245E-14  0.12500000000E+03  0.12500000000E+03 0.  0.
        -13    1    3    3    0    0 -0.54248298702E+02  0.12922845107E+02 -0.26719564370E+02  0.61837077242E+02  0.10566000000E+00 0. -1.
         23    2    1    0    0    0 -0.25804821171E+02 -0.30775797291E+00 -0.13454232011E+02  0.95896737818E+02  0.91373871837E+02 0.  0.
         13    1    3    3    0    0  0.28443477531E+02 -0.13230603080E+02  0.13265332359E+02  0.34059660576E+02  0.10566000000E+00 0.  1.
         22    1    1    0    0    0  0.25804821171E+02  0.30775797291E+00  0.13454232011E+02  0.29103262182E+02  0.00000000000E+00 0. -1.
</event>
<event>
 5    1  0.8943113E-005  0.9118800E+02  0.7818608E-02  0.1130116E+00
         25   -1    0    0    0    0  0.00000000000E+00  0.00000000000E+00  0.99999998245E-14  0.12500000000E+03  0.12500000000E+03 0.  0.
        -13    1    3    3    0    0  0.55326110144E+02  0.69062302710E+01  0.10414810699E+02  0.56719960562E+02  0.10566000000E+00 0. -1.
         23    2    1    0    0    0  0.25372312233E+02 -0.15212354951E+02 -0.11839880121E+00  0.95416491258E+02  0.90714512701E+02 0.  0.
         13    1    3    3    0    0 -0.29953797911E+02 -0.22118585222E+02 -0.10533209500E+02  0.38696530696E+02  0.10566000000E+00 0.  1.
         22    1    1    0    0    0 -0.25372312233E+02  0.15212354951E+02  0.11839880121E+00  0.29583508742E+02  0.00000000000E+00 0. -1.
</event>
<event>
 5    1  0.8943113E-005  0.9118800E+02  0.7818608E-02  0.1130116E+00
         25   -1    0    0    0    0  0.00000000000E+00  0.00000000000E+00  0.99999998245E-14  0.12500000000E+03  0.12500000000E+03 0.  0.
        -13    1    3    3    0    0 -0.21041644728E+02 -0.26787605832E+02 -0.23795378647E+02  0.41551869369E+02  0.10566000000E+00 0.  1.
         23    2    1    0    0    0  0.18996320231E+02  0.24337652162E+01  0.11735681384E+02  0.10253870856E+03  0.10004837400E+03 0.  0.
         13    1    3    3    0    0  0.40037964959E+02  0.29221371048E+02  0.35531060031E+02  0.60986839195E+02  0.10566000000E+00 0. -1.
         22    1    1    0    0    0 -0.18996320231E+02 -0.24337652162E+01 -0.11735681384E+02  0.22461291437E+02  0.00000000000E+00 0. -1.
</event>
<event>
 5    1  0.8943113E-005  0.9118800E+02  0.7818608E-02  0.1130116E+00
         25   -1    0    0    0    0  0.00000000000E+00  0.00000000000E+00  0.99999998245E-14  0.12500000000E+03  0.12500000000E+03 0.  0.
        -13    1    3    3    0    0  0.54175087971E+02  0.91879938252E+01 -0.25586642233E+02  0.60613915993E+02  0.10566000000E+00 0.  1.
         23    2    1    0    0    0  0.24518121975E+02  0.12371561357E+02 -0.44310178105E+01  0.97182240305E+02  0.93115842242E+02 0.  0.
         13    1    3    3    0    0 -0.29656965996E+02  0.31835675320E+01  0.21155624422E+02  0.36568324313E+02  0.10566000000E+00 0. -1.
         22    1    1    0    0    0 -0.24518121975E+02 -0.12371561357E+02  0.44310178105E+01  0.27817759695E+02  0.00000000000E+00 0. -1.
</event>
<event>
 5    1  0.8943113E-005  0.9118800E+02  0.7818608E-02  0.1130116E+00
         25   -1    0    0    0    0  0.00000000000E+00  0.00000000000E+00  0.99999998245E-14  0.12500000000E+03  0.12500000000E+03 0.  0.
        -13    1    3    3    0    0  0.26250863240E+02  0.34445637045E+02  0.44112061046E+02  0.61818240237E+02  0.10566000000E+00 0.  1.
         23    2    1    0    0    0  0.15160271427E+02  0.10787468353E+02  0.23037821357E+02  0.95386751004E+02  0.90673522877E+02 0.  0.
         13    1    3    3    0    0 -0.11090591813E+02 -0.23658168692E+02 -0.21074239688E+02  0.33568510767E+02  0.10566000000E+00 0. -1.
         22    1    1    0    0    0 -0.15160271427E+02 -0.10787468353E+02 -0.23037821357E+02  0.29613248996E+02  0.00000000000E+00 0.  1.
</event>
<event>
 5    1  0.8943113E-005  0.9118800E+02  0.7818608E-02  0.1130116E+00
         25   -1    0    0    0    0  0.00000000000E+00  0.00000000000E+00  0.99999998245E-14  0.12500000000E+03  0.12500000000E+03 0.  0.
        -13    1    3    3    0    0 -0.65441544582E+01 -0.19264483965E+02  0.56507706576E+02  0.60058957421E+02  0.10566000000E+00 0.  1.
         23    2    1    0    0    0  0.71236497017E+01 -0.15932824595E+02  0.25613018888E+02  0.94006000239E+02  0.88749648223E+02 0.  0.
         13    1    3    3    0    0  0.13667804160E+02  0.33316593702E+01 -0.30894687688E+02  0.33947042818E+02  0.10566000000E+00 0. -1.
         22    1    1    0    0    0 -0.71236497017E+01  0.15932824595E+02 -0.25613018888E+02  0.30993999761E+02  0.00000000000E+00 0.  1.
</event>
<event>
 5    1  0.8943113E-005  0.9118800E+02  0.7818608E-02  0.1130116E+00
         25   -1    0    0    0    0  0.00000000000E+00  0.00000000000E+00  0.99999998245E-14  0.12500000000E+03  0.12500000000E+03 0.  0.
        -13    1    3    3    0    0 -0.15788458023E+02 -0.17376508606E+02 -0.42728795742E+02  0.48754277840E+02  0.10566000000E+00 0.  1.
         23    2    1    0    0    0 -0.11540501891E+01  0.21492890267E+02 -0.12665466636E+02  0.10002620956E+03  0.96858414141E+02 0.  0.
         13    1    3    3    0    0  0.14634407834E+02  0.38869398872E+02  0.30063329106E+02  0.51271931720E+02  0.10566000000E+00 0. -1.
         22    1    1    0    0    0  0.11540501891E+01 -0.21492890267E+02  0.12665466636E+02  0.24973790440E+02  0.00000000000E+00 0.  1.
</event>
<event>
 5    1  0.8943113E-005  0.9118800E+02  0.7818608E-02  0.1130116E+00
         25   -1    0    0    0    0  0.00000000000E+00  0.00000000000E+00  0.99999998245E-14  0.12500000000E+03  0.12500000000E+03 0.  0.
        -13    1    3    3    0    0  0.29709934122E+02 -0.13685109787E+02  0.62211034108E+01  0.33296782233E+02  0.10566000000E+00 0.  1.
         23    2    1    0    0    0 -0.27594398684E+02  0.98755938210E+01  0.50035126644E+01  0.95267638320E+02  0.90509168486E+02 0.  0.
         13    1    3    3    0    0 -0.57304332807E+02  0.23560703608E+02 -0.12175907464E+01  0.61970856087E+02  0.10566000000E+00 0. -1.
         22    1    1    0    0    0  0.27594398684E+02 -0.98755938210E+01 -0.50035126644E+01  0.29732361680E+02  0.00000000000E+00 0. -1.
</event>
<event>
 5    1  0.8943113E-005  0.9118800E+02  0.7818608E-02  0.1130116E+00
         25   -1    0    0    0    0  0.00000000000E+00  0.00000000000E+00  0.99999998245E-14  0.12500000000E+03  0.12500000000E+03 0.  0.
        -13    1    3    3    0    0  0.27652964364E+02 -0.21338344459E+02  0.28724381480E+02  0.45222921597E+02  0.10566000000E+00 0. -1.
         23    2    1    0    0    0 -0.82413838224E+01 -0.26268390899E+02 -0.75091465007E+01  0.96463426118E+02  0.92145843800E+02 0.  0.
         13    1    3    3    0    0 -0.35894348186E+02 -0.49300464404E+01 -0.36233527981E+02  0.51240504521E+02  0.10566000000E+00 0.  1.
         22    1    1    0    0    0  0.82413838224E+01  0.26268390899E+02  0.75091465007E+01  0.28536573882E+02  0.00000000000E+00 0.  1.
</event>
<event>
 5    1  0.8943113E-005  0.9118800E+02  0.7818608E-02  0.1130116E+00
         25   -1    0    0    0    0  0.00000000000E+00  0.00000000000E+00  0.99999998245E-14  0.12500000000E+03  0.12500000000E+03 0.  0.
        -13    1    3    3    0    0  0.21927098419E+02  0.55727718544E+02  0.20377964268E+01  0.59921115122E+02  0.10566000000E+00 0.  1.
         23    2    1    0    0    0  0.10157418812E+02  0.24019395271E+02  0.13501485018E+02  0.95633444127E+02  0.91012971778E+02 0.  0.
         13    1    3    3    0    0 -0.11769679607E+02 -0.31708323272E+02  0.11463688591E+02  0.35712329005E+02  0.10566000000E+00 0. -1.
         22    1    1    0    0    0 -0.10157418812E+02 -0.24019395271E+02 -0.13501485018E+02  0.29366555873E+02  0.00000000000E+00 0.  1.
</event>
<event>
 5    1  0.8943113E-005  0.9118800E+02  0.7818608E-02  0.1130116E+00
         25   -1    0    0    0    0  0.00000000000E+00  0.00000000000E+00  0.99999998245E-14  0.12500000000E+03  0.12500000000E+03 0.  0.
        -13    1    3    3    0    0  0.29489123737E+02 -0.39228805173E+01  0.19330659184E+02  0.35477922133E+02  0.10566000000E+00 0.  1.
         23    2    1    0    0    0  0.17912030208E+02 -0.90242669403E+01 -0.31388171056E+02  0.87750899310E+02  0.79452657775E+02 0.  0.
         13    1    3    3    0    0 -0.11577093530E+02 -0.51013864230E+01 -0.50718830240E+02  0.52272977177E+02  0.10566000000E+00 0. -1.
         22    1    1    0    0    0 -0.17912030208E+02  0.90242669403E+01  0.31388171056E+02  0.37249100690E+02  0.00000000000E+00 0.  1.
</event>
<event>
 5    1  0.8943113E-005  0.9118800E+02  0.7818608E-02  0.1130116E+00
         25   -1    0    0    0    0  0.00000000000E+00  0.00000000000E+00  0.99999998245E-14  0.12500000000E+03  0.12500000000E+03 0.  0.
        -13    1    3    3    0    0 -0.45056273248E+02 -0.21830453765E+02  0.16646261105E+02  0.52761213437E+02  0.10566000000E+00 0.  1.
         23    2    1    0    0    0 -0.78321210814E+01  0.64255739948E+01  0.22945438524E+02  0.99917670147E+02  0.96718237871E+02 0.  0.
         13    1    3    3    0    0  0.37224152166E+02  0.28256027760E+02  0.62991774182E+01  0.47156456710E+02  0.10566000000E+00 0. -1.
         22    1    1    0    0    0  0.78321210814E+01 -0.64255739948E+01 -0.22945438524E+02  0.25082329853E+02  0.00000000000E+00 0.  1.
</event>
<event>
 5    1  0.8943113E-005  0.9118800E+02  0.7818608E-02  0.1130116E+00
         25   -1    0    0    0    0  0.00000000000E+00  0.00000000000E+00  0.99999998245E-14  0.12500000000E+03  0.12500000000E+03 0.  0.
        -13    1    3    3    0    0 -0.87725122794E+01 -0.24838276874E+02 -0.26009147042E+02  0.37018696136E+02  0.10566000000E+00 0.  1.
         23    2    1    0    0    0 -0.77682709590E+01  0.25258636056E+02  0.77780284054E+01  0.97452904781E+02  0.93478479851E+02 0.  0.
         13    1    3    3    0    0  0.10042413204E+01  0.50096912930E+02  0.33787175447E+02  0.60434208645E+02  0.10566000000E+00 0. -1.
         22    1    1    0    0    0  0.77682709590E+01 -0.25258636056E+02 -0.77780284054E+01  0.27547095219E+02  0.00000000000E+00 0. -1.
</event>
<event>
 5    1  0.8943113E-005  0.9118800E+02  0.7818608E-02  0.1130116E+00
         25   -1    0    0    0    0  0.00000000000E+00  0.00000000000E+00  0.99999998245E-14  0.12500000000E+03  0.12500000000E+03 0.  0.
        -13    1    3    3    0    0  0.51001680375E+01  0.47419015857E+02 -0.34700865178E+02  0.58980810328E+02  0.10566000000E+00 0. -1.
         23    2    1    0    0    0  0.14773028174E+02  0.17039501008E+02 -0.22572606168E+02  0.93092171725E+02  0.87453089889E+02 0.  0.
         13    1    3    3    0    0  0.96728601365E+01 -0.30379514849E+02  0.12128259010E+02  0.34111361396E+02  0.10566000000E+00 0.  1.
         22    1    1    0    0    0 -0.14773028174E+02 -0.17039501008E+02  0.22572606168E+02  0.31907828275E+02  0.00000000000E+00 0. -1.
</event>
<event>
 5    1  0.8943113E-005  0.9118800E+02  0.7818608E-02  0.1130116E+00
         25   -1    0    0    0    0  0.00000000000E+00  0.00000000000E+00  0.99999998245E-14  0.12500000000E+03  0.12500000000E+03 0.  0.
        -13    1    3    3    0    0  0.26339630964E+02  0.29031758412E+02 -0.62174960387E+01  0.39689892628E+02  0.10566000000E+00 0. -1.
         23    2    1    0    0    0 -0.15277830666E+02 -0.59824879759E+01 -0.23125595219E+02  0.96645186891E+02  0.92392081494E+02 0.  0.
         13    1    3    3    0    0 -0.41617461630E+02 -0.35014246388E+02 -0.16908099180E+02  0.56955294263E+02  0.10566000000E+00 0.  1.
         22    1    1    0    0    0  0.15277830666E+02  0.59824879759E+01  0.23125595219E+02  0.28354813109E+02  0.00000000000E+00 0.  1.
</event>
<event>
 5    1  0.8943113E-005  0.9118800E+02  0.7818608E-02  0.1130116E+00
         25   -1    0    0    0    0  0.00000000000E+00  0.00000000000E+00  0.99999998245E-14  0.12500000000E+03  0.12500000000E+03 0.  0.
        -13    1    3    3    0    0 -0.13596665465E+02 -0.28325931733E+02  0.33435925769E+02  0.45882458700E+02  0.10566000000E+00 0. -1.
         23    2    1    0    0    0  0.28757658745E+00  0.15797232338E+02  0.28515797491E+02  0.92399601898E+02  0.86457506756E+02 0.  0.
         13    1    3    3    0    0  0.13884242052E+02  0.44123164071E+02 -0.49201282774E+01  0.46517143198E+02  0.10566000000E+00 0.  1.
         22    1    1    0    0    0 -0.28757658745E+00 -0.15797232338E+02 -0.28515797491E+02  0.32600398102E+02  0.00000000000E+00 0. -1.
</event>
