<event>
 4    1  0.1285346E-004  0.9118800E+02  0.7818608E-02  0.1130116E+00
         25   -1    0    0    0    0  0.00000000000E+00  0.00000000000E+00  0.99999998245E-14  0.12500000000E+03  0.12500000000E+03 0.  0.
        -13    1    1    0    0    0  0.31125325032E+02  0.21174049957E+01  0.31198676903E+02  0.44120719246E+02  0.10566000000E+00 0.  1.
         13    1    1    0    0    0 -0.10502226077E+02 -0.16605651535E+02  0.17328144193E+02  0.26197712890E+02  0.10566000000E+00 0. -1.
         22    1    1    0    0    0 -0.20623098955E+02  0.14488246539E+02 -0.48526821096E+02  0.54681567864E+02  0.00000000000E+00 0.  1.
</event>
<event>
 5    1  0.1285346E-004  0.9118800E+02  0.7818608E-02  0.1130116E+00
         25   -1    0    0    0    0  0.00000000000E+00  0.00000000000E+00  0.99999998245E-14  0.12500000000E+03  0.12500000000E+03 0.  0.
        -13    1    3    3    0    0 -0.17679529974E+02 -0.30527689416E+02  0.57655172193E+01  0.35745740362E+02  0.10566000000E+00 0.  1.
         23    2    1    0    0    0 -0.11073534877E+01  0.19820986553E+02 -0.21820377212E+02  0.95500396590E+02  0.90830056410E+02 0.  0.
         13    1    3    3    0    0  0.16572176487E+02  0.50348675969E+02 -0.27585894431E+02  0.59754656228E+02  0.10566000000E+00 0. -1.
         22    1    1    0    0    0  0.11073534877E+01 -0.19820986553E+02  0.21820377212E+02  0.29499603410E+02  0.00000000000E+00 0. -1.
</event>
<event>
 5    1  0.1285346E-004  0.9118800E+02  0.7818608E-02  0.1130116E+00
         25   -1    0    0    0    0  0.00000000000E+00  0.00000000000E+00  0.99999998245E-14  0.12500000000E+03  0.12500000000E+03 0.  0.
        -13    1    3    3    0    0  0.39558871348E+02 -0.35626785339E+01  0.10765700324E+00  0.39719261508E+02  0.10566000000E+00 0. -1.
         23    2    1    0    0    0 -0.42427636108E+01  0.29776124797E+02  0.25165976040E+01  0.94818020037E+02  0.89886066825E+02 0.  0.
         13    1    3    3    0    0 -0.43801634959E+02  0.33338803331E+02  0.24089406008E+01  0.55098758529E+02  0.10566000000E+00 0.  1.
         22    1    1    0    0    0  0.42427636108E+01 -0.29776124797E+02 -0.25165976040E+01  0.30181979963E+02  0.00000000000E+00 0.  1.
</event>
<event>
 5    1  0.1285346E-004  0.9118800E+02  0.7818608E-02  0.1130116E+00
         25   -1    0    0    0    0  0.00000000000E+00  0.00000000000E+00  0.99999998245E-14  0.12500000000E+03  0.12500000000E+03 0.  0.
        -13    1    3    3    0    0 -0.28442924657E+02  0.43904857262E+02  0.84088634656E+01  0.52984493987E+02  0.10566000000E+00 0.  1.
         23    2    1    0    0    0  0.11428066887E+02  0.24014007122E+02  0.66992876613E+01  0.97574579201E+02  0.93641042285E+02 0.  0.
         13    1    3    3    0    0  0.39870991543E+02 -0.19890850140E+02 -0.17095758043E+01  0.44590085214E+02  0.10566000000E+00 0. -1.
         22    1    1    0    0    0 -0.11428066887E+02 -0.24014007122E+02 -0.66992876613E+01  0.27425420799E+02  0.00000000000E+00 0. -1.
</event>
<event>
 5    1  0.1285346E-004  0.9118800E+02  0.7818608E-02  0.1130116E+00
         25   -1    0    0    0    0  0.00000000000E+00  0.00000000000E+00  0.99999998245E-14  0.12500000000E+03  0.12500000000E+03 0.  0.
        -13    1    3    3    0    0 -0.19798158278E+01  0.35738281964E+00 -0.38971493080E+02  0.39023529185E+02  0.10566000000E+00 0.  1.
         23    2    1    0    0    0  0.27487390513E+01  0.23393606165E+02  0.14432065666E+02  0.97375719101E+02  0.93375209640E+02 0.  0.
         13    1    3    3    0    0  0.47285548790E+01  0.23036223345E+02  0.53403558746E+02  0.58352189916E+02  0.10566000000E+00 0. -1.
         22    1    1    0    0    0 -0.27487390513E+01 -0.23393606165E+02 -0.14432065666E+02  0.27624280899E+02  0.00000000000E+00 0. -1.
</event>
<event>
 5    1  0.1285346E-004  0.9118800E+02  0.7818608E-02  0.1130116E+00
         25   -1    0    0    0    0  0.00000000000E+00  0.00000000000E+00  0.99999998245E-14  0.12500000000E+03  0.12500000000E+03 0.  0.
        -13    1    3    3    0    0 -0.11568415035E+02  0.44443453100E+02  0.33071072439E+02  0.56592894838E+02  0.10566000000E+00 0.  1.
         23    2    1    0    0    0 -0.23734150402E+02  0.15547418323E+02  0.13250818676E+02  0.93685206253E+02  0.88296667906E+02 0.  0.
         13    1    3    3    0    0 -0.12165735367E+02 -0.28896034777E+02 -0.19820253763E+02  0.37092311415E+02  0.10566000000E+00 0. -1.
         22    1    1    0    0    0  0.23734150402E+02 -0.15547418323E+02 -0.13250818676E+02  0.31314793747E+02  0.00000000000E+00 0.  1.
</event>
<event>
 5    1  0.1285346E-004  0.9118800E+02  0.7818608E-02  0.1130116E+00
         25   -1    0    0    0    0  0.00000000000E+00  0.00000000000E+00  0.99999998245E-14  0.12500000000E+03  0.12500000000E+03 0.  0.
        -13    1    3    3    0    0  0.23711026514E+01  0.30132045401E+02  0.90125517389E+01  0.31540442938E+02  0.10566000000E+00 0.  1.
         23    2    1    0    0    0 -0.14519973167E+02 -0.25118280577E+02 -0.12791001276E+02  0.93292471658E+02  0.87738919041E+02 0.  0.
         13    1    3    3    0    0 -0.16891075818E+02 -0.55250325978E+02 -0.21803553014E+02  0.61752028720E+02  0.10566000000E+00 0. -1.
         22    1    1    0    0    0  0.14519973167E+02  0.25118280577E+02  0.12791001276E+02  0.31707528342E+02  0.00000000000E+00 0. -1.
</event>
<event>
 5    1  0.1285346E-004  0.9118800E+02  0.7818608E-02  0.1130116E+00
         25   -1    0    0    0    0  0.00000000000E+00  0.00000000000E+00  0.99999998245E-14  0.12500000000E+03  0.12500000000E+03 0.  0.
        -13    1    3    3    0    0  0.20130950010E+02 -0.18247703921E+02 -0.30876513527E+02  0.41129114971E+02  0.10566000000E+00 0.  1.
         23    2    1    0    0    0 -0.82586764865E+01 -0.26338323384E+02  0.13378181037E+02  0.94326090176E+02  0.89199341612E+02 0.  0.
         13    1    3    3    0    0 -0.28389626497E+02 -0.80906194636E+01  0.44254694564E+02  0.53196975205E+02  0.10566000000E+00 0. -1.
         22    1    1    0    0    0  0.82586764865E+01  0.26338323384E+02 -0.13378181037E+02  0.30673909824E+02  0.00000000000E+00 0. -1.
</event>
<event>
 5    1  0.1285346E-004  0.9118800E+02  0.7818608E-02  0.1130116E+00
         25   -1    0    0    0    0  0.00000000000E+00  0.00000000000E+00  0.99999998245E-14  0.12500000000E+03  0.12500000000E+03 0.  0.
        -13    1    3    3    0    0 -0.29378643880E+02 -0.14140673247E+02  0.12569371765E+02  0.34943720848E+02  0.10566000000E+00 0.  1.
         23    2    1    0    0    0  0.56638559643E+01  0.31245759316E+02  0.26622026964E+01  0.93133653131E+02  0.87512360742E+02 0.  0.
         13    1    3    3    0    0  0.35042499844E+02  0.45386432563E+02 -0.99071690685E+01  0.58189932283E+02  0.10566000000E+00 0. -1.
         22    1    1    0    0    0 -0.56638559643E+01 -0.31245759316E+02 -0.26622026964E+01  0.31866346869E+02  0.00000000000E+00 0. -1.
</event>
<event>
 5    1  0.1285346E-004  0.9118800E+02  0.7818608E-02  0.1130116E+00
         25   -1    0    0    0    0  0.00000000000E+00  0.00000000000E+00  0.99999998245E-14  0.12500000000E+03  0.12500000000E+03 0.  0.
        -13    1    3    3    0    0  0.40419126417E+02  0.12198507903E+02  0.82874731466E+00  0.42228039992E+02  0.10566000000E+00 0. -1.
         23    2    1    0    0    0 -0.12758975714E+02  0.24953177796E+02  0.17152554523E+01  0.96921633868E+02  0.92765340871E+02 0.  0.
         13    1    3    3    0    0 -0.53178102131E+02  0.12754669893E+02  0.88650813767E+00  0.54693593876E+02  0.10566000000E+00 0.  1.
         22    1    1    0    0    0  0.12758975714E+02 -0.24953177796E+02 -0.17152554523E+01  0.28078366132E+02  0.00000000000E+00 0.  1.
</event>
<event>
 5    1  0.1285346E-004  0.9118800E+02  0.7818608E-02  0.1130116E+00
         25   -1    0    0    0    0  0.00000000000E+00  0.00000000000E+00  0.99999998245E-14  0.12500000000E+03  0.12500000000E+03 0.  0.
        -13    1    3    3    0    0  0.58198657412E+01  0.43958912812E+02 -0.17393625255E+02  0.47631987324E+02  0.10566000000E+00 0.  1.
         23    2    1    0    0    0  0.10066081945E+02 -0.30386732031E+01 -0.27208011429E+02  0.95830916599E+02  0.91283783607E+02 0.  0.
         13    1    3    3    0    0  0.42462162035E+01 -0.46997586015E+02 -0.98143861737E+01  0.48198929275E+02  0.10566000000E+00 0. -1.
         22    1    1    0    0    0 -0.10066081945E+02  0.30386732031E+01  0.27208011429E+02  0.29169083401E+02  0.00000000000E+00 0. -1.
</event>
<event>
 5    1  0.1285346E-004  0.9118800E+02  0.7818608E-02  0.1130116E+00
         25   -1    0    0    0    0  0.00000000000E+00  0.00000000000E+00  0.99999998245E-14  0.12500000000E+03  0.12500000000E+03 0.  0.
        -13    1    3    3    0    0  0.10650324463E+02  0.91877184094E+01 -0.34423911256E+02  0.37186831150E+02  0.10566000000E+00 0. -1.
         23    2    1    0    0    0  0.19449488592E+02 -0.14319114689E+02  0.17711556493E+02  0.95049726456E+02  0.90207713716E+02 0.  0.
         13    1    3    3    0    0  0.87991641293E+01 -0.23506833099E+02  0.52135467749E+02  0.57862895306E+02  0.10566000000E+00 0.  1.
         22    1    1    0    0    0 -0.19449488592E+02  0.14319114689E+02 -0.17711556493E+02  0.29950273544E+02  0.00000000000E+00 0.  1.
</event>
<event>
 5    1  0.1285346E-004  0.9118800E+02  0.7818608E-02  0.1130116E+00
         25   -1    0    0    0    0  0.00000000000E+00  0.00000000000E+00  0.99999998245E-14  0.12500000000E+03  0.12500000000E+03 0.  0.
        -13    1    3    3    0    0  0.20774526960E+02  0.24209423025E+02  0.60886388689E+01  0.32477066076E+02  0.10566000000E+00 0. -1.
         23    2    1    0    0    0 -0.26003317088E+02 -0.15402377299E+02  0.77622422197E+01  0.93796504518E+02  0.88454090519E+02 0.  0.
         13    1    3    3    0    0 -0.46777844048E+02 -0.39611800324E+02  0.16736033508E+01  0.61319438442E+02  0.10566000000E+00 0.  1.
         22    1    1    0    0    0  0.26003317088E+02  0.15402377299E+02 -0.77622422197E+01  0.31203495482E+02  0.00000000000E+00 0.  1.
</event>
<event>
 5    1  0.1285346E-004  0.9118800E+02  0.7818608E-02  0.1130116E+00
         25   -1    0    0    0    0  0.00000000000E+00  0.00000000000E+00  0.99999998245E-14  0.12500000000E+03  0.12500000000E+03 0.  0.
        -13    1    3    3    0    0  0.36797481346E+01 -0.46632781653E+02 -0.57032332582E+01  0.47124249646E+02  0.10566000000E+00 0.  1.
         23    2    1    0    0    0 -0.28290037174E+02 -0.12688078032E+02 -0.33722338068E+01  0.93812093878E+02  0.88476118074E+02 0.  0.
         13    1    3    3    0    0 -0.31969785308E+02  0.33944703621E+02  0.23309994513E+01  0.46687844232E+02  0.10566000000E+00 0. -1.
         22    1    1    0    0    0  0.28290037174E+02  0.12688078032E+02  0.33722338068E+01  0.31187906122E+02  0.00000000000E+00 0. -1.
</event>
<event>
 5    1  0.1285346E-004  0.9118800E+02  0.7818608E-02  0.1130116E+00
         25   -1    0    0    0    0  0.00000000000E+00  0.00000000000E+00  0.99999998245E-14  0.12500000000E+03  0.12500000000E+03 0.  0.
        -13    1    3    3    0    0  0.79802012581E+01  0.21110736803E+02 -0.53902717566E+02  0.58436811562E+02  0.10566000000E+00 0.  1.
         23    2    1    0    0    0  0.19292246152E+02  0.11179570418E+02 -0.22181622736E+02  0.93548482651E+02  0.88102898152E+02 0.  0.
         13    1    3    3    0    0  0.11312044894E+02 -0.99311663852E+01  0.31721094830E+02  0.35111671089E+02  0.10566000000E+00 0. -1.
         22    1    1    0    0    0 -0.19292246152E+02 -0.11179570418E+02  0.22181622736E+02  0.31451517349E+02  0.00000000000E+00 0.  1.
</event>
<event>
 5    1  0.1285346E-004  0.9118800E+02  0.7818608E-02  0.1130116E+00
         25   -1    0    0    0    0  0.00000000000E+00  0.00000000000E+00  0.99999998245E-14  0.12500000000E+03  0.12500000000E+03 0.  0.
        -13    1    3    3    0    0  0.58949242466E+01 -0.21318218029E+02 -0.26121511542E+02  0.34228074458E+02  0.10566000000E+00 0.  1.
         23    2    1    0    0    0  0.96380939067E+01  0.16352278009E+02  0.22315623224E+02  0.95703636913E+02  0.91109325693E+02 0.  0.
         13    1    3    3    0    0  0.37431696601E+01  0.37670496037E+02  0.48437134766E+02  0.61475562456E+02  0.10566000000E+00 0. -1.
         22    1    1    0    0    0 -0.96380939067E+01 -0.16352278009E+02 -0.22315623224E+02  0.29296363087E+02  0.00000000000E+00 0. -1.
</event>
<event>
 5    1  0.1285346E-004  0.9118800E+02  0.7818608E-02  0.1130116E+00
         25   -1    0    0    0    0  0.00000000000E+00  0.00000000000E+00  0.99999998245E-14  0.12500000000E+03  0.12500000000E+03 0.  0.
        -13    1    3    3    0    0  0.10899443666E+02  0.28272386879E+02 -0.21760638962E+02  0.37304990339E+02  0.10566000000E+00 0. -1.
         23    2    1    0    0    0  0.19218704637E+02 -0.19909186942E+02  0.99627418150E+01  0.95589278195E+02  0.90952292708E+02 0.  0.
         13    1    3    3    0    0  0.83192609718E+01 -0.48181573821E+02  0.31723380777E+02  0.58284287857E+02  0.10566000000E+00 0.  1.
         22    1    1    0    0    0 -0.19218704637E+02  0.19909186942E+02 -0.99627418150E+01  0.29410721805E+02  0.00000000000E+00 0.  1.
</event>
<event>
 5    1  0.1285346E-004  0.9118800E+02  0.7818608E-02  0.1130116E+00
         25   -1    0    0    0    0  0.00000000000E+00  0.00000000000E+00  0.99999998245E-14  0.12500000000E+03  0.12500000000E+03 0.  0.
        -13    1    3    3    0    0  0.27368115248E+02 -0.48891547398E+02 -0.25161096782E+02  0.61420591779E+02  0.10566000000E+00 0.  1.
         23    2    1    0    0    0  0.19743913336E+02 -0.30063739607E+02 -0.23987134317E+02  0.81767683780E+02  0.69404041273E+02 0.  0.
         13    1    3    3    0    0 -0.76242019116E+01  0.18827807791E+02  0.11739624646E+01  0.20347092001E+02  0.10566000000E+00 0. -1.
         22    1    1    0    0    0 -0.19743913336E+02  0.30063739607E+02  0.23987134317E+02  0.43232316220E+02  0.00000000000E+00 0.  1.
</event>
<event>
 5    1  0.1285346E-004  0.9118800E+02  0.7818608E-02  0.1130116E+00
         25   -1    0    0    0    0  0.00000000000E+00  0.00000000000E+00  0.99999998245E-14  0.12500000000E+03  0.12500000000E+03 0.  0.
        -13    1    3    3    0    0 -0.21434726491E+02  0.29992717604E+02  0.12324260721E+02  0.38870415169E+02  0.10566000000E+00 0.  1.
         23    2    1    0    0    0  0.10823267197E+02  0.25107591180E+01 -0.26450809647E+02  0.96310413821E+02  0.91938041393E+02 0.  0.
         13    1    3    3    0    0  0.32257993689E+02 -0.27481958486E+02 -0.38775070368E+02  0.57439998652E+02  0.10566000000E+00 0. -1.
         22    1    1    0    0    0 -0.10823267197E+02 -0.25107591180E+01  0.26450809647E+02  0.28689586179E+02  0.00000000000E+00 0. -1.
</event>
<event>
 5    1  0.1285346E-004  0.9118800E+02  0.7818608E-02  0.1130116E+00
         25   -1    0    0    0    0  0.00000000000E+00  0.00000000000E+00  0.99999998245E-14  0.12500000000E+03  0.12500000000E+03 0.  0.
        -13    1    3    3    0    0  0.97498941221E+01 -0.57951775562E+00 -0.50004049508E+02  0.50949115865E+02  0.10566000000E+00 0.  1.
         23    2    1    0    0    0 -0.21147071691E+02  0.78860984508E+01 -0.19891202010E+02  0.94915965907E+02  0.90022172140E+02 0.  0.
         13    1    3    3    0    0 -0.30896965813E+02  0.84656162064E+01  0.30112847497E+02  0.43966850042E+02  0.10566000000E+00 0. -1.
         22    1    1    0    0    0  0.21147071691E+02 -0.78860984508E+01  0.19891202010E+02  0.30084034093E+02  0.00000000000E+00 0.  1.
</event>
<event>
 5    1  0.1285346E-004  0.9118800E+02  0.7818608E-02  0.1130116E+00
         25   -1    0    0    0    0  0.00000000000E+00  0.00000000000E+00  0.99999998245E-14  0.12500000000E+03  0.12500000000E+03 0.  0.
        -13    1    3    3    0    0 -0.20070716884E+02 -0.13671708296E+02 -0.31743414180E+02  0.39967546733E+02  0.10566000000E+00 0.  1.
         23    2    1    0    0    0 -0.18652518383E+02  0.22643691167E+02  0.87573416391E+01  0.94383922128E+02  0.89280347960E+02 0.  0.
         13    1    3    3    0    0  0.14181985008E+01  0.36315399463E+02  0.40500755820E+02  0.54416375395E+02  0.10566000000E+00 0. -1.
         22    1    1    0    0    0  0.18652518383E+02 -0.22643691167E+02 -0.87573416391E+01  0.30616077872E+02  0.00000000000E+00 0. -1.
</event>
<event>
 5    1  0.1285346E-004  0.9118800E+02  0.7818608E-02  0.1130116E+00
         25   -1    0    0    0    0  0.00000000000E+00  0.00000000000E+00  0.99999998245E-14  0.12500000000E+03  0.12500000000E+03 0.  0.
        -13    1    3    3    0    0 -0.36945218600E+01  0.13193693603E+02  0.37481957535E+02  0.39907785548E+02  0.10566000000E+00 0. -1.
         23    2    1    0    0    0  0.31250575476E+01  0.22541457463E+02 -0.17624606203E+02  0.96216149788E+02  0.91809789495E+02 0.  0.
         13    1    3    3    0    0  0.68195794076E+01  0.93477638595E+01 -0.55106563737E+02  0.56308364240E+02  0.10566000000E+00 0.  1.
         22    1    1    0    0    0 -0.31250575476E+01 -0.22541457463E+02  0.17624606203E+02  0.28783850212E+02  0.00000000000E+00 0.  1.
</event>
<event>
 5    1  0.1285346E-004  0.9118800E+02  0.7818608E-02  0.1130116E+00
         25   -1    0    0    0    0  0.00000000000E+00  0.00000000000E+00  0.99999998245E-14  0.12500000000E+03  0.12500000000E+03 0.  0.
        -13    1    3    3    0    0  0.33302737202E+02  0.14737635987E+02  0.30825292458E+02  0.47712472570E+02  0.10566000000E+00 0. -1.
         23    2    1    0    0    0  0.47913869893E+01 -0.22532667137E+02  0.16103994506E+02  0.96892756865E+02  0.92726421349E+02 0.  0.
         13    1    3    3    0    0 -0.28511350213E+02 -0.37270303124E+02 -0.14721297952E+02  0.49180284295E+02  0.10566000000E+00 0.  1.
         22    1    1    0    0    0 -0.47913869893E+01  0.22532667137E+02 -0.16103994506E+02  0.28107243135E+02  0.00000000000E+00 0.  1.
</event>
<event>
 5    1  0.1285346E-004  0.9118800E+02  0.7818608E-02  0.1130116E+00
         25   -1    0    0    0    0  0.00000000000E+00  0.00000000000E+00  0.99999998245E-14  0.12500000000E+03  0.12500000000E+03 0.  0.
        -13    1    3    3    0    0 -0.33613830195E+02 -0.10966021030E+02 -0.22911001451E+01  0.35431673705E+02  0.10566000000E+00 0.  1.
         23    2    1    0    0    0  0.23136755116E+02  0.11392541370E+02 -0.10841527463E+02  0.97024329250E+02  0.92903618404E+02 0.  0.
         13    1    3    3    0    0  0.56750585311E+02  0.22358562401E+02 -0.85504273181E+01  0.61592655545E+02  0.10566000000E+00 0. -1.
         22    1    1    0    0    0 -0.23136755116E+02 -0.11392541370E+02  0.10841527463E+02  0.27975670750E+02  0.00000000000E+00 0. -1.
</event>
<event>
 5    1  0.1285346E-004  0.9118800E+02  0.7818608E-02  0.1130116E+00
         25   -1    0    0    0    0  0.00000000000E+00  0.00000000000E+00  0.99999998245E-14  0.12500000000E+03  0.12500000000E+03 0.  0.
        -13    1    3    3    0    0 -0.35928968277E+02 -0.27217938554E+02  0.22507909106E+01  0.45130745223E+02  0.10566000000E+00 0. -1.
         23    2    1    0    0    0  0.46116747262E+00 -0.38439930124E+02 -0.10255121282E+02  0.85212961710E+02  0.75354100269E+02 0.  0.
         13    1    3    3    0    0  0.36390135750E+02 -0.11221991571E+02 -0.12505912193E+02  0.40082216487E+02  0.10566000000E+00 0.  1.
         22    1    1    0    0    0 -0.46116747262E+00  0.38439930124E+02  0.10255121282E+02  0.39787038290E+02  0.00000000000E+00 0. -1.
</event>
<event>
 5    1  0.1285346E-004  0.9118800E+02  0.7818608E-02  0.1130116E+00
         25   -1    0    0    0    0  0.00000000000E+00  0.00000000000E+00  0.99999998245E-14  0.12500000000E+03  0.12500000000E+03 0.  0.
        -13    1    3    3    0    0 -0.38996997590E+02  0.19254878477E+02  0.30885675304E+02  0.53342780854E+02  0.10566000000E+00 0. -1.
         23    2    1    0    0    0 -0.11971979234E+02 -0.13521905590E+02  0.21631083923E+02  0.96820681178E+02  0.92629208647E+02 0.  0.
         13    1    3    3    0    0  0.27025018357E+02 -0.32776784067E+02 -0.92545913809E+01  0.43477900324E+02  0.10566000000E+00 0.  1.
         22    1    1    0    0    0  0.11971979234E+02  0.13521905590E+02 -0.21631083923E+02  0.28179318822E+02  0.00000000000E+00 0. -1.
</event>
<event>
 5    1  0.1285346E-004  0.9118800E+02  0.7818608E-02  0.1130116E+00
         25   -1    0    0    0    0  0.00000000000E+00  0.00000000000E+00  0.99999998245E-14  0.12500000000E+03  0.12500000000E+03 0.  0.
        -13    1    3    3    0    0 -0.19931758700E+02 -0.17378937198E+02 -0.33926992791E+02  0.43015746732E+02  0.10566000000E+00 0.  1.
         23    2    1    0    0    0  0.16304679405E+02 -0.24693812571E+02  0.29879241054E+01  0.95258536683E+02  0.90496597564E+02 0.  0.
         13    1    3    3    0    0  0.36236438105E+02 -0.73148753731E+01  0.36914916897E+02  0.52242789951E+02  0.10566000000E+00 0. -1.
         22    1    1    0    0    0 -0.16304679405E+02  0.24693812571E+02 -0.29879241054E+01  0.29741463317E+02  0.00000000000E+00 0. -1.
</event>
<event>
 5    1  0.1285346E-004  0.9118800E+02  0.7818608E-02  0.1130116E+00
         25   -1    0    0    0    0  0.00000000000E+00  0.00000000000E+00  0.99999998245E-14  0.12500000000E+03  0.12500000000E+03 0.  0.
        -13    1    3    3    0    0  0.15299759749E+02  0.51082941784E+02  0.30584865216E+02  0.61473528726E+02  0.10566000000E+00 0.  1.
         23    2    1    0    0    0  0.14602343395E+02  0.22331540077E+02  0.11797052456E+02  0.95826440713E+02  0.91277654320E+02 0.  0.
         13    1    3    3    0    0 -0.69741635393E+00 -0.28751401706E+02 -0.18787812760E+02  0.34352911987E+02  0.10566000000E+00 0. -1.
         22    1    1    0    0    0 -0.14602343395E+02 -0.22331540077E+02 -0.11797052456E+02  0.29173559287E+02  0.00000000000E+00 0.  1.
</event>
<event>
 5    1  0.1285346E-004  0.9118800E+02  0.7818608E-02  0.1130116E+00
         25   -1    0    0    0    0  0.00000000000E+00  0.00000000000E+00  0.99999998245E-14  0.12500000000E+03  0.12500000000E+03 0.  0.
        -13    1    3    3    0    0 -0.22595913339E+02  0.15076283715E+02 -0.30039450355E+02  0.40499992246E+02  0.10566000000E+00 0.  1.
         23    2    1    0    0    0  0.18055283818E+02 -0.12685391032E+02 -0.27430720465E+02  0.89795499655E+02  0.82606748596E+02 0.  0.
         13    1    3    3    0    0  0.40651197156E+02 -0.27761674747E+02  0.26087298900E+01  0.49295507409E+02  0.10566000000E+00 0. -1.
         22    1    1    0    0    0 -0.18055283818E+02  0.12685391032E+02  0.27430720465E+02  0.35204500345E+02  0.00000000000E+00 0.  1.
</event>
<event>
 5    1  0.1285346E-004  0.9118800E+02  0.7818608E-02  0.1130116E+00
         25   -1    0    0    0    0  0.00000000000E+00  0.00000000000E+00  0.99999998245E-14  0.12500000000E+03  0.12500000000E+03 0.  0.
        -13    1    3    3    0    0  0.31291343132E+02  0.10782077212E+02  0.35489756976E+02  0.48527676209E+02  0.10566000000E+00 0. -1.
         23    2    1    0    0    0  0.26133082346E+02  0.30791520547E+01 -0.11398292986E+02  0.96323524392E+02  0.91955864947E+02 0.  0.
         13    1    3    3    0    0 -0.51582607860E+01 -0.77029251576E+01 -0.46888049962E+02  0.47795848183E+02  0.10566000000E+00 0.  1.
         22    1    1    0    0    0 -0.26133082346E+02 -0.30791520547E+01  0.11398292986E+02  0.28676475608E+02  0.00000000000E+00 0. -1.
</event>
<event>
 5    1  0.1285346E-004  0.9118800E+02  0.7818608E-02  0.1130116E+00
         25   -1    0    0    0    0  0.00000000000E+00  0.00000000000E+00  0.99999998245E-14  0.12500000000E+03  0.12500000000E+03 0.  0.
        -13    1    3    3    0    0 -0.11668732076E+02 -0.20675163313E+02  0.43003141503E+02  0.49121309321E+02  0.10566000000E+00 0.  1.
         23    2    1    0    0    0 -0.18085060375E+02 -0.22270484977E+02 -0.35056832838E+01  0.96097859505E+02  0.91648594513E+02 0.  0.
         13    1    3    3    0    0 -0.64163282994E+01 -0.15953216640E+01 -0.46508824787E+02  0.46976550184E+02  0.10566000000E+00 0. -1.
         22    1    1    0    0    0  0.18085060375E+02  0.22270484977E+02  0.35056832838E+01  0.28902140495E+02  0.00000000000E+00 0.  1.
</event>
<event>
 5    1  0.1285346E-004  0.9118800E+02  0.7818608E-02  0.1130116E+00
         25   -1    0    0    0    0  0.00000000000E+00  0.00000000000E+00  0.99999998245E-14  0.12500000000E+03  0.12500000000E+03 0.  0.
        -13    1    3    3    0    0 -0.31645027656E+02  0.80811840429E+01  0.41773796831E+00  0.32663419600E+02  0.10566000000E+00 0.  1.
         23    2    1    0    0    0  0.21196942830E+02 -0.36425314797E+01  0.24923556181E+02  0.92079458182E+02  0.85993398266E+02 0.  0.
         13    1    3    3    0    0  0.52841970486E+02 -0.11723715523E+02  0.24505818213E+02  0.59416038582E+02  0.10566000000E+00 0. -1.
         22    1    1    0    0    0 -0.21196942830E+02  0.36425314797E+01 -0.24923556181E+02  0.32920541818E+02  0.00000000000E+00 0. -1.
</event>
<event>
 5    1  0.1285346E-004  0.9118800E+02  0.7818608E-02  0.1130116E+00
         25   -1    0    0    0    0  0.00000000000E+00  0.00000000000E+00  0.99999998245E-14  0.12500000000E+03  0.12500000000E+03 0.  0.
        -13    1    3    3    0    0  0.24475726560E+02  0.29081072964E+01 -0.33126850131E+02  0.41290648364E+02  0.10566000000E+00 0. -1.
         23    2    1    0    0    0  0.12812784018E+02 -0.23338030109E+02  0.12800280240E+02  0.95458871757E+02  0.90772892095E+02 0.  0.
         13    1    3    3    0    0 -0.11662942543E+02 -0.26246137405E+02  0.45927130371E+02  0.54168223393E+02  0.10566000000E+00 0.  1.
         22    1    1    0    0    0 -0.12812784018E+02  0.23338030109E+02 -0.12800280240E+02  0.29541128243E+02  0.00000000000E+00 0.  1.
</event>
<event>
 5    1  0.1285346E-004  0.9118800E+02  0.7818608E-02  0.1130116E+00
         25   -1    0    0    0    0  0.00000000000E+00  0.00000000000E+00  0.99999998245E-14  0.12500000000E+03  0.12500000000E+03 0.  0.
        -13    1    3    3    0    0  0.27903498010E+02  0.48494522155E+01 -0.50120118685E+02  0.57568740207E+02  0.10566000000E+00 0. -1.
         23    2    1    0    0    0  0.27192802533E+02 -0.15460329977E+01 -0.13777257769E+02  0.94477032267E+02  0.89410614955E+02 0.  0.
         13    1    3    3    0    0 -0.71069547724E+00 -0.63954852132E+01  0.36342860916E+02  0.36908292060E+02  0.10566000000E+00 0.  1.
         22    1    1    0    0    0 -0.27192802533E+02  0.15460329977E+01  0.13777257769E+02  0.30522967733E+02  0.00000000000E+00 0. -1.
</event>
<event>
 5    1  0.1285346E-004  0.9118800E+02  0.7818608E-02  0.1130116E+00
         25   -1    0    0    0    0  0.00000000000E+00  0.00000000000E+00  0.99999998245E-14  0.12500000000E+03  0.12500000000E+03 0.  0.
        -13    1    3    3    0    0 -0.35940726846E+02 -0.19964602172E+02 -0.21994049183E+01  0.41172438986E+02  0.10566000000E+00 0. -1.
         23    2    1    0    0    0  0.54685289099E+01  0.47842788183E+01 -0.28133705589E+02  0.95943167371E+02  0.91437365682E+02 0.  0.
         13    1    3    3    0    0  0.41409255756E+02  0.24748880990E+02 -0.25934300671E+02  0.54770728385E+02  0.10566000000E+00 0.  1.
         22    1    1    0    0    0 -0.54685289099E+01 -0.47842788183E+01  0.28133705589E+02  0.29056832629E+02  0.00000000000E+00 0.  1.
</event>
<event>
 5    1  0.1285346E-004  0.9118800E+02  0.7818608E-02  0.1130116E+00
         25   -1    0    0    0    0  0.00000000000E+00  0.00000000000E+00  0.99999998245E-14  0.12500000000E+03  0.12500000000E+03 0.  0.
        -13    1    3    3    0    0  0.52867909873E+02 -0.17139207025E+02  0.52463107290E+01  0.55823859166E+02  0.10566000000E+00 0.  1.
         23    2    1    0    0    0  0.19782112505E+02 -0.14117945477E+02 -0.16583870578E+02  0.95577676452E+02  0.90936346490E+02 0.  0.
         13    1    3    3    0    0 -0.33085797369E+02  0.30212615486E+01 -0.21830181307E+02  0.39753817286E+02  0.10566000000E+00 0. -1.
         22    1    1    0    0    0 -0.19782112505E+02  0.14117945477E+02  0.16583870578E+02  0.29422323548E+02  0.00000000000E+00 0.  1.
</event>
<event>
 5    1  0.1285346E-004  0.9118800E+02  0.7818608E-02  0.1130116E+00
         25   -1    0    0    0    0  0.00000000000E+00  0.00000000000E+00  0.99999998245E-14  0.12500000000E+03  0.12500000000E+03 0.  0.
        -13    1    3    3    0    0 -0.12774737583E+02 -0.36576095100E+02 -0.47198760260E+02  0.61063399735E+02  0.10566000000E+00 0.  1.
         23    2    1    0    0    0 -0.68086139005E+01 -0.95342557199E+01 -0.27678188971E+02  0.94944361592E+02  0.90061592247E+02 0.  0.
         13    1    3    3    0    0  0.59661236822E+01  0.27041839380E+02  0.19520571289E+02  0.33880961857E+02  0.10566000000E+00 0. -1.
         22    1    1    0    0    0  0.68086139005E+01  0.95342557199E+01  0.27678188971E+02  0.30055638408E+02  0.00000000000E+00 0.  1.
</event>
<event>
 5    1  0.1285346E-004  0.9118800E+02  0.7818608E-02  0.1130116E+00
         25   -1    0    0    0    0  0.00000000000E+00  0.00000000000E+00  0.99999998245E-14  0.12500000000E+03  0.12500000000E+03 0.  0.
        -13    1    3    3    0    0  0.12516214416E+02 -0.28064130497E+02  0.29540286375E+02  0.42625001197E+02  0.10566000000E+00 0.  1.
         23    2    1    0    0    0  0.23809587440E+02  0.17506925247E+02  0.15498125379E+02  0.91629642256E+02  0.85337040985E+02 0.  0.
         13    1    3    3    0    0  0.11293373024E+02  0.45571055745E+02 -0.14042160995E+02  0.49004641060E+02  0.10566000000E+00 0. -1.
         22    1    1    0    0    0 -0.23809587440E+02 -0.17506925247E+02 -0.15498125379E+02  0.33370357744E+02  0.00000000000E+00 0. -1.
</event>
<event>
 5    1  0.1285346E-004  0.9118800E+02  0.7818608E-02  0.1130116E+00
         25   -1    0    0    0    0  0.00000000000E+00  0.00000000000E+00  0.99999998245E-14  0.12500000000E+03  0.12500000000E+03 0.  0.
        -13    1    3    3    0    0 -0.28654700471E+02 -0.30314301347E+01 -0.19970881046E+02  0.35058931552E+02  0.10566000000E+00 0. -1.
         23    2    1    0    0    0  0.21810261773E+02 -0.20914974762E+02  0.53954729744E+01  0.94304156364E+02  0.89168599243E+02 0.  0.
         13    1    3    3    0    0  0.50464962244E+02 -0.17883544628E+02  0.25366354021E+02  0.59245224812E+02  0.10566000000E+00 0.  1.
         22    1    1    0    0    0 -0.21810261773E+02  0.20914974762E+02 -0.53954729744E+01  0.30695843636E+02  0.00000000000E+00 0.  1.
</event>
<event>
 5    1  0.1285346E-004  0.9118800E+02  0.7818608E-02  0.1130116E+00
         25   -1    0    0    0    0  0.00000000000E+00  0.00000000000E+00  0.99999998245E-14  0.12500000000E+03  0.12500000000E+03 0.  0.
        -13    1    3    3    0    0 -0.45870115678E+01 -0.31684351692E+02 -0.30100623042E+02  0.43943116512E+02  0.10566000000E+00 0. -1.
         23    2    1    0    0    0  0.17219257549E+02  0.14015098290E+02 -0.18992611924E+02  0.95782794139E+02  0.91217863024E+02 0.  0.
         13    1    3    3    0    0  0.21806269117E+02  0.45699449982E+02  0.11108011117E+02  0.51839677627E+02  0.10566000000E+00 0.  1.
         22    1    1    0    0    0 -0.17219257549E+02 -0.14015098290E+02  0.18992611924E+02  0.29217205861E+02  0.00000000000E+00 0.  1.
</event>
<event>
 5    1  0.1285346E-004  0.9118800E+02  0.7818608E-02  0.1130116E+00
         25   -1    0    0    0    0  0.00000000000E+00  0.00000000000E+00  0.99999998245E-14  0.12500000000E+03  0.12500000000E+03 0.  0.
        -13    1    3    3    0    0 -0.44331585095E+02  0.12934577334E+02  0.37179071982E+02  0.59286484845E+02  0.10566000000E+00 0. -1.
         23    2    1    0    0    0 -0.19507852569E+02  0.38136791722E+01  0.33581645826E+02  0.85976578865E+02  0.76610343403E+02 0.  0.
         13    1    3    3    0    0  0.24823732526E+02 -0.91208981622E+01 -0.35974261558E+01  0.26690094020E+02  0.10566000000E+00 0.  1.
         22    1    1    0    0    0  0.19507852569E+02 -0.38136791722E+01 -0.33581645826E+02  0.39023421135E+02  0.00000000000E+00 0. -1.
</event>
<event>
 5    1  0.1285346E-004  0.9118800E+02  0.7818608E-02  0.1130116E+00
         25   -1    0    0    0    0  0.00000000000E+00  0.00000000000E+00  0.99999998245E-14  0.12500000000E+03  0.12500000000E+03 0.  0.
        -13    1    3    3    0    0  0.12529331076E+02  0.26754087288E+02 -0.17595905444E+02  0.34385932825E+02  0.10566000000E+00 0.  1.
         23    2    1    0    0    0 -0.10967572710E+02 -0.26893983994E+02  0.12991736422E+01  0.95926612196E+02  0.91414731029E+02 0.  0.
         13    1    3    3    0    0 -0.23496903786E+02 -0.53648071282E+02  0.18895079086E+02  0.61540679371E+02  0.10566000000E+00 0. -1.
         22    1    1    0    0    0  0.10967572710E+02  0.26893983994E+02 -0.12991736422E+01  0.29073387804E+02  0.00000000000E+00 0. -1.
</event>
<event>
 5    1  0.1285346E-004  0.9118800E+02  0.7818608E-02  0.1130116E+00
         25   -1    0    0    0    0  0.00000000000E+00  0.00000000000E+00  0.99999998245E-14  0.12500000000E+03  0.12500000000E+03 0.  0.
        -13    1    3    3    0    0 -0.23913337190E+02  0.26769931896E+01  0.42296266705E+02  0.48662093352E+02  0.10566000000E+00 0.  1.
         23    2    1    0    0    0 -0.27417589616E+02 -0.11384818934E+02 -0.19769654374E+01  0.95246904113E+02  0.90480528448E+02 0.  0.
         13    1    3    3    0    0 -0.35042524259E+01 -0.14061812124E+02 -0.44273232143E+02  0.46584810762E+02  0.10566000000E+00 0. -1.
         22    1    1    0    0    0  0.27417589616E+02  0.11384818934E+02  0.19769654374E+01  0.29753095887E+02  0.00000000000E+00 0.  1.
</event>
<event>
 5    1  0.1285346E-004  0.9118800E+02  0.7818608E-02  0.1130116E+00
         25   -1    0    0    0    0  0.00000000000E+00  0.00000000000E+00  0.99999998245E-14  0.12500000000E+03  0.12500000000E+03 0.  0.
        -13    1    3    3    0    0 -0.14400315555E+02 -0.31116763834E+02  0.17426470181E+01  0.34331764624E+02  0.10566000000E+00 0. -1.
         23    2    1    0    0    0 -0.28480711074E+01  0.28325460269E+02  0.85696123230E+01  0.95269855974E+02  0.90512231181E+02 0.  0.
         13    1    3    3    0    0  0.11552244447E+02  0.59442224102E+02  0.68269653048E+01  0.60938091349E+02  0.10566000000E+00 0.  1.
         22    1    1    0    0    0  0.28480711074E+01 -0.28325460269E+02 -0.85696123230E+01  0.29730144026E+02  0.00000000000E+00 0.  1.
</event>
<event>
 5    1  0.1285346E-004  0.9118800E+02  0.7818608E-02  0.1130116E+00
         25   -1    0    0    0    0  0.00000000000E+00  0.00000000000E+00  0.99999998245E-14  0.12500000000E+03  0.12500000000E+03 0.  0.
        -13    1    3    3    0    0  0.20947813730E+02  0.24069993126E+02  0.37742237878E+02  0.49423305769E+02  0.10566000000E+00 0. -1.
         23    2    1    0    0    0 -0.39467032322E+01 -0.12900317157E+02  0.26303880286E+02  0.95438390313E+02  0.90744683471E+02 0.  0.
         13    1    3    3    0    0 -0.24894516962E+02 -0.36970310282E+02 -0.11438357591E+02  0.46015084544E+02  0.10566000000E+00 0.  1.
         22    1    1    0    0    0  0.39467032322E+01  0.12900317157E+02 -0.26303880286E+02  0.29561609687E+02  0.00000000000E+00 0.  1.
</event>
<event>
 5    1  0.1285346E-004  0.9118800E+02  0.7818608E-02  0.1130116E+00
         25   -1    0    0    0    0  0.00000000000E+00  0.00000000000E+00  0.99999998245E-14  0.12500000000E+03  0.12500000000E+03 0.  0.
        -13    1    3    3    0    0  0.28817377627E+02  0.40801425203E+02 -0.31106822688E+02  0.58845927078E+02  0.10566000000E+00 0. -1.
         23    2    1    0    0    0  0.15430266475E+02  0.73614785346E+01 -0.23956121497E+02  0.95569059701E+02  0.90924501238E+02 0.  0.
         13    1    3    3    0    0 -0.13387111152E+02 -0.33439946668E+02  0.71507011915E+01  0.36723132624E+02  0.10566000000E+00 0.  1.
         22    1    1    0    0    0 -0.15430266475E+02 -0.73614785346E+01  0.23956121497E+02  0.29430940299E+02  0.00000000000E+00 0. -1.
</event>
<event>
 5    1  0.1285346E-004  0.9118800E+02  0.7818608E-02  0.1130116E+00
         25   -1    0    0    0    0  0.00000000000E+00  0.00000000000E+00  0.99999998245E-14  0.12500000000E+03  0.12500000000E+03 0.  0.
        -13    1    3    3    0    0 -0.22939685641E+02 -0.52375689121E+02  0.96555660058E+01  0.57988646364E+02  0.10566000000E+00 0.  1.
         23    2    1    0    0    0 -0.23717944970E+02 -0.13667931403E+02  0.67040590914E+01  0.96816712918E+02  0.92623853458E+02 0.  0.
         13    1    3    3    0    0 -0.77825932962E+00  0.38707757719E+02 -0.29515069144E+01  0.38828066554E+02  0.10566000000E+00 0. -1.
         22    1    1    0    0    0  0.23717944970E+02  0.13667931403E+02 -0.67040590914E+01  0.28183287082E+02  0.00000000000E+00 0.  1.
</event>
<event>
 5    1  0.1285346E-004  0.9118800E+02  0.7818608E-02  0.1130116E+00
         25   -1    0    0    0    0  0.00000000000E+00  0.00000000000E+00  0.99999998245E-14  0.12500000000E+03  0.12500000000E+03 0.  0.
        -13    1    3    3    0    0  0.27691390045E+02 -0.24970882790E+02  0.48972473877E-01  0.37287687409E+02  0.10566000000E+00 0. -1.
         23    2    1    0    0    0 -0.11005997973E+02  0.17211872701E+02 -0.18476100695E+02  0.97454640134E+02  0.93480800347E+02 0.  0.
         13    1    3    3    0    0 -0.38697388018E+02  0.42182755491E+02 -0.18525073169E+02  0.60166952725E+02  0.10566000000E+00 0.  1.
         22    1    1    0    0    0  0.11005997973E+02 -0.17211872701E+02  0.18476100695E+02  0.27545359866E+02  0.00000000000E+00 0.  1.
</event>
<event>
 5    1  0.1285346E-004  0.9118800E+02  0.7818608E-02  0.1130116E+00
         25   -1    0    0    0    0  0.00000000000E+00  0.00000000000E+00  0.99999998245E-14  0.12500000000E+03  0.12500000000E+03 0.  0.
        -13    1    3    3    0    0 -0.89510010410E-01  0.31197689379E+02  0.15343249281E+02  0.34766798777E+02  0.10566000000E+00 0.  1.
         23    2    1    0    0    0  0.15733154652E+02 -0.24499385707E+02 -0.35403543823E+01  0.95669364745E+02  0.91062292889E+02 0.  0.
         13    1    3    3    0    0  0.15822664662E+02 -0.55697075086E+02 -0.18883603664E+02  0.60902565968E+02  0.10566000000E+00 0. -1.
         22    1    1    0    0    0 -0.15733154652E+02  0.24499385707E+02  0.35403543823E+01  0.29330635255E+02  0.00000000000E+00 0. -1.
</event>
<event>
 5    1  0.1285346E-004  0.9118800E+02  0.7818608E-02  0.1130116E+00
         25   -1    0    0    0    0  0.00000000000E+00  0.00000000000E+00  0.99999998245E-14  0.12500000000E+03  0.12500000000E+03 0.  0.
        -13    1    3    3    0    0  0.26329449588E+02 -0.30119548167E+02  0.14250380084E+01  0.40030850537E+02  0.10566000000E+00 0. -1.
         23    2    1    0    0    0 -0.20624982886E+02 -0.29073443561E+02  0.10444169977E+02  0.87855205936E+02  0.79616590508E+02 0.  0.
         13    1    3    3    0    0 -0.46954432474E+02  0.10461046058E+01  0.90191319690E+01  0.47824355399E+02  0.10566000000E+00 0.  1.
         22    1    1    0    0    0  0.20624982886E+02  0.29073443561E+02 -0.10444169977E+02  0.37144794064E+02  0.00000000000E+00 0.  1.
</event>
<event>
 5    1  0.1285346E-004  0.9118800E+02  0.7818608E-02  0.1130116E+00
         25   -1    0    0    0    0  0.00000000000E+00  0.00000000000E+00  0.99999998245E-14  0.12500000000E+03  0.12500000000E+03 0.  0.
        -13    1    3    3    0    0  0.22504236765E+02  0.22559425442E+02  0.46608333337E+02  0.56459864055E+02  0.10566000000E+00 0.  1.
         23    2    1    0    0    0 -0.76621819065E+01  0.17691895173E+02  0.22410727463E+02  0.95437305742E+02  0.90743189472E+02 0.  0.
         13    1    3    3    0    0 -0.30166418672E+02 -0.48675302688E+01 -0.24197605874E+02  0.38977441687E+02  0.10566000000E+00 0. -1.
         22    1    1    0    0    0  0.76621819065E+01 -0.17691895173E+02 -0.22410727463E+02  0.29562694258E+02  0.00000000000E+00 0.  1.
</event>
<event>
 5    1  0.1285346E-004  0.9118800E+02  0.7818608E-02  0.1130116E+00
         25   -1    0    0    0    0  0.00000000000E+00  0.00000000000E+00  0.99999998245E-14  0.12500000000E+03  0.12500000000E+03 0.  0.
        -13    1    3    3    0    0 -0.18820201472E+02 -0.37071698926E+02  0.22882470821E+02  0.47456606280E+02  0.10566000000E+00 0.  1.
         23    2    1    0    0    0  0.19785113020E+02 -0.91491758806E+01  0.20366358209E+02  0.95168026160E+02  0.90371491854E+02 0.  0.
         13    1    3    3    0    0  0.38605314492E+02  0.27922523046E+02 -0.25161126125E+01  0.47711419880E+02  0.10566000000E+00 0. -1.
         22    1    1    0    0    0 -0.19785113020E+02  0.91491758806E+01 -0.20366358209E+02  0.29831973840E+02  0.00000000000E+00 0. -1.
</event>
<event>
 5    1  0.1285346E-004  0.9118800E+02  0.7818608E-02  0.1130116E+00
         25   -1    0    0    0    0  0.00000000000E+00  0.00000000000E+00  0.99999998245E-14  0.12500000000E+03  0.12500000000E+03 0.  0.
        -13    1    3    3    0    0 -0.25781948602E+02 -0.70518830019E+01 -0.27494723011E+02  0.38345910930E+02  0.10566000000E+00 0.  1.
         23    2    1    0    0    0  0.21843134988E+02 -0.15568664871E+02  0.64063904188E+01  0.97421970517E+02  0.93437105205E+02 0.  0.
         13    1    3    3    0    0  0.47625083591E+02 -0.85167818691E+01  0.33901113430E+02  0.59076059586E+02  0.10566000000E+00 0. -1.
         22    1    1    0    0    0 -0.21843134988E+02  0.15568664871E+02 -0.64063904188E+01  0.27578029483E+02  0.00000000000E+00 0. -1.
</event>
<event>
 5    1  0.1285346E-004  0.9118800E+02  0.7818608E-02  0.1130116E+00
         25   -1    0    0    0    0  0.00000000000E+00  0.00000000000E+00  0.99999998245E-14  0.12500000000E+03  0.12500000000E+03 0.  0.
        -13    1    3    3    0    0  0.40562494255E+02 -0.65041273637E+01  0.11665006150E+01  0.41097341772E+02  0.10566000000E+00 0.  1.
         23    2    1    0    0    0  0.41378664449E+01  0.30787275989E+02  0.56788412563E+01  0.93421090273E+02  0.87921968633E+02 0.  0.
         13    1    3    3    0    0 -0.36424627810E+02  0.37291403353E+02  0.45123406413E+01  0.52323748501E+02  0.10566000000E+00 0. -1.
         22    1    1    0    0    0 -0.41378664449E+01 -0.30787275989E+02 -0.56788412563E+01  0.31578909727E+02  0.00000000000E+00 0. -1.
</event>
<event>
 5    1  0.1285346E-004  0.9118800E+02  0.7818608E-02  0.1130116E+00
         25   -1    0    0    0    0  0.00000000000E+00  0.00000000000E+00  0.99999998245E-14  0.12500000000E+03  0.12500000000E+03 0.  0.
        -13    1    3    3    0    0 -0.94901550436E+01  0.24487856643E+02 -0.38469309483E+02  0.46579148788E+02  0.10566000000E+00 0.  1.
         23    2    1    0    0    0 -0.13767406750E+02 -0.58244997187E+01  0.12150643708E+02  0.10573592909E+03  0.10396625545E+03 0.  0.
         13    1    3    3    0    0 -0.42772517065E+01 -0.30312356362E+02  0.50619953191E+02  0.59156780300E+02  0.10566000000E+00 0. -1.
         22    1    1    0    0    0  0.13767406750E+02  0.58244997187E+01 -0.12150643708E+02  0.19264070912E+02  0.00000000000E+00 0. -1.
</event>
<event>
 5    1  0.1285346E-004  0.9118800E+02  0.7818608E-02  0.1130116E+00
         25   -1    0    0    0    0  0.00000000000E+00  0.00000000000E+00  0.99999998245E-14  0.12500000000E+03  0.12500000000E+03 0.  0.
        -13    1    3    3    0    0 -0.21382850493E+02 -0.42764449932E+00  0.45539776084E+02  0.50311942368E+02  0.10566000000E+00 0. -1.
         23    2    1    0    0    0  0.44023601004E+01  0.23450197244E+02  0.15468991060E+02  0.96564420005E+02  0.92282744873E+02 0.  0.
         13    1    3    3    0    0  0.25785210593E+02  0.23877841743E+02 -0.30070785023E+02  0.46252477638E+02  0.10566000000E+00 0.  1.
         22    1    1    0    0    0 -0.44023601004E+01 -0.23450197244E+02 -0.15468991060E+02  0.28435579995E+02  0.00000000000E+00 0. -1.
</event>
<event>
 5    1  0.1285346E-004  0.9118800E+02  0.7818608E-02  0.1130116E+00
         25   -1    0    0    0    0  0.00000000000E+00  0.00000000000E+00  0.99999998245E-14  0.12500000000E+03  0.12500000000E+03 0.  0.
        -13    1    3    3    0    0  0.54492367796E+02 -0.28885042058E+02  0.16169413244E+01  0.61695943675E+02  0.10566000000E+00 0.  1.
         23    2    1    0    0    0  0.23525748218E+02 -0.16638348372E+02 -0.52857854255E+01  0.95704351973E+02  0.91110306734E+02 0.  0.
         13    1    3    3    0    0 -0.30966619577E+02  0.12246693686E+02 -0.69027267498E+01  0.34008408297E+02  0.10566000000E+00 0. -1.
         22    1    1    0    0    0 -0.23525748218E+02  0.16638348372E+02  0.52857854255E+01  0.29295648027E+02  0.00000000000E+00 0.  1.
</event>
<event>
 5    1  0.1285346E-004  0.9118800E+02  0.7818608E-02  0.1130116E+00
         25   -1    0    0    0    0  0.00000000000E+00  0.00000000000E+00  0.99999998245E-14  0.12500000000E+03  0.12500000000E+03 0.  0.
        -13    1    3    3    0    0  0.11429290924E+02 -0.68173416181E+01  0.37391797725E+02  0.39689577207E+02  0.10566000000E+00 0.  1.
         23    2    1    0    0    0  0.52900031635E+01  0.28849126294E+02 -0.48030779689E+01  0.95279202915E+02  0.90525138657E+02 0.  0.
         13    1    3    3    0    0 -0.61392877609E+01  0.35666467912E+02 -0.42194875694E+02  0.55589625708E+02  0.10566000000E+00 0. -1.
         22    1    1    0    0    0 -0.52900031635E+01 -0.28849126294E+02  0.48030779689E+01  0.29720797085E+02  0.00000000000E+00 0. -1.
</event>
<event>
 5    1  0.1285346E-004  0.9118800E+02  0.7818608E-02  0.1130116E+00
         25   -1    0    0    0    0  0.00000000000E+00  0.00000000000E+00  0.99999998245E-14  0.12500000000E+03  0.12500000000E+03 0.  0.
        -13    1    3    3    0    0 -0.51411581488E+02  0.20492548567E+02 -0.20087478130E+02  0.58877951727E+02  0.10566000000E+00 0. -1.
         23    2    1    0    0    0 -0.22480556749E+02  0.20704934801E+01  0.56129192092E+01  0.10173699854E+03  0.99041656056E+02 0.  0.
         13    1    3    3    0    0  0.28931024739E+02 -0.18422055087E+02  0.25700397339E+02  0.42859046810E+02  0.10566000000E+00 0.  1.
         22    1    1    0    0    0  0.22480556749E+02 -0.20704934801E+01 -0.56129192092E+01  0.23263001463E+02  0.00000000000E+00 0. -1.
</event>
<event>
 5    1  0.1285346E-004  0.9118800E+02  0.7818608E-02  0.1130116E+00
         25   -1    0    0    0    0  0.00000000000E+00  0.00000000000E+00  0.99999998245E-14  0.12500000000E+03  0.12500000000E+03 0.  0.
        -13    1    3    3    0    0 -0.16961468607E+02 -0.15094854506E+02  0.56164566763E+02  0.60580655110E+02  0.10566000000E+00 0. -1.
         23    2    1    0    0    0 -0.18269588717E+02 -0.86946772977E+01  0.23067606044E+02  0.94316295305E+02  0.89185614458E+02 0.  0.
         13    1    3    3    0    0 -0.13081201102E+01  0.64001772085E+01 -0.33096960718E+02  0.33735640195E+02  0.10566000000E+00 0.  1.
         22    1    1    0    0    0  0.18269588717E+02  0.86946772977E+01 -0.23067606044E+02  0.30683704695E+02  0.00000000000E+00 0. -1.
</event>
<event>
 5    1  0.1285346E-004  0.9118800E+02  0.7818608E-02  0.1130116E+00
         25   -1    0    0    0    0  0.00000000000E+00  0.00000000000E+00  0.99999998245E-14  0.12500000000E+03  0.12500000000E+03 0.  0.
        -13    1    3    3    0    0 -0.40014334454E+02 -0.32446706815E+02  0.14100242349E+02  0.53411269815E+02  0.10566000000E+00 0.  1.
         23    2    1    0    0    0 -0.28505956440E+02  0.65161435434E+01  0.25526671440E+01  0.95647559066E+02  0.91032355602E+02 0.  0.
         13    1    3    3    0    0  0.11508378014E+02  0.38962850358E+02 -0.11547575205E+02  0.42236289251E+02  0.10566000000E+00 0. -1.
         22    1    1    0    0    0  0.28505956440E+02 -0.65161435434E+01 -0.25526671440E+01  0.29352440934E+02  0.00000000000E+00 0.  1.
</event>
<event>
 5    1  0.1285346E-004  0.9118800E+02  0.7818608E-02  0.1130116E+00
         25   -1    0    0    0    0  0.00000000000E+00  0.00000000000E+00  0.99999998245E-14  0.12500000000E+03  0.12500000000E+03 0.  0.
        -13    1    3    3    0    0 -0.11921803320E+02 -0.91094299198E+01 -0.31968867916E+02  0.35314738959E+02  0.10566000000E+00 0.  1.
         23    2    1    0    0    0  0.27141159090E+02  0.63075076056E+01  0.10670577456E+02  0.95162299147E+02  0.90363570020E+02 0.  0.
         13    1    3    3    0    0  0.39062962409E+02  0.15416937525E+02  0.42639445372E+02  0.59847560189E+02  0.10566000000E+00 0. -1.
         22    1    1    0    0    0 -0.27141159090E+02 -0.63075076056E+01 -0.10670577456E+02  0.29837700853E+02  0.00000000000E+00 0. -1.
</event>
<event>
 5    1  0.1285346E-004  0.9118800E+02  0.7818608E-02  0.1130116E+00
         25   -1    0    0    0    0  0.00000000000E+00  0.00000000000E+00  0.99999998245E-14  0.12500000000E+03  0.12500000000E+03 0.  0.
        -13    1    3    3    0    0 -0.95293455166E+01  0.10296348640E+02  0.45062160827E+02  0.47195685436E+02  0.10566000000E+00 0.  1.
         23    2    1    0    0    0  0.25828691671E+02  0.22806951622E+01  0.11376458292E+02  0.96684868231E+02  0.92445751972E+02 0.  0.
         13    1    3    3    0    0  0.35358037187E+02 -0.80156534776E+01 -0.33685702535E+02  0.49489182795E+02  0.10566000000E+00 0. -1.
         22    1    1    0    0    0 -0.25828691671E+02 -0.22806951622E+01 -0.11376458292E+02  0.28315131769E+02  0.00000000000E+00 0. -1.
</event>
<event>
 5    1  0.1285346E-004  0.9118800E+02  0.7818608E-02  0.1130116E+00
         25   -1    0    0    0    0  0.00000000000E+00  0.00000000000E+00  0.99999998245E-14  0.12500000000E+03  0.12500000000E+03 0.  0.
        -13    1    3    3    0    0  0.40978197531E+01 -0.53663194789E+02 -0.29889329454E+02  0.61562275631E+02  0.10566000000E+00 0.  1.
         23    2    1    0    0    0 -0.57119200984E+01 -0.25501413968E+02 -0.14047582506E+02  0.95330441192E+02  0.90595862478E+02 0.  0.
         13    1    3    3    0    0 -0.98097398516E+01  0.28161780820E+02  0.15841746949E+02  0.33768165561E+02  0.10566000000E+00 0. -1.
         22    1    1    0    0    0  0.57119200984E+01  0.25501413968E+02  0.14047582506E+02  0.29669558808E+02  0.00000000000E+00 0.  1.
</event>
<event>
 5    1  0.1285346E-004  0.9118800E+02  0.7818608E-02  0.1130116E+00
         25   -1    0    0    0    0  0.00000000000E+00  0.00000000000E+00  0.99999998245E-14  0.12500000000E+03  0.12500000000E+03 0.  0.
        -13    1    3    3    0    0 -0.40815381068E+02  0.53012202015E+00 -0.38788550206E+02  0.56309316744E+02  0.10566000000E+00 0. -1.
         23    2    1    0    0    0 -0.35505242951E+01  0.97843293809E+01 -0.26346857605E+02  0.96671635595E+02  0.92427857807E+02 0.  0.
         13    1    3    3    0    0  0.37264856773E+02  0.92542073607E+01  0.12441692601E+02  0.40362318851E+02  0.10566000000E+00 0.  1.
         22    1    1    0    0    0  0.35505242951E+01 -0.97843293809E+01  0.26346857605E+02  0.28328364405E+02  0.00000000000E+00 0. -1.
</event>
<event>
 5    1  0.1285346E-004  0.9118800E+02  0.7818608E-02  0.1130116E+00
         25   -1    0    0    0    0  0.00000000000E+00  0.00000000000E+00  0.99999998245E-14  0.12500000000E+03  0.12500000000E+03 0.  0.
        -13    1    3    3    0    0 -0.30004062063E+02  0.80554272160E+01 -0.44604775075E+02  0.54357435291E+02  0.10566000000E+00 0.  1.
         23    2    1    0    0    0 -0.71267007308E+01  0.24302358584E+02 -0.13310052329E+02  0.96389652413E+02  0.92045712031E+02 0.  0.
         13    1    3    3    0    0  0.22877361333E+02  0.16246931368E+02  0.31294722746E+02  0.42032217122E+02  0.10566000000E+00 0. -1.
         22    1    1    0    0    0  0.71267007308E+01 -0.24302358584E+02  0.13310052329E+02  0.28610347587E+02  0.00000000000E+00 0. -1.
</event>
<event>
 5    1  0.1285346E-004  0.9118800E+02  0.7818608E-02  0.1130116E+00
         25   -1    0    0    0    0  0.00000000000E+00  0.00000000000E+00  0.99999998245E-14  0.12500000000E+03  0.12500000000E+03 0.  0.
        -13    1    3    3    0    0 -0.33852941771E+02 -0.82102168127E+01  0.96472210773E+01  0.36145668693E+02  0.10566000000E+00 0. -1.
         23    2    1    0    0    0  0.15683247702E+02  0.18439224816E+02 -0.13855803231E+02  0.97108199171E+02  0.93016395290E+02 0.  0.
         13    1    3    3    0    0  0.49536189473E+02  0.26649441629E+02 -0.23503024309E+02  0.60962530478E+02  0.10566000000E+00 0.  1.
         22    1    1    0    0    0 -0.15683247702E+02 -0.18439224816E+02  0.13855803231E+02  0.27891800829E+02  0.00000000000E+00 0.  1.
</event>
<event>
 5    1  0.1285346E-004  0.9118800E+02  0.7818608E-02  0.1130116E+00
         25   -1    0    0    0    0  0.00000000000E+00  0.00000000000E+00  0.99999998245E-14  0.12500000000E+03  0.12500000000E+03 0.  0.
        -13    1    3    3    0    0 -0.18152565715E+02  0.50345032855E+02  0.31319006498E+02  0.62008300309E+02  0.10566000000E+00 0.  1.
         23    2    1    0    0    0 -0.33449607121E+01  0.25591507056E+02  0.14894841831E+02  0.95201169339E+02  0.90417323201E+02 0.  0.
         13    1    3    3    0    0  0.14807605003E+02 -0.24753525799E+02 -0.16424164668E+02  0.33192869030E+02  0.10566000000E+00 0. -1.
         22    1    1    0    0    0  0.33449607121E+01 -0.25591507056E+02 -0.14894841831E+02  0.29798830661E+02  0.00000000000E+00 0.  1.
</event>
<event>
 5    1  0.1285346E-004  0.9118800E+02  0.7818608E-02  0.1130116E+00
         25   -1    0    0    0    0  0.00000000000E+00  0.00000000000E+00  0.99999998245E-14  0.12500000000E+03  0.12500000000E+03 0.  0.
        -13    1    3    3    0    0  0.44909470019E+02  0.15417291439E+02  0.37382655169E+02  0.60432006786E+02  0.10566000000E+00 0. -1.
         23    2    1    0    0    0  0.22757635492E+02 -0.39791678217E+01  0.18408188248E+02  0.95460109271E+02  0.90774596213E+02 0.  0.
         13    1    3    3    0    0 -0.22151834526E+02 -0.19396459260E+02 -0.18974466921E+02  0.35028102485E+02  0.10566000000E+00 0.  1.
         22    1    1    0    0    0 -0.22757635492E+02  0.39791678217E+01 -0.18408188248E+02  0.29539890729E+02  0.00000000000E+00 0. -1.
</event>
<event>
 5    1  0.1285346E-004  0.9118800E+02  0.7818608E-02  0.1130116E+00
         25   -1    0    0    0    0  0.00000000000E+00  0.00000000000E+00  0.99999998245E-14  0.12500000000E+03  0.12500000000E+03 0.  0.
        -13    1    3    3    0    0  0.14087021967E+02 -0.42293690803E+02 -0.26675405559E+02  0.51949869061E+02  0.10566000000E+00 0.  1.
         23    2    1    0    0    0 -0.11662840343E+02 -0.79716602323E+01 -0.26626996554E+02  0.94857568824E+02  0.89941048504E+02 0.  0.
         13    1    3    3    0    0 -0.25749862310E+02  0.34322030571E+02  0.48409005267E-01  0.42907699763E+02  0.10566000000E+00 0. -1.
         22    1    1    0    0    0  0.11662840343E+02  0.79716602323E+01  0.26626996554E+02  0.30142431176E+02  0.00000000000E+00 0. -1.
</event>
<event>
 5    1  0.1285346E-004  0.9118800E+02  0.7818608E-02  0.1130116E+00
         25   -1    0    0    0    0  0.00000000000E+00  0.00000000000E+00  0.99999998245E-14  0.12500000000E+03  0.12500000000E+03 0.  0.
        -13    1    3    3    0    0 -0.35600668931E+02  0.20281748745E+02  0.17438676523E+02  0.44529490940E+02  0.10566000000E+00 0. -1.
         23    2    1    0    0    0  0.16625042063E+01 -0.12226958867E+02  0.27378499812E+02  0.94969270816E+02  0.90096158098E+02 0.  0.
         13    1    3    3    0    0  0.37263173137E+02 -0.32508707612E+02  0.99398232893E+01  0.50439779876E+02  0.10566000000E+00 0.  1.
         22    1    1    0    0    0 -0.16625042063E+01  0.12226958867E+02 -0.27378499812E+02  0.30030729184E+02  0.00000000000E+00 0.  1.
</event>
<event>
 5    1  0.1285346E-004  0.9118800E+02  0.7818608E-02  0.1130116E+00
         25   -1    0    0    0    0  0.00000000000E+00  0.00000000000E+00  0.99999998245E-14  0.12500000000E+03  0.12500000000E+03 0.  0.
        -13    1    3    3    0    0 -0.11740470582E+02 -0.11033257349E+02 -0.31769657309E+02  0.35621534313E+02  0.10566000000E+00 0. -1.
         23    2    1    0    0    0  0.11803528226E+02  0.24073825335E+02  0.11241064604E+02  0.95927093742E+02  0.91415389489E+02 0.  0.
         13    1    3    3    0    0  0.23543998808E+02  0.35107082685E+02  0.43010721913E+02  0.60305559429E+02  0.10566000000E+00 0.  1.
         22    1    1    0    0    0 -0.11803528226E+02 -0.24073825335E+02 -0.11241064604E+02  0.29072906258E+02  0.00000000000E+00 0.  1.
</event>
<event>
 5    1  0.1285346E-004  0.9118800E+02  0.7818608E-02  0.1130116E+00
         25   -1    0    0    0    0  0.00000000000E+00  0.00000000000E+00  0.99999998245E-14  0.12500000000E+03  0.12500000000E+03 0.  0.
        -13    1    3    3    0    0 -0.30390638628E+02  0.31423999381E+02 -0.19753441538E+02  0.47971536039E+02  0.10566000000E+00 0. -1.
         23    2    1    0    0    0  0.14338261531E+02  0.13673415969E+02 -0.21024747506E+02  0.96110762287E+02  0.91666190996E+02 0.  0.
         13    1    3    3    0    0  0.44728900159E+02 -0.17750583412E+02 -0.12713059675E+01  0.48139226248E+02  0.10566000000E+00 0.  1.
         22    1    1    0    0    0 -0.14338261531E+02 -0.13673415969E+02  0.21024747506E+02  0.28889237713E+02  0.00000000000E+00 0.  1.
</event>
<event>
 5    1  0.1285346E-004  0.9118800E+02  0.7818608E-02  0.1130116E+00
         25   -1    0    0    0    0  0.00000000000E+00  0.00000000000E+00  0.99999998245E-14  0.12500000000E+03  0.12500000000E+03 0.  0.
        -13    1    3    3    0    0  0.18179104686E+02 -0.25283743929E+02 -0.47922487247E+02  0.57151758523E+02  0.10566000000E+00 0.  1.
         23    2    1    0    0    0  0.19599020629E+02  0.28541153688E+01 -0.21310866279E+02  0.95906691393E+02  0.91387487372E+02 0.  0.
         13    1    3    3    0    0  0.14199159431E+01  0.28137859298E+02  0.26611620968E+02  0.38754932870E+02  0.10566000000E+00 0. -1.
         22    1    1    0    0    0 -0.19599020629E+02 -0.28541153688E+01  0.21310866279E+02  0.29093308607E+02  0.00000000000E+00 0.  1.
</event>
<event>
 5    1  0.1285346E-004  0.9118800E+02  0.7818608E-02  0.1130116E+00
         25   -1    0    0    0    0  0.00000000000E+00  0.00000000000E+00  0.99999998245E-14  0.12500000000E+03  0.12500000000E+03 0.  0.
        -13    1    3    3    0    0 -0.28356303641E+02 -0.47236108815E+02 -0.12954778701E+02  0.56596531585E+02  0.10566000000E+00 0. -1.
         23    2    1    0    0    0 -0.22951781155E+02 -0.16123754054E+02  0.95455000441E+01  0.95371023068E+02  0.90651838188E+02 0.  0.
         13    1    3    3    0    0  0.54045224867E+01  0.31112354761E+02  0.22500278746E+02  0.38774491483E+02  0.10566000000E+00 0.  1.
         22    1    1    0    0    0  0.22951781155E+02  0.16123754054E+02 -0.95455000441E+01  0.29628976932E+02  0.00000000000E+00 0. -1.
</event>
<event>
 5    1  0.1285346E-004  0.9118800E+02  0.7818608E-02  0.1130116E+00
         25   -1    0    0    0    0  0.00000000000E+00  0.00000000000E+00  0.99999998245E-14  0.12500000000E+03  0.12500000000E+03 0.  0.
        -13    1    3    3    0    0  0.18075428878E+02 -0.17816187370E+02  0.30161434531E+02  0.39419043095E+02  0.10566000000E+00 0. -1.
         23    2    1    0    0    0  0.31718267376E+02  0.19487607382E+02  0.26493422917E+02  0.79308460469E+02  0.64823723414E+02 0.  0.
         13    1    3    3    0    0  0.13642838498E+02  0.37303794752E+02 -0.36680116140E+01  0.39889417374E+02  0.10566000000E+00 0.  1.
         22    1    1    0    0    0 -0.31718267376E+02 -0.19487607382E+02 -0.26493422917E+02  0.45691539531E+02  0.00000000000E+00 0.  1.
</event>
<event>
 5    1  0.1285346E-004  0.9118800E+02  0.7818608E-02  0.1130116E+00
         25   -1    0    0    0    0  0.00000000000E+00  0.00000000000E+00  0.99999998245E-14  0.12500000000E+03  0.12500000000E+03 0.  0.
        -13    1    3    3    0    0  0.15458245801E+01  0.19810954724E+02 -0.53484096336E+02  0.57056316265E+02  0.10566000000E+00 0. -1.
         23    2    1    0    0    0 -0.16271116927E+02  0.16552667336E+01 -0.23354170405E+02  0.96488486022E+02  0.92179832422E+02 0.  0.
         13    1    3    3    0    0 -0.17816941508E+02 -0.18155687991E+02  0.30129925931E+02  0.39432169757E+02  0.10566000000E+00 0.  1.
         22    1    1    0    0    0  0.16271116927E+02 -0.16552667336E+01  0.23354170405E+02  0.28511513978E+02  0.00000000000E+00 0. -1.
</event>
<event>
 5    1  0.1285346E-004  0.9118800E+02  0.7818608E-02  0.1130116E+00
         25   -1    0    0    0    0  0.00000000000E+00  0.00000000000E+00  0.99999998245E-14  0.12500000000E+03  0.12500000000E+03 0.  0.
        -13    1    3    3    0    0  0.10600690296E+02  0.53663196784E+02  0.23205906068E+02  0.59419176739E+02  0.10566000000E+00 0. -1.
         23    2    1    0    0    0  0.15852234631E+02  0.22166317017E+02  0.21592689632E+01  0.97663186079E+02  0.93759247649E+02 0.  0.
         13    1    3    3    0    0  0.52515443349E+01 -0.31496879767E+02 -0.21046637105E+02  0.38244009340E+02  0.10566000000E+00 0.  1.
         22    1    1    0    0    0 -0.15852234631E+02 -0.22166317017E+02 -0.21592689632E+01  0.27336813921E+02  0.00000000000E+00 0. -1.
</event>
<event>
 5    1  0.1285346E-004  0.9118800E+02  0.7818608E-02  0.1130116E+00
         25   -1    0    0    0    0  0.00000000000E+00  0.00000000000E+00  0.99999998245E-14  0.12500000000E+03  0.12500000000E+03 0.  0.
        -13    1    3    3    0    0 -0.26370733654E+02 -0.19902916423E+02 -0.22525651039E+02  0.39986970307E+02  0.10566000000E+00 0.  1.
         23    2    1    0    0    0  0.19744553790E+02 -0.14431521044E+01  0.13228781037E+02  0.10118969257E+03  0.98348478084E+02 0.  0.
         13    1    3    3    0    0  0.46115287444E+02  0.18459764318E+02  0.35754432077E+02  0.61202722259E+02  0.10566000000E+00 0. -1.
         22    1    1    0    0    0 -0.19744553790E+02  0.14431521044E+01 -0.13228781037E+02  0.23810307434E+02  0.00000000000E+00 0. -1.
</event>
<event>
 5    1  0.1285346E-004  0.9118800E+02  0.7818608E-02  0.1130116E+00
         25   -1    0    0    0    0  0.00000000000E+00  0.00000000000E+00  0.99999998245E-14  0.12500000000E+03  0.12500000000E+03 0.  0.
        -13    1    3    3    0    0 -0.97027619494E+00 -0.42644072711E+02  0.87284260667E+01  0.43539119868E+02  0.10566000000E+00 0. -1.
         23    2    1    0    0    0  0.24080296014E+02 -0.24150720346E+02 -0.19625389786E+02  0.85651888563E+02  0.76078723312E+02 0.  0.
         13    1    3    3    0    0  0.25050572209E+02  0.18493352365E+02 -0.28353815853E+02  0.42112768695E+02  0.10566000000E+00 0.  1.
         22    1    1    0    0    0 -0.24080296014E+02  0.24150720346E+02  0.19625389786E+02  0.39348111437E+02  0.00000000000E+00 0. -1.
</event>
<event>
 5    1  0.1285346E-004  0.9118800E+02  0.7818608E-02  0.1130116E+00
         25   -1    0    0    0    0  0.00000000000E+00  0.00000000000E+00  0.99999998245E-14  0.12500000000E+03  0.12500000000E+03 0.  0.
        -13    1    3    3    0    0 -0.23194107466E+02  0.46122834574E+02  0.28264999785E+02  0.58857487775E+02  0.10566000000E+00 0. -1.
         23    2    1    0    0    0  0.11500437920E+01  0.23064407659E+02  0.22265796231E+02  0.92921110006E+02  0.87208242166E+02 0.  0.
         13    1    3    3    0    0  0.24344151258E+02 -0.23058426914E+02 -0.59992035536E+01  0.34063622232E+02  0.10566000000E+00 0.  1.
         22    1    1    0    0    0 -0.11500437920E+01 -0.23064407659E+02 -0.22265796231E+02  0.32078889994E+02  0.00000000000E+00 0. -1.
</event>
<event>
 5    1  0.1285346E-004  0.9118800E+02  0.7818608E-02  0.1130116E+00
         25   -1    0    0    0    0  0.00000000000E+00  0.00000000000E+00  0.99999998245E-14  0.12500000000E+03  0.12500000000E+03 0.  0.
        -13    1    3    3    0    0 -0.14090088089E+02  0.96746276837E+00  0.36649571644E+02  0.39276823093E+02  0.10566000000E+00 0.  1.
         23    2    1    0    0    0  0.23455281276E+02  0.15897702646E+02 -0.37538917512E+01  0.96417157726E+02  0.92083057245E+02 0.  0.
         13    1    3    3    0    0  0.37545369366E+02  0.14930239878E+02 -0.40403463395E+02  0.57140334633E+02  0.10566000000E+00 0. -1.
         22    1    1    0    0    0 -0.23455281276E+02 -0.15897702646E+02  0.37538917512E+01  0.28582842274E+02  0.00000000000E+00 0. -1.
</event>
<event>
 5    1  0.1285346E-004  0.9118800E+02  0.7818608E-02  0.1130116E+00
         25   -1    0    0    0    0  0.00000000000E+00  0.00000000000E+00  0.99999998245E-14  0.12500000000E+03  0.12500000000E+03 0.  0.
        -13    1    3    3    0    0 -0.37702575066E+00  0.30101809324E+02 -0.21135512460E+02  0.36782905323E+02  0.10566000000E+00 0.  1.
         23    2    1    0    0    0  0.18487488025E+02 -0.21410499951E+02  0.26763075688E+01  0.96585930530E+02  0.92311876985E+02 0.  0.
         13    1    3    3    0    0  0.18864513776E+02 -0.51512309275E+02  0.23811820029E+02  0.59803025207E+02  0.10566000000E+00 0. -1.
         22    1    1    0    0    0 -0.18487488025E+02  0.21410499951E+02 -0.26763075688E+01  0.28414069470E+02  0.00000000000E+00 0. -1.
</event>
<event>
 5    1  0.1285346E-004  0.9118800E+02  0.7818608E-02  0.1130116E+00
         25   -1    0    0    0    0  0.00000000000E+00  0.00000000000E+00  0.99999998245E-14  0.12500000000E+03  0.12500000000E+03 0.  0.
        -13    1    3    3    0    0 -0.43909045904E+02 -0.18847028688E+02  0.87408938691E+01  0.48576014578E+02  0.10566000000E+00 0. -1.
         23    2    1    0    0    0  0.23582888143E+01 -0.28386130961E+02  0.59657991003E+01  0.95898029002E+02  0.91375638167E+02 0.  0.
         13    1    3    3    0    0  0.46267334719E+02 -0.95391022728E+01 -0.27750947689E+01  0.47322014424E+02  0.10566000000E+00 0.  1.
         22    1    1    0    0    0 -0.23582888143E+01  0.28386130961E+02 -0.59657991003E+01  0.29101970998E+02  0.00000000000E+00 0. -1.
</event>
<event>
 5    1  0.1285346E-004  0.9118800E+02  0.7818608E-02  0.1130116E+00
         25   -1    0    0    0    0  0.00000000000E+00  0.00000000000E+00  0.99999998245E-14  0.12500000000E+03  0.12500000000E+03 0.  0.
        -13    1    3    3    0    0 -0.30679657643E+02  0.89513147693E+01  0.36666644596E+02  0.48639710311E+02  0.10566000000E+00 0.  1.
         23    2    1    0    0    0  0.30542248255E+01  0.27581785066E+02  0.10001788464E+02  0.95502221623E+02  0.90832567979E+02 0.  0.
         13    1    3    3    0    0  0.33733882469E+02  0.18630470297E+02 -0.26664856131E+02  0.46862511312E+02  0.10566000000E+00 0. -1.
         22    1    1    0    0    0 -0.30542248255E+01 -0.27581785066E+02 -0.10001788464E+02  0.29497778377E+02  0.00000000000E+00 0.  1.
</event>
<event>
 5    1  0.1285346E-004  0.9118800E+02  0.7818608E-02  0.1130116E+00
         25   -1    0    0    0    0  0.00000000000E+00  0.00000000000E+00  0.99999998245E-14  0.12500000000E+03  0.12500000000E+03 0.  0.
        -13    1    3    3    0    0  0.39847868215E+02 -0.58273049275E+00 -0.16509104651E+02  0.43136456467E+02  0.10566000000E+00 0.  1.
         23    2    1    0    0    0 -0.10916345738E+01 -0.29731875667E+02 -0.35495513763E+01  0.95037099412E+02  0.90190214840E+02 0.  0.
         13    1    3    3    0    0 -0.40939502789E+02 -0.29149145174E+02  0.12959553274E+02  0.51900642945E+02  0.10566000000E+00 0. -1.
         22    1    1    0    0    0  0.10916345738E+01  0.29731875667E+02  0.35495513763E+01  0.29962900588E+02  0.00000000000E+00 0.  1.
</event>
<event>
 5    1  0.1285346E-004  0.9118800E+02  0.7818608E-02  0.1130116E+00
         25   -1    0    0    0    0  0.00000000000E+00  0.00000000000E+00  0.99999998245E-14  0.12500000000E+03  0.12500000000E+03 0.  0.
        -13    1    3    3    0    0  0.23974388157E+02  0.50480121375E+02  0.23310080250E+02  0.60550680812E+02  0.10566000000E+00 0.  1.
         23    2    1    0    0    0  0.11711960397E+02  0.25823947640E+02 -0.23216521523E-01  0.96644280523E+02  0.92390855233E+02 0.  0.
         13    1    3    3    0    0 -0.12262427759E+02 -0.24656173735E+02 -0.23333296772E+02  0.36093599711E+02  0.10566000000E+00 0. -1.
         22    1    1    0    0    0 -0.11711960397E+02 -0.25823947640E+02  0.23216521523E-01  0.28355719477E+02  0.00000000000E+00 0.  1.
</event>
<event>
 5    1  0.1285346E-004  0.9118800E+02  0.7818608E-02  0.1130116E+00
         25   -1    0    0    0    0  0.00000000000E+00  0.00000000000E+00  0.99999998245E-14  0.12500000000E+03  0.12500000000E+03 0.  0.
        -13    1    3    3    0    0 -0.14188215408E+02 -0.84823409713E+01 -0.34044862470E+02  0.37845995686E+02  0.10566000000E+00 0.  1.
         23    2    1    0    0    0 -0.99032376815E+01  0.18379045345E+02  0.18558750985E+02  0.97066316704E+02  0.92960094535E+02 0.  0.
         13    1    3    3    0    0  0.42849777265E+01  0.26861386316E+02  0.52603613455E+02  0.59220321018E+02  0.10566000000E+00 0. -1.
         22    1    1    0    0    0  0.99032376815E+01 -0.18379045345E+02 -0.18558750985E+02  0.27933683296E+02  0.00000000000E+00 0. -1.
</event>
<event>
 5    1  0.1285346E-004  0.9118800E+02  0.7818608E-02  0.1130116E+00
         25   -1    0    0    0    0  0.00000000000E+00  0.00000000000E+00  0.99999998245E-14  0.12500000000E+03  0.12500000000E+03 0.  0.
        -13    1    3    3    0    0  0.39514954988E+02 -0.46784358159E+01 -0.18337056658E+02  0.43812991684E+02  0.10566000000E+00 0. -1.
         23    2    1    0    0    0  0.16552842257E+02  0.31316438784E+01  0.25806888563E+02  0.94181186307E+02  0.88996048096E+02 0.  0.
         13    1    3    3    0    0 -0.22962112731E+02  0.78100796943E+01  0.44143945220E+02  0.50368194623E+02  0.10566000000E+00 0.  1.
         22    1    1    0    0    0 -0.16552842257E+02 -0.31316438784E+01 -0.25806888563E+02  0.30818813693E+02  0.00000000000E+00 0.  1.
</event>
<event>
 5    1  0.1285346E-004  0.9118800E+02  0.7818608E-02  0.1130116E+00
         25   -1    0    0    0    0  0.00000000000E+00  0.00000000000E+00  0.99999998245E-14  0.12500000000E+03  0.12500000000E+03 0.  0.
        -13    1    3    3    0    0 -0.39454490443E+02  0.42438078097E+02  0.15491688222E+02  0.59980420611E+02  0.10566000000E+00 0.  1.
         23    2    1    0    0    0 -0.17032253460E+02  0.30586129537E+02 -0.54458941042E+00  0.89987065881E+02  0.82896118548E+02 0.  0.
         13    1    3    3    0    0  0.22422236983E+02 -0.11851948560E+02 -0.16036277633E+02  0.30006645270E+02  0.10566000000E+00 0. -1.
         22    1    1    0    0    0  0.17032253460E+02 -0.30586129537E+02  0.54458941042E+00  0.35012934119E+02  0.00000000000E+00 0.  1.
</event>
<event>
 5    1  0.1285346E-004  0.9118800E+02  0.7818608E-02  0.1130116E+00
         25   -1    0    0    0    0  0.00000000000E+00  0.00000000000E+00  0.99999998245E-14  0.12500000000E+03  0.12500000000E+03 0.  0.
        -13    1    3    3    0    0 -0.52076150343E+02 -0.67621118161E+01 -0.20620389027E+02  0.56416869804E+02  0.10566000000E+00 0.  1.
         23    2    1    0    0    0 -0.38613513276E+02 -0.16292847733E+01  0.52184434470E+01  0.86001408635E+02  0.76650845780E+02 0.  0.
         13    1    3    3    0    0  0.13462637067E+02  0.51328270428E+01  0.25838832474E+02  0.29584538832E+02  0.10566000000E+00 0. -1.
         22    1    1    0    0    0  0.38613513276E+02  0.16292847733E+01 -0.52184434470E+01  0.38998591365E+02  0.00000000000E+00 0.  1.
</event>
<event>
 5    1  0.1285346E-004  0.9118800E+02  0.7818608E-02  0.1130116E+00
         25   -1    0    0    0    0  0.00000000000E+00  0.00000000000E+00  0.99999998245E-14  0.12500000000E+03  0.12500000000E+03 0.  0.
        -13    1    3    3    0    0 -0.16859437135E+02  0.24119567107E+02 -0.17652351797E+02  0.34316334681E+02  0.10566000000E+00 0.  1.
         23    2    1    0    0    0  0.18189525746E+02 -0.19866883813E+02  0.90610612958E+01  0.96580732748E+02  0.92304838373E+02 0.  0.
         13    1    3    3    0    0  0.35048962881E+02 -0.43986450920E+02  0.26713413093E+02  0.62264398067E+02  0.10566000000E+00 0. -1.
         22    1    1    0    0    0 -0.18189525746E+02  0.19866883813E+02 -0.90610612958E+01  0.28419267252E+02  0.00000000000E+00 0. -1.
</event>
<event>
 5    1  0.1285346E-004  0.9118800E+02  0.7818608E-02  0.1130116E+00
         25   -1    0    0    0    0  0.00000000000E+00  0.00000000000E+00  0.99999998245E-14  0.12500000000E+03  0.12500000000E+03 0.  0.
        -13    1    3    3    0    0  0.39390944066E+02  0.47390577488E+02 -0.90219673747E+01  0.62280979187E+02  0.10566000000E+00 0. -1.
         23    2    1    0    0    0  0.20027346647E+02  0.19322185567E+02 -0.61368529250E+01  0.96502589019E+02  0.92198954738E+02 0.  0.
         13    1    3    3    0    0 -0.19363597419E+02 -0.28068391922E+02  0.28851144498E+01  0.34221609832E+02  0.10566000000E+00 0.  1.
         22    1    1    0    0    0 -0.20027346647E+02 -0.19322185567E+02  0.61368529250E+01  0.28497410981E+02  0.00000000000E+00 0. -1.
</event>
<event>
 5    1  0.1285346E-004  0.9118800E+02  0.7818608E-02  0.1130116E+00
         25   -1    0    0    0    0  0.00000000000E+00  0.00000000000E+00  0.99999998245E-14  0.12500000000E+03  0.12500000000E+03 0.  0.
        -13    1    3    3    0    0 -0.11435701976E+02  0.42399682507E+02 -0.37464929003E+02  0.57724695111E+02  0.10566000000E+00 0. -1.
         23    2    1    0    0    0 -0.79850226507E+01  0.64373990345E+01 -0.28158408923E+02  0.95031738687E+02  0.90182784786E+02 0.  0.
         13    1    3    3    0    0  0.34506793254E+01 -0.35962283472E+02  0.93065200806E+01  0.37307043576E+02  0.10566000000E+00 0.  1.
         22    1    1    0    0    0  0.79850226507E+01 -0.64373990345E+01  0.28158408923E+02  0.29968261313E+02  0.00000000000E+00 0. -1.
</event>
<event>
 5    1  0.1285346E-004  0.9118800E+02  0.7818608E-02  0.1130116E+00
         25   -1    0    0    0    0  0.00000000000E+00  0.00000000000E+00  0.99999998245E-14  0.12500000000E+03  0.12500000000E+03 0.  0.
        -13    1    3    3    0    0  0.94434764127E+01 -0.50016162375E+02 -0.97801700618E+00  0.50909364824E+02  0.10566000000E+00 0.  1.
         23    2    1    0    0    0  0.25815817109E+02 -0.95285249165E+01 -0.10391500752E+02  0.95585165511E+02  0.90946640278E+02 0.  0.
         13    1    3    3    0    0  0.16372340697E+02  0.40487637458E+02 -0.94134837458E+01  0.44675800688E+02  0.10566000000E+00 0. -1.
         22    1    1    0    0    0 -0.25815817109E+02  0.95285249165E+01  0.10391500752E+02  0.29414834489E+02  0.00000000000E+00 0. -1.
</event>
<event>
 5    1  0.1285346E-004  0.9118800E+02  0.7818608E-02  0.1130116E+00
         25   -1    0    0    0    0  0.00000000000E+00  0.00000000000E+00  0.99999998245E-14  0.12500000000E+03  0.12500000000E+03 0.  0.
        -13    1    3    3    0    0 -0.34165945807E+02 -0.89327277485E+01  0.18681219450E+02  0.39951277853E+02  0.10566000000E+00 0.  1.
         23    2    1    0    0    0  0.76212422882E+01  0.26040471315E+02 -0.89523867946E+00  0.97852423080E+02  0.94011200237E+02 0.  0.
         13    1    3    3    0    0  0.41787188095E+02  0.34973199064E+02 -0.19576458130E+02  0.57901145227E+02  0.10566000000E+00 0. -1.
         22    1    1    0    0    0 -0.76212422882E+01 -0.26040471315E+02  0.89523867946E+00  0.27147576920E+02  0.00000000000E+00 0. -1.
</event>
<event>
 5    1  0.1285346E-004  0.9118800E+02  0.7818608E-02  0.1130116E+00
         25   -1    0    0    0    0  0.00000000000E+00  0.00000000000E+00  0.99999998245E-14  0.12500000000E+03  0.12500000000E+03 0.  0.
        -13    1    3    3    0    0 -0.15559430321E+02  0.75822181935E+00  0.48715453644E+02  0.51145648495E+02  0.10566000000E+00 0. -1.
         23    2    1    0    0    0 -0.10709411980E+02  0.24738619956E+02  0.11479210266E+02  0.95700459208E+02  0.91104965847E+02 0.  0.
         13    1    3    3    0    0  0.48500183401E+01  0.23980398136E+02 -0.37236243378E+02  0.44554810713E+02  0.10566000000E+00 0.  1.
         22    1    1    0    0    0  0.10709411980E+02 -0.24738619956E+02 -0.11479210266E+02  0.29299540792E+02  0.00000000000E+00 0. -1.
</event>
<event>
 5    1  0.1285346E-004  0.9118800E+02  0.7818608E-02  0.1130116E+00
         25   -1    0    0    0    0  0.00000000000E+00  0.00000000000E+00  0.99999998245E-14  0.12500000000E+03  0.12500000000E+03 0.  0.
        -13    1    3    3    0    0  0.20029920887E+01  0.53177651736E+02  0.24474568494E+01  0.53271716985E+02  0.10566000000E+00 0.  1.
         23    2    1    0    0    0 -0.23029425134E+02  0.25329348656E+02  0.16908280823E+01  0.90724801606E+02  0.84001192857E+02 0.  0.
         13    1    3    3    0    0 -0.25032417223E+02 -0.27848303080E+02 -0.75662876706E+00  0.37453084621E+02  0.10566000000E+00 0. -1.
         22    1    1    0    0    0  0.23029425134E+02 -0.25329348656E+02 -0.16908280823E+01  0.34275198394E+02  0.00000000000E+00 0.  1.
</event>
<event>
 5    1  0.1285346E-004  0.9118800E+02  0.7818608E-02  0.1130116E+00
         25   -1    0    0    0    0  0.00000000000E+00  0.00000000000E+00  0.99999998245E-14  0.12500000000E+03  0.12500000000E+03 0.  0.
        -13    1    3    3    0    0  0.43789622238E+02  0.42207494196E+02 -0.30834545939E+01  0.60897639021E+02  0.10566000000E+00 0. -1.
         23    2    1    0    0    0  0.24751093765E+02  0.17157390797E+02 -0.10286102134E+02  0.93175534590E+02  0.87572162514E+02 0.  0.
         13    1    3    3    0    0 -0.19038528473E+02 -0.25050103399E+02 -0.72026475405E+01  0.32277895569E+02  0.10566000000E+00 0.  1.
         22    1    1    0    0    0 -0.24751093765E+02 -0.17157390797E+02  0.10286102134E+02  0.31824465410E+02  0.00000000000E+00 0. -1.
</event>
<event>
 5    1  0.1285346E-004  0.9118800E+02  0.7818608E-02  0.1130116E+00
         25   -1    0    0    0    0  0.00000000000E+00  0.00000000000E+00  0.99999998245E-14  0.12500000000E+03  0.12500000000E+03 0.  0.
        -13    1    3    3    0    0 -0.19619984078E+02 -0.21663868720E+02 -0.15337752857E+02  0.33007950707E+02  0.10566000000E+00 0.  1.
         23    2    1    0    0    0  0.21464595448E+02  0.21995003239E+02 -0.61393067247E+01  0.93659928011E+02  0.88260874700E+02 0.  0.
         13    1    3    3    0    0  0.41084579526E+02  0.43658871959E+02  0.91984461323E+01  0.60651977304E+02  0.10566000000E+00 0. -1.
         22    1    1    0    0    0 -0.21464595448E+02 -0.21995003239E+02  0.61393067247E+01  0.31340071989E+02  0.00000000000E+00 0. -1.
</event>
<event>
 5    1  0.1285346E-004  0.9118800E+02  0.7818608E-02  0.1130116E+00
         25   -1    0    0    0    0  0.00000000000E+00  0.00000000000E+00  0.99999998245E-14  0.12500000000E+03  0.12500000000E+03 0.  0.
        -13    1    3    3    0    0 -0.61402000433E+01  0.28865849400E+02 -0.53686458688E+02  0.61263254310E+02  0.10566000000E+00 0. -1.
         23    2    1    0    0    0 -0.10535467944E+02  0.89297782538E+01 -0.24391169969E+02  0.96970262275E+02  0.92830843844E+02 0.  0.
         13    1    3    3    0    0 -0.43952679004E+01 -0.19936071146E+02  0.29295288719E+02  0.35707007965E+02  0.10566000000E+00 0.  1.
         22    1    1    0    0    0  0.10535467944E+02 -0.89297782538E+01  0.24391169969E+02  0.28029737725E+02  0.00000000000E+00 0. -1.
</event>
<event>
 5    1  0.1285346E-004  0.9118800E+02  0.7818608E-02  0.1130116E+00
         25   -1    0    0    0    0  0.00000000000E+00  0.00000000000E+00  0.99999998245E-14  0.12500000000E+03  0.12500000000E+03 0.  0.
        -13    1    3    3    0    0 -0.39990747133E+02 -0.39690891499E+02 -0.22063726716E+02  0.60509882869E+02  0.10566000000E+00 0. -1.
         23    2    1    0    0    0 -0.95201166860E+01 -0.24948233920E+02 -0.10973139096E+02  0.96130348477E+02  0.91692895686E+02 0.  0.
         13    1    3    3    0    0  0.30470630447E+02  0.14742657579E+02  0.11090587620E+02  0.35620465608E+02  0.10566000000E+00 0.  1.
         22    1    1    0    0    0  0.95201166860E+01  0.24948233920E+02  0.10973139096E+02  0.28869651523E+02  0.00000000000E+00 0. -1.
</event>
<event>
 5    1  0.1285346E-004  0.9118800E+02  0.7818608E-02  0.1130116E+00
         25   -1    0    0    0    0  0.00000000000E+00  0.00000000000E+00  0.99999998245E-14  0.12500000000E+03  0.12500000000E+03 0.  0.
        -13    1    3    3    0    0  0.11226804490E+02  0.46868837875E+02 -0.20157257668E+02  0.52240360868E+02  0.10566000000E+00 0. -1.
         23    2    1    0    0    0  0.21124540497E+02  0.18636716032E+02  0.10368482405E+02  0.94982025001E+02  0.90113851600E+02 0.  0.
         13    1    3    3    0    0  0.98977360071E+01 -0.28232121843E+02  0.30525740073E+02  0.42741664133E+02  0.10566000000E+00 0.  1.
         22    1    1    0    0    0 -0.21124540497E+02 -0.18636716032E+02 -0.10368482405E+02  0.30017974999E+02  0.00000000000E+00 0. -1.
</event>
<event>
 5    1  0.1285346E-004  0.9118800E+02  0.7818608E-02  0.1130116E+00
         25   -1    0    0    0    0  0.00000000000E+00  0.00000000000E+00  0.99999998245E-14  0.12500000000E+03  0.12500000000E+03 0.  0.
        -13    1    3    3    0    0 -0.32336101541E+02  0.49702924406E+00 -0.10324480956E+02  0.33948145340E+02  0.10566000000E+00 0.  1.
         23    2    1    0    0    0  0.28914284372E+02 -0.28736910923E+01 -0.49295170317E+01  0.95528079815E+02  0.90868145979E+02 0.  0.
         13    1    3    3    0    0  0.61250385914E+02 -0.33707203364E+01  0.53949639245E+01  0.61579934475E+02  0.10566000000E+00 0. -1.
         22    1    1    0    0    0 -0.28914284372E+02  0.28736910923E+01  0.49295170317E+01  0.29471920185E+02  0.00000000000E+00 0. -1.
</event>
<event>
 5    1  0.1285346E-004  0.9118800E+02  0.7818608E-02  0.1130116E+00
         25   -1    0    0    0    0  0.00000000000E+00  0.00000000000E+00  0.99999998245E-14  0.12500000000E+03  0.12500000000E+03 0.  0.
        -13    1    3    3    0    0 -0.17702842325E+02  0.45405560141E+02 -0.25726749860E+02  0.55108369061E+02  0.10566000000E+00 0. -1.
         23    2    1    0    0    0 -0.22501028695E+01  0.57926857328E+01 -0.26646312796E+02  0.97638637524E+02  0.93726513757E+02 0.  0.
         13    1    3    3    0    0  0.15452739455E+02 -0.39612874408E+02 -0.91956293539E+00  0.42530268464E+02  0.10566000000E+00 0.  1.
         22    1    1    0    0    0  0.22501028695E+01 -0.57926857328E+01  0.26646312796E+02  0.27361362476E+02  0.00000000000E+00 0. -1.
</event>
<event>
 5    1  0.1285346E-004  0.9118800E+02  0.7818608E-02  0.1130116E+00
         25   -1    0    0    0    0  0.00000000000E+00  0.00000000000E+00  0.99999998245E-14  0.12500000000E+03  0.12500000000E+03 0.  0.
        -13    1    3    3    0    0  0.95947753809E+01 -0.34386796773E+02  0.69033445772E+01  0.36361777147E+02  0.10566000000E+00 0. -1.
         23    2    1    0    0    0 -0.15728001937E+02  0.17515111303E+02  0.18247507176E+02  0.95215428709E+02  0.90437034323E+02 0.  0.
         13    1    3    3    0    0 -0.25322777318E+02  0.51901908076E+02  0.11344162599E+02  0.58853651561E+02  0.10566000000E+00 0.  1.
         22    1    1    0    0    0  0.15728001937E+02 -0.17515111303E+02 -0.18247507176E+02  0.29784571291E+02  0.00000000000E+00 0.  1.
</event>
<event>
 5    1  0.1285346E-004  0.9118800E+02  0.7818608E-02  0.1130116E+00
         25   -1    0    0    0    0  0.00000000000E+00  0.00000000000E+00  0.99999998245E-14  0.12500000000E+03  0.12500000000E+03 0.  0.
        -13    1    3    3    0    0 -0.32082950208E+02 -0.34909301875E+02 -0.12747871758E+02  0.49096786553E+02  0.10566000000E+00 0.  1.
         23    2    1    0    0    0 -0.14032374537E+02 -0.11300872082E+02  0.23127647972E+02  0.95682678402E+02  0.91080566535E+02 0.  0.
         13    1    3    3    0    0  0.18050575670E+02  0.23608429793E+02  0.35875519731E+02  0.46585891848E+02  0.10566000000E+00 0. -1.
         22    1    1    0    0    0  0.14032374537E+02  0.11300872082E+02 -0.23127647972E+02  0.29317321598E+02  0.00000000000E+00 0.  1.
</event>
<event>
 5    1  0.1285346E-004  0.9118800E+02  0.7818608E-02  0.1130116E+00
         25   -1    0    0    0    0  0.00000000000E+00  0.00000000000E+00  0.99999998245E-14  0.12500000000E+03  0.12500000000E+03 0.  0.
        -13    1    3    3    0    0 -0.25911511004E+02 -0.10198404295E+02  0.19968413245E+02  0.34266055277E+02  0.10566000000E+00 0. -1.
         23    2    1    0    0    0  0.24417791207E+02 -0.15163302445E+02 -0.11733381423E+02  0.93954444633E+02  0.88677004676E+02 0.  0.
         13    1    3    3    0    0  0.50329302211E+02 -0.49648981498E+01 -0.31701794668E+02  0.59688389356E+02  0.10566000000E+00 0.  1.
         22    1    1    0    0    0 -0.24417791207E+02  0.15163302445E+02  0.11733381423E+02  0.31045555367E+02  0.00000000000E+00 0.  1.
</event>
<event>
 5    1  0.1285346E-004  0.9118800E+02  0.7818608E-02  0.1130116E+00
         25   -1    0    0    0    0  0.00000000000E+00  0.00000000000E+00  0.99999998245E-14  0.12500000000E+03  0.12500000000E+03 0.  0.
        -13    1    3    3    0    0 -0.17275154873E+02  0.52467388134E+02 -0.15102047436E+02  0.57265528849E+02  0.10566000000E+00 0. -1.
         23    2    1    0    0    0  0.22934767087E+01  0.17184500241E+02 -0.20700668876E+02  0.97998430122E+02  0.94205135373E+02 0.  0.
         13    1    3    3    0    0  0.19568631582E+02 -0.35282887893E+02 -0.55986214396E+01  0.40732901273E+02  0.10566000000E+00 0.  1.
         22    1    1    0    0    0 -0.22934767087E+01 -0.17184500241E+02  0.20700668876E+02  0.27001569878E+02  0.00000000000E+00 0. -1.
</event>
<event>
 5    1  0.1285346E-004  0.9118800E+02  0.7818608E-02  0.1130116E+00
         25   -1    0    0    0    0  0.00000000000E+00  0.00000000000E+00  0.99999998245E-14  0.12500000000E+03  0.12500000000E+03 0.  0.
        -13    1    3    3    0    0  0.41242305677E+02  0.70913231483E+01  0.21357930312E+02  0.46982837216E+02  0.10566000000E+00 0. -1.
         23    2    1    0    0    0  0.15988947292E+02 -0.22488397772E+02 -0.86235799529E+01  0.96090821508E+02  0.91638994850E+02 0.  0.
         13    1    3    3    0    0 -0.25253358385E+02 -0.29579720920E+02 -0.29981510265E+02  0.49107984293E+02  0.10566000000E+00 0.  1.
         22    1    1    0    0    0 -0.15988947292E+02  0.22488397772E+02  0.86235799529E+01  0.28909178492E+02  0.00000000000E+00 0.  1.
</event>
<event>
 5    1  0.1285346E-004  0.9118800E+02  0.7818608E-02  0.1130116E+00
         25   -1    0    0    0    0  0.00000000000E+00  0.00000000000E+00  0.99999998245E-14  0.12500000000E+03  0.12500000000E+03 0.  0.
        -13    1    3    3    0    0  0.99818242356E+01  0.49849081668E+02 -0.16358520401E+02  0.53405805976E+02  0.10566000000E+00 0.  1.
         23    2    1    0    0    0  0.38887887367E+01  0.25993614721E+02  0.16124082141E+02  0.94165332676E+02  0.88973777985E+02 0.  0.
         13    1    3    3    0    0 -0.60930354988E+01 -0.23855466947E+02  0.32482602542E+02  0.40759526700E+02  0.10566000000E+00 0. -1.
         22    1    1    0    0    0 -0.38887887367E+01 -0.25993614721E+02 -0.16124082141E+02  0.30834667324E+02  0.00000000000E+00 0.  1.
</event>
<event>
 5    1  0.1285346E-004  0.9118800E+02  0.7818608E-02  0.1130116E+00
         25   -1    0    0    0    0  0.00000000000E+00  0.00000000000E+00  0.99999998245E-14  0.12500000000E+03  0.12500000000E+03 0.  0.
        -13    1    3    3    0    0  0.14878267821E+02  0.15894817615E+02 -0.27903888823E+02  0.35392742983E+02  0.10566000000E+00 0. -1.
         23    2    1    0    0    0  0.78749328932E+01 -0.16291615680E+02  0.22821713660E+02  0.95875063538E+02  0.91344216481E+02 0.  0.
         13    1    3    3    0    0 -0.70033349275E+01 -0.32186433295E+02  0.50725602483E+02  0.60482320555E+02  0.10566000000E+00 0.  1.
         22    1    1    0    0    0 -0.78749328932E+01  0.16291615680E+02 -0.22821713660E+02  0.29124936462E+02  0.00000000000E+00 0.  1.
</event>
<event>
 5    1  0.1285346E-004  0.9118800E+02  0.7818608E-02  0.1130116E+00
         25   -1    0    0    0    0  0.00000000000E+00  0.00000000000E+00  0.99999998245E-14  0.12500000000E+03  0.12500000000E+03 0.  0.
        -13    1    3    3    0    0 -0.15114002824E+02 -0.12757639050E+02  0.51016843951E+02  0.54716724740E+02  0.10566000000E+00 0. -1.
         23    2    1    0    0    0 -0.24279072173E+02  0.19814269914E+01  0.11126569781E+02  0.98219410880E+02  0.94497897966E+02 0.  0.
         13    1    3    3    0    0 -0.91650693494E+01  0.14739066042E+02 -0.39890274170E+02  0.43502686140E+02  0.10566000000E+00 0.  1.
         22    1    1    0    0    0  0.24279072173E+02 -0.19814269914E+01 -0.11126569781E+02  0.26780589120E+02  0.00000000000E+00 0. -1.
</event>
<event>
 5    1  0.1285346E-004  0.9118800E+02  0.7818608E-02  0.1130116E+00
         25   -1    0    0    0    0  0.00000000000E+00  0.00000000000E+00  0.99999998245E-14  0.12500000000E+03  0.12500000000E+03 0.  0.
        -13    1    3    3    0    0 -0.46177849347E+02 -0.34088882148E+02 -0.13652450178E+02  0.58998696734E+02  0.10566000000E+00 0.  1.
         23    2    1    0    0    0 -0.21801262729E+02 -0.65092408477E+01 -0.17898646494E+02  0.96051307122E+02  0.91585079465E+02 0.  0.
         13    1    3    3    0    0  0.24376586618E+02  0.27579641301E+02 -0.42461963165E+01  0.37052610388E+02  0.10566000000E+00 0. -1.
         22    1    1    0    0    0  0.21801262729E+02  0.65092408477E+01  0.17898646494E+02  0.28948692878E+02  0.00000000000E+00 0.  1.
</event>
<event>
 5    1  0.1285346E-004  0.9118800E+02  0.7818608E-02  0.1130116E+00
         25   -1    0    0    0    0  0.00000000000E+00  0.00000000000E+00  0.99999998245E-14  0.12500000000E+03  0.12500000000E+03 0.  0.
        -13    1    3    3    0    0 -0.23376351874E+02 -0.24120562588E+02  0.26109516477E+02  0.42543781933E+02  0.10566000000E+00 0. -1.
         23    2    1    0    0    0 -0.18988250163E+02  0.22637563514E+02  0.18697107718E+01  0.95394109632E+02  0.90683666710E+02 0.  0.
         13    1    3    3    0    0  0.43881017109E+01  0.46758126102E+02 -0.24239805706E+02  0.52850327699E+02  0.10566000000E+00 0.  1.
         22    1    1    0    0    0  0.18988250163E+02 -0.22637563514E+02 -0.18697107718E+01  0.29605890368E+02  0.00000000000E+00 0.  1.
</event>
<event>
 5    1  0.1285346E-004  0.9118800E+02  0.7818608E-02  0.1130116E+00
         25   -1    0    0    0    0  0.00000000000E+00  0.00000000000E+00  0.99999998245E-14  0.12500000000E+03  0.12500000000E+03 0.  0.
        -13    1    3    3    0    0  0.30106974387E+01  0.26930071978E+02  0.11781833251E+02  0.29548533544E+02  0.10566000000E+00 0.  1.
         23    2    1    0    0    0  0.19466612695E+01 -0.33303224013E+02  0.11251332204E+02  0.89793655456E+02  0.82603957920E+02 0.  0.
         13    1    3    3    0    0 -0.10640361691E+01 -0.60233295991E+02 -0.53050104645E+00  0.60245121913E+02  0.10566000000E+00 0. -1.
         22    1    1    0    0    0 -0.19466612695E+01  0.33303224013E+02 -0.11251332204E+02  0.35206344544E+02  0.00000000000E+00 0. -1.
</event>
<event>
 5    1  0.1285346E-004  0.9118800E+02  0.7818608E-02  0.1130116E+00
         25   -1    0    0    0    0  0.00000000000E+00  0.00000000000E+00  0.99999998245E-14  0.12500000000E+03  0.12500000000E+03 0.  0.
        -13    1    3    3    0    0 -0.39186144229E+02  0.12926298502E+02  0.44052205490E+00  0.41265582708E+02  0.10566000000E+00 0.  1.
         23    2    1    0    0    0  0.33388976497E+01 -0.21344741018E+02  0.16070605123E+02  0.98073979951E+02  0.94305328523E+02 0.  0.
         13    1    3    3    0    0  0.42525041879E+02 -0.34271039520E+02  0.15630083068E+02  0.56808397243E+02  0.10566000000E+00 0. -1.
         22    1    1    0    0    0 -0.33388976497E+01  0.21344741018E+02 -0.16070605123E+02  0.26926020049E+02  0.00000000000E+00 0. -1.
</event>
<event>
 5    1  0.1285346E-004  0.9118800E+02  0.7818608E-02  0.1130116E+00
         25   -1    0    0    0    0  0.00000000000E+00  0.00000000000E+00  0.99999998245E-14  0.12500000000E+03  0.12500000000E+03 0.  0.
        -13    1    3    3    0    0 -0.39733781911E-01  0.54224563369E+02  0.27847434507E+02  0.60957326253E+02  0.10566000000E+00 0. -1.
         23    2    1    0    0    0  0.95593694836E+01  0.24757715649E+02  0.10619643707E+02  0.96414988866E+02  0.92080113035E+02 0.  0.
         13    1    3    3    0    0  0.95991032655E+01 -0.29466847720E+02 -0.17227790801E+02  0.35457662613E+02  0.10566000000E+00 0.  1.
         22    1    1    0    0    0 -0.95593694836E+01 -0.24757715649E+02 -0.10619643707E+02  0.28585011134E+02  0.00000000000E+00 0. -1.
</event>
<event>
 5    1  0.1285346E-004  0.9118800E+02  0.7818608E-02  0.1130116E+00
         25   -1    0    0    0    0  0.00000000000E+00  0.00000000000E+00  0.99999998245E-14  0.12500000000E+03  0.12500000000E+03 0.  0.
        -13    1    3    3    0    0  0.33610105563E+02 -0.54692959902E+01  0.12420274145E+02  0.36246748385E+02  0.10566000000E+00 0. -1.
         23    2    1    0    0    0 -0.20966235222E+02 -0.14381288594E+02 -0.12224750043E+02  0.96789204289E+02  0.92586721901E+02 0.  0.
         13    1    3    3    0    0 -0.54576340785E+02 -0.89119926036E+01 -0.24645024188E+02  0.60542455905E+02  0.10566000000E+00 0.  1.
         22    1    1    0    0    0  0.20966235222E+02  0.14381288594E+02  0.12224750043E+02  0.28210795711E+02  0.00000000000E+00 0.  1.
</event>
<event>
 5    1  0.1285346E-004  0.9118800E+02  0.7818608E-02  0.1130116E+00
         25   -1    0    0    0    0  0.00000000000E+00  0.00000000000E+00  0.99999998245E-14  0.12500000000E+03  0.12500000000E+03 0.  0.
        -13    1    3    3    0    0  0.12428016740E+01 -0.22498798639E+02  0.24415892078E+02  0.33224801673E+02  0.10566000000E+00 0.  1.
         23    2    1    0    0    0  0.41860057099E+00  0.29168464841E+02 -0.86506161509E+01  0.94572911289E+02  0.89544557748E+02 0.  0.
         13    1    3    3    0    0 -0.82420110304E+00  0.51667263481E+02 -0.33066508229E+02  0.61348109616E+02  0.10566000000E+00 0. -1.
         22    1    1    0    0    0 -0.41860057099E+00 -0.29168464841E+02  0.86506161509E+01  0.30427088711E+02  0.00000000000E+00 0. -1.
</event>
<event>
 5    1  0.1285346E-004  0.9118800E+02  0.7818608E-02  0.1130116E+00
         25   -1    0    0    0    0  0.00000000000E+00  0.00000000000E+00  0.99999998245E-14  0.12500000000E+03  0.12500000000E+03 0.  0.
        -13    1    3    3    0    0 -0.25884803312E+02 -0.35222228032E+02  0.43682726336E+01  0.43928593876E+02  0.10566000000E+00 0.  1.
         23    2    1    0    0    0  0.55549376226E-02  0.19760207214E+02 -0.24727176447E+01  0.10508567971E+03  0.10318149024E+03 0.  0.
         13    1    3    3    0    0  0.25890358250E+02  0.54982435246E+02 -0.68409902783E+01  0.61157085836E+02  0.10566000000E+00 0. -1.
         22    1    1    0    0    0 -0.55549376226E-02 -0.19760207214E+02  0.24727176447E+01  0.19914320289E+02  0.00000000000E+00 0. -1.
</event>
<event>
 5    1  0.1285346E-004  0.9118800E+02  0.7818608E-02  0.1130116E+00
         25   -1    0    0    0    0  0.00000000000E+00  0.00000000000E+00  0.99999998245E-14  0.12500000000E+03  0.12500000000E+03 0.  0.
        -13    1    3    3    0    0  0.42337782220E+01 -0.34061062759E+02 -0.14396587734E+02  0.37220340900E+02  0.10566000000E+00 0. -1.
         23    2    1    0    0    0  0.58851474846E+01  0.24495975746E+02 -0.14759487285E+02  0.95801879280E+02  0.91244012516E+02 0.  0.
         13    1    3    3    0    0  0.16513692626E+01  0.58557038505E+02 -0.36289955095E+00  0.58581538380E+02  0.10566000000E+00 0.  1.
         22    1    1    0    0    0 -0.58851474846E+01 -0.24495975746E+02  0.14759487285E+02  0.29198120720E+02  0.00000000000E+00 0.  1.
</event>
<event>
 5    1  0.1285346E-004  0.9118800E+02  0.7818608E-02  0.1130116E+00
         25   -1    0    0    0    0  0.00000000000E+00  0.00000000000E+00  0.99999998245E-14  0.12500000000E+03  0.12500000000E+03 0.  0.
        -13    1    3    3    0    0  0.34647497308E+02 -0.33718483434E+01  0.42788740090E+02  0.55160727637E+02  0.10566000000E+00 0.  1.
         23    2    1    0    0    0 -0.33505266158E+01  0.88976548505E+00  0.28978784537E+02  0.95814598436E+02  0.91261435497E+02 0.  0.
         13    1    3    3    0    0 -0.37998023923E+02  0.42616138284E+01 -0.13809955553E+02  0.40653870799E+02  0.10566000000E+00 0. -1.
         22    1    1    0    0    0  0.33505266158E+01 -0.88976548505E+00 -0.28978784537E+02  0.29185401564E+02  0.00000000000E+00 0.  1.
</event>
<event>
 5    1  0.1285346E-004  0.9118800E+02  0.7818608E-02  0.1130116E+00
         25   -1    0    0    0    0  0.00000000000E+00  0.00000000000E+00  0.99999998245E-14  0.12500000000E+03  0.12500000000E+03 0.  0.
        -13    1    3    3    0    0  0.21901881138E+02  0.46888260874E+02  0.17208165343E+02  0.54537450652E+02  0.10566000000E+00 0.  1.
         23    2    1    0    0    0 -0.97627218117E+01  0.28127016750E+02 -0.13999883492E+00  0.95226531810E+02  0.90452379473E+02 0.  0.
         13    1    3    3    0    0 -0.31664602950E+02 -0.18761244124E+02 -0.17348164178E+02  0.40689081157E+02  0.10566000000E+00 0. -1.
         22    1    1    0    0    0  0.97627218117E+01 -0.28127016750E+02  0.13999883492E+00  0.29773468190E+02  0.00000000000E+00 0.  1.
</event>
<event>
 5    1  0.1285346E-004  0.9118800E+02  0.7818608E-02  0.1130116E+00
         25   -1    0    0    0    0  0.00000000000E+00  0.00000000000E+00  0.99999998245E-14  0.12500000000E+03  0.12500000000E+03 0.  0.
        -13    1    3    3    0    0  0.67517447045E+01  0.26539523293E+02  0.48301722238E+02  0.55524768243E+02  0.10566000000E+00 0.  1.
         23    2    1    0    0    0 -0.15121516225E+02  0.19290408337E+01  0.24468432334E+02  0.96171444150E+02  0.91748902105E+02 0.  0.
         13    1    3    3    0    0 -0.21873260930E+02 -0.24610482460E+02 -0.23833289904E+02  0.40646675907E+02  0.10566000000E+00 0. -1.
         22    1    1    0    0    0  0.15121516225E+02 -0.19290408337E+01 -0.24468432334E+02  0.28828555850E+02  0.00000000000E+00 0.  1.
</event>
<event>
 5    1  0.1285346E-004  0.9118800E+02  0.7818608E-02  0.1130116E+00
         25   -1    0    0    0    0  0.00000000000E+00  0.00000000000E+00  0.99999998245E-14  0.12500000000E+03  0.12500000000E+03 0.  0.
        -13    1    3    3    0    0  0.20893279926E+02  0.33279349182E+02  0.21915799651E+02  0.44992862394E+02  0.10566000000E+00 0.  1.
         23    2    1    0    0    0 -0.24097711156E+02  0.14951323637E+02  0.75651960438E+01  0.95649123477E+02  0.91034503730E+02 0.  0.
         13    1    3    3    0    0 -0.44990991082E+02 -0.18328025545E+02 -0.14350603608E+02  0.50656261083E+02  0.10566000000E+00 0. -1.
         22    1    1    0    0    0  0.24097711156E+02 -0.14951323637E+02 -0.75651960438E+01  0.29350876523E+02  0.00000000000E+00 0. -1.
</event>
<event>
 5    1  0.1285346E-004  0.9118800E+02  0.7818608E-02  0.1130116E+00
         25   -1    0    0    0    0  0.00000000000E+00  0.00000000000E+00  0.99999998245E-14  0.12500000000E+03  0.12500000000E+03 0.  0.
        -13    1    3    3    0    0 -0.60661734922E+01  0.54885513479E+02  0.26138566022E+02  0.61093811867E+02  0.10566000000E+00 0.  1.
         23    2    1    0    0    0  0.57599889952E+01  0.27047166516E+02  0.86858142234E+01  0.96014312868E+02  0.91534573889E+02 0.  0.
         13    1    3    3    0    0  0.11826162487E+02 -0.27838346963E+02 -0.17452751799E+02  0.34920501002E+02  0.10566000000E+00 0. -1.
         22    1    1    0    0    0 -0.57599889952E+01 -0.27047166516E+02 -0.86858142234E+01  0.28985687132E+02  0.00000000000E+00 0.  1.
</event>
<event>
 5    1  0.1285346E-004  0.9118800E+02  0.7818608E-02  0.1130116E+00
         25   -1    0    0    0    0  0.00000000000E+00  0.00000000000E+00  0.99999998245E-14  0.12500000000E+03  0.12500000000E+03 0.  0.
        -13    1    3    3    0    0  0.24577331680E+02  0.19773514694E+02 -0.25547055097E+02  0.40591874852E+02  0.10566000000E+00 0.  1.
         23    2    1    0    0    0 -0.56236974271E+01  0.18211036487E+02  0.21341265898E+02  0.96386760882E+02  0.92041785188E+02 0.  0.
         13    1    3    3    0    0 -0.30201029107E+02 -0.15624782075E+01  0.46888320995E+02  0.55794886030E+02  0.10566000000E+00 0. -1.
         22    1    1    0    0    0  0.56236974271E+01 -0.18211036487E+02 -0.21341265898E+02  0.28613239118E+02  0.00000000000E+00 0. -1.
</event>
<event>
 5    1  0.1285346E-004  0.9118800E+02  0.7818608E-02  0.1130116E+00
         25   -1    0    0    0    0  0.00000000000E+00  0.00000000000E+00  0.99999998245E-14  0.12500000000E+03  0.12500000000E+03 0.  0.
        -13    1    3    3    0    0 -0.36496396161E+01 -0.32600351547E+02  0.37781524741E+02  0.50035563013E+02  0.10566000000E+00 0.  1.
         23    2    1    0    0    0  0.11977295554E+02  0.98288541819E+01  0.22335484587E+02  0.97816625392E+02  0.93963590545E+02 0.  0.
         13    1    3    3    0    0  0.15626935170E+02  0.42429205729E+02 -0.15446040153E+02  0.47781062379E+02  0.10566000000E+00 0. -1.
         22    1    1    0    0    0 -0.11977295554E+02 -0.98288541819E+01 -0.22335484587E+02  0.27183374608E+02  0.00000000000E+00 0.  1.
</event>
<event>
 5    1  0.1285346E-004  0.9118800E+02  0.7818608E-02  0.1130116E+00
         25   -1    0    0    0    0  0.00000000000E+00  0.00000000000E+00  0.99999998245E-14  0.12500000000E+03  0.12500000000E+03 0.  0.
        -13    1    3    3    0    0 -0.31944038213E+02 -0.32076385312E+02 -0.18147949768E+02  0.48771665102E+02  0.10566000000E+00 0.  1.
         23    2    1    0    0    0 -0.43757178251E+01 -0.22966866756E+02  0.18256441763E+02  0.95336528509E+02  0.90604261088E+02 0.  0.
         13    1    3    3    0    0  0.27568320388E+02  0.91095185564E+01  0.36404391531E+02  0.46564863407E+02  0.10566000000E+00 0. -1.
         22    1    1    0    0    0  0.43757178251E+01  0.22966866756E+02 -0.18256441763E+02  0.29663471491E+02  0.00000000000E+00 0.  1.
</event>
<event>
 5    1  0.1285346E-004  0.9118800E+02  0.7818608E-02  0.1130116E+00
         25   -1    0    0    0    0  0.00000000000E+00  0.00000000000E+00  0.99999998245E-14  0.12500000000E+03  0.12500000000E+03 0.  0.
        -13    1    3    3    0    0 -0.53963335207E+02  0.18781153287E+02 -0.80886351226E+01  0.57707975599E+02  0.10566000000E+00 0.  1.
         23    2    1    0    0    0 -0.28340051761E+02 -0.82433868729E+01 -0.48507889473E+01  0.95089431394E+02  0.90262715716E+02 0.  0.
         13    1    3    3    0    0  0.25623283447E+02 -0.27024540160E+02  0.32378461753E+01  0.37381455795E+02  0.10566000000E+00 0. -1.
         22    1    1    0    0    0  0.28340051761E+02  0.82433868729E+01  0.48507889473E+01  0.29910568606E+02  0.00000000000E+00 0.  1.
</event>
<event>
 5    1  0.1285346E-004  0.9118800E+02  0.7818608E-02  0.1130116E+00
         25   -1    0    0    0    0  0.00000000000E+00  0.00000000000E+00  0.99999998245E-14  0.12500000000E+03  0.12500000000E+03 0.  0.
        -13    1    3    3    0    0 -0.29211649732E+02 -0.17436133736E+02  0.49538243656E+02  0.60094824971E+02  0.10566000000E+00 0. -1.
         23    2    1    0    0    0 -0.79671834578E+01  0.17426483538E+01  0.27780665586E+02  0.96046965341E+02  0.91579153388E+02 0.  0.
         13    1    3    3    0    0  0.21244466274E+02  0.19178782090E+02 -0.21757578070E+02  0.35952140370E+02  0.10566000000E+00 0.  1.
         22    1    1    0    0    0  0.79671834578E+01 -0.17426483538E+01 -0.27780665586E+02  0.28953034659E+02  0.00000000000E+00 0. -1.
</event>
<event>
 5    1  0.1285346E-004  0.9118800E+02  0.7818608E-02  0.1130116E+00
         25   -1    0    0    0    0  0.00000000000E+00  0.00000000000E+00  0.99999998245E-14  0.12500000000E+03  0.12500000000E+03 0.  0.
        -13    1    3    3    0    0 -0.41407028185E+02  0.41028917405E+02 -0.13033892923E+02  0.59731127356E+02  0.10566000000E+00 0. -1.
         23    2    1    0    0    0 -0.22470319573E+02  0.10276279630E+02 -0.15334146625E+02  0.95919882437E+02  0.91405528330E+02 0.  0.
         13    1    3    3    0    0  0.18936708612E+02 -0.30752637775E+02 -0.23002537025E+01  0.36188755081E+02  0.10566000000E+00 0.  1.
         22    1    1    0    0    0  0.22470319573E+02 -0.10276279630E+02  0.15334146625E+02  0.29080117563E+02  0.00000000000E+00 0. -1.
</event>
<event>
 5    1  0.1285346E-004  0.9118800E+02  0.7818608E-02  0.1130116E+00
         25   -1    0    0    0    0  0.00000000000E+00  0.00000000000E+00  0.99999998245E-14  0.12500000000E+03  0.12500000000E+03 0.  0.
        -13    1    3    3    0    0  0.43202898643E+02 -0.19471910464E+02  0.12393871751E+02  0.48982292406E+02  0.10566000000E+00 0. -1.
         23    2    1    0    0    0  0.21652979206E+02  0.73941701488E+01 -0.18751226888E+02  0.95417340037E+02  0.90715682268E+02 0.  0.
         13    1    3    3    0    0 -0.21549919437E+02  0.26866080613E+02 -0.31145098639E+02  0.46435047632E+02  0.10566000000E+00 0.  1.
         22    1    1    0    0    0 -0.21652979206E+02 -0.73941701488E+01  0.18751226888E+02  0.29582659963E+02  0.00000000000E+00 0. -1.
</event>
<event>
 5    1  0.1285346E-004  0.9118800E+02  0.7818608E-02  0.1130116E+00
         25   -1    0    0    0    0  0.00000000000E+00  0.00000000000E+00  0.99999998245E-14  0.12500000000E+03  0.12500000000E+03 0.  0.
        -13    1    3    3    0    0  0.16046647949E+02  0.53863989548E+02 -0.68741940478E+01  0.56622345308E+02  0.10566000000E+00 0. -1.
         23    2    1    0    0    0 -0.12075120138E+02  0.24229519440E+02 -0.46060753123E+01  0.97539226733E+02  0.93593838917E+02 0.  0.
         13    1    3    3    0    0 -0.28121768087E+02 -0.29634470107E+02  0.22681187354E+01  0.40916881425E+02  0.10566000000E+00 0.  1.
         22    1    1    0    0    0  0.12075120138E+02 -0.24229519440E+02  0.46060753123E+01  0.27460773267E+02  0.00000000000E+00 0.  1.
</event>
<event>
 5    1  0.1285346E-004  0.9118800E+02  0.7818608E-02  0.1130116E+00
         25   -1    0    0    0    0  0.00000000000E+00  0.00000000000E+00  0.99999998245E-14  0.12500000000E+03  0.12500000000E+03 0.  0.
        -13    1    3    3    0    0 -0.48062338385E+01 -0.28309545293E+02  0.17422955134E+02  0.33587211376E+02  0.10566000000E+00 0. -1.
         23    2    1    0    0    0  0.14337801806E+02  0.16466014797E+02 -0.20301277828E+02  0.95186511687E+02  0.90397057041E+02 0.  0.
         13    1    3    3    0    0  0.19144035645E+02  0.44775560090E+02 -0.37724232962E+02  0.61599300311E+02  0.10566000000E+00 0.  1.
         22    1    1    0    0    0 -0.14337801806E+02 -0.16466014797E+02  0.20301277828E+02  0.29813488313E+02  0.00000000000E+00 0.  1.
</event>
<event>
 5    1  0.1285346E-004  0.9118800E+02  0.7818608E-02  0.1130116E+00
         25   -1    0    0    0    0  0.00000000000E+00  0.00000000000E+00  0.99999998245E-14  0.12500000000E+03  0.12500000000E+03 0.  0.
        -13    1    3    3    0    0 -0.12164252513E+02 -0.44923344313E+02  0.16330635027E+01  0.46569882585E+02  0.10566000000E+00 0.  1.
         23    2    1    0    0    0  0.25187282704E+02 -0.15954908793E+02 -0.63714464534E+01  0.94511417637E+02  0.89458674310E+02 0.  0.
         13    1    3    3    0    0  0.37351535217E+02  0.28968435520E+02 -0.80045099560E+01  0.47941535053E+02  0.10566000000E+00 0. -1.
         22    1    1    0    0    0 -0.25187282704E+02  0.15954908793E+02  0.63714464534E+01  0.30488582363E+02  0.00000000000E+00 0. -1.
</event>
<event>
 5    1  0.1285346E-004  0.9118800E+02  0.7818608E-02  0.1130116E+00
         25   -1    0    0    0    0  0.00000000000E+00  0.00000000000E+00  0.99999998245E-14  0.12500000000E+03  0.12500000000E+03 0.  0.
        -13    1    3    3    0    0  0.11369985215E+02 -0.14290611061E+02  0.42634649859E+02  0.46381274895E+02  0.10566000000E+00 0.  1.
         23    2    1    0    0    0 -0.17588636701E+02  0.16184094614E+02  0.17687418465E+02  0.95265679233E+02  0.90506462799E+02 0.  0.
         13    1    3    3    0    0 -0.28958621916E+02  0.30474705675E+02 -0.24947231394E+02  0.48884404338E+02  0.10566000000E+00 0. -1.
         22    1    1    0    0    0  0.17588636701E+02 -0.16184094614E+02 -0.17687418465E+02  0.29734320767E+02  0.00000000000E+00 0. -1.
</event>
<event>
 5    1  0.1285346E-004  0.9118800E+02  0.7818608E-02  0.1130116E+00
         25   -1    0    0    0    0  0.00000000000E+00  0.00000000000E+00  0.99999998245E-14  0.12500000000E+03  0.12500000000E+03 0.  0.
        -13    1    3    3    0    0  0.48884641108E+01  0.59831977965E+02  0.66703718150E+01  0.60400891490E+02  0.10566000000E+00 0.  1.
         23    2    1    0    0    0 -0.70833007427E+01  0.28785945990E+02 -0.33880429817E+01  0.95162395016E+02  0.90363702636E+02 0.  0.
         13    1    3    3    0    0 -0.11971764854E+02 -0.31046031976E+02 -0.10058414797E+02  0.34761503526E+02  0.10566000000E+00 0. -1.
         22    1    1    0    0    0  0.70833007427E+01 -0.28785945990E+02  0.33880429817E+01  0.29837604984E+02  0.00000000000E+00 0.  1.
</event>
<event>
 5    1  0.1285346E-004  0.9118800E+02  0.7818608E-02  0.1130116E+00
         25   -1    0    0    0    0  0.00000000000E+00  0.00000000000E+00  0.99999998245E-14  0.12500000000E+03  0.12500000000E+03 0.  0.
        -13    1    3    3    0    0  0.14354905714E+02 -0.11095476423E+02 -0.43292462810E+02  0.46940615839E+02  0.10566000000E+00 0. -1.
         23    2    1    0    0    0 -0.19883968574E+02 -0.39905619652E+01  0.25089688338E+01  0.10456493906E+03  0.10254869460E+03 0.  0.
         13    1    3    3    0    0 -0.34238874288E+02  0.71049144577E+01  0.45801431644E+02  0.57624323220E+02  0.10566000000E+00 0.  1.
         22    1    1    0    0    0  0.19883968574E+02  0.39905619652E+01 -0.25089688338E+01  0.20435060941E+02  0.00000000000E+00 0.  1.
</event>
<event>
 5    1  0.1285346E-004  0.9118800E+02  0.7818608E-02  0.1130116E+00
         25   -1    0    0    0    0  0.00000000000E+00  0.00000000000E+00  0.99999998245E-14  0.12500000000E+03  0.12500000000E+03 0.  0.
        -13    1    3    3    0    0  0.92810280911E+01 -0.32092246762E+02  0.38536786671E+02  0.51001420330E+02  0.10566000000E+00 0. -1.
         23    2    1    0    0    0 -0.17154967146E+02 -0.21719185645E+02  0.20362148935E+01  0.97248205572E+02  0.93204352866E+02 0.  0.
         13    1    3    3    0    0 -0.26435995238E+02  0.10373061118E+02 -0.36500571778E+02  0.46246785243E+02  0.10566000000E+00 0.  1.
         22    1    1    0    0    0  0.17154967146E+02  0.21719185645E+02 -0.20362148935E+01  0.27751794428E+02  0.00000000000E+00 0.  1.
</event>
<event>
 5    1  0.1285346E-004  0.9118800E+02  0.7818608E-02  0.1130116E+00
         25   -1    0    0    0    0  0.00000000000E+00  0.00000000000E+00  0.99999998245E-14  0.12500000000E+03  0.12500000000E+03 0.  0.
        -13    1    3    3    0    0  0.51518981337E+02  0.18539777638E+02  0.11486204998E+02  0.55945266664E+02  0.10566000000E+00 0. -1.
         23    2    1    0    0    0  0.27222096642E+02 -0.10456636464E+02 -0.11097204292E+01  0.95817552002E+02  0.91265480881E+02 0.  0.
         13    1    3    3    0    0 -0.24296884695E+02 -0.28996414102E+02 -0.12595925427E+02  0.39872285338E+02  0.10566000000E+00 0.  1.
         22    1    1    0    0    0 -0.27222096642E+02  0.10456636464E+02  0.11097204292E+01  0.29182447998E+02  0.00000000000E+00 0. -1.
</event>
<event>
 5    1  0.1285346E-004  0.9118800E+02  0.7818608E-02  0.1130116E+00
         25   -1    0    0    0    0  0.00000000000E+00  0.00000000000E+00  0.99999998245E-14  0.12500000000E+03  0.12500000000E+03 0.  0.
        -13    1    3    3    0    0  0.51497073807E+02 -0.27924183188E+02 -0.21487266266E+02  0.62397294757E+02  0.10566000000E+00 0. -1.
         23    2    1    0    0    0  0.22544170425E+02 -0.10110127489E+02 -0.72675495631E+01  0.99245940618E+02  0.95846153572E+02 0.  0.
         13    1    3    3    0    0 -0.28952903382E+02  0.17814055699E+02  0.14219716703E+02  0.36848645861E+02  0.10566000000E+00 0.  1.
         22    1    1    0    0    0 -0.22544170425E+02  0.10110127489E+02  0.72675495631E+01  0.25754059382E+02  0.00000000000E+00 0. -1.
</event>
<event>
 5    1  0.1285346E-004  0.9118800E+02  0.7818608E-02  0.1130116E+00
         25   -1    0    0    0    0  0.00000000000E+00  0.00000000000E+00  0.99999998245E-14  0.12500000000E+03  0.12500000000E+03 0.  0.
        -13    1    3    3    0    0 -0.36878297494E+01 -0.68480776935E+01 -0.60110613287E+02  0.60611824343E+02  0.10566000000E+00 0.  1.
         23    2    1    0    0    0 -0.36148203838E+01  0.69711062595E+01 -0.33441258612E+02  0.90649148097E+02  0.83888539291E+02 0.  0.
         13    1    3    3    0    0  0.73009365547E-01  0.13819183953E+02  0.26669354675E+02  0.30037323754E+02  0.10566000000E+00 0. -1.
         22    1    1    0    0    0  0.36148203838E+01 -0.69711062595E+01  0.33441258612E+02  0.34350851903E+02  0.00000000000E+00 0.  1.
</event>
<event>
 5    1  0.1285346E-004  0.9118800E+02  0.7818608E-02  0.1130116E+00
         25   -1    0    0    0    0  0.00000000000E+00  0.00000000000E+00  0.99999998245E-14  0.12500000000E+03  0.12500000000E+03 0.  0.
        -13    1    3    3    0    0  0.14028777788E+02 -0.15270943328E+02  0.48865184115E+02  0.53083196013E+02  0.10566000000E+00 0.  1.
         23    2    1    0    0    0 -0.10730463321E+02 -0.23071229640E+02  0.16083461335E+02  0.94898468333E+02  0.89997872660E+02 0.  0.
         13    1    3    3    0    0 -0.24759241108E+02 -0.78002863116E+01 -0.32781722779E+02  0.41815272320E+02  0.10566000000E+00 0. -1.
         22    1    1    0    0    0  0.10730463321E+02  0.23071229640E+02 -0.16083461335E+02  0.30101531667E+02  0.00000000000E+00 0. -1.
</event>
<event>
 5    1  0.1285346E-004  0.9118800E+02  0.7818608E-02  0.1130116E+00
         25   -1    0    0    0    0  0.00000000000E+00  0.00000000000E+00  0.99999998245E-14  0.12500000000E+03  0.12500000000E+03 0.  0.
        -13    1    3    3    0    0  0.31489393660E+02  0.96297543622E+01 -0.11695242451E+02  0.34944297707E+02  0.10566000000E+00 0. -1.
         23    2    1    0    0    0 -0.17288787243E+02 -0.56030361333E+01  0.22233532169E+02  0.96283695729E+02  0.91901707995E+02 0.  0.
         13    1    3    3    0    0 -0.48778180904E+02 -0.15232790495E+02  0.33928774620E+02  0.61339398023E+02  0.10566000000E+00 0.  1.
         22    1    1    0    0    0  0.17288787243E+02  0.56030361333E+01 -0.22233532169E+02  0.28716304271E+02  0.00000000000E+00 0.  1.
</event>
<event>
 5    1  0.1285346E-004  0.9118800E+02  0.7818608E-02  0.1130116E+00
         25   -1    0    0    0    0  0.00000000000E+00  0.00000000000E+00  0.99999998245E-14  0.12500000000E+03  0.12500000000E+03 0.  0.
        -13    1    3    3    0    0 -0.15814157187E+02 -0.52632535502E+01 -0.34084316226E+02  0.37941285984E+02  0.10566000000E+00 0. -1.
         23    2    1    0    0    0  0.61700490306E+01 -0.27984972280E+02  0.12085450911E+02  0.93898773299E+02  0.88598495048E+02 0.  0.
         13    1    3    3    0    0  0.21984206218E+02 -0.22721718730E+02  0.46169767137E+02  0.55957487315E+02  0.10566000000E+00 0.  1.
         22    1    1    0    0    0 -0.61700490306E+01  0.27984972280E+02 -0.12085450911E+02  0.31101226701E+02  0.00000000000E+00 0.  1.
</event>
<event>
 5    1  0.1285346E-004  0.9118800E+02  0.7818608E-02  0.1130116E+00
         25   -1    0    0    0    0  0.00000000000E+00  0.00000000000E+00  0.99999998245E-14  0.12500000000E+03  0.12500000000E+03 0.  0.
        -13    1    3    3    0    0  0.37779382326E+02 -0.39632013490E+02 -0.23022395182E+02  0.59397138535E+02  0.10566000000E+00 0. -1.
         23    2    1    0    0    0  0.62596460010E+01 -0.19098239359E+02 -0.19192767278E+02  0.97209925684E+02  0.93153000065E+02 0.  0.
         13    1    3    3    0    0 -0.31519736325E+02  0.20533774131E+02  0.38296279042E+01  0.37812787149E+02  0.10566000000E+00 0.  1.
         22    1    1    0    0    0 -0.62596460010E+01  0.19098239359E+02  0.19192767278E+02  0.27790074316E+02  0.00000000000E+00 0. -1.
</event>
<event>
 5    1  0.1285346E-004  0.9118800E+02  0.7818608E-02  0.1130116E+00
         25   -1    0    0    0    0  0.00000000000E+00  0.00000000000E+00  0.99999998245E-14  0.12500000000E+03  0.12500000000E+03 0.  0.
        -13    1    3    3    0    0  0.56232581527E+02  0.96606233449E+01  0.19427545885E+01  0.57089546574E+02  0.10566000000E+00 0. -1.
         23    2    1    0    0    0  0.21768689671E+02  0.20556440254E+02 -0.68428182622E+01  0.94287343852E+02  0.89145027697E+02 0.  0.
         13    1    3    3    0    0 -0.34463891856E+02  0.10895816909E+02 -0.87855728507E+01  0.37197797278E+02  0.10566000000E+00 0.  1.
         22    1    1    0    0    0 -0.21768689671E+02 -0.20556440254E+02  0.68428182622E+01  0.30712656148E+02  0.00000000000E+00 0. -1.
</event>
<event>
 5    1  0.1285346E-004  0.9118800E+02  0.7818608E-02  0.1130116E+00
         25   -1    0    0    0    0  0.00000000000E+00  0.00000000000E+00  0.99999998245E-14  0.12500000000E+03  0.12500000000E+03 0.  0.
        -13    1    3    3    0    0  0.17422612926E+02 -0.54971111719E+02  0.45659910731E+01  0.57846607535E+02  0.10566000000E+00 0.  1.
         23    2    1    0    0    0 -0.61387544621E+01 -0.25813515478E+02  0.11690865390E+02  0.96005203549E+02  0.91522133319E+02 0.  0.
         13    1    3    3    0    0 -0.23561367388E+02  0.29157596241E+02  0.71248743168E+01  0.38158596015E+02  0.10566000000E+00 0. -1.
         22    1    1    0    0    0  0.61387544621E+01  0.25813515478E+02 -0.11690865390E+02  0.28994796451E+02  0.00000000000E+00 0.  1.
</event>
<event>
 5    1  0.1285346E-004  0.9118800E+02  0.7818608E-02  0.1130116E+00
         25   -1    0    0    0    0  0.00000000000E+00  0.00000000000E+00  0.99999998245E-14  0.12500000000E+03  0.12500000000E+03 0.  0.
        -13    1    3    3    0    0  0.30086097360E+02 -0.11813269740E+02  0.41752816931E+02  0.52801851123E+02  0.10566000000E+00 0.  1.
         23    2    1    0    0    0 -0.73118411726E+01 -0.37688511862E+01  0.31553736653E+02  0.92391633630E+02  0.86445985491E+02 0.  0.
         13    1    3    3    0    0 -0.37397938533E+02  0.80444185538E+01 -0.10199080278E+02  0.39589782507E+02  0.10566000000E+00 0. -1.
         22    1    1    0    0    0  0.73118411726E+01  0.37688511862E+01 -0.31553736653E+02  0.32608366370E+02  0.00000000000E+00 0.  1.
</event>
<event>
 5    1  0.1285346E-004  0.9118800E+02  0.7818608E-02  0.1130116E+00
         25   -1    0    0    0    0  0.00000000000E+00  0.00000000000E+00  0.99999998245E-14  0.12500000000E+03  0.12500000000E+03 0.  0.
        -13    1    3    3    0    0 -0.59611036174E+02  0.34011429836E+01  0.14644478965E+02  0.61477762935E+02  0.10566000000E+00 0. -1.
         23    2    1    0    0    0 -0.25241170983E+02  0.81419511474E+01  0.10716704296E+02  0.96394828579E+02  0.92052741104E+02 0.  0.
         13    1    3    3    0    0  0.34369865191E+02  0.47408081638E+01 -0.39277746687E+01  0.34917065644E+02  0.10566000000E+00 0.  1.
         22    1    1    0    0    0  0.25241170983E+02 -0.81419511474E+01 -0.10716704296E+02  0.28605171421E+02  0.00000000000E+00 0. -1.
</event>
<event>
 5    1  0.1285346E-004  0.9118800E+02  0.7818608E-02  0.1130116E+00
         25   -1    0    0    0    0  0.00000000000E+00  0.00000000000E+00  0.99999998245E-14  0.12500000000E+03  0.12500000000E+03 0.  0.
        -13    1    3    3    0    0 -0.35482792547E+01  0.34928268678E+02 -0.13896966954E+02  0.37758589659E+02  0.10566000000E+00 0. -1.
         23    2    1    0    0    0 -0.18554901161E+02 -0.18944109360E+02  0.71893902487E+01  0.97525448708E+02  0.93575435757E+02 0.  0.
         13    1    3    3    0    0 -0.15006621907E+02 -0.53872378037E+02  0.21086357203E+02  0.59766859049E+02  0.10566000000E+00 0.  1.
         22    1    1    0    0    0  0.18554901161E+02  0.18944109360E+02 -0.71893902487E+01  0.27474551292E+02  0.00000000000E+00 0.  1.
</event>
<event>
 5    1  0.1285346E-004  0.9118800E+02  0.7818608E-02  0.1130116E+00
         25   -1    0    0    0    0  0.00000000000E+00  0.00000000000E+00  0.99999998245E-14  0.12500000000E+03  0.12500000000E+03 0.  0.
        -13    1    3    3    0    0 -0.24064487830E+02  0.32401924026E+02  0.44114358039E+02  0.59791905843E+02  0.10566000000E+00 0.  1.
         23    2    1    0    0    0 -0.14435874732E+02  0.39313927312E+01  0.26334693599E+02  0.94711942699E+02  0.89738429198E+02 0.  0.
         13    1    3    3    0    0  0.96286130978E+01 -0.28470531295E+02 -0.17779664440E+02  0.34920036856E+02  0.10566000000E+00 0. -1.
         22    1    1    0    0    0  0.14435874732E+02 -0.39313927312E+01 -0.26334693599E+02  0.30288057301E+02  0.00000000000E+00 0.  1.
</event>
<event>
 5    1  0.1285346E-004  0.9118800E+02  0.7818608E-02  0.1130116E+00
         25   -1    0    0    0    0  0.00000000000E+00  0.00000000000E+00  0.99999998245E-14  0.12500000000E+03  0.12500000000E+03 0.  0.
        -13    1    3    3    0    0 -0.13738096342E+02  0.48732889563E+02 -0.22818659098E+02  0.55536764250E+02  0.10566000000E+00 0.  1.
         23    2    1    0    0    0 -0.13406864943E+02  0.25145935446E+02  0.89726845535E+01  0.95124070472E+02  0.90310672780E+02 0.  0.
         13    1    3    3    0    0  0.33123139867E+00 -0.23586954117E+02  0.31791343652E+02  0.39587306222E+02  0.10566000000E+00 0. -1.
         22    1    1    0    0    0  0.13406864943E+02 -0.25145935446E+02 -0.89726845535E+01  0.29875929528E+02  0.00000000000E+00 0. -1.
</event>
<event>
 5    1  0.1285346E-004  0.9118800E+02  0.7818608E-02  0.1130116E+00
         25   -1    0    0    0    0  0.00000000000E+00  0.00000000000E+00  0.99999998245E-14  0.12500000000E+03  0.12500000000E+03 0.  0.
        -13    1    3    3    0    0  0.27854927346E+02  0.70727009372E+01  0.49683913165E+02  0.57397059745E+02  0.10566000000E+00 0.  1.
         23    2    1    0    0    0  0.16220099352E+02 -0.14048368863E+02  0.19741038485E+02  0.95842549988E+02  0.91299712470E+02 0.  0.
         13    1    3    3    0    0 -0.11634827994E+02 -0.21121069800E+02 -0.29942874679E+02  0.38445490243E+02  0.10566000000E+00 0. -1.
         22    1    1    0    0    0 -0.16220099352E+02  0.14048368863E+02 -0.19741038485E+02  0.29157450012E+02  0.00000000000E+00 0.  1.
</event>
<event>
 5    1  0.1285346E-004  0.9118800E+02  0.7818608E-02  0.1130116E+00
         25   -1    0    0    0    0  0.00000000000E+00  0.00000000000E+00  0.99999998245E-14  0.12500000000E+03  0.12500000000E+03 0.  0.
        -13    1    3    3    0    0  0.35631387425E+02  0.16835412522E+01 -0.20468642198E+02  0.41126713441E+02  0.10566000000E+00 0.  1.
         23    2    1    0    0    0  0.53787106366E+01  0.11203948175E+02  0.25301238313E+02  0.96811143284E+02  0.92616336685E+02 0.  0.
         13    1    3    3    0    0 -0.30252676789E+02  0.95204069230E+01  0.45769880511E+02  0.55684429842E+02  0.10566000000E+00 0. -1.
         22    1    1    0    0    0 -0.53787106366E+01 -0.11203948175E+02 -0.25301238313E+02  0.28188856716E+02  0.00000000000E+00 0. -1.
</event>
<event>
 5    1  0.1285346E-004  0.9118800E+02  0.7818608E-02  0.1130116E+00
         25   -1    0    0    0    0  0.00000000000E+00  0.00000000000E+00  0.99999998245E-14  0.12500000000E+03  0.12500000000E+03 0.  0.
        -13    1    3    3    0    0 -0.15323444119E+02  0.23334198360E+02 -0.47904368227E+02  0.55444859203E+02  0.10566000000E+00 0. -1.
         23    2    1    0    0    0  0.44937138220E+01 -0.60288976775E+01 -0.27850850430E+02  0.96151933500E+02  0.91722316668E+02 0.  0.
         13    1    3    3    0    0  0.19817157941E+02 -0.29363096037E+02  0.20053517797E+02  0.40707074297E+02  0.10566000000E+00 0.  1.
         22    1    1    0    0    0 -0.44937138220E+01  0.60288976775E+01  0.27850850430E+02  0.28848066500E+02  0.00000000000E+00 0. -1.
</event>
<event>
 5    1  0.1285346E-004  0.9118800E+02  0.7818608E-02  0.1130116E+00
         25   -1    0    0    0    0  0.00000000000E+00  0.00000000000E+00  0.99999998245E-14  0.12500000000E+03  0.12500000000E+03 0.  0.
        -13    1    3    3    0    0 -0.45291630186E+01 -0.34500193642E+02 -0.30770906648E+02  0.46450366403E+02  0.10566000000E+00 0. -1.
         23    2    1    0    0    0 -0.21773217462E+02  0.99301012357E+01 -0.15464356908E+02  0.96507435290E+02  0.92205524902E+02 0.  0.
         13    1    3    3    0    0 -0.17244054443E+02  0.44430294878E+02  0.15306549740E+02  0.50057068887E+02  0.10566000000E+00 0.  1.
         22    1    1    0    0    0  0.21773217462E+02 -0.99301012357E+01  0.15464356908E+02  0.28492564710E+02  0.00000000000E+00 0.  1.
</event>
<event>
 5    1  0.1285346E-004  0.9118800E+02  0.7818608E-02  0.1130116E+00
         25   -1    0    0    0    0  0.00000000000E+00  0.00000000000E+00  0.99999998245E-14  0.12500000000E+03  0.12500000000E+03 0.  0.
        -13    1    3    3    0    0  0.25783182207E+02  0.28935383434E+02  0.16683139687E+02  0.42194397887E+02  0.10566000000E+00 0.  1.
         23    2    1    0    0    0 -0.10891478428E+01  0.11704113543E+02 -0.26566461690E+02  0.95949192721E+02  0.91445602301E+02 0.  0.
         13    1    3    3    0    0 -0.26872330050E+02 -0.17231269891E+02 -0.43249601377E+02  0.53754794834E+02  0.10566000000E+00 0. -1.
         22    1    1    0    0    0  0.10891478428E+01 -0.11704113543E+02  0.26566461690E+02  0.29050807279E+02  0.00000000000E+00 0. -1.
</event>
<event>
 5    1  0.1285346E-004  0.9118800E+02  0.7818608E-02  0.1130116E+00
         25   -1    0    0    0    0  0.00000000000E+00  0.00000000000E+00  0.99999998245E-14  0.12500000000E+03  0.12500000000E+03 0.  0.
        -13    1    3    3    0    0 -0.36459829839E+02 -0.11951848881E+02  0.23948975892E+02  0.45229752308E+02  0.10566000000E+00 0.  1.
         23    2    1    0    0    0  0.10686715252E+02  0.13287562177E+02  0.19802306295E+02  0.98867711044E+02  0.95351600726E+02 0.  0.
         13    1    3    3    0    0  0.47146545091E+02  0.25239411058E+02 -0.41466695971E+01  0.53637958736E+02  0.10566000000E+00 0. -1.
         22    1    1    0    0    0 -0.10686715252E+02 -0.13287562177E+02 -0.19802306295E+02  0.26132288956E+02  0.00000000000E+00 0. -1.
</event>
<event>
 5    1  0.1285346E-004  0.9118800E+02  0.7818608E-02  0.1130116E+00
         25   -1    0    0    0    0  0.00000000000E+00  0.00000000000E+00  0.99999998245E-14  0.12500000000E+03  0.12500000000E+03 0.  0.
        -13    1    3    3    0    0  0.28274900867E+02 -0.13422735226E+02  0.35931554623E+02  0.47652152330E+02  0.10566000000E+00 0. -1.
         23    2    1    0    0    0  0.86240205953E+01 -0.27248007974E+02 -0.58289356045E+01  0.95831452554E+02  0.91284517519E+02 0.  0.
         13    1    3    3    0    0 -0.19650880272E+02 -0.13825272749E+02 -0.41760490228E+02  0.48179300225E+02  0.10566000000E+00 0.  1.
         22    1    1    0    0    0 -0.86240205953E+01  0.27248007974E+02  0.58289356045E+01  0.29168547446E+02  0.00000000000E+00 0.  1.
</event>
<event>
 5    1  0.1285346E-004  0.9118800E+02  0.7818608E-02  0.1130116E+00
         25   -1    0    0    0    0  0.00000000000E+00  0.00000000000E+00  0.99999998245E-14  0.12500000000E+03  0.12500000000E+03 0.  0.
        -13    1    3    3    0    0  0.16787595778E+02 -0.25282724526E+01  0.29231834829E+02  0.33804243300E+02  0.10566000000E+00 0.  1.
         23    2    1    0    0    0 -0.21654888359E+02  0.11323388387E+02 -0.16791865371E+02  0.95350041197E+02  0.90622901627E+02 0.  0.
         13    1    3    3    0    0 -0.38442484136E+02  0.13851660840E+02 -0.46023700200E+02  0.61545797897E+02  0.10566000000E+00 0. -1.
         22    1    1    0    0    0  0.21654888359E+02 -0.11323388387E+02  0.16791865371E+02  0.29649958803E+02  0.00000000000E+00 0. -1.
</event>
<event>
 5    1  0.1285346E-004  0.9118800E+02  0.7818608E-02  0.1130116E+00
         25   -1    0    0    0    0  0.00000000000E+00  0.00000000000E+00  0.99999998245E-14  0.12500000000E+03  0.12500000000E+03 0.  0.
        -13    1    3    3    0    0  0.36615535522E+02 -0.31092466245E+02 -0.17863293950E+02  0.51249852035E+02  0.10566000000E+00 0.  1.
         23    2    1    0    0    0  0.23252939963E+02  0.11367886086E+02 -0.13022049406E+02  0.96025842174E+02  0.91550317004E+02 0.  0.
         13    1    3    3    0    0 -0.13362595559E+02  0.42460352331E+02  0.48412445441E+01  0.44775990139E+02  0.10566000000E+00 0. -1.
         22    1    1    0    0    0 -0.23252939963E+02 -0.11367886086E+02  0.13022049406E+02  0.28974157826E+02  0.00000000000E+00 0.  1.
</event>
<event>
 5    1  0.1285346E-004  0.9118800E+02  0.7818608E-02  0.1130116E+00
         25   -1    0    0    0    0  0.00000000000E+00  0.00000000000E+00  0.99999998245E-14  0.12500000000E+03  0.12500000000E+03 0.  0.
        -13    1    3    3    0    0  0.20691593627E+02 -0.30978037739E+02 -0.29201075715E+02  0.47333865846E+02  0.10566000000E+00 0. -1.
         23    2    1    0    0    0 -0.12508575555E+02  0.52551054946E+01 -0.24872281691E+02  0.96667845251E+02  0.92422731580E+02 0.  0.
         13    1    3    3    0    0 -0.33200169182E+02  0.36233143233E+02  0.43287940230E+01  0.49333979406E+02  0.10566000000E+00 0.  1.
         22    1    1    0    0    0  0.12508575555E+02 -0.52551054946E+01  0.24872281691E+02  0.28332154749E+02  0.00000000000E+00 0. -1.
</event>
<event>
 5    1  0.1285346E-004  0.9118800E+02  0.7818608E-02  0.1130116E+00
         25   -1    0    0    0    0  0.00000000000E+00  0.00000000000E+00  0.99999998245E-14  0.12500000000E+03  0.12500000000E+03 0.  0.
        -13    1    3    3    0    0  0.32771364069E+02 -0.32902681050E+02 -0.28817038385E+02  0.54653285249E+02  0.10566000000E+00 0. -1.
         23    2    1    0    0    0  0.14981454894E+02  0.33880863235E+01 -0.25532810463E+02  0.95203229541E+02  0.90420171340E+02 0.  0.
         13    1    3    3    0    0 -0.17789909175E+02  0.36290767373E+02  0.32842279225E+01  0.40549944292E+02  0.10566000000E+00 0.  1.
         22    1    1    0    0    0 -0.14981454894E+02 -0.33880863235E+01  0.25532810463E+02  0.29796770459E+02  0.00000000000E+00 0.  1.
</event>
<event>
 5    1  0.1285346E-004  0.9118800E+02  0.7818608E-02  0.1130116E+00
         25   -1    0    0    0    0  0.00000000000E+00  0.00000000000E+00  0.99999998245E-14  0.12500000000E+03  0.12500000000E+03 0.  0.
        -13    1    3    3    0    0  0.12424831466E+02  0.88737918233E+01  0.36286361704E+02  0.39367903526E+02  0.10566000000E+00 0.  1.
         23    2    1    0    0    0 -0.19404694976E+02  0.15024987820E+02 -0.12121212940E+02  0.97628185131E+02  0.93712572703E+02 0.  0.
         13    1    3    3    0    0 -0.31829526442E+02  0.61511959968E+01 -0.48407574644E+02  0.58260281605E+02  0.10566000000E+00 0. -1.
         22    1    1    0    0    0  0.19404694976E+02 -0.15024987820E+02  0.12121212940E+02  0.27371814869E+02  0.00000000000E+00 0. -1.
</event>
<event>
 5    1  0.1285346E-004  0.9118800E+02  0.7818608E-02  0.1130116E+00
         25   -1    0    0    0    0  0.00000000000E+00  0.00000000000E+00  0.99999998245E-14  0.12500000000E+03  0.12500000000E+03 0.  0.
        -13    1    3    3    0    0  0.19334694523E+02  0.23354319326E+02 -0.32924414184E+02  0.44758047956E+02  0.10566000000E+00 0. -1.
         23    2    1    0    0    0  0.16216333521E+01 -0.22914172625E+02 -0.55236944857E+01  0.10137373913E+03  0.98582122026E+02 0.  0.
         13    1    3    3    0    0 -0.17713061171E+02 -0.46268491950E+02  0.27400719698E+02  0.56615691177E+02  0.10566000000E+00 0.  1.
         22    1    1    0    0    0 -0.16216333521E+01  0.22914172625E+02  0.55236944857E+01  0.23626260867E+02  0.00000000000E+00 0.  1.
</event>
<event>
 5    1  0.1285346E-004  0.9118800E+02  0.7818608E-02  0.1130116E+00
         25   -1    0    0    0    0  0.00000000000E+00  0.00000000000E+00  0.99999998245E-14  0.12500000000E+03  0.12500000000E+03 0.  0.
        -13    1    3    3    0    0  0.13234308167E+02 -0.18199328235E+02 -0.56896068853E+02  0.61184444721E+02  0.10566000000E+00 0. -1.
         23    2    1    0    0    0  0.12511528540E+02 -0.24930822925E+01 -0.30963759410E+02  0.91511073435E+02  0.85163186640E+02 0.  0.
         13    1    3    3    0    0 -0.72277962693E+00  0.15706245942E+02  0.25932309444E+02  0.30326628713E+02  0.10566000000E+00 0.  1.
         22    1    1    0    0    0 -0.12511528540E+02  0.24930822925E+01  0.30963759410E+02  0.33488926565E+02  0.00000000000E+00 0. -1.
</event>
<event>
 5    1  0.1285346E-004  0.9118800E+02  0.7818608E-02  0.1130116E+00
         25   -1    0    0    0    0  0.00000000000E+00  0.00000000000E+00  0.99999998245E-14  0.12500000000E+03  0.12500000000E+03 0.  0.
        -13    1    3    3    0    0 -0.43761503731E+01 -0.35124056066E+02  0.20299213211E+02  0.40803421764E+02  0.10566000000E+00 0.  1.
         23    2    1    0    0    0 -0.68972539322E+01  0.18539472402E+02  0.23086106776E+02  0.94598479071E+02  0.89580242061E+02 0.  0.
         13    1    3    3    0    0 -0.25211035590E+01  0.53663528468E+02  0.27868935646E+01  0.53795057306E+02  0.10566000000E+00 0. -1.
         22    1    1    0    0    0  0.68972539322E+01 -0.18539472402E+02 -0.23086106776E+02  0.30401520929E+02  0.00000000000E+00 0. -1.
</event>
<event>
 5    1  0.1285346E-004  0.9118800E+02  0.7818608E-02  0.1130116E+00
         25   -1    0    0    0    0  0.00000000000E+00  0.00000000000E+00  0.99999998245E-14  0.12500000000E+03  0.12500000000E+03 0.  0.
        -13    1    3    3    0    0  0.13004921260E+02  0.40875559313E+02  0.25266243548E+02  0.49782864051E+02  0.10566000000E+00 0. -1.
         23    2    1    0    0    0  0.22381957337E+02  0.14610613353E+02 -0.11476940096E+02  0.95911476649E+02  0.91394032421E+02 0.  0.
         13    1    3    3    0    0  0.93770360770E+01 -0.26264945960E+02 -0.36743183644E+02  0.46128612597E+02  0.10566000000E+00 0.  1.
         22    1    1    0    0    0 -0.22381957337E+02 -0.14610613353E+02  0.11476940096E+02  0.29088523351E+02  0.00000000000E+00 0. -1.
</event>
<event>
 5    1  0.1285346E-004  0.9118800E+02  0.7818608E-02  0.1130116E+00
         25   -1    0    0    0    0  0.00000000000E+00  0.00000000000E+00  0.99999998245E-14  0.12500000000E+03  0.12500000000E+03 0.  0.
        -13    1    3    3    0    0 -0.99638873489E+01 -0.39729956505E+01 -0.32972089800E+02  0.34673240624E+02  0.10566000000E+00 0. -1.
         23    2    1    0    0    0  0.21877469951E+02  0.11164159088E+02  0.16491386851E+02  0.95415747773E+02  0.90713488210E+02 0.  0.
         13    1    3    3    0    0  0.31841357300E+02  0.15137154739E+02  0.49463476651E+02  0.60742507149E+02  0.10566000000E+00 0.  1.
         22    1    1    0    0    0 -0.21877469951E+02 -0.11164159088E+02 -0.16491386851E+02  0.29584252227E+02  0.00000000000E+00 0.  1.
</event>
<event>
 5    1  0.1285346E-004  0.9118800E+02  0.7818608E-02  0.1130116E+00
         25   -1    0    0    0    0  0.00000000000E+00  0.00000000000E+00  0.99999998245E-14  0.12500000000E+03  0.12500000000E+03 0.  0.
        -13    1    3    3    0    0  0.89107215352E+01 -0.32587207156E+02  0.12634645768E+02  0.36068995913E+02  0.10566000000E+00 0.  1.
         23    2    1    0    0    0  0.74418690721E+01  0.12603162924E+02 -0.25751098519E+02  0.95380070798E+02  0.90664313263E+02 0.  0.
         13    1    3    3    0    0 -0.14688524630E+01  0.45190370079E+02 -0.38385744287E+02  0.59311074885E+02  0.10566000000E+00 0. -1.
         22    1    1    0    0    0 -0.74418690721E+01 -0.12603162924E+02  0.25751098519E+02  0.29619929202E+02  0.00000000000E+00 0. -1.
</event>
<event>
 5    1  0.1285346E-004  0.9118800E+02  0.7818608E-02  0.1130116E+00
         25   -1    0    0    0    0  0.00000000000E+00  0.00000000000E+00  0.99999998245E-14  0.12500000000E+03  0.12500000000E+03 0.  0.
        -13    1    3    3    0    0 -0.10722576844E+02 -0.29204354206E+01 -0.30871319067E+02  0.32810853421E+02  0.10566000000E+00 0. -1.
         23    2    1    0    0    0 -0.13676065573E+02 -0.22653290496E+01  0.29051782311E+02  0.92810365943E+02  0.87049362351E+02 0.  0.
         13    1    3    3    0    0 -0.29534887296E+01  0.65510637104E+00  0.59923101378E+02  0.59999512522E+02  0.10566000000E+00 0.  1.
         22    1    1    0    0    0  0.13676065573E+02  0.22653290496E+01 -0.29051782311E+02  0.32189634057E+02  0.00000000000E+00 0.  1.
</event>
<event>
 5    1  0.1285346E-004  0.9118800E+02  0.7818608E-02  0.1130116E+00
         25   -1    0    0    0    0  0.00000000000E+00  0.00000000000E+00  0.99999998245E-14  0.12500000000E+03  0.12500000000E+03 0.  0.
        -13    1    3    3    0    0  0.42047514055E+01 -0.27845548882E+02  0.55717966301E+02  0.62430420948E+02  0.10566000000E+00 0.  1.
         23    2    1    0    0    0  0.88978972151E+00 -0.14691397509E+02  0.25427039618E+02  0.95620360277E+02  0.90995000243E+02 0.  0.
         13    1    3    3    0    0 -0.33149616840E+01  0.13154151373E+02 -0.30290926684E+02  0.33189939329E+02  0.10566000000E+00 0. -1.
         22    1    1    0    0    0 -0.88978972151E+00  0.14691397509E+02 -0.25427039618E+02  0.29379639723E+02  0.00000000000E+00 0.  1.
</event>
<event>
 5    1  0.1285346E-004  0.9118800E+02  0.7818608E-02  0.1130116E+00
         25   -1    0    0    0    0  0.00000000000E+00  0.00000000000E+00  0.99999998245E-14  0.12500000000E+03  0.12500000000E+03 0.  0.
        -13    1    3    3    0    0 -0.16457238128E+02 -0.14443593369E+02 -0.33082335508E+02  0.39672536633E+02  0.10566000000E+00 0. -1.
         23    2    1    0    0    0 -0.56407261383E+01 -0.16929915973E+02  0.22460524905E+02  0.96313504480E+02  0.91942243392E+02 0.  0.
         13    1    3    3    0    0  0.10816511989E+02 -0.24863226047E+01  0.55542860413E+02  0.56640967847E+02  0.10566000000E+00 0.  1.
         22    1    1    0    0    0  0.56407261383E+01  0.16929915973E+02 -0.22460524905E+02  0.28686495520E+02  0.00000000000E+00 0.  1.
</event>
<event>
 5    1  0.1285346E-004  0.9118800E+02  0.7818608E-02  0.1130116E+00
         25   -1    0    0    0    0  0.00000000000E+00  0.00000000000E+00  0.99999998245E-14  0.12500000000E+03  0.12500000000E+03 0.  0.
        -13    1    3    3    0    0 -0.12299700956E+02  0.28880811511E+01  0.52238615070E+02  0.53744839053E+02  0.10566000000E+00 0. -1.
         23    2    1    0    0    0 -0.15901978423E+02 -0.18598835878E+02  0.16895292982E+02  0.95263817684E+02  0.90503891745E+02 0.  0.
         13    1    3    3    0    0 -0.36022774669E+01 -0.21486917029E+02 -0.35343322087E+02  0.41518978631E+02  0.10566000000E+00 0.  1.
         22    1    1    0    0    0  0.15901978423E+02  0.18598835878E+02 -0.16895292982E+02  0.29736182316E+02  0.00000000000E+00 0. -1.
</event>
<event>
 5    1  0.1285346E-004  0.9118800E+02  0.7818608E-02  0.1130116E+00
         25   -1    0    0    0    0  0.00000000000E+00  0.00000000000E+00  0.99999998245E-14  0.12500000000E+03  0.12500000000E+03 0.  0.
        -13    1    3    3    0    0 -0.33983375327E+02 -0.37043368088E+02 -0.34408647227E+02  0.60918364111E+02  0.10566000000E+00 0.  1.
         23    2    1    0    0    0 -0.79295124713E+01 -0.23064003716E+02 -0.17533115325E+02  0.94962763635E+02  0.90087129540E+02 0.  0.
         13    1    3    3    0    0  0.26053862856E+02  0.13979364372E+02  0.16875531902E+02  0.34044399524E+02  0.10566000000E+00 0. -1.
         22    1    1    0    0    0  0.79295124713E+01  0.23064003716E+02  0.17533115325E+02  0.30037236365E+02  0.00000000000E+00 0.  1.
</event>
<event>
 5    1  0.1285346E-004  0.9118800E+02  0.7818608E-02  0.1130116E+00
         25   -1    0    0    0    0  0.00000000000E+00  0.00000000000E+00  0.99999998245E-14  0.12500000000E+03  0.12500000000E+03 0.  0.
        -13    1    3    3    0    0 -0.14333098122E+02 -0.12307040257E+02 -0.59224196797E+02  0.62164439931E+02  0.10566000000E+00 0.  1.
         23    2    1    0    0    0 -0.18656447014E+01 -0.65371524815E+01 -0.26202879294E+02  0.97929612563E+02  0.94113777635E+02 0.  0.
         13    1    3    3    0    0  0.12467453420E+02  0.57698877753E+01  0.33021317503E+02  0.35765172632E+02  0.10566000000E+00 0. -1.
         22    1    1    0    0    0  0.18656447014E+01  0.65371524815E+01  0.26202879294E+02  0.27070387437E+02  0.00000000000E+00 0.  1.
</event>
<event>
 5    1  0.1285346E-004  0.9118800E+02  0.7818608E-02  0.1130116E+00
         25   -1    0    0    0    0  0.00000000000E+00  0.00000000000E+00  0.99999998245E-14  0.12500000000E+03  0.12500000000E+03 0.  0.
        -13    1    3    3    0    0 -0.35195551978E+02 -0.43056077087E+02  0.22345749766E+02  0.59932431536E+02  0.10566000000E+00 0. -1.
         23    2    1    0    0    0 -0.23428569464E+02 -0.24846427370E+02  0.30650727393E+00  0.90848327027E+02  0.84184807160E+02 0.  0.
         13    1    3    3    0    0  0.11766982514E+02  0.18209649718E+02 -0.22039242492E+02  0.30915895490E+02  0.10566000000E+00 0.  1.
         22    1    1    0    0    0  0.23428569464E+02  0.24846427370E+02 -0.30650727393E+00  0.34151672973E+02  0.00000000000E+00 0. -1.
</event>
<event>
 5    1  0.1285346E-004  0.9118800E+02  0.7818608E-02  0.1130116E+00
         25   -1    0    0    0    0  0.00000000000E+00  0.00000000000E+00  0.99999998245E-14  0.12500000000E+03  0.12500000000E+03 0.  0.
        -13    1    3    3    0    0 -0.19382740396E+02 -0.43594509898E+02 -0.37588014087E+02  0.60737483365E+02  0.10566000000E+00 0.  1.
         23    2    1    0    0    0 -0.18335398827E+02 -0.17133995492E+02 -0.13660009367E+02  0.96428046837E+02  0.92097837701E+02 0.  0.
         13    1    3    3    0    0  0.10473415693E+01  0.26460514405E+02  0.23928004720E+02  0.35690563471E+02  0.10566000000E+00 0. -1.
         22    1    1    0    0    0  0.18335398827E+02  0.17133995492E+02  0.13660009367E+02  0.28571953163E+02  0.00000000000E+00 0.  1.
</event>
<event>
 5    1  0.1285346E-004  0.9118800E+02  0.7818608E-02  0.1130116E+00
         25   -1    0    0    0    0  0.00000000000E+00  0.00000000000E+00  0.99999998245E-14  0.12500000000E+03  0.12500000000E+03 0.  0.
        -13    1    3    3    0    0 -0.33339916989E+01  0.12485898979E+01  0.48702396763E+02  0.48832459409E+02  0.10566000000E+00 0.  1.
         23    2    1    0    0    0 -0.28457554284E+02 -0.57438863220E+01  0.12640273302E+02  0.93336122552E+02  0.87801085632E+02 0.  0.
         13    1    3    3    0    0 -0.25123562585E+02 -0.69924762199E+01 -0.36062123461E+02  0.44503663144E+02  0.10566000000E+00 0. -1.
         22    1    1    0    0    0  0.28457554284E+02  0.57438863220E+01 -0.12640273302E+02  0.31663877448E+02  0.00000000000E+00 0. -1.
</event>
<event>
 5    1  0.1285346E-004  0.9118800E+02  0.7818608E-02  0.1130116E+00
         25   -1    0    0    0    0  0.00000000000E+00  0.00000000000E+00  0.99999998245E-14  0.12500000000E+03  0.12500000000E+03 0.  0.
        -13    1    3    3    0    0  0.42711300982E+00  0.28570322485E+01  0.34992341566E+02  0.35111539287E+02  0.10566000000E+00 0. -1.
         23    2    1    0    0    0 -0.12787957505E+01 -0.28914325160E+02 -0.13463069689E+02  0.93079352082E+02  0.87434764371E+02 0.  0.
         13    1    3    3    0    0 -0.17059087603E+01 -0.31771357409E+02 -0.48455411255E+02  0.57967812795E+02  0.10566000000E+00 0.  1.
         22    1    1    0    0    0  0.12787957505E+01  0.28914325160E+02  0.13463069689E+02  0.31920647918E+02  0.00000000000E+00 0.  1.
</event>
<event>
 5    1  0.1285346E-004  0.9118800E+02  0.7818608E-02  0.1130116E+00
         25   -1    0    0    0    0  0.00000000000E+00  0.00000000000E+00  0.99999998245E-14  0.12500000000E+03  0.12500000000E+03 0.  0.
        -13    1    3    3    0    0  0.62846156558E+01 -0.10492466101E+02 -0.55526140585E+02  0.56857292331E+02  0.10566000000E+00 0. -1.
         23    2    1    0    0    0  0.53627207218E+01 -0.20898509230E+02 -0.14964535462E+02  0.98742738467E+02  0.95187628486E+02 0.  0.
         13    1    3    3    0    0 -0.92189493398E+00 -0.10406043129E+02  0.40561605123E+02  0.41885446137E+02  0.10566000000E+00 0.  1.
         22    1    1    0    0    0 -0.53627207218E+01  0.20898509230E+02  0.14964535462E+02  0.26257261533E+02  0.00000000000E+00 0. -1.
</event>
<event>
 5    1  0.1285346E-004  0.9118800E+02  0.7818608E-02  0.1130116E+00
         25   -1    0    0    0    0  0.00000000000E+00  0.00000000000E+00  0.99999998245E-14  0.12500000000E+03  0.12500000000E+03 0.  0.
        -13    1    3    3    0    0  0.12574477569E+02  0.47635572927E+01  0.32405516350E+02  0.35084720580E+02  0.10566000000E+00 0.  1.
         23    2    1    0    0    0 -0.10140907159E+02 -0.32290625353E+01 -0.25267204186E+02  0.97582916818E+02  0.93652171381E+02 0.  0.
         13    1    3    3    0    0 -0.22715384728E+02 -0.79926198280E+01 -0.57672720535E+02  0.62498196238E+02  0.10566000000E+00 0. -1.
         22    1    1    0    0    0  0.10140907159E+02  0.32290625353E+01  0.25267204186E+02  0.27417083182E+02  0.00000000000E+00 0. -1.
</event>
<event>
 5    1  0.1285346E-004  0.9118800E+02  0.7818608E-02  0.1130116E+00
         25   -1    0    0    0    0  0.00000000000E+00  0.00000000000E+00  0.99999998245E-14  0.12500000000E+03  0.12500000000E+03 0.  0.
        -13    1    3    3    0    0  0.41664820027E+02 -0.46192612657E+02 -0.13606861779E+01  0.62222000313E+02  0.10566000000E+00 0. -1.
         23    2    1    0    0    0  0.16134835032E+02 -0.22454141756E+02 -0.33940192450E+01  0.97142492033E+02  0.93062468312E+02 0.  0.
         13    1    3    3    0    0 -0.25529984995E+02  0.23738470901E+02 -0.20333330672E+01  0.34920491720E+02  0.10566000000E+00 0.  1.
         22    1    1    0    0    0 -0.16134835032E+02  0.22454141756E+02  0.33940192450E+01  0.27857507967E+02  0.00000000000E+00 0. -1.
</event>
<event>
 5    1  0.1285346E-004  0.9118800E+02  0.7818608E-02  0.1130116E+00
         25   -1    0    0    0    0  0.00000000000E+00  0.00000000000E+00  0.99999998245E-14  0.12500000000E+03  0.12500000000E+03 0.  0.
        -13    1    3    3    0    0  0.36033177125E+02 -0.18542088932E+02 -0.86265795080E+01  0.41432209135E+02  0.10566000000E+00 0. -1.
         23    2    1    0    0    0  0.82369895597E+01  0.18985645138E+02  0.20009172157E+02  0.96213376566E+02  0.91806013645E+02 0.  0.
         13    1    3    3    0    0 -0.27796187566E+02  0.37527734071E+02  0.28635751665E+02  0.54781167431E+02  0.10566000000E+00 0.  1.
         22    1    1    0    0    0 -0.82369895597E+01 -0.18985645138E+02 -0.20009172157E+02  0.28786623434E+02  0.00000000000E+00 0.  1.
</event>
<event>
 5    1  0.1285346E-004  0.9118800E+02  0.7818608E-02  0.1130116E+00
         25   -1    0    0    0    0  0.00000000000E+00  0.00000000000E+00  0.99999998245E-14  0.12500000000E+03  0.12500000000E+03 0.  0.
        -13    1    3    3    0    0 -0.11350879833E+02  0.32872604360E+02  0.10673435977E+02  0.36378345069E+02  0.10566000000E+00 0. -1.
         23    2    1    0    0    0 -0.11287520383E+02 -0.23621919372E+02  0.17830600367E+02  0.93324559977E+02  0.87784622766E+02 0.  0.
         13    1    3    3    0    0  0.63359449306E-01 -0.56494523732E+02  0.71571643895E+01  0.56946214907E+02  0.10566000000E+00 0.  1.
         22    1    1    0    0    0  0.11287520383E+02  0.23621919372E+02 -0.17830600367E+02  0.31675440023E+02  0.00000000000E+00 0.  1.
</event>
<event>
 5    1  0.1285346E-004  0.9118800E+02  0.7818608E-02  0.1130116E+00
         25   -1    0    0    0    0  0.00000000000E+00  0.00000000000E+00  0.99999998245E-14  0.12500000000E+03  0.12500000000E+03 0.  0.
        -13    1    3    3    0    0  0.36190824759E+02  0.81943664727E+01 -0.78585758973E+01  0.37930091192E+02  0.10566000000E+00 0.  1.
         23    2    1    0    0    0 -0.15075989020E+02 -0.12049528318E+02 -0.22887634703E+02  0.95061389479E+02  0.90223873613E+02 0.  0.
         13    1    3    3    0    0 -0.51266813779E+02 -0.20243894791E+02 -0.15029058806E+02  0.57131298287E+02  0.10566000000E+00 0. -1.
         22    1    1    0    0    0  0.15075989020E+02  0.12049528318E+02  0.22887634703E+02  0.29938610521E+02  0.00000000000E+00 0. -1.
</event>
<event>
 5    1  0.1285346E-004  0.9118800E+02  0.7818608E-02  0.1130116E+00
         25   -1    0    0    0    0  0.00000000000E+00  0.00000000000E+00  0.99999998245E-14  0.12500000000E+03  0.12500000000E+03 0.  0.
        -13    1    3    3    0    0  0.33548261719E+02 -0.41370462080E+01 -0.12606948717E+02  0.36076964059E+02  0.10566000000E+00 0.  1.
         23    2    1    0    0    0 -0.25552410702E+02 -0.11285522709E+02 -0.87272696749E+01  0.95734765480E+02  0.91152023401E+02 0.  0.
         13    1    3    3    0    0 -0.59100672421E+02 -0.71484765013E+01  0.38796790416E+01  0.59657801422E+02  0.10566000000E+00 0. -1.
         22    1    1    0    0    0  0.25552410702E+02  0.11285522709E+02  0.87272696749E+01  0.29265234520E+02  0.00000000000E+00 0. -1.
</event>
<event>
 5    1  0.1285346E-004  0.9118800E+02  0.7818608E-02  0.1130116E+00
         25   -1    0    0    0    0  0.00000000000E+00  0.00000000000E+00  0.99999998245E-14  0.12500000000E+03  0.12500000000E+03 0.  0.
        -13    1    3    3    0    0 -0.28230340985E+02  0.31511641168E+02  0.28879481687E+02  0.51224713838E+02  0.10566000000E+00 0.  1.
         23    2    1    0    0    0  0.78537702970E+01  0.27791806703E+02  0.26321276150E+01  0.96000097871E+02  0.91515159770E+02 0.  0.
         13    1    3    3    0    0  0.36084111282E+02 -0.37198344643E+01 -0.26247354072E+02  0.44775384033E+02  0.10566000000E+00 0. -1.
         22    1    1    0    0    0 -0.78537702970E+01 -0.27791806703E+02 -0.26321276150E+01  0.28999902129E+02  0.00000000000E+00 0.  1.
</event>
<event>
 5    1  0.1285346E-004  0.9118800E+02  0.7818608E-02  0.1130116E+00
         25   -1    0    0    0    0  0.00000000000E+00  0.00000000000E+00  0.99999998245E-14  0.12500000000E+03  0.12500000000E+03 0.  0.
        -13    1    3    3    0    0  0.35819256790E+02 -0.24403900996E+02 -0.73051995890E+01  0.43953915023E+02  0.10566000000E+00 0. -1.
         23    2    1    0    0    0 -0.15314750709E+02 -0.25038378499E+02 -0.55966436264E+01  0.95120501895E+02  0.90305733338E+02 0.  0.
         13    1    3    3    0    0 -0.51134007499E+02 -0.63447750365E+00  0.17085559626E+01  0.51166586872E+02  0.10566000000E+00 0.  1.
         22    1    1    0    0    0  0.15314750709E+02  0.25038378499E+02  0.55966436264E+01  0.29879498105E+02  0.00000000000E+00 0.  1.
</event>
<event>
 5    1  0.1285346E-004  0.9118800E+02  0.7818608E-02  0.1130116E+00
         25   -1    0    0    0    0  0.00000000000E+00  0.00000000000E+00  0.99999998245E-14  0.12500000000E+03  0.12500000000E+03 0.  0.
        -13    1    3    3    0    0 -0.42435224286E+02  0.17549117245E+02  0.30197632428E+02  0.54960239670E+02  0.10566000000E+00 0.  1.
         23    2    1    0    0    0 -0.20077182427E+02 -0.13829736442E+02  0.84867259145E+01  0.99185674888E+02  0.95767524359E+02 0.  0.
         13    1    3    3    0    0  0.22358041860E+02 -0.31378853687E+02 -0.21710906514E+02  0.44225435218E+02  0.10566000000E+00 0. -1.
         22    1    1    0    0    0  0.20077182427E+02  0.13829736442E+02 -0.84867259145E+01  0.25814325112E+02  0.00000000000E+00 0.  1.
</event>
<event>
 5    1  0.1285346E-004  0.9118800E+02  0.7818608E-02  0.1130116E+00
         25   -1    0    0    0    0  0.00000000000E+00  0.00000000000E+00  0.99999998245E-14  0.12500000000E+03  0.12500000000E+03 0.  0.
        -13    1    3    3    0    0  0.23452081829E+02 -0.20225194501E+02  0.19442686074E+02  0.36566211733E+02  0.10566000000E+00 0.  1.
         23    2    1    0    0    0 -0.38397999677E+01  0.29340622878E+02  0.46995761248E+01  0.95038320634E+02  0.90191907390E+02 0.  0.
         13    1    3    3    0    0 -0.27291881796E+02  0.49565817379E+02 -0.14743109949E+02  0.58472108902E+02  0.10566000000E+00 0. -1.
         22    1    1    0    0    0  0.38397999677E+01 -0.29340622878E+02 -0.46995761248E+01  0.29961679366E+02  0.00000000000E+00 0. -1.
</event>
<event>
 5    1  0.1285346E-004  0.9118800E+02  0.7818608E-02  0.1130116E+00
         25   -1    0    0    0    0  0.00000000000E+00  0.00000000000E+00  0.99999998245E-14  0.12500000000E+03  0.12500000000E+03 0.  0.
        -13    1    3    3    0    0 -0.11363148058E+02  0.89588795919E+01  0.42986175312E+02  0.45356422801E+02  0.10566000000E+00 0. -1.
         23    2    1    0    0    0  0.16171519135E+02 -0.20475946420E+02  0.11578684552E+02  0.96454451330E+02  0.92133668290E+02 0.  0.
         13    1    3    3    0    0  0.27534667193E+02 -0.29434826011E+02 -0.31407490760E+02  0.51098028529E+02  0.10566000000E+00 0.  1.
         22    1    1    0    0    0 -0.16171519135E+02  0.20475946420E+02 -0.11578684552E+02  0.28545548670E+02  0.00000000000E+00 0. -1.
</event>
<event>
 5    1  0.1285346E-004  0.9118800E+02  0.7818608E-02  0.1130116E+00
         25   -1    0    0    0    0  0.00000000000E+00  0.00000000000E+00  0.99999998245E-14  0.12500000000E+03  0.12500000000E+03 0.  0.
        -13    1    3    3    0    0  0.12433307928E+02  0.10245424140E+01 -0.42478969220E+02  0.44273138846E+02  0.10566000000E+00 0. -1.
         23    2    1    0    0    0  0.27812167044E+02  0.67147028573E+01  0.62730791015E+01  0.95709124432E+02  0.91116854137E+02 0.  0.
         13    1    3    3    0    0  0.15378859116E+02  0.56901604433E+01  0.48752048322E+02  0.51435985586E+02  0.10566000000E+00 0.  1.
         22    1    1    0    0    0 -0.27812167044E+02 -0.67147028573E+01 -0.62730791015E+01  0.29290875568E+02  0.00000000000E+00 0.  1.
</event>
<event>
 5    1  0.1285346E-004  0.9118800E+02  0.7818608E-02  0.1130116E+00
         25   -1    0    0    0    0  0.00000000000E+00  0.00000000000E+00  0.99999998245E-14  0.12500000000E+03  0.12500000000E+03 0.  0.
        -13    1    3    3    0    0 -0.36665794726E+02 -0.22492100235E+02  0.43133008235E+02  0.60915865251E+02  0.10566000000E+00 0.  1.
         23    2    1    0    0    0 -0.16785297831E+02 -0.18698352355E+02  0.14470607236E+02  0.96003912715E+02  0.91520370294E+02 0.  0.
         13    1    3    3    0    0  0.19880496895E+02  0.37937478800E+01 -0.28662400999E+02  0.35088047464E+02  0.10566000000E+00 0. -1.
         22    1    1    0    0    0  0.16785297831E+02  0.18698352355E+02 -0.14470607236E+02  0.28996087285E+02  0.00000000000E+00 0.  1.
</event>
<event>
 5    1  0.1285346E-004  0.9118800E+02  0.7818608E-02  0.1130116E+00
         25   -1    0    0    0    0  0.00000000000E+00  0.00000000000E+00  0.99999998245E-14  0.12500000000E+03  0.12500000000E+03 0.  0.
        -13    1    3    3    0    0  0.22428611495E+02  0.15843026233E+02  0.34872606059E+02  0.44386415841E+02  0.10566000000E+00 0.  1.
         23    2    1    0    0    0  0.27131705557E+02 -0.53017683606E+01 -0.11102438799E+02  0.95209022482E+02  0.90428179350E+02 0.  0.
         13    1    3    3    0    0  0.47030940617E+01 -0.21144794593E+02 -0.45975044858E+02  0.50822606641E+02  0.10566000000E+00 0. -1.
         22    1    1    0    0    0 -0.27131705557E+02  0.53017683606E+01  0.11102438799E+02  0.29790977518E+02  0.00000000000E+00 0.  1.
</event>
<event>
 5    1  0.1285346E-004  0.9118800E+02  0.7818608E-02  0.1130116E+00
         25   -1    0    0    0    0  0.00000000000E+00  0.00000000000E+00  0.99999998245E-14  0.12500000000E+03  0.12500000000E+03 0.  0.
        -13    1    3    3    0    0 -0.19715282225E+02  0.76856012702E+01  0.40419941824E+02  0.45623937590E+02  0.10566000000E+00 0.  1.
         23    2    1    0    0    0 -0.10531667550E+02  0.30277891755E+02 -0.12983464824E+00  0.92942495301E+02  0.87238889408E+02 0.  0.
         13    1    3    3    0    0  0.91836146757E+01  0.22592290485E+02 -0.40549776472E+02  0.47318557711E+02  0.10566000000E+00 0. -1.
         22    1    1    0    0    0  0.10531667550E+02 -0.30277891755E+02  0.12983464824E+00  0.32057504699E+02  0.00000000000E+00 0. -1.
</event>
<event>
 5    1  0.1285346E-004  0.9118800E+02  0.7818608E-02  0.1130116E+00
         25   -1    0    0    0    0  0.00000000000E+00  0.00000000000E+00  0.99999998245E-14  0.12500000000E+03  0.12500000000E+03 0.  0.
        -13    1    3    3    0    0  0.48679339105E+02  0.27429510585E+02 -0.18834578802E+02  0.58964469211E+02  0.10566000000E+00 0.  1.
         23    2    1    0    0    0  0.27614462629E+02  0.12214571105E+02  0.51994297081E+01  0.94360346561E+02  0.89247334079E+02 0.  0.
         13    1    3    3    0    0 -0.21064876476E+02 -0.15214939479E+02  0.24034008510E+02  0.35395877350E+02  0.10566000000E+00 0. -1.
         22    1    1    0    0    0 -0.27614462629E+02 -0.12214571105E+02 -0.51994297081E+01  0.30639653439E+02  0.00000000000E+00 0.  1.
</event>
<event>
 5    1  0.1285346E-004  0.9118800E+02  0.7818608E-02  0.1130116E+00
         25   -1    0    0    0    0  0.00000000000E+00  0.00000000000E+00  0.99999998245E-14  0.12500000000E+03  0.12500000000E+03 0.  0.
        -13    1    3    3    0    0  0.24440740357E+02  0.53084177862E+02 -0.11131253439E+01  0.58451090158E+02  0.10566000000E+00 0.  1.
         23    2    1    0    0    0  0.10369313257E+02  0.21731227144E+02  0.15234135039E+02  0.96507057699E+02  0.92205013013E+02 0.  0.
         13    1    3    3    0    0 -0.14071427100E+02 -0.31352950719E+02  0.16347260383E+02  0.38055967541E+02  0.10566000000E+00 0. -1.
         22    1    1    0    0    0 -0.10369313257E+02 -0.21731227144E+02 -0.15234135039E+02  0.28492942301E+02  0.00000000000E+00 0.  1.
</event>
<event>
 5    1  0.1285346E-004  0.9118800E+02  0.7818608E-02  0.1130116E+00
         25   -1    0    0    0    0  0.00000000000E+00  0.00000000000E+00  0.99999998245E-14  0.12500000000E+03  0.12500000000E+03 0.  0.
        -13    1    3    3    0    0  0.21093099684E+02  0.27649763886E+02  0.31273100764E+02  0.46770143176E+02  0.10566000000E+00 0.  1.
         23    2    1    0    0    0 -0.18691879210E+02 -0.59165339169E-01  0.21998472988E+02  0.96132671361E+02  0.91696062294E+02 0.  0.
         13    1    3    3    0    0 -0.39784978894E+02 -0.27708929225E+02 -0.92746277760E+01  0.49362528185E+02  0.10566000000E+00 0. -1.
         22    1    1    0    0    0  0.18691879210E+02  0.59165339169E-01 -0.21998472988E+02  0.28867328639E+02  0.00000000000E+00 0. -1.
</event>
<event>
 5    1  0.1285346E-004  0.9118800E+02  0.7818608E-02  0.1130116E+00
         25   -1    0    0    0    0  0.00000000000E+00  0.00000000000E+00  0.99999998245E-14  0.12500000000E+03  0.12500000000E+03 0.  0.
        -13    1    3    3    0    0  0.95788010291E+01 -0.46859792780E+02 -0.18794562757E+02  0.51389107424E+02  0.10566000000E+00 0.  1.
         23    2    1    0    0    0 -0.20855218492E+02 -0.29307806201E+02 -0.79032181115E+01  0.88171363056E+02  0.80111427174E+02 0.  0.
         13    1    3    3    0    0 -0.30434019522E+02  0.17551986580E+02  0.10891344645E+02  0.36782255632E+02  0.10566000000E+00 0. -1.
         22    1    1    0    0    0  0.20855218492E+02  0.29307806201E+02  0.79032181115E+01  0.36828636944E+02  0.00000000000E+00 0.  1.
</event>
<event>
 5    1  0.1285346E-004  0.9118800E+02  0.7818608E-02  0.1130116E+00
         25   -1    0    0    0    0  0.00000000000E+00  0.00000000000E+00  0.99999998245E-14  0.12500000000E+03  0.12500000000E+03 0.  0.
        -13    1    3    3    0    0 -0.21968648668E+02 -0.59053338002E+01  0.23467101380E+02  0.32683489759E+02  0.10566000000E+00 0. -1.
         23    2    1    0    0    0  0.14732258079E+02 -0.22207497096E+02 -0.19863435353E+02  0.91761943207E+02  0.85530613243E+02 0.  0.
         13    1    3    3    0    0  0.36700906747E+02 -0.16302163296E+02 -0.43330536733E+02  0.59078453448E+02  0.10566000000E+00 0.  1.
         22    1    1    0    0    0 -0.14732258079E+02  0.22207497096E+02  0.19863435353E+02  0.33238056793E+02  0.00000000000E+00 0.  1.
</event>
<event>
 5    1  0.1285346E-004  0.9118800E+02  0.7818608E-02  0.1130116E+00
         25   -1    0    0    0    0  0.00000000000E+00  0.00000000000E+00  0.99999998245E-14  0.12500000000E+03  0.12500000000E+03 0.  0.
        -13    1    3    3    0    0  0.33544488193E+02  0.19083085871E+02  0.22108624459E+02  0.44476952391E+02  0.10566000000E+00 0.  1.
         23    2    1    0    0    0 -0.40371522093E+01 -0.16606153525E+02  0.23040786598E+02  0.96313055584E+02  0.91941633095E+02 0.  0.
         13    1    3    3    0    0 -0.37581640402E+02 -0.35689239395E+02  0.93216213869E+00  0.51836103193E+02  0.10566000000E+00 0. -1.
         22    1    1    0    0    0  0.40371522093E+01  0.16606153525E+02 -0.23040786598E+02  0.28686944416E+02  0.00000000000E+00 0.  1.
</event>
<event>
 5    1  0.1285346E-004  0.9118800E+02  0.7818608E-02  0.1130116E+00
         25   -1    0    0    0    0  0.00000000000E+00  0.00000000000E+00  0.99999998245E-14  0.12500000000E+03  0.12500000000E+03 0.  0.
        -13    1    3    3    0    0  0.16333271221E+01 -0.24507653509E+02  0.25189028838E+02  0.35182256548E+02  0.10566000000E+00 0.  1.
         23    2    1    0    0    0 -0.19932072295E+02  0.11288082713E+02 -0.18437635220E+02  0.95594988356E+02  0.90960140111E+02 0.  0.
         13    1    3    3    0    0 -0.21565399417E+02  0.35795736221E+02 -0.43626664057E+02  0.60412731808E+02  0.10566000000E+00 0. -1.
         22    1    1    0    0    0  0.19932072295E+02 -0.11288082713E+02  0.18437635220E+02  0.29405011644E+02  0.00000000000E+00 0. -1.
</event>
<event>
 5    1  0.1285346E-004  0.9118800E+02  0.7818608E-02  0.1130116E+00
         25   -1    0    0    0    0  0.00000000000E+00  0.00000000000E+00  0.99999998245E-14  0.12500000000E+03  0.12500000000E+03 0.  0.
        -13    1    3    3    0    0 -0.36471167202E+02  0.16944420624E+02 -0.43386505892E+02  0.59157919883E+02  0.10566000000E+00 0. -1.
         23    2    1    0    0    0 -0.63198600541E+01  0.18193257149E+02 -0.18839910548E+02  0.98057886752E+02  0.94283994866E+02 0.  0.
         13    1    3    3    0    0  0.30151307147E+02  0.12488365258E+01  0.24546595344E+02  0.38899966869E+02  0.10566000000E+00 0.  1.
         22    1    1    0    0    0  0.63198600541E+01 -0.18193257149E+02  0.18839910548E+02  0.26942113248E+02  0.00000000000E+00 0. -1.
</event>
<event>
 5    1  0.1285346E-004  0.9118800E+02  0.7818608E-02  0.1130116E+00
         25   -1    0    0    0    0  0.00000000000E+00  0.00000000000E+00  0.99999998245E-14  0.12500000000E+03  0.12500000000E+03 0.  0.
        -13    1    3    3    0    0 -0.15159147775E+02 -0.35676475734E+02 -0.18030831455E+02  0.42751990937E+02  0.10566000000E+00 0.  1.
         23    2    1    0    0    0 -0.21698422328E+02  0.16563660837E+02 -0.27995294729E+01  0.97558903865E+02  0.93620115179E+02 0.  0.
         13    1    3    3    0    0 -0.65392745527E+01  0.52240136571E+02  0.15231301983E+02  0.54806912928E+02  0.10566000000E+00 0. -1.
         22    1    1    0    0    0  0.21698422328E+02 -0.16563660837E+02  0.27995294729E+01  0.27441096135E+02  0.00000000000E+00 0. -1.
</event>
<event>
 5    1  0.1285346E-004  0.9118800E+02  0.7818608E-02  0.1130116E+00
         25   -1    0    0    0    0  0.00000000000E+00  0.00000000000E+00  0.99999998245E-14  0.12500000000E+03  0.12500000000E+03 0.  0.
        -13    1    3    3    0    0 -0.25873652258E+02 -0.12176917801E+02  0.37575717762E+02  0.47219370365E+02  0.10566000000E+00 0.  1.
         23    2    1    0    0    0 -0.10673342283E+02  0.25399744097E+02  0.14375651915E+02  0.93923857967E+02  0.88633878916E+02 0.  0.
         13    1    3    3    0    0  0.15200309975E+02  0.37576661898E+02 -0.23200065847E+02  0.46704487601E+02  0.10566000000E+00 0. -1.
         22    1    1    0    0    0  0.10673342283E+02 -0.25399744097E+02 -0.14375651915E+02  0.31076142033E+02  0.00000000000E+00 0.  1.
</event>
<event>
 5    1  0.1285346E-004  0.9118800E+02  0.7818608E-02  0.1130116E+00
         25   -1    0    0    0    0  0.00000000000E+00  0.00000000000E+00  0.99999998245E-14  0.12500000000E+03  0.12500000000E+03 0.  0.
        -13    1    3    3    0    0 -0.25394523206E+02 -0.97696298660E+01  0.22309581645E+02  0.35186021000E+02  0.10566000000E+00 0.  1.
         23    2    1    0    0    0  0.25005540153E+02  0.11122835343E+02 -0.64809865066E+01  0.96875318837E+02  0.92702911007E+02 0.  0.
         13    1    3    3    0    0  0.50400063360E+02  0.20892465209E+02 -0.28790568151E+02  0.61689297837E+02  0.10566000000E+00 0. -1.
         22    1    1    0    0    0 -0.25005540153E+02 -0.11122835343E+02  0.64809865066E+01  0.28124681163E+02  0.00000000000E+00 0. -1.
</event>
<event>
 5    1  0.1285346E-004  0.9118800E+02  0.7818608E-02  0.1130116E+00
         25   -1    0    0    0    0  0.00000000000E+00  0.00000000000E+00  0.99999998245E-14  0.12500000000E+03  0.12500000000E+03 0.  0.
        -13    1    3    3    0    0  0.35302442456E+02  0.26932751972E+02  0.19271718877E+02  0.48405019209E+02  0.10566000000E+00 0.  1.
         23    2    1    0    0    0  0.22673017664E+02 -0.65073168970E+01 -0.14276438221E+02  0.97427775000E+02  0.93444870111E+02 0.  0.
         13    1    3    3    0    0 -0.12629424793E+02 -0.33440068869E+02 -0.33548157098E+02  0.49022755790E+02  0.10566000000E+00 0. -1.
         22    1    1    0    0    0 -0.22673017664E+02  0.65073168970E+01  0.14276438221E+02  0.27572225000E+02  0.00000000000E+00 0. -1.
</event>
<event>
 5    1  0.1285346E-004  0.9118800E+02  0.7818608E-02  0.1130116E+00
         25   -1    0    0    0    0  0.00000000000E+00  0.00000000000E+00  0.99999998245E-14  0.12500000000E+03  0.12500000000E+03 0.  0.
        -13    1    3    3    0    0 -0.34919044473E+01 -0.29302364249E+02  0.19456778206E+02  0.35346843274E+02  0.10566000000E+00 0. -1.
         23    2    1    0    0    0 -0.69670798267E+01  0.26819062827E+02 -0.53064540843E+01  0.96787222980E+02  0.92584046925E+02 0.  0.
         13    1    3    3    0    0 -0.34751753794E+01  0.56121427076E+02 -0.24763232290E+02  0.61440379706E+02  0.10566000000E+00 0.  1.
         22    1    1    0    0    0  0.69670798267E+01 -0.26819062827E+02  0.53064540843E+01  0.28212777020E+02  0.00000000000E+00 0.  1.
</event>
<event>
 5    1  0.1285346E-004  0.9118800E+02  0.7818608E-02  0.1130116E+00
         25   -1    0    0    0    0  0.00000000000E+00  0.00000000000E+00  0.99999998245E-14  0.12500000000E+03  0.12500000000E+03 0.  0.
        -13    1    3    3    0    0  0.19735533871E+02 -0.40416684221E+02 -0.41186443407E+02  0.60986342284E+02  0.10566000000E+00 0.  1.
         23    2    1    0    0    0  0.12793930627E+02 -0.23681325059E+02 -0.11576435665E+02  0.95699766551E+02  0.91104015487E+02 0.  0.
         13    1    3    3    0    0 -0.69416032441E+01  0.16735359161E+02  0.29610007742E+02  0.34713424268E+02  0.10566000000E+00 0. -1.
         22    1    1    0    0    0 -0.12793930627E+02  0.23681325059E+02  0.11576435665E+02  0.29300233449E+02  0.00000000000E+00 0.  1.
</event>
<event>
 5    1  0.1285346E-004  0.9118800E+02  0.7818608E-02  0.1130116E+00
         25   -1    0    0    0    0  0.00000000000E+00  0.00000000000E+00  0.99999998245E-14  0.12500000000E+03  0.12500000000E+03 0.  0.
        -13    1    3    3    0    0  0.18957659102E+02  0.33087446400E+01  0.38102928183E+02  0.42687058107E+02  0.10566000000E+00 0. -1.
         23    2    1    0    0    0  0.72534381712E+01 -0.30307274653E+02  0.14153696669E+01  0.93804703344E+02  0.88465676033E+02 0.  0.
         13    1    3    3    0    0 -0.11704220930E+02 -0.33616019293E+02 -0.36687558516E+02  0.51117645237E+02  0.10566000000E+00 0.  1.
         22    1    1    0    0    0 -0.72534381712E+01  0.30307274653E+02 -0.14153696669E+01  0.31195296656E+02  0.00000000000E+00 0.  1.
</event>
<event>
 5    1  0.1285346E-004  0.9118800E+02  0.7818608E-02  0.1130116E+00
         25   -1    0    0    0    0  0.00000000000E+00  0.00000000000E+00  0.99999998245E-14  0.12500000000E+03  0.12500000000E+03 0.  0.
        -13    1    3    3    0    0 -0.66314345252E+01  0.53118733256E+01  0.32399778639E+02  0.33495503310E+02  0.10566000000E+00 0.  1.
         23    2    1    0    0    0  0.65225214098E+01  0.19264933815E+02 -0.24277301024E+02  0.93328746386E+02  0.87790583758E+02 0.  0.
         13    1    3    3    0    0  0.13153955935E+02  0.13953060490E+02 -0.56677079664E+02  0.59833243076E+02  0.10566000000E+00 0. -1.
         22    1    1    0    0    0 -0.65225214098E+01 -0.19264933815E+02  0.24277301024E+02  0.31671253614E+02  0.00000000000E+00 0. -1.
</event>
<event>
 5    1  0.1285346E-004  0.9118800E+02  0.7818608E-02  0.1130116E+00
         25   -1    0    0    0    0  0.00000000000E+00  0.00000000000E+00  0.99999998245E-14  0.12500000000E+03  0.12500000000E+03 0.  0.
        -13    1    3    3    0    0  0.15620300458E+02  0.21655703954E+02 -0.43602531333E+02  0.51128809910E+02  0.10566000000E+00 0. -1.
         23    2    1    0    0    0  0.50606972187E+01 -0.15746578046E+02 -0.26881500348E+02  0.93437673763E+02  0.87945542473E+02 0.  0.
         13    1    3    3    0    0 -0.10559603239E+02 -0.37402282000E+02  0.16721030985E+02  0.42308863854E+02  0.10566000000E+00 0.  1.
         22    1    1    0    0    0 -0.50606972187E+01  0.15746578046E+02  0.26881500348E+02  0.31562326237E+02  0.00000000000E+00 0. -1.
</event>
<event>
 5    1  0.1285346E-004  0.9118800E+02  0.7818608E-02  0.1130116E+00
         25   -1    0    0    0    0  0.00000000000E+00  0.00000000000E+00  0.99999998245E-14  0.12500000000E+03  0.12500000000E+03 0.  0.
        -13    1    3    3    0    0 -0.31440749123E+02  0.18604833339E+02 -0.68694209751E+01  0.37173386146E+02  0.10566000000E+00 0. -1.
         23    2    1    0    0    0  0.24828341381E+02  0.95421065114E+01  0.99552937153E+01  0.96599186537E+02  0.92329825269E+02 0.  0.
         13    1    3    3    0    0  0.56269090504E+02 -0.90627268274E+01  0.16824714690E+02  0.59425800391E+02  0.10566000000E+00 0.  1.
         22    1    1    0    0    0 -0.24828341381E+02 -0.95421065114E+01 -0.99552937153E+01  0.28400813463E+02  0.00000000000E+00 0.  1.
</event>
<event>
 5    1  0.1285346E-004  0.9118800E+02  0.7818608E-02  0.1130116E+00
         25   -1    0    0    0    0  0.00000000000E+00  0.00000000000E+00  0.99999998245E-14  0.12500000000E+03  0.12500000000E+03 0.  0.
        -13    1    3    3    0    0  0.23014011895E+02  0.82635365259E+01  0.23736830169E+02  0.34079011868E+02  0.10566000000E+00 0. -1.
         23    2    1    0    0    0 -0.17730268472E+02 -0.23966061654E+02 -0.69133558248E+01  0.94397238358E+02  0.89298989858E+02 0.  0.
         13    1    3    3    0    0 -0.40744280367E+02 -0.32229598180E+02 -0.30650185993E+02  0.60318226491E+02  0.10566000000E+00 0.  1.
         22    1    1    0    0    0  0.17730268472E+02  0.23966061654E+02  0.69133558248E+01  0.30602761642E+02  0.00000000000E+00 0.  1.
</event>
<event>
 5    1  0.1285346E-004  0.9118800E+02  0.7818608E-02  0.1130116E+00
         25   -1    0    0    0    0  0.00000000000E+00  0.00000000000E+00  0.99999998245E-14  0.12500000000E+03  0.12500000000E+03 0.  0.
        -13    1    3    3    0    0 -0.28562361917E+02 -0.44945655316E+01  0.18681666837E+02  0.34424199010E+02  0.10566000000E+00 0.  1.
         23    2    1    0    0    0  0.28162875343E+02  0.75957888853E+01 -0.13876432630E+01  0.95797789292E+02  0.91238409253E+02 0.  0.
         13    1    3    3    0    0  0.56725237261E+02  0.12090354417E+02 -0.20069310100E+02  0.61373590282E+02  0.10566000000E+00 0. -1.
         22    1    1    0    0    0 -0.28162875343E+02 -0.75957888853E+01  0.13876432630E+01  0.29202210708E+02  0.00000000000E+00 0. -1.
</event>
<event>
 5    1  0.1285346E-004  0.9118800E+02  0.7818608E-02  0.1130116E+00
         25   -1    0    0    0    0  0.00000000000E+00  0.00000000000E+00  0.99999998245E-14  0.12500000000E+03  0.12500000000E+03 0.  0.
        -13    1    3    3    0    0  0.54911097816E+02  0.68234121060E+01 -0.28106985442E+02  0.62062882715E+02  0.10566000000E+00 0.  1.
         23    2    1    0    0    0  0.27385679729E+02 -0.14997445134E+01 -0.11593041609E+02  0.95223779595E+02  0.90448575991E+02 0.  0.
         13    1    3    3    0    0 -0.27525418087E+02 -0.83231566194E+01  0.16513943833E+02  0.33160896881E+02  0.10566000000E+00 0. -1.
         22    1    1    0    0    0 -0.27385679729E+02  0.14997445134E+01  0.11593041609E+02  0.29776220405E+02  0.00000000000E+00 0.  1.
</event>
<event>
 5    1  0.1285346E-004  0.9118800E+02  0.7818608E-02  0.1130116E+00
         25   -1    0    0    0    0  0.00000000000E+00  0.00000000000E+00  0.99999998245E-14  0.12500000000E+03  0.12500000000E+03 0.  0.
        -13    1    3    3    0    0 -0.34775260810E+02  0.99043698939E+01 -0.47830910128E+02  0.59960173741E+02  0.10566000000E+00 0.  1.
         23    2    1    0    0    0 -0.17498110711E+02 -0.79192158229E+01 -0.22287845169E+02  0.95578139080E+02  0.90936982411E+02 0.  0.
         13    1    3    3    0    0  0.17277150099E+02 -0.17823585717E+02  0.25543064958E+02  0.35617965338E+02  0.10566000000E+00 0. -1.
         22    1    1    0    0    0  0.17498110711E+02  0.79192158229E+01  0.22287845169E+02  0.29421860920E+02  0.00000000000E+00 0.  1.
</event>
<event>
 5    1  0.1285346E-004  0.9118800E+02  0.7818608E-02  0.1130116E+00
         25   -1    0    0    0    0  0.00000000000E+00  0.00000000000E+00  0.99999998245E-14  0.12500000000E+03  0.12500000000E+03 0.  0.
        -13    1    3    3    0    0 -0.65945451801E+01 -0.88303664358E+01 -0.32634898622E+02  0.34445771433E+02  0.10566000000E+00 0. -1.
         23    2    1    0    0    0  0.10738533344E+01  0.22241575780E+02  0.19354782963E+02  0.95496636163E+02  0.90824881176E+02 0.  0.
         13    1    3    3    0    0  0.76683985146E+01  0.31071942215E+02  0.51989681586E+02  0.61050864730E+02  0.10566000000E+00 0.  1.
         22    1    1    0    0    0 -0.10738533344E+01 -0.22241575780E+02 -0.19354782963E+02  0.29503363837E+02  0.00000000000E+00 0.  1.
</event>
<event>
 5    1  0.1285346E-004  0.9118800E+02  0.7818608E-02  0.1130116E+00
         25   -1    0    0    0    0  0.00000000000E+00  0.00000000000E+00  0.99999998245E-14  0.12500000000E+03  0.12500000000E+03 0.  0.
        -13    1    3    3    0    0 -0.35539392196E+02  0.44427696052E+02 -0.16528759946E+02  0.59245925122E+02  0.10566000000E+00 0.  1.
         23    2    1    0    0    0 -0.23085532081E+02  0.10779119504E+02 -0.15575776331E+02  0.95138050683E+02  0.90330020871E+02 0.  0.
         13    1    3    3    0    0  0.12453860115E+02 -0.33648576548E+02  0.95298361544E+00  0.35892125561E+02  0.10566000000E+00 0. -1.
         22    1    1    0    0    0  0.23085532081E+02 -0.10779119504E+02  0.15575776331E+02  0.29861949317E+02  0.00000000000E+00 0.  1.
</event>
<event>
 5    1  0.1285346E-004  0.9118800E+02  0.7818608E-02  0.1130116E+00
         25   -1    0    0    0    0  0.00000000000E+00  0.00000000000E+00  0.99999998245E-14  0.12500000000E+03  0.12500000000E+03 0.  0.
        -13    1    3    3    0    0 -0.20813503571E+02  0.30736456029E+02 -0.26685178259E+02  0.45716972373E+02  0.10566000000E+00 0. -1.
         23    2    1    0    0    0  0.13408679660E+02 -0.84381639686E+01 -0.21922512675E+02  0.97952045117E+02  0.94143567381E+02 0.  0.
         13    1    3    3    0    0  0.34222183231E+02 -0.39174619998E+02  0.47626655844E+01  0.52235072744E+02  0.10566000000E+00 0.  1.
         22    1    1    0    0    0 -0.13408679660E+02  0.84381639686E+01  0.21922512675E+02  0.27047954883E+02  0.00000000000E+00 0.  1.
</event>
<event>
 5    1  0.1285346E-004  0.9118800E+02  0.7818608E-02  0.1130116E+00
         25   -1    0    0    0    0  0.00000000000E+00  0.00000000000E+00  0.99999998245E-14  0.12500000000E+03  0.12500000000E+03 0.  0.
        -13    1    3    3    0    0  0.14213881612E+02 -0.16902156088E+02  0.57386136869E+02  0.61489000477E+02  0.10566000000E+00 0. -1.
         23    2    1    0    0    0 -0.99507301288E+00 -0.10219715014E+02  0.26886996408E+02  0.96219045862E+02  0.91813732445E+02 0.  0.
         13    1    3    3    0    0 -0.15208954625E+02  0.66824410739E+01 -0.30499140461E+02  0.34730045384E+02  0.10566000000E+00 0.  1.
         22    1    1    0    0    0  0.99507301288E+00  0.10219715014E+02 -0.26886996408E+02  0.28780954138E+02  0.00000000000E+00 0. -1.
</event>
<event>
 5    1  0.1285346E-004  0.9118800E+02  0.7818608E-02  0.1130116E+00
         25   -1    0    0    0    0  0.00000000000E+00  0.00000000000E+00  0.99999998245E-14  0.12500000000E+03  0.12500000000E+03 0.  0.
        -13    1    3    3    0    0 -0.17575982924E+02 -0.38208941407E+02  0.24102149605E+02  0.48474355682E+02  0.10566000000E+00 0.  1.
         23    2    1    0    0    0  0.20237716909E+02 -0.20884039377E+02  0.13422717607E+01  0.95887975339E+02  0.91361883927E+02 0.  0.
         13    1    3    3    0    0  0.37813699833E+02  0.17324902030E+02 -0.22759877844E+02  0.47413619657E+02  0.10566000000E+00 0. -1.
         22    1    1    0    0    0 -0.20237716909E+02  0.20884039377E+02 -0.13422717607E+01  0.29112024661E+02  0.00000000000E+00 0.  1.
</event>
<event>
 5    1  0.1285346E-004  0.9118800E+02  0.7818608E-02  0.1130116E+00
         25   -1    0    0    0    0  0.00000000000E+00  0.00000000000E+00  0.99999998245E-14  0.12500000000E+03  0.12500000000E+03 0.  0.
        -13    1    3    3    0    0 -0.22436850466E+02 -0.24119231936E+02 -0.52108737337E+02  0.61648043593E+02  0.10566000000E+00 0.  1.
         23    2    1    0    0    0 -0.12573573176E+02 -0.18961362590E+02 -0.23760161403E+02  0.92103597710E+02  0.86028480328E+02 0.  0.
         13    1    3    3    0    0  0.98632772902E+01  0.51578693452E+01  0.28348575934E+02  0.30455554117E+02  0.10566000000E+00 0. -1.
         22    1    1    0    0    0  0.12573573176E+02  0.18961362590E+02  0.23760161403E+02  0.32896402290E+02  0.00000000000E+00 0.  1.
</event>
<event>
 5    1  0.1285346E-004  0.9118800E+02  0.7818608E-02  0.1130116E+00
         25   -1    0    0    0    0  0.00000000000E+00  0.00000000000E+00  0.99999998245E-14  0.12500000000E+03  0.12500000000E+03 0.  0.
        -13    1    3    3    0    0 -0.66123641349E+01 -0.34745215633E+02  0.17035130001E+02  0.39257613109E+02  0.10566000000E+00 0. -1.
         23    2    1    0    0    0 -0.23860224718E+01 -0.22693366746E+01 -0.29033240209E+02  0.95780622368E+02  0.91214886899E+02 0.  0.
         13    1    3    3    0    0  0.42263416631E+01  0.32475878958E+02 -0.46068370209E+02  0.56523009259E+02  0.10566000000E+00 0.  1.
         22    1    1    0    0    0  0.23860224718E+01  0.22693366746E+01  0.29033240209E+02  0.29219377632E+02  0.00000000000E+00 0.  1.
</event>
<event>
 5    1  0.1285346E-004  0.9118800E+02  0.7818608E-02  0.1130116E+00
         25   -1    0    0    0    0  0.00000000000E+00  0.00000000000E+00  0.99999998245E-14  0.12500000000E+03  0.12500000000E+03 0.  0.
        -13    1    3    3    0    0  0.47389487672E+02  0.18373931500E+02  0.35727906135E+02  0.62127766268E+02  0.10566000000E+00 0.  1.
         23    2    1    0    0    0  0.28148078632E+02  0.13240401876E+02  0.16597623256E+02  0.89742324662E+02  0.82526245313E+02 0.  0.
         13    1    3    3    0    0 -0.19241409040E+02 -0.51335296242E+01 -0.19130282879E+02  0.27614558394E+02  0.10566000000E+00 0. -1.
         22    1    1    0    0    0 -0.28148078632E+02 -0.13240401876E+02 -0.16597623256E+02  0.35257675338E+02  0.00000000000E+00 0.  1.
</event>
<event>
 5    1  0.1285346E-004  0.9118800E+02  0.7818608E-02  0.1130116E+00
         25   -1    0    0    0    0  0.00000000000E+00  0.00000000000E+00  0.99999998245E-14  0.12500000000E+03  0.12500000000E+03 0.  0.
        -13    1    3    3    0    0  0.20549290586E+02  0.10429213063E+02  0.26225452723E+02  0.34911708111E+02  0.10566000000E+00 0.  1.
         23    2    1    0    0    0 -0.21848677499E+02 -0.73219275246E+00 -0.17624206691E+02  0.96919517879E+02  0.92762489562E+02 0.  0.
         13    1    3    3    0    0 -0.42397968085E+02 -0.11161405816E+02 -0.43849659413E+02  0.62007809768E+02  0.10566000000E+00 0. -1.
         22    1    1    0    0    0  0.21848677499E+02  0.73219275246E+00  0.17624206691E+02  0.28080482121E+02  0.00000000000E+00 0. -1.
</event>
<event>
 5    1  0.1285346E-004  0.9118800E+02  0.7818608E-02  0.1130116E+00
         25   -1    0    0    0    0  0.00000000000E+00  0.00000000000E+00  0.99999998245E-14  0.12500000000E+03  0.12500000000E+03 0.  0.
        -13    1    3    3    0    0  0.29668839154E+02  0.74974108900E+01 -0.48450661035E+02  0.57305574821E+02  0.10566000000E+00 0.  1.
         23    2    1    0    0    0  0.24113020691E+02  0.15262308995E+02 -0.13699235996E+02  0.93344907052E+02  0.87813590992E+02 0.  0.
         13    1    3    3    0    0 -0.55558184630E+01  0.77648981050E+01  0.34751425039E+02  0.36039332231E+02  0.10566000000E+00 0. -1.
         22    1    1    0    0    0 -0.24113020691E+02 -0.15262308995E+02  0.13699235996E+02  0.31655092948E+02  0.00000000000E+00 0.  1.
</event>
<event>
 5    1  0.1285346E-004  0.9118800E+02  0.7818608E-02  0.1130116E+00
         25   -1    0    0    0    0  0.00000000000E+00  0.00000000000E+00  0.99999998245E-14  0.12500000000E+03  0.12500000000E+03 0.  0.
        -13    1    3    3    0    0 -0.50885008689E+02 -0.26194294631E+01 -0.31957638863E+02  0.60145218977E+02  0.10566000000E+00 0.  1.
         23    2    1    0    0    0 -0.18095184861E+02  0.10329719539E+02 -0.15378732703E+02  0.99103200189E+02  0.95659814171E+02 0.  0.
         13    1    3    3    0    0  0.32789823829E+02  0.12949149002E+02  0.16578906160E+02  0.38957981212E+02  0.10566000000E+00 0. -1.
         22    1    1    0    0    0  0.18095184861E+02 -0.10329719539E+02  0.15378732703E+02  0.25896799811E+02  0.00000000000E+00 0.  1.
</event>
<event>
 5    1  0.1285346E-004  0.9118800E+02  0.7818608E-02  0.1130116E+00
         25   -1    0    0    0    0  0.00000000000E+00  0.00000000000E+00  0.99999998245E-14  0.12500000000E+03  0.12500000000E+03 0.  0.
        -13    1    3    3    0    0  0.38458022981E+02 -0.11138780823E+02 -0.19455829308E+01  0.40086012857E+02  0.10566000000E+00 0.  1.
         23    2    1    0    0    0 -0.63888159857E+01  0.16226165668E+02  0.21245975538E+02  0.97513696164E+02  0.93559735148E+02 0.  0.
         13    1    3    3    0    0 -0.44846838966E+02  0.27364946491E+02  0.23191558469E+02  0.57427683307E+02  0.10566000000E+00 0. -1.
         22    1    1    0    0    0  0.63888159857E+01 -0.16226165668E+02 -0.21245975538E+02  0.27486303836E+02  0.00000000000E+00 0. -1.
</event>
<event>
 5    1  0.1285346E-004  0.9118800E+02  0.7818608E-02  0.1130116E+00
         25   -1    0    0    0    0  0.00000000000E+00  0.00000000000E+00  0.99999998245E-14  0.12500000000E+03  0.12500000000E+03 0.  0.
        -13    1    3    3    0    0 -0.33768706987E+02  0.25131815764E+02 -0.37567433952E+02  0.56420359737E+02  0.10566000000E+00 0. -1.
         23    2    1    0    0    0 -0.10614696895E+02  0.24384446721E+02 -0.27185071033E+01  0.98266812518E+02  0.94560579152E+02 0.  0.
         13    1    3    3    0    0  0.23154010092E+02 -0.74736904222E+00  0.34848926848E+02  0.41846452781E+02  0.10566000000E+00 0.  1.
         22    1    1    0    0    0  0.10614696895E+02 -0.24384446721E+02  0.27185071033E+01  0.26733187482E+02  0.00000000000E+00 0. -1.
</event>
<event>
 5    1  0.1285346E-004  0.9118800E+02  0.7818608E-02  0.1130116E+00
         25   -1    0    0    0    0  0.00000000000E+00  0.00000000000E+00  0.99999998245E-14  0.12500000000E+03  0.12500000000E+03 0.  0.
        -13    1    3    3    0    0  0.52704720956E+01  0.13276704156E+02  0.33155245610E+02  0.36101665125E+02  0.10566000000E+00 0.  1.
         23    2    1    0    0    0 -0.58118344471E+01  0.27234824513E+02 -0.19046104585E+02  0.91261784491E+02  0.84796498293E+02 0.  0.
         13    1    3    3    0    0 -0.11082306543E+02  0.13958120357E+02 -0.52201350195E+02  0.55160119365E+02  0.10566000000E+00 0. -1.
         22    1    1    0    0    0  0.58118344471E+01 -0.27234824513E+02  0.19046104585E+02  0.33738215509E+02  0.00000000000E+00 0. -1.
</event>
<event>
 5    1  0.1285346E-004  0.9118800E+02  0.7818608E-02  0.1130116E+00
         25   -1    0    0    0    0  0.00000000000E+00  0.00000000000E+00  0.99999998245E-14  0.12500000000E+03  0.12500000000E+03 0.  0.
        -13    1    3    3    0    0  0.23322429628E+02 -0.29172387177E+02 -0.39774157575E+02  0.54561512737E+02  0.10566000000E+00 0. -1.
         23    2    1    0    0    0  0.15310101932E+02  0.78032347007E+01 -0.23836166163E+02  0.95615437551E+02  0.90988237635E+02 0.  0.
         13    1    3    3    0    0 -0.80123276963E+01  0.36975621877E+02  0.15937991412E+02  0.41053924814E+02  0.10566000000E+00 0.  1.
         22    1    1    0    0    0 -0.15310101932E+02 -0.78032347007E+01  0.23836166163E+02  0.29384562449E+02  0.00000000000E+00 0. -1.
</event>
<event>
 5    1  0.1285346E-004  0.9118800E+02  0.7818608E-02  0.1130116E+00
         25   -1    0    0    0    0  0.00000000000E+00  0.00000000000E+00  0.99999998245E-14  0.12500000000E+03  0.12500000000E+03 0.  0.
        -13    1    3    3    0    0 -0.44059335464E+02  0.37805672510E+02  0.42431362418E+01  0.58210903486E+02  0.10566000000E+00 0.  1.
         23    2    1    0    0    0 -0.23145005989E+02  0.94362440875E+01 -0.12296617556E+02  0.97144285900E+02  0.93064877773E+02 0.  0.
         13    1    3    3    0    0  0.20914329475E+02 -0.28369428423E+02 -0.16539753798E+02  0.38933382413E+02  0.10566000000E+00 0. -1.
         22    1    1    0    0    0  0.23145005989E+02 -0.94362440875E+01  0.12296617556E+02  0.27855714100E+02  0.00000000000E+00 0.  1.
</event>
<event>
 5    1  0.1285346E-004  0.9118800E+02  0.7818608E-02  0.1130116E+00
         25   -1    0    0    0    0  0.00000000000E+00  0.00000000000E+00  0.99999998245E-14  0.12500000000E+03  0.12500000000E+03 0.  0.
        -13    1    3    3    0    0 -0.38529196708E+02  0.13590772600E+02  0.10535260598E+02  0.42192546483E+02  0.10566000000E+00 0.  1.
         23    2    1    0    0    0  0.12642902862E+02  0.44752370000E+01  0.25419474748E+02  0.96259428755E+02  0.91868695369E+02 0.  0.
         13    1    3    3    0    0  0.51172099570E+02 -0.91155356004E+01  0.14884214150E+02  0.54066882272E+02  0.10566000000E+00 0. -1.
         22    1    1    0    0    0 -0.12642902862E+02 -0.44752370000E+01 -0.25419474748E+02  0.28740571245E+02  0.00000000000E+00 0. -1.
</event>
<event>
 5    1  0.1285346E-004  0.9118800E+02  0.7818608E-02  0.1130116E+00
         25   -1    0    0    0    0  0.00000000000E+00  0.00000000000E+00  0.99999998245E-14  0.12500000000E+03  0.12500000000E+03 0.  0.
        -13    1    3    3    0    0 -0.43002286188E+02  0.29991726388E+02  0.52061951566E+01  0.52686012387E+02  0.10566000000E+00 0. -1.
         23    2    1    0    0    0 -0.92672545515E+01  0.15262984038E+02  0.24842282448E+02  0.94406214914E+02  0.89311554283E+02 0.  0.
         13    1    3    3    0    0  0.33735031637E+02 -0.14728742350E+02  0.19636087292E+02  0.41720202527E+02  0.10566000000E+00 0.  1.
         22    1    1    0    0    0  0.92672545515E+01 -0.15262984038E+02 -0.24842282448E+02  0.30593785086E+02  0.00000000000E+00 0. -1.
</event>
<event>
 5    1  0.1285346E-004  0.9118800E+02  0.7818608E-02  0.1130116E+00
         25   -1    0    0    0    0  0.00000000000E+00  0.00000000000E+00  0.99999998245E-14  0.12500000000E+03  0.12500000000E+03 0.  0.
        -13    1    3    3    0    0 -0.41484684693E+01  0.49606234627E+02 -0.26527238589E+02  0.56406505438E+02  0.10566000000E+00 0.  1.
         23    2    1    0    0    0 -0.20312381691E+02  0.16182976256E+02 -0.13321271924E+02  0.95812025487E+02  0.91257911283E+02 0.  0.
         13    1    3    3    0    0 -0.16163913222E+02 -0.33423258370E+02  0.13205966665E+02  0.39405520049E+02  0.10566000000E+00 0. -1.
         22    1    1    0    0    0  0.20312381691E+02 -0.16182976256E+02  0.13321271924E+02  0.29187974513E+02  0.00000000000E+00 0.  1.
</event>
<event>
 5    1  0.1285346E-004  0.9118800E+02  0.7818608E-02  0.1130116E+00
         25   -1    0    0    0    0  0.00000000000E+00  0.00000000000E+00  0.99999998245E-14  0.12500000000E+03  0.12500000000E+03 0.  0.
        -13    1    3    3    0    0  0.97221679433E+01 -0.31293277318E+02  0.23839283830E+02  0.40522985729E+02  0.10566000000E+00 0.  1.
         23    2    1    0    0    0 -0.29130270618E+02 -0.68107443788E+01 -0.48828394268E+01  0.94688269166E+02  0.89705447390E+02 0.  0.
         13    1    3    3    0    0 -0.38852438562E+02  0.24482532940E+02 -0.28722123257E+02  0.54165283437E+02  0.10566000000E+00 0. -1.
         22    1    1    0    0    0  0.29130270618E+02  0.68107443788E+01  0.48828394268E+01  0.30311730834E+02  0.00000000000E+00 0. -1.
</event>
<event>
 5    1  0.1285346E-004  0.9118800E+02  0.7818608E-02  0.1130116E+00
         25   -1    0    0    0    0  0.00000000000E+00  0.00000000000E+00  0.99999998245E-14  0.12500000000E+03  0.12500000000E+03 0.  0.
        -13    1    3    3    0    0 -0.55627259597E+01 -0.30432570944E+02 -0.23007500334E+02  0.38554397026E+02  0.10566000000E+00 0.  1.
         23    2    1    0    0    0  0.27198577233E+02  0.10638987288E+02 -0.28969693786E+00  0.95793244303E+02  0.91232182237E+02 0.  0.
         13    1    3    3    0    0  0.32761303193E+02  0.41071558231E+02  0.22717803396E+02  0.57238847277E+02  0.10566000000E+00 0. -1.
         22    1    1    0    0    0 -0.27198577233E+02 -0.10638987288E+02  0.28969693786E+00  0.29206755697E+02  0.00000000000E+00 0. -1.
</event>
<event>
 5    1  0.1285346E-004  0.9118800E+02  0.7818608E-02  0.1130116E+00
         25   -1    0    0    0    0  0.00000000000E+00  0.00000000000E+00  0.99999998245E-14  0.12500000000E+03  0.12500000000E+03 0.  0.
        -13    1    3    3    0    0 -0.15770741722E+02 -0.96295443137E+01 -0.53979052599E+02  0.57054304848E+02  0.10566000000E+00 0.  1.
         23    2    1    0    0    0  0.57111133159E+01  0.76113056933E+01 -0.29839168181E+02  0.93680281812E+02  0.88289696188E+02 0.  0.
         13    1    3    3    0    0  0.21481855038E+02  0.17240850007E+02  0.24139884418E+02  0.36625976964E+02  0.10566000000E+00 0. -1.
         22    1    1    0    0    0 -0.57111133159E+01 -0.76113056933E+01  0.29839168181E+02  0.31319718188E+02  0.00000000000E+00 0.  1.
</event>
<event>
 5    1  0.1285346E-004  0.9118800E+02  0.7818608E-02  0.1130116E+00
         25   -1    0    0    0    0  0.00000000000E+00  0.00000000000E+00  0.99999998245E-14  0.12500000000E+03  0.12500000000E+03 0.  0.
        -13    1    3    3    0    0  0.30583699372E+01 -0.34883298781E+02 -0.29492591879E+01  0.35141250039E+02  0.10566000000E+00 0. -1.
         23    2    1    0    0    0 -0.19258633410E+02  0.17987056484E+02  0.14238301534E+02  0.95047397569E+02  0.90204486542E+02 0.  0.
         13    1    3    3    0    0 -0.22317003347E+02  0.52870355266E+02  0.17187560722E+02  0.59906147530E+02  0.10566000000E+00 0.  1.
         22    1    1    0    0    0  0.19258633410E+02 -0.17987056484E+02 -0.14238301534E+02  0.29952602431E+02  0.00000000000E+00 0.  1.
</event>
<event>
 5    1  0.1285346E-004  0.9118800E+02  0.7818608E-02  0.1130116E+00
         25   -1    0    0    0    0  0.00000000000E+00  0.00000000000E+00  0.99999998245E-14  0.12500000000E+03  0.12500000000E+03 0.  0.
        -13    1    3    3    0    0 -0.51337287377E+02  0.33630254989E+02  0.10084414789E+02  0.62194997480E+02  0.10566000000E+00 0.  1.
         23    2    1    0    0    0 -0.23862181920E+02  0.11462898501E+02  0.69110884342E+01  0.97640085684E+02  0.93728445101E+02 0.  0.
         13    1    3    3    0    0  0.27475105458E+02 -0.22167356488E+02 -0.31733263543E+01  0.35445088204E+02  0.10566000000E+00 0. -1.
         22    1    1    0    0    0  0.23862181920E+02 -0.11462898501E+02 -0.69110884342E+01  0.27359914316E+02  0.00000000000E+00 0.  1.
</event>
<event>
 5    1  0.1285346E-004  0.9118800E+02  0.7818608E-02  0.1130116E+00
         25   -1    0    0    0    0  0.00000000000E+00  0.00000000000E+00  0.99999998245E-14  0.12500000000E+03  0.12500000000E+03 0.  0.
        -13    1    3    3    0    0 -0.90016609089E+01 -0.31083567451E+02 -0.13173898400E+02  0.34939674121E+02  0.10566000000E+00 0.  1.
         23    2    1    0    0    0 -0.10980561353E+02  0.23421465267E+02  0.13684942993E+02  0.95735423673E+02  0.91152925999E+02 0.  0.
         13    1    3    3    0    0 -0.19789004445E+01  0.54505032718E+02  0.26858841393E+02  0.60795749552E+02  0.10566000000E+00 0. -1.
         22    1    1    0    0    0  0.10980561353E+02 -0.23421465267E+02 -0.13684942993E+02  0.29264576327E+02  0.00000000000E+00 0. -1.
</event>
<event>
 5    1  0.1285346E-004  0.9118800E+02  0.7818608E-02  0.1130116E+00
         25   -1    0    0    0    0  0.00000000000E+00  0.00000000000E+00  0.99999998245E-14  0.12500000000E+03  0.12500000000E+03 0.  0.
        -13    1    3    3    0    0 -0.11904340750E+02  0.50357025172E+02 -0.60299883651E+01  0.52095251574E+02  0.10566000000E+00 0. -1.
         23    2    1    0    0    0  0.20232954533E+02  0.19752467483E+02 -0.22299261258E+01  0.96636202805E+02  0.92379925857E+02 0.  0.
         13    1    3    3    0    0  0.32137295283E+02 -0.30604557689E+02  0.38000622393E+01  0.44540951231E+02  0.10566000000E+00 0.  1.
         22    1    1    0    0    0 -0.20232954533E+02 -0.19752467483E+02  0.22299261258E+01  0.28363797195E+02  0.00000000000E+00 0. -1.
</event>
<event>
 5    1  0.1285346E-004  0.9118800E+02  0.7818608E-02  0.1130116E+00
         25   -1    0    0    0    0  0.00000000000E+00  0.00000000000E+00  0.99999998245E-14  0.12500000000E+03  0.12500000000E+03 0.  0.
        -13    1    3    3    0    0 -0.14338432816E+01 -0.27444297896E+02 -0.53061801566E+02  0.59756266141E+02  0.10566000000E+00 0. -1.
         23    2    1    0    0    0  0.58130432516E+01 -0.22217958993E+02 -0.18338861481E+02  0.95610494831E+02  0.90981447053E+02 0.  0.
         13    1    3    3    0    0  0.72468865332E+01  0.52263389032E+01  0.34722940086E+02  0.35854228690E+02  0.10566000000E+00 0.  1.
         22    1    1    0    0    0 -0.58130432516E+01  0.22217958993E+02  0.18338861481E+02  0.29389505169E+02  0.00000000000E+00 0. -1.
</event>
<event>
 5    1  0.1285346E-004  0.9118800E+02  0.7818608E-02  0.1130116E+00
         25   -1    0    0    0    0  0.00000000000E+00  0.00000000000E+00  0.99999998245E-14  0.12500000000E+03  0.12500000000E+03 0.  0.
        -13    1    3    3    0    0  0.13869208467E+02  0.11727653005E+02  0.30659275884E+02  0.35635588255E+02  0.10566000000E+00 0. -1.
         23    2    1    0    0    0  0.13745832953E+02 -0.46152824363E+01 -0.26340497881E+02  0.94932233469E+02  0.90044757578E+02 0.  0.
         13    1    3    3    0    0 -0.12337551412E+00 -0.16342935442E+02 -0.56999773765E+02  0.59296645214E+02  0.10566000000E+00 0.  1.
         22    1    1    0    0    0 -0.13745832953E+02  0.46152824363E+01  0.26340497881E+02  0.30067766531E+02  0.00000000000E+00 0.  1.
</event>
<event>
 5    1  0.1285346E-004  0.9118800E+02  0.7818608E-02  0.1130116E+00
         25   -1    0    0    0    0  0.00000000000E+00  0.00000000000E+00  0.99999998245E-14  0.12500000000E+03  0.12500000000E+03 0.  0.
        -13    1    3    3    0    0  0.22724540019E+02  0.46760002328E+02 -0.20026626079E+00  0.51989939482E+02  0.10566000000E+00 0.  1.
         23    2    1    0    0    0  0.18323235470E+02  0.23296277938E+01 -0.17196373021E+02  0.99763451725E+02  0.96518718036E+02 0.  0.
         13    1    3    3    0    0 -0.44013045485E+01 -0.44430374534E+02 -0.16996106760E+02  0.47773512243E+02  0.10566000000E+00 0. -1.
         22    1    1    0    0    0 -0.18323235470E+02 -0.23296277938E+01  0.17196373021E+02  0.25236548275E+02  0.00000000000E+00 0. -1.
</event>
<event>
 5    1  0.1285346E-004  0.9118800E+02  0.7818608E-02  0.1130116E+00
         25   -1    0    0    0    0  0.00000000000E+00  0.00000000000E+00  0.99999998245E-14  0.12500000000E+03  0.12500000000E+03 0.  0.
        -13    1    3    3    0    0  0.44098461171E+02 -0.31973263179E+02 -0.11181174429E+02  0.55605698104E+02  0.10566000000E+00 0. -1.
         23    2    1    0    0    0  0.29514925434E+02  0.95508331712E+00  0.49339514947E+01  0.95060279145E+02  0.90222335296E+02 0.  0.
         13    1    3    3    0    0 -0.14583535736E+02  0.32928346496E+02  0.16115125924E+02  0.39454581041E+02  0.10566000000E+00 0.  1.
         22    1    1    0    0    0 -0.29514925434E+02 -0.95508331712E+00 -0.49339514947E+01  0.29939720855E+02  0.00000000000E+00 0. -1.
</event>
<event>
 5    1  0.1285346E-004  0.9118800E+02  0.7818608E-02  0.1130116E+00
         25   -1    0    0    0    0  0.00000000000E+00  0.00000000000E+00  0.99999998245E-14  0.12500000000E+03  0.12500000000E+03 0.  0.
        -13    1    3    3    0    0 -0.35026627585E+02 -0.13369812422E+02 -0.13209095801E+02  0.39750571066E+02  0.10566000000E+00 0.  1.
         23    2    1    0    0    0  0.22337504981E+02 -0.38963541991E+01  0.69444165813E+01  0.10128564514E+03  0.98470357391E+02 0.  0.
         13    1    3    3    0    0  0.57364132566E+02  0.94734582233E+01  0.20153512382E+02  0.61535074073E+02  0.10566000000E+00 0. -1.
         22    1    1    0    0    0 -0.22337504981E+02  0.38963541991E+01 -0.69444165813E+01  0.23714354861E+02  0.00000000000E+00 0. -1.
</event>
<event>
 5    1  0.1285346E-004  0.9118800E+02  0.7818608E-02  0.1130116E+00
         25   -1    0    0    0    0  0.00000000000E+00  0.00000000000E+00  0.99999998245E-14  0.12500000000E+03  0.12500000000E+03 0.  0.
        -13    1    3    3    0    0 -0.56045994810E+01 -0.37968617244E+01  0.44379059056E+02  0.44892535471E+02  0.10566000000E+00 0. -1.
         23    2    1    0    0    0 -0.14384441910E+02  0.26453157229E+02  0.64315049531E+01  0.94209645140E+02  0.89036011170E+02 0.  0.
         13    1    3    3    0    0 -0.87798424290E+01  0.30250018953E+02 -0.37947554103E+02  0.49317109669E+02  0.10566000000E+00 0.  1.
         22    1    1    0    0    0  0.14384441910E+02 -0.26453157229E+02 -0.64315049531E+01  0.30790354860E+02  0.00000000000E+00 0.  1.
</event>
<event>
 5    1  0.1285346E-004  0.9118800E+02  0.7818608E-02  0.1130116E+00
         25   -1    0    0    0    0  0.00000000000E+00  0.00000000000E+00  0.99999998245E-14  0.12500000000E+03  0.12500000000E+03 0.  0.
        -13    1    3    3    0    0 -0.55327841978E+02 -0.74691764000E+01  0.12018351454E+02  0.57108761410E+02  0.10566000000E+00 0. -1.
         23    2    1    0    0    0 -0.25094337000E+02  0.14812516927E+02  0.32214311817E+01  0.95682530361E+02  0.91080363362E+02 0.  0.
         13    1    3    3    0    0  0.30233504978E+02  0.22281693327E+02 -0.87969202725E+01  0.38573768951E+02  0.10566000000E+00 0.  1.
         22    1    1    0    0    0  0.25094337000E+02 -0.14812516927E+02 -0.32214311817E+01  0.29317469639E+02  0.00000000000E+00 0. -1.
</event>
<event>
 5    1  0.1285346E-004  0.9118800E+02  0.7818608E-02  0.1130116E+00
         25   -1    0    0    0    0  0.00000000000E+00  0.00000000000E+00  0.99999998245E-14  0.12500000000E+03  0.12500000000E+03 0.  0.
        -13    1    3    3    0    0  0.34733386916E+02  0.58093806307E+01  0.21484229296E+02  0.41252155610E+02  0.10566000000E+00 0.  1.
         23    2    1    0    0    0  0.44963227241E+00  0.15417505223E+02 -0.22424874167E+02  0.97782788205E+02  0.93918566062E+02 0.  0.
         13    1    3    3    0    0 -0.34283754643E+02  0.96081245925E+01 -0.43909103463E+02  0.56530632595E+02  0.10566000000E+00 0. -1.
         22    1    1    0    0    0 -0.44963227241E+00 -0.15417505223E+02  0.22424874167E+02  0.27217211795E+02  0.00000000000E+00 0. -1.
</event>
<event>
 5    1  0.1285346E-004  0.9118800E+02  0.7818608E-02  0.1130116E+00
         25   -1    0    0    0    0  0.00000000000E+00  0.00000000000E+00  0.99999998245E-14  0.12500000000E+03  0.12500000000E+03 0.  0.
        -13    1    3    3    0    0 -0.88223550671E+01 -0.25713969429E+02  0.53710068516E+02  0.60198212571E+02  0.10566000000E+00 0.  1.
         23    2    1    0    0    0  0.42582268077E+01 -0.19231076294E+02  0.20022586816E+02  0.96913156571E+02  0.92753917129E+02 0.  0.
         13    1    3    3    0    0  0.13080581875E+02  0.64828931351E+01 -0.33687481700E+02  0.36714944000E+02  0.10566000000E+00 0. -1.
         22    1    1    0    0    0 -0.42582268077E+01  0.19231076294E+02 -0.20022586816E+02  0.28086843429E+02  0.00000000000E+00 0.  1.
</event>
<event>
 5    1  0.1285346E-004  0.9118800E+02  0.7818608E-02  0.1130116E+00
         25   -1    0    0    0    0  0.00000000000E+00  0.00000000000E+00  0.99999998245E-14  0.12500000000E+03  0.12500000000E+03 0.  0.
        -13    1    3    3    0    0 -0.28445962066E+02  0.55424345049E+02 -0.32057957431E+01  0.62380438219E+02  0.10566000000E+00 0. -1.
         23    2    1    0    0    0 -0.11812234603E+02  0.28646704782E+02 -0.66227965644E+00  0.94006432998E+02  0.88750257743E+02 0.  0.
         13    1    3    3    0    0  0.16633727463E+02 -0.26777640267E+02  0.25435160866E+01  0.31625994778E+02  0.10566000000E+00 0.  1.
         22    1    1    0    0    0  0.11812234603E+02 -0.28646704782E+02  0.66227965644E+00  0.30993567002E+02  0.00000000000E+00 0. -1.
</event>
<event>
 5    1  0.1285346E-004  0.9118800E+02  0.7818608E-02  0.1130116E+00
         25   -1    0    0    0    0  0.00000000000E+00  0.00000000000E+00  0.99999998245E-14  0.12500000000E+03  0.12500000000E+03 0.  0.
        -13    1    3    3    0    0 -0.20173029738E+01  0.47678414467E+02  0.13348534247E+02  0.49552953978E+02  0.10566000000E+00 0. -1.
         23    2    1    0    0    0  0.26690116023E+02  0.14631286215E+02  0.41915556880E+01  0.94275319876E+02  0.89128165969E+02 0.  0.
         13    1    3    3    0    0  0.28707418997E+02 -0.33047128252E+02 -0.91569785590E+01  0.44722365898E+02  0.10566000000E+00 0.  1.
         22    1    1    0    0    0 -0.26690116023E+02 -0.14631286215E+02 -0.41915556880E+01  0.30724680124E+02  0.00000000000E+00 0.  1.
</event>
<event>
 5    1  0.1285346E-004  0.9118800E+02  0.7818608E-02  0.1130116E+00
         25   -1    0    0    0    0  0.00000000000E+00  0.00000000000E+00  0.99999998245E-14  0.12500000000E+03  0.12500000000E+03 0.  0.
        -13    1    3    3    0    0  0.16189383429E+02 -0.23233712660E+02  0.46144306654E+02  0.54140647765E+02  0.10566000000E+00 0.  1.
         23    2    1    0    0    0 -0.18663619549E+01  0.93523021627E+01  0.27687390829E+02  0.95716208005E+02  0.91126571323E+02 0.  0.
         13    1    3    3    0    0 -0.18055745384E+02  0.32586014823E+02 -0.18456915825E+02  0.41575560239E+02  0.10566000000E+00 0. -1.
         22    1    1    0    0    0  0.18663619549E+01 -0.93523021627E+01 -0.27687390829E+02  0.29283791995E+02  0.00000000000E+00 0. -1.
</event>
<event>
 5    1  0.1285346E-004  0.9118800E+02  0.7818608E-02  0.1130116E+00
         25   -1    0    0    0    0  0.00000000000E+00  0.00000000000E+00  0.99999998245E-14  0.12500000000E+03  0.12500000000E+03 0.  0.
        -13    1    3    3    0    0  0.61551997342E+01 -0.40538356443E+02 -0.42328304852E+02  0.58931667061E+02  0.10566000000E+00 0. -1.
         23    2    1    0    0    0  0.14670007045E+02 -0.23917386415E+02 -0.12142920773E+02  0.94427119787E+02  0.89340807847E+02 0.  0.
         13    1    3    3    0    0  0.85148073106E+01  0.16620970028E+02  0.30185384079E+02  0.35495452726E+02  0.10566000000E+00 0.  1.
         22    1    1    0    0    0 -0.14670007045E+02  0.23917386415E+02  0.12142920773E+02  0.30572880213E+02  0.00000000000E+00 0. -1.
</event>
<event>
 5    1  0.1285346E-004  0.9118800E+02  0.7818608E-02  0.1130116E+00
         25   -1    0    0    0    0  0.00000000000E+00  0.00000000000E+00  0.99999998245E-14  0.12500000000E+03  0.12500000000E+03 0.  0.
        -13    1    3    3    0    0 -0.32837651851E+02  0.20493012411E+02  0.34334162707E+02  0.51740900935E+02  0.10566000000E+00 0. -1.
         23    2    1    0    0    0 -0.42299640020E+01  0.30173369710E+02  0.44858885940E+01  0.94203116528E+02  0.89026845008E+02 0.  0.
         13    1    3    3    0    0  0.28607687849E+02  0.96803572985E+01 -0.29848274113E+02  0.42462215593E+02  0.10566000000E+00 0.  1.
         22    1    1    0    0    0  0.42299640020E+01 -0.30173369710E+02 -0.44858885940E+01  0.30796883472E+02  0.00000000000E+00 0. -1.
</event>
<event>
 5    1  0.1285346E-004  0.9118800E+02  0.7818608E-02  0.1130116E+00
         25   -1    0    0    0    0  0.00000000000E+00  0.00000000000E+00  0.99999998245E-14  0.12500000000E+03  0.12500000000E+03 0.  0.
        -13    1    3    3    0    0 -0.15871575643E+02  0.17504772723E+02  0.33480239240E+02  0.40978794090E+02  0.10566000000E+00 0.  1.
         23    2    1    0    0    0 -0.17716185825E+02  0.85743940341E+01 -0.21000772641E+02  0.96217784575E+02  0.91812015247E+02 0.  0.
         13    1    3    3    0    0 -0.18446101821E+01 -0.89303786891E+01 -0.54481011881E+02  0.55238990485E+02  0.10566000000E+00 0. -1.
         22    1    1    0    0    0  0.17716185825E+02 -0.85743940341E+01  0.21000772641E+02  0.28782215425E+02  0.00000000000E+00 0. -1.
</event>
<event>
 5    1  0.1285346E-004  0.9118800E+02  0.7818608E-02  0.1130116E+00
         25   -1    0    0    0    0  0.00000000000E+00  0.00000000000E+00  0.99999998245E-14  0.12500000000E+03  0.12500000000E+03 0.  0.
        -13    1    3    3    0    0 -0.15155896022E+02  0.27203687430E+02  0.25492697727E+02  0.40244634368E+02  0.10566000000E+00 0. -1.
         23    2    1    0    0    0  0.13787351220E+02  0.19044114287E+02 -0.19563274772E+02  0.94414201622E+02  0.89322731741E+02 0.  0.
         13    1    3    3    0    0  0.28943247241E+02 -0.81595731430E+01 -0.45055972498E+02  0.54169567255E+02  0.10566000000E+00 0.  1.
         22    1    1    0    0    0 -0.13787351220E+02 -0.19044114287E+02  0.19563274772E+02  0.30585798378E+02  0.00000000000E+00 0.  1.
</event>
<event>
 5    1  0.1285346E-004  0.9118800E+02  0.7818608E-02  0.1130116E+00
         25   -1    0    0    0    0  0.00000000000E+00  0.00000000000E+00  0.99999998245E-14  0.12500000000E+03  0.12500000000E+03 0.  0.
        -13    1    3    3    0    0 -0.74872888052E+01 -0.24592768182E+02  0.28848240667E+02  0.38640599039E+02  0.10566000000E+00 0.  1.
         23    2    1    0    0    0 -0.18023873298E+02  0.20924169533E+02 -0.57673994531E+01  0.96787524466E+02  0.92584453968E+02 0.  0.
         13    1    3    3    0    0 -0.10536584493E+02  0.45516937715E+02 -0.34615640120E+02  0.58146925427E+02  0.10566000000E+00 0. -1.
         22    1    1    0    0    0  0.18023873298E+02 -0.20924169533E+02  0.57673994531E+01  0.28212475534E+02  0.00000000000E+00 0. -1.
</event>
<event>
 5    1  0.1285346E-004  0.9118800E+02  0.7818608E-02  0.1130116E+00
         25   -1    0    0    0    0  0.00000000000E+00  0.00000000000E+00  0.99999998245E-14  0.12500000000E+03  0.12500000000E+03 0.  0.
        -13    1    3    3    0    0  0.41639885548E+02 -0.40352879780E+02 -0.11456068446E+02  0.59105732744E+02  0.10566000000E+00 0.  1.
         23    2    1    0    0    0  0.27606150090E+02 -0.72165621232E+01 -0.15780550705E+01  0.96422586725E+02  0.92090426654E+02 0.  0.
         13    1    3    3    0    0 -0.14033735458E+02  0.33136317656E+02  0.98780133753E+01  0.37316853981E+02  0.10566000000E+00 0. -1.
         22    1    1    0    0    0 -0.27606150090E+02  0.72165621232E+01  0.15780550705E+01  0.28577413275E+02  0.00000000000E+00 0.  1.
</event>
<event>
 5    1  0.1285346E-004  0.9118800E+02  0.7818608E-02  0.1130116E+00
         25   -1    0    0    0    0  0.00000000000E+00  0.00000000000E+00  0.99999998245E-14  0.12500000000E+03  0.12500000000E+03 0.  0.
        -13    1    3    3    0    0  0.16937209559E+02 -0.41856471817E+02  0.94534480894E+01  0.46132549739E+02  0.10566000000E+00 0.  1.
         23    2    1    0    0    0 -0.78657421444E+01 -0.21182575293E+01  0.27489919030E+02  0.96328540973E+02  0.91962683971E+02 0.  0.
         13    1    3    3    0    0 -0.24802951703E+02  0.39738214287E+02  0.18036470941E+02  0.50195991234E+02  0.10566000000E+00 0. -1.
         22    1    1    0    0    0  0.78657421444E+01  0.21182575293E+01 -0.27489919030E+02  0.28671459027E+02  0.00000000000E+00 0.  1.
</event>
<event>
 5    1  0.1285346E-004  0.9118800E+02  0.7818608E-02  0.1130116E+00
         25   -1    0    0    0    0  0.00000000000E+00  0.00000000000E+00  0.99999998245E-14  0.12500000000E+03  0.12500000000E+03 0.  0.
        -13    1    3    3    0    0  0.98940213086E+01 -0.44393660598E+02  0.26581290027E+02  0.52680783048E+02  0.10566000000E+00 0.  1.
         23    2    1    0    0    0  0.11382105136E+02 -0.40221941872E+01  0.29440255378E+02  0.93180839104E+02  0.87579733821E+02 0.  0.
         13    1    3    3    0    0  0.14880838276E+01  0.40371466411E+02  0.28589653502E+01  0.40500056056E+02  0.10566000000E+00 0. -1.
         22    1    1    0    0    0 -0.11382105136E+02  0.40221941872E+01 -0.29440255378E+02  0.31819160896E+02  0.00000000000E+00 0.  1.
</event>
<event>
 5    1  0.1285346E-004  0.9118800E+02  0.7818608E-02  0.1130116E+00
         25   -1    0    0    0    0  0.00000000000E+00  0.00000000000E+00  0.99999998245E-14  0.12500000000E+03  0.12500000000E+03 0.  0.
        -13    1    3    3    0    0  0.29285622124E+02 -0.25882799771E+02 -0.15538430076E+02  0.42059730864E+02  0.10566000000E+00 0.  1.
         23    2    1    0    0    0  0.10445398703E+02  0.24902774493E+02 -0.18400473175E+01  0.97932670881E+02  0.94117839543E+02 0.  0.
         13    1    3    3    0    0 -0.18840223421E+02  0.50785574264E+02  0.13698382758E+02  0.55872940016E+02  0.10566000000E+00 0. -1.
         22    1    1    0    0    0 -0.10445398703E+02 -0.24902774493E+02  0.18400473175E+01  0.27067329119E+02  0.00000000000E+00 0. -1.
</event>
<event>
 5    1  0.1285346E-004  0.9118800E+02  0.7818608E-02  0.1130116E+00
         25   -1    0    0    0    0  0.00000000000E+00  0.00000000000E+00  0.99999998245E-14  0.12500000000E+03  0.12500000000E+03 0.  0.
        -13    1    3    3    0    0  0.29413736907E+02  0.61667002252E+01 -0.28139637570E+02  0.41170942145E+02  0.10566000000E+00 0. -1.
         23    2    1    0    0    0  0.13610189299E+02 -0.16379701974E+02  0.19454429029E+02  0.96155473685E+02  0.91727141137E+02 0.  0.
         13    1    3    3    0    0 -0.15803547608E+02 -0.22546402199E+02  0.47594066599E+02  0.54984531540E+02  0.10566000000E+00 0.  1.
         22    1    1    0    0    0 -0.13610189299E+02  0.16379701974E+02 -0.19454429029E+02  0.28844526315E+02  0.00000000000E+00 0. -1.
</event>
<event>
 5    1  0.1285346E-004  0.9118800E+02  0.7818608E-02  0.1130116E+00
         25   -1    0    0    0    0  0.00000000000E+00  0.00000000000E+00  0.99999998245E-14  0.12500000000E+03  0.12500000000E+03 0.  0.
        -13    1    3    3    0    0 -0.26530909379E+02 -0.16386034479E+02 -0.40632797195E+02  0.51219397208E+02  0.10566000000E+00 0.  1.
         23    2    1    0    0    0  0.56435590700E+01  0.82779023578E+01 -0.30343857136E+02  0.93044983299E+02  0.87385615663E+02 0.  0.
         13    1    3    3    0    0  0.32174468449E+02  0.24663936837E+02  0.10288940059E+02  0.41825586091E+02  0.10566000000E+00 0. -1.
         22    1    1    0    0    0 -0.56435590700E+01 -0.82779023578E+01  0.30343857136E+02  0.31955016701E+02  0.00000000000E+00 0.  1.
</event>
<event>
 5    1  0.1285346E-004  0.9118800E+02  0.7818608E-02  0.1130116E+00
         25   -1    0    0    0    0  0.00000000000E+00  0.00000000000E+00  0.99999998245E-14  0.12500000000E+03  0.12500000000E+03 0.  0.
        -13    1    3    3    0    0  0.23427011795E+02 -0.22861281767E+02  0.21977013280E+02  0.39426683381E+02  0.10566000000E+00 0. -1.
         23    2    1    0    0    0 -0.26413584020E+02  0.60916665822E+00  0.14023615342E+02  0.95088291723E+02  0.90261137433E+02 0.  0.
         13    1    3    3    0    0 -0.49840595815E+02  0.23470448425E+02 -0.79533979377E+01  0.55661608342E+02  0.10566000000E+00 0.  1.
         22    1    1    0    0    0  0.26413584020E+02 -0.60916665822E+00 -0.14023615342E+02  0.29911708277E+02  0.00000000000E+00 0.  1.
</event>
<event>
 5    1  0.1285346E-004  0.9118800E+02  0.7818608E-02  0.1130116E+00
         25   -1    0    0    0    0  0.00000000000E+00  0.00000000000E+00  0.99999998245E-14  0.12500000000E+03  0.12500000000E+03 0.  0.
        -13    1    3    3    0    0  0.42506564509E+02 -0.25030199365E+02  0.30595498646E+02  0.58046658888E+02  0.10566000000E+00 0. -1.
         23    2    1    0    0    0  0.31601684024E+02 -0.33594685336E+01  0.58766390746E+01  0.92681470504E+02  0.86864075577E+02 0.  0.
         13    1    3    3    0    0 -0.10904880485E+02  0.21670730831E+02 -0.24718859571E+02  0.34634811616E+02  0.10566000000E+00 0.  1.
         22    1    1    0    0    0 -0.31601684024E+02  0.33594685336E+01 -0.58766390746E+01  0.32318529496E+02  0.00000000000E+00 0. -1.
</event>
<event>
 5    1  0.1285346E-004  0.9118800E+02  0.7818608E-02  0.1130116E+00
         25   -1    0    0    0    0  0.00000000000E+00  0.00000000000E+00  0.99999998245E-14  0.12500000000E+03  0.12500000000E+03 0.  0.
        -13    1    3    3    0    0 -0.33909674193E+02  0.11295425963E+02 -0.22199343837E+02  0.42074632291E+02  0.10566000000E+00 0. -1.
         23    2    1    0    0    0 -0.88327466127E+01 -0.15913015067E+02  0.19838536959E+02  0.98077722795E+02  0.94310289463E+02 0.  0.
         13    1    3    3    0    0  0.25076927581E+02 -0.27208441030E+02  0.42037880796E+02  0.56003090504E+02  0.10566000000E+00 0.  1.
         22    1    1    0    0    0  0.88327466127E+01  0.15913015067E+02 -0.19838536959E+02  0.26922277205E+02  0.00000000000E+00 0.  1.
</event>
<event>
 5    1  0.1285346E-004  0.9118800E+02  0.7818608E-02  0.1130116E+00
         25   -1    0    0    0    0  0.00000000000E+00  0.00000000000E+00  0.99999998245E-14  0.12500000000E+03  0.12500000000E+03 0.  0.
        -13    1    3    3    0    0  0.47044985211E+02  0.19252742421E+02 -0.15027731556E+02  0.53007005235E+02  0.10566000000E+00 0.  1.
         23    2    1    0    0    0  0.22631324306E+02 -0.15635899286E+02 -0.92469366724E+01  0.95979937558E+02  0.91487618777E+02 0.  0.
         13    1    3    3    0    0 -0.24413660905E+02 -0.34888641707E+02  0.57807948838E+01  0.42972932323E+02  0.10566000000E+00 0. -1.
         22    1    1    0    0    0 -0.22631324306E+02  0.15635899286E+02  0.92469366724E+01  0.29020062442E+02  0.00000000000E+00 0.  1.
</event>
<event>
 5    1  0.1285346E-004  0.9118800E+02  0.7818608E-02  0.1130116E+00
         25   -1    0    0    0    0  0.00000000000E+00  0.00000000000E+00  0.99999998245E-14  0.12500000000E+03  0.12500000000E+03 0.  0.
        -13    1    3    3    0    0  0.43396672785E+02 -0.22385899906E+02 -0.31056861434E+02  0.57870022720E+02  0.10566000000E+00 0. -1.
         23    2    1    0    0    0  0.31992567500E+02 -0.51863779645E+01 -0.33512002047E+01  0.92416976285E+02  0.86482622944E+02 0.  0.
         13    1    3    3    0    0 -0.11404105286E+02  0.17199521942E+02  0.27705661230E+02  0.34546953565E+02  0.10566000000E+00 0.  1.
         22    1    1    0    0    0 -0.31992567500E+02  0.51863779645E+01  0.33512002047E+01  0.32583023715E+02  0.00000000000E+00 0. -1.
</event>
<event>
 5    1  0.1285346E-004  0.9118800E+02  0.7818608E-02  0.1130116E+00
         25   -1    0    0    0    0  0.00000000000E+00  0.00000000000E+00  0.99999998245E-14  0.12500000000E+03  0.12500000000E+03 0.  0.
        -13    1    3    3    0    0 -0.50781392927E+02 -0.17028033023E+02 -0.23236906914E+02  0.58383805830E+02  0.10566000000E+00 0. -1.
         23    2    1    0    0    0 -0.13809382020E+02 -0.17206575012E+02 -0.19517984849E+02  0.95542963693E+02  0.90888618227E+02 0.  0.
         13    1    3    3    0    0  0.36972010907E+02 -0.17854198807E+00  0.37189220645E+01  0.37159157863E+02  0.10566000000E+00 0.  1.
         22    1    1    0    0    0  0.13809382020E+02  0.17206575012E+02  0.19517984849E+02  0.29457036307E+02  0.00000000000E+00 0. -1.
</event>
<event>
 5    1  0.1285346E-004  0.9118800E+02  0.7818608E-02  0.1130116E+00
         25   -1    0    0    0    0  0.00000000000E+00  0.00000000000E+00  0.99999998245E-14  0.12500000000E+03  0.12500000000E+03 0.  0.
        -13    1    3    3    0    0 -0.29321646591E+02  0.15640900159E+02  0.13900611187E+02  0.36022699400E+02  0.10566000000E+00 0. -1.
         23    2    1    0    0    0  0.14244183283E+02 -0.17100180126E+02 -0.15436631143E+02  0.97914902644E+02  0.94094238193E+02 0.  0.
         13    1    3    3    0    0  0.43565829874E+02 -0.32741080285E+02 -0.29337242331E+02  0.61892203244E+02  0.10566000000E+00 0.  1.
         22    1    1    0    0    0 -0.14244183283E+02  0.17100180126E+02  0.15436631143E+02  0.27085097356E+02  0.00000000000E+00 0.  1.
</event>
<event>
 5    1  0.1285346E-004  0.9118800E+02  0.7818608E-02  0.1130116E+00
         25   -1    0    0    0    0  0.00000000000E+00  0.00000000000E+00  0.99999998245E-14  0.12500000000E+03  0.12500000000E+03 0.  0.
        -13    1    3    3    0    0  0.18148128144E+02  0.35642121200E+02  0.22866205062E+02  0.46071573196E+02  0.10566000000E+00 0.  1.
         23    2    1    0    0    0  0.55842148702E+00  0.21812299927E+02 -0.20621255564E+02  0.94977934054E+02  0.90108176729E+02 0.  0.
         13    1    3    3    0    0 -0.17589706657E+02 -0.13829821273E+02 -0.43487460625E+02  0.48906360858E+02  0.10566000000E+00 0. -1.
         22    1    1    0    0    0 -0.55842148702E+00 -0.21812299927E+02  0.20621255564E+02  0.30022065946E+02  0.00000000000E+00 0.  1.
</event>
<event>
 5    1  0.1285346E-004  0.9118800E+02  0.7818608E-02  0.1130116E+00
         25   -1    0    0    0    0  0.00000000000E+00  0.00000000000E+00  0.99999998245E-14  0.12500000000E+03  0.12500000000E+03 0.  0.
        -13    1    3    3    0    0 -0.33207866382E+02  0.38816718170E+02  0.19119273567E+02  0.54544090284E+02  0.10566000000E+00 0. -1.
         23    2    1    0    0    0  0.25295737385E+01  0.24893818544E+02  0.20090968332E+02  0.92910313908E+02  0.87192766196E+02 0.  0.
         13    1    3    3    0    0  0.35737440121E+02 -0.13922899627E+02  0.97169476548E+00  0.38366223624E+02  0.10566000000E+00 0.  1.
         22    1    1    0    0    0 -0.25295737385E+01 -0.24893818544E+02 -0.20090968332E+02  0.32089686092E+02  0.00000000000E+00 0. -1.
</event>
<event>
 5    1  0.1285346E-004  0.9118800E+02  0.7818608E-02  0.1130116E+00
         25   -1    0    0    0    0  0.00000000000E+00  0.00000000000E+00  0.99999998245E-14  0.12500000000E+03  0.12500000000E+03 0.  0.
        -13    1    3    3    0    0 -0.97990749893E+01  0.31588441190E+02 -0.23927403626E+02  0.40821358328E+02  0.10566000000E+00 0. -1.
         23    2    1    0    0    0  0.26819770977E+02 -0.66814281903E+01 -0.62288644846E+01  0.96667327153E+02  0.92422030860E+02 0.  0.
         13    1    3    3    0    0  0.36618845966E+02 -0.38269869380E+02  0.17698539141E+02  0.55845968825E+02  0.10566000000E+00 0.  1.
         22    1    1    0    0    0 -0.26819770977E+02  0.66814281903E+01  0.62288644846E+01  0.28332672847E+02  0.00000000000E+00 0.  1.
</event>
<event>
 5    1  0.1285346E-004  0.9118800E+02  0.7818608E-02  0.1130116E+00
         25   -1    0    0    0    0  0.00000000000E+00  0.00000000000E+00  0.99999998245E-14  0.12500000000E+03  0.12500000000E+03 0.  0.
        -13    1    3    3    0    0 -0.18025093815E+00  0.52104480410E+02  0.27764401972E+02  0.59040516174E+02  0.10566000000E+00 0. -1.
         23    2    1    0    0    0 -0.30201008350E+01  0.15937370328E+02  0.24702082328E+02  0.95448119293E+02  0.90758084065E+02 0.  0.
         13    1    3    3    0    0 -0.28398498969E+01 -0.36167110083E+02 -0.30623196442E+01  0.36407603118E+02  0.10566000000E+00 0.  1.
         22    1    1    0    0    0  0.30201008350E+01 -0.15937370328E+02 -0.24702082328E+02  0.29551880707E+02  0.00000000000E+00 0. -1.
</event>
<event>
 5    1  0.1285346E-004  0.9118800E+02  0.7818608E-02  0.1130116E+00
         25   -1    0    0    0    0  0.00000000000E+00  0.00000000000E+00  0.99999998245E-14  0.12500000000E+03  0.12500000000E+03 0.  0.
        -13    1    3    3    0    0  0.21465844177E+02 -0.33037216160E+02 -0.25223023313E+02  0.46780895533E+02  0.10566000000E+00 0. -1.
         23    2    1    0    0    0  0.31227698859E+02 -0.14097135083E+01  0.69901495779E+01  0.92968473978E+02  0.87276104945E+02 0.  0.
         13    1    3    3    0    0  0.97618546825E+01  0.31627502652E+02  0.32213172891E+02  0.46187578444E+02  0.10566000000E+00 0.  1.
         22    1    1    0    0    0 -0.31227698859E+02  0.14097135083E+01 -0.69901495779E+01  0.32031526022E+02  0.00000000000E+00 0. -1.
</event>
<event>
 5    1  0.1285346E-004  0.9118800E+02  0.7818608E-02  0.1130116E+00
         25   -1    0    0    0    0  0.00000000000E+00  0.00000000000E+00  0.99999998245E-14  0.12500000000E+03  0.12500000000E+03 0.  0.
        -13    1    3    3    0    0  0.39007093378E+02  0.11539812944E+02 -0.28834297089E+02  0.49861292294E+02  0.10566000000E+00 0.  1.
         23    2    1    0    0    0  0.24836925008E+02 -0.14916842236E+02  0.55494062232E+01  0.95501170607E+02  0.90831121603E+02 0.  0.
         13    1    3    3    0    0 -0.14170168369E+02 -0.26456655180E+02  0.34383703312E+02  0.45639878313E+02  0.10566000000E+00 0. -1.
         22    1    1    0    0    0 -0.24836925008E+02  0.14916842236E+02 -0.55494062232E+01  0.29498829393E+02  0.00000000000E+00 0.  1.
</event>
<event>
 5    1  0.1285346E-004  0.9118800E+02  0.7818608E-02  0.1130116E+00
         25   -1    0    0    0    0  0.00000000000E+00  0.00000000000E+00  0.99999998245E-14  0.12500000000E+03  0.12500000000E+03 0.  0.
        -13    1    3    3    0    0  0.40862842700E+02  0.42547009487E+02 -0.20616528631E+02  0.62490578063E+02  0.10566000000E+00 0.  1.
         23    2    1    0    0    0  0.20480102024E+02  0.22415783461E+02 -0.10731635858E+02  0.92796429774E+02  0.87029348174E+02 0.  0.
         13    1    3    3    0    0 -0.20382740676E+02 -0.20131226026E+02  0.98848927731E+01  0.30305851711E+02  0.10566000000E+00 0. -1.
         22    1    1    0    0    0 -0.20480102024E+02 -0.22415783461E+02  0.10731635858E+02  0.32203570226E+02  0.00000000000E+00 0.  1.
</event>
<event>
 5    1  0.1285346E-004  0.9118800E+02  0.7818608E-02  0.1130116E+00
         25   -1    0    0    0    0  0.00000000000E+00  0.00000000000E+00  0.99999998245E-14  0.12500000000E+03  0.12500000000E+03 0.  0.
        -13    1    3    3    0    0 -0.12648320358E+02  0.91184763355E+01  0.47166098648E+02  0.49676741482E+02  0.10566000000E+00 0.  1.
         23    2    1    0    0    0  0.22634247110E+02  0.21591684604E+01  0.17136383310E+02  0.96528491722E+02  0.92234065998E+02 0.  0.
         13    1    3    3    0    0  0.35282567468E+02 -0.69593078751E+01 -0.30029715338E+02  0.46851750240E+02  0.10566000000E+00 0. -1.
         22    1    1    0    0    0 -0.22634247110E+02 -0.21591684604E+01 -0.17136383310E+02  0.28471508278E+02  0.00000000000E+00 0. -1.
</event>
<event>
 5    1  0.1285346E-004  0.9118800E+02  0.7818608E-02  0.1130116E+00
         25   -1    0    0    0    0  0.00000000000E+00  0.00000000000E+00  0.99999998245E-14  0.12500000000E+03  0.12500000000E+03 0.  0.
        -13    1    3    3    0    0 -0.28560878208E+02  0.17450311559E+02  0.21394917819E+02  0.39723932459E+02  0.10566000000E+00 0.  1.
         23    2    1    0    0    0  0.14754439159E+02  0.24317250344E+02 -0.11266908306E+02  0.94406449014E+02  0.89311881928E+02 0.  0.
         13    1    3    3    0    0  0.43315317367E+02  0.68669387852E+01 -0.32661826125E+02  0.54682516554E+02  0.10566000000E+00 0. -1.
         22    1    1    0    0    0 -0.14754439159E+02 -0.24317250344E+02  0.11266908306E+02  0.30593550986E+02  0.00000000000E+00 0. -1.
</event>
<event>
 5    1  0.1285346E-004  0.9118800E+02  0.7818608E-02  0.1130116E+00
         25   -1    0    0    0    0  0.00000000000E+00  0.00000000000E+00  0.99999998245E-14  0.12500000000E+03  0.12500000000E+03 0.  0.
        -13    1    3    3    0    0  0.27568698491E+02 -0.34563693127E+02 -0.35866594134E+02  0.56930710147E+02  0.10566000000E+00 0.  1.
         23    2    1    0    0    0  0.12801274641E+02 -0.26582159290E+02 -0.11722633118E+01  0.95472757897E+02  0.90792012172E+02 0.  0.
         13    1    3    3    0    0 -0.14767423850E+02  0.79815338370E+01  0.34694330822E+02  0.38542047750E+02  0.10566000000E+00 0. -1.
         22    1    1    0    0    0 -0.12801274641E+02  0.26582159290E+02  0.11722633118E+01  0.29527242103E+02  0.00000000000E+00 0.  1.
</event>
<event>
 5    1  0.1285346E-004  0.9118800E+02  0.7818608E-02  0.1130116E+00
         25   -1    0    0    0    0  0.00000000000E+00  0.00000000000E+00  0.99999998245E-14  0.12500000000E+03  0.12500000000E+03 0.  0.
        -13    1    3    3    0    0  0.33259654585E+02  0.13827210098E+02 -0.45198279721E+02  0.57795259460E+02  0.10566000000E+00 0. -1.
         23    2    1    0    0    0  0.42495034542E+01 -0.63525068642E+01 -0.25766073207E+02  0.98124301840E+02  0.94372005701E+02 0.  0.
         13    1    3    3    0    0 -0.29010151131E+02 -0.20179716962E+02  0.19432206514E+02  0.40329042381E+02  0.10566000000E+00 0.  1.
         22    1    1    0    0    0 -0.42495034542E+01  0.63525068642E+01  0.25766073207E+02  0.26875698160E+02  0.00000000000E+00 0. -1.
</event>
<event>
 5    1  0.1285346E-004  0.9118800E+02  0.7818608E-02  0.1130116E+00
         25   -1    0    0    0    0  0.00000000000E+00  0.00000000000E+00  0.99999998245E-14  0.12500000000E+03  0.12500000000E+03 0.  0.
        -13    1    3    3    0    0  0.37379095767E+02  0.16872187559E+01 -0.66391064035E+01  0.38001742136E+02  0.10566000000E+00 0. -1.
         23    2    1    0    0    0 -0.19636442192E+02  0.16901568811E+02 -0.10284384945E+02  0.97124895266E+02  0.93038829617E+02 0.  0.
         13    1    3    3    0    0 -0.57015537959E+02  0.15214350055E+02 -0.36452785413E+01  0.59123153130E+02  0.10566000000E+00 0.  1.
         22    1    1    0    0    0  0.19636442192E+02 -0.16901568811E+02  0.10284384945E+02  0.27875104734E+02  0.00000000000E+00 0.  1.
</event>
<event>
 5    1  0.1285346E-004  0.9118800E+02  0.7818608E-02  0.1130116E+00
         25   -1    0    0    0    0  0.00000000000E+00  0.00000000000E+00  0.99999998245E-14  0.12500000000E+03  0.12500000000E+03 0.  0.
        -13    1    3    3    0    0 -0.24063208427E+02 -0.25998050994E+01  0.27068334444E+02  0.36311194967E+02  0.10566000000E+00 0. -1.
         23    2    1    0    0    0  0.12646007091E+02 -0.22840357439E+02 -0.14322557598E+02  0.95221835526E+02  0.90445889246E+02 0.  0.
         13    1    3    3    0    0  0.36709215518E+02 -0.20240552340E+02 -0.41390892042E+02  0.58910640559E+02  0.10566000000E+00 0.  1.
         22    1    1    0    0    0 -0.12646007091E+02  0.22840357439E+02  0.14322557598E+02  0.29778164474E+02  0.00000000000E+00 0.  1.
</event>
<event>
 5    1  0.1285346E-004  0.9118800E+02  0.7818608E-02  0.1130116E+00
         25   -1    0    0    0    0  0.00000000000E+00  0.00000000000E+00  0.99999998245E-14  0.12500000000E+03  0.12500000000E+03 0.  0.
        -13    1    3    3    0    0  0.21658745495E+02 -0.38736933396E+02  0.46740118842E+01  0.44626324254E+02  0.10566000000E+00 0. -1.
         23    2    1    0    0    0  0.26108819508E+02  0.12389734547E+02  0.86311062062E+00  0.96087702648E+02  0.91634740475E+02 0.  0.
         13    1    3    3    0    0  0.44500740133E+01  0.51126667943E+02 -0.38109012636E+01  0.51461378393E+02  0.10566000000E+00 0.  1.
         22    1    1    0    0    0 -0.26108819508E+02 -0.12389734547E+02 -0.86311062062E+00  0.28912297352E+02  0.00000000000E+00 0.  1.
</event>
<event>
 5    1  0.1285346E-004  0.9118800E+02  0.7818608E-02  0.1130116E+00
         25   -1    0    0    0    0  0.00000000000E+00  0.00000000000E+00  0.99999998245E-14  0.12500000000E+03  0.12500000000E+03 0.  0.
        -13    1    3    3    0    0  0.46113555484E+02  0.38750044578E+01 -0.88289492120E+01  0.47110902848E+02  0.10566000000E+00 0.  1.
         23    2    1    0    0    0  0.12548884462E+02  0.24238390108E+02  0.15806471604E+02  0.93459254910E+02  0.87976211145E+02 0.  0.
         13    1    3    3    0    0 -0.33564671022E+02  0.20363385651E+02  0.24635420816E+02  0.46348352061E+02  0.10566000000E+00 0. -1.
         22    1    1    0    0    0 -0.12548884462E+02 -0.24238390108E+02 -0.15806471604E+02  0.31540745090E+02  0.00000000000E+00 0. -1.
</event>
<event>
 5    1  0.1285346E-004  0.9118800E+02  0.7818608E-02  0.1130116E+00
         25   -1    0    0    0    0  0.00000000000E+00  0.00000000000E+00  0.99999998245E-14  0.12500000000E+03  0.12500000000E+03 0.  0.
        -13    1    3    3    0    0 -0.34479926984E+01 -0.17234181683E+02 -0.30844453291E+02  0.35500663864E+02  0.10566000000E+00 0.  1.
         23    2    1    0    0    0 -0.11809519157E+02  0.49597186217E+01  0.25406642495E+02  0.96547213943E+02  0.92259435755E+02 0.  0.
         13    1    3    3    0    0 -0.83615264589E+01  0.22193900304E+02  0.56251095786E+02  0.61046550079E+02  0.10566000000E+00 0. -1.
         22    1    1    0    0    0  0.11809519157E+02 -0.49597186217E+01 -0.25406642495E+02  0.28452786057E+02  0.00000000000E+00 0. -1.
</event>
<event>
 5    1  0.1285346E-004  0.9118800E+02  0.7818608E-02  0.1130116E+00
         25   -1    0    0    0    0  0.00000000000E+00  0.00000000000E+00  0.99999998245E-14  0.12500000000E+03  0.12500000000E+03 0.  0.
        -13    1    3    3    0    0 -0.84225178876E+00  0.18769295634E+02 -0.49422026901E+02  0.52872901885E+02  0.10566000000E+00 0.  1.
         23    2    1    0    0    0 -0.55981109102E+01  0.28079610849E+02 -0.84659547729E+01  0.95142408312E+02  0.90336050821E+02 0.  0.
         13    1    3    3    0    0 -0.47558591215E+01  0.93103152149E+01  0.40956072128E+02  0.42269506427E+02  0.10566000000E+00 0. -1.
         22    1    1    0    0    0  0.55981109102E+01 -0.28079610849E+02  0.84659547729E+01  0.29857591688E+02  0.00000000000E+00 0.  1.
</event>
<event>
 5    1  0.1285346E-004  0.9118800E+02  0.7818608E-02  0.1130116E+00
         25   -1    0    0    0    0  0.00000000000E+00  0.00000000000E+00  0.99999998245E-14  0.12500000000E+03  0.12500000000E+03 0.  0.
        -13    1    3    3    0    0  0.36799022151E+02 -0.44559127586E+02  0.39971167293E+01  0.57928162311E+02  0.10566000000E+00 0. -1.
         23    2    1    0    0    0  0.72913637152E+01 -0.23452946712E+02  0.15464528292E+02  0.95976624427E+02  0.91483091918E+02 0.  0.
         13    1    3    3    0    0 -0.29507658436E+02  0.21106180874E+02  0.11467411563E+02  0.38048462117E+02  0.10566000000E+00 0.  1.
         22    1    1    0    0    0 -0.72913637152E+01  0.23452946712E+02 -0.15464528292E+02  0.29023375573E+02  0.00000000000E+00 0. -1.
</event>
<event>
 5    1  0.1285346E-004  0.9118800E+02  0.7818608E-02  0.1130116E+00
         25   -1    0    0    0    0  0.00000000000E+00  0.00000000000E+00  0.99999998245E-14  0.12500000000E+03  0.12500000000E+03 0.  0.
        -13    1    3    3    0    0 -0.60731616049E+01  0.37459516616E+02 -0.35692223250E+02  0.52096493563E+02  0.10566000000E+00 0. -1.
         23    2    1    0    0    0  0.17982592395E+02  0.10435404873E+01 -0.18985953712E+02  0.98828850917E+02  0.95300643908E+02 0.  0.
         13    1    3    3    0    0  0.24055754000E+02 -0.36415976129E+02  0.16706269538E+02  0.46732357354E+02  0.10566000000E+00 0.  1.
         22    1    1    0    0    0 -0.17982592395E+02 -0.10435404873E+01  0.18985953712E+02  0.26171149083E+02  0.00000000000E+00 0. -1.
</event>
<event>
 5    1  0.1285346E-004  0.9118800E+02  0.7818608E-02  0.1130116E+00
         25   -1    0    0    0    0  0.00000000000E+00  0.00000000000E+00  0.99999998245E-14  0.12500000000E+03  0.12500000000E+03 0.  0.
        -13    1    3    3    0    0 -0.55496930377E+02 -0.83138118154E+01  0.23389784038E+02  0.60795739238E+02  0.10566000000E+00 0.  1.
         23    2    1    0    0    0 -0.21768871683E+02  0.98667700966E+00  0.19059388331E+02  0.96049739389E+02  0.91582939718E+02 0.  0.
         13    1    3    3    0    0  0.33728058694E+02  0.93004888250E+01 -0.43303957067E+01  0.35254000151E+02  0.10566000000E+00 0. -1.
         22    1    1    0    0    0  0.21768871683E+02 -0.98667700966E+00 -0.19059388331E+02  0.28950260611E+02  0.00000000000E+00 0.  1.
</event>
<event>
 5    1  0.1285346E-004  0.9118800E+02  0.7818608E-02  0.1130116E+00
         25   -1    0    0    0    0  0.00000000000E+00  0.00000000000E+00  0.99999998245E-14  0.12500000000E+03  0.12500000000E+03 0.  0.
        -13    1    3    3    0    0  0.35474091267E+02 -0.92724768492E+01 -0.49041824894E+01  0.36992595855E+02  0.10566000000E+00 0.  1.
         23    2    1    0    0    0 -0.23317163939E+02 -0.14562055981E+02  0.55890094228E+01  0.96946824869E+02  0.92799279185E+02 0.  0.
         13    1    3    3    0    0 -0.58791255207E+02 -0.52895791322E+01  0.10493191912E+02  0.59954229014E+02  0.10566000000E+00 0. -1.
         22    1    1    0    0    0  0.23317163939E+02  0.14562055981E+02 -0.55890094228E+01  0.28053175131E+02  0.00000000000E+00 0. -1.
</event>
<event>
 5    1  0.1285346E-004  0.9118800E+02  0.7818608E-02  0.1130116E+00
         25   -1    0    0    0    0  0.00000000000E+00  0.00000000000E+00  0.99999998245E-14  0.12500000000E+03  0.12500000000E+03 0.  0.
        -13    1    3    3    0    0 -0.41700608902E+02  0.10802760663E+02  0.55481170744E+01  0.43433088629E+02  0.10566000000E+00 0. -1.
         23    2    1    0    0    0  0.42178214843E+01  0.26340974893E+02 -0.12984653172E+02  0.95331191558E+02  0.90596897792E+02 0.  0.
         13    1    3    3    0    0  0.45918430386E+02  0.15538214230E+02 -0.18532770246E+02  0.51898102929E+02  0.10566000000E+00 0.  1.
         22    1    1    0    0    0 -0.42178214843E+01 -0.26340974893E+02  0.12984653172E+02  0.29668808442E+02  0.00000000000E+00 0.  1.
</event>
<event>
 5    1  0.1285346E-004  0.9118800E+02  0.7818608E-02  0.1130116E+00
         25   -1    0    0    0    0  0.00000000000E+00  0.00000000000E+00  0.99999998245E-14  0.12500000000E+03  0.12500000000E+03 0.  0.
        -13    1    3    3    0    0 -0.16779982540E+02 -0.30238235853E+02 -0.69505580599E+01  0.35273788326E+02  0.10566000000E+00 0.  1.
         23    2    1    0    0    0 -0.12612875607E+02  0.27564239081E+02  0.45238314808E+01  0.94351395489E+02  0.89234796309E+02 0.  0.
         13    1    3    3    0    0  0.41671069328E+01  0.57802474934E+02  0.11474389541E+02  0.59077607162E+02  0.10566000000E+00 0. -1.
         22    1    1    0    0    0  0.12612875607E+02 -0.27564239081E+02 -0.45238314808E+01  0.30648604511E+02  0.00000000000E+00 0. -1.
</event>
<event>
 5    1  0.1285346E-004  0.9118800E+02  0.7818608E-02  0.1130116E+00
         25   -1    0    0    0    0  0.00000000000E+00  0.00000000000E+00  0.99999998245E-14  0.12500000000E+03  0.12500000000E+03 0.  0.
        -13    1    3    3    0    0  0.17299808952E+02 -0.14302257622E+02 -0.16807241801E+02  0.28041620921E+02  0.10566000000E+00 0.  1.
         23    2    1    0    0    0 -0.40934691048E+01  0.34654398187E+02  0.11182977944E+02  0.88356544940E+02  0.80399852207E+02 0.  0.
         13    1    3    3    0    0 -0.21393278057E+02  0.48956655809E+02  0.27990219745E+02  0.60314924019E+02  0.10566000000E+00 0. -1.
         22    1    1    0    0    0  0.40934691048E+01 -0.34654398187E+02 -0.11182977944E+02  0.36643455060E+02  0.00000000000E+00 0. -1.
</event>
<event>
 5    1  0.1285346E-004  0.9118800E+02  0.7818608E-02  0.1130116E+00
         25   -1    0    0    0    0  0.00000000000E+00  0.00000000000E+00  0.99999998245E-14  0.12500000000E+03  0.12500000000E+03 0.  0.
        -13    1    3    3    0    0 -0.90209942880E+01 -0.23209425345E+02  0.28026496354E+02  0.37490684505E+02  0.10566000000E+00 0. -1.
         23    2    1    0    0    0  0.30909906369E+01 -0.13012174850E+02 -0.27064213224E+02  0.94811549313E+02  0.89877067866E+02 0.  0.
         13    1    3    3    0    0  0.12111984925E+02  0.10197250495E+02 -0.55090709578E+02  0.57320864807E+02  0.10566000000E+00 0.  1.
         22    1    1    0    0    0 -0.30909906369E+01  0.13012174850E+02  0.27064213224E+02  0.30188450687E+02  0.00000000000E+00 0.  1.
</event>
<event>
 5    1  0.1285346E-004  0.9118800E+02  0.7818608E-02  0.1130116E+00
         25   -1    0    0    0    0  0.00000000000E+00  0.00000000000E+00  0.99999998245E-14  0.12500000000E+03  0.12500000000E+03 0.  0.
        -13    1    3    3    0    0 -0.39435695125E+02  0.36165755895E+02 -0.19707404225E+02  0.57022178972E+02  0.10566000000E+00 0. -1.
         23    2    1    0    0    0 -0.14035202235E+02  0.24521711271E+02  0.72308491845E+01  0.95835185491E+02  0.91289629054E+02 0.  0.
         13    1    3    3    0    0  0.25400492890E+02 -0.11644044624E+02  0.26938253409E+02  0.38813006519E+02  0.10566000000E+00 0.  1.
         22    1    1    0    0    0  0.14035202235E+02 -0.24521711271E+02 -0.72308491845E+01  0.29164814509E+02  0.00000000000E+00 0. -1.
</event>
<event>
 5    1  0.1285346E-004  0.9118800E+02  0.7818608E-02  0.1130116E+00
         25   -1    0    0    0    0  0.00000000000E+00  0.00000000000E+00  0.99999998245E-14  0.12500000000E+03  0.12500000000E+03 0.  0.
        -13    1    3    3    0    0  0.35426277448E+02  0.24255100858E+02 -0.16752358577E+02  0.46086698009E+02  0.10566000000E+00 0.  1.
         23    2    1    0    0    0 -0.48381858427E+01  0.23798953827E+02  0.14192875753E+02  0.96871083070E+02  0.92697199351E+02 0.  0.
         13    1    3    3    0    0 -0.40264463291E+02 -0.45614703083E+00  0.30945234330E+02  0.50784385061E+02  0.10566000000E+00 0. -1.
         22    1    1    0    0    0  0.48381858427E+01 -0.23798953827E+02 -0.14192875753E+02  0.28128916930E+02  0.00000000000E+00 0. -1.
</event>
<event>
 5    1  0.1285346E-004  0.9118800E+02  0.7818608E-02  0.1130116E+00
         25   -1    0    0    0    0  0.00000000000E+00  0.00000000000E+00  0.99999998245E-14  0.12500000000E+03  0.12500000000E+03 0.  0.
        -13    1    3    3    0    0  0.19717823687E+02  0.47166555724E+02 -0.10551526820E+02  0.52199831725E+02  0.10566000000E+00 0. -1.
         23    2    1    0    0    0 -0.14054371815E+02  0.25346073815E+02 -0.14484785214E+02  0.92600033524E+02  0.86746806171E+02 0.  0.
         13    1    3    3    0    0 -0.33772195503E+02 -0.21820481908E+02 -0.39332583935E+01  0.40400201799E+02  0.10566000000E+00 0.  1.
         22    1    1    0    0    0  0.14054371815E+02 -0.25346073815E+02  0.14484785214E+02  0.32399966476E+02  0.00000000000E+00 0. -1.
</event>
<event>
 5    1  0.1285346E-004  0.9118800E+02  0.7818608E-02  0.1130116E+00
         25   -1    0    0    0    0  0.00000000000E+00  0.00000000000E+00  0.99999998245E-14  0.12500000000E+03  0.12500000000E+03 0.  0.
        -13    1    3    3    0    0 -0.50575197976E+01 -0.28962239439E+02 -0.37769209308E+02  0.47863495021E+02  0.10566000000E+00 0.  1.
         23    2    1    0    0    0 -0.25714051997E+02  0.59439725398E+01 -0.11339914594E+02  0.96274803001E+02  0.91889611764E+02 0.  0.
         13    1    3    3    0    0 -0.20656532199E+02  0.34906211979E+02  0.26429294714E+02  0.48411307980E+02  0.10566000000E+00 0. -1.
         22    1    1    0    0    0  0.25714051997E+02 -0.59439725398E+01  0.11339914594E+02  0.28725196999E+02  0.00000000000E+00 0. -1.
</event>
<event>
 5    1  0.1285346E-004  0.9118800E+02  0.7818608E-02  0.1130116E+00
         25   -1    0    0    0    0  0.00000000000E+00  0.00000000000E+00  0.99999998245E-14  0.12500000000E+03  0.12500000000E+03 0.  0.
        -13    1    3    3    0    0  0.17177894781E+02  0.57761102581E+01  0.55906126398E+02  0.58770312673E+02  0.10566000000E+00 0.  1.
         23    2    1    0    0    0  0.50695036852E+00  0.15878819724E+02  0.27923415437E+02  0.92873514911E+02  0.87139994995E+02 0.  0.
         13    1    3    3    0    0 -0.16670944412E+02  0.10102709466E+02 -0.27982710961E+02  0.34103202238E+02  0.10566000000E+00 0. -1.
         22    1    1    0    0    0 -0.50695036852E+00 -0.15878819724E+02 -0.27923415437E+02  0.32126485089E+02  0.00000000000E+00 0.  1.
</event>
<event>
 5    1  0.1285346E-004  0.9118800E+02  0.7818608E-02  0.1130116E+00
         25   -1    0    0    0    0  0.00000000000E+00  0.00000000000E+00  0.99999998245E-14  0.12500000000E+03  0.12500000000E+03 0.  0.
        -13    1    3    3    0    0  0.91681901535E+01  0.57974939526E+01 -0.15103359930E+02  0.18595410510E+02  0.10566000000E+00 0. -1.
         23    2    1    0    0    0 -0.14004196448E+02 -0.17394703225E+01  0.42006441987E+02  0.80686520746E+02  0.67428704471E+02 0.  0.
         13    1    3    3    0    0 -0.23172386602E+02 -0.75369642751E+01  0.57109801917E+02  0.62091110236E+02  0.10566000000E+00 0.  1.
         22    1    1    0    0    0  0.14004196448E+02  0.17394703225E+01 -0.42006441987E+02  0.44313479254E+02  0.00000000000E+00 0.  1.
</event>
<event>
 5    1  0.1285346E-004  0.9118800E+02  0.7818608E-02  0.1130116E+00
         25   -1    0    0    0    0  0.00000000000E+00  0.00000000000E+00  0.99999998245E-14  0.12500000000E+03  0.12500000000E+03 0.  0.
        -13    1    3    3    0    0  0.17161419564E+01  0.11481780300E+02 -0.18667737485E+02  0.21983448521E+02  0.10566000000E+00 0.  1.
         23    2    1    0    0    0 -0.14947544118E+02 -0.32215303185E+02  0.21373822430E+02  0.83550089026E+02  0.72543244045E+02 0.  0.
         13    1    3    3    0    0 -0.16663686074E+02 -0.43697083485E+02  0.40041559914E+02  0.61566640505E+02  0.10566000000E+00 0. -1.
         22    1    1    0    0    0  0.14947544118E+02  0.32215303185E+02 -0.21373822430E+02  0.41449910974E+02  0.00000000000E+00 0. -1.
</event>
<event>
 5    1  0.1285346E-004  0.9118800E+02  0.7818608E-02  0.1130116E+00
         25   -1    0    0    0    0  0.00000000000E+00  0.00000000000E+00  0.99999998245E-14  0.12500000000E+03  0.12500000000E+03 0.  0.
        -13    1    3    3    0    0  0.11884864794E+02 -0.31068568876E+02 -0.38311305481E+01  0.33484245676E+02  0.10566000000E+00 0.  1.
         23    2    1    0    0    0 -0.65394011079E+01  0.25451006118E+02 -0.16097814281E+02  0.94183492997E+02  0.88999287914E+02 0.  0.
         13    1    3    3    0    0 -0.18424265901E+02  0.56519574994E+02 -0.12266683733E+02  0.60699247321E+02  0.10566000000E+00 0. -1.
         22    1    1    0    0    0  0.65394011079E+01 -0.25451006118E+02  0.16097814281E+02  0.30816507003E+02  0.00000000000E+00 0. -1.
</event>
<event>
 5    1  0.1285346E-004  0.9118800E+02  0.7818608E-02  0.1130116E+00
         25   -1    0    0    0    0  0.00000000000E+00  0.00000000000E+00  0.99999998245E-14  0.12500000000E+03  0.12500000000E+03 0.  0.
        -13    1    3    3    0    0  0.88408920469E+01 -0.35329597629E+02  0.33835593656E+01  0.36575968598E+02  0.10566000000E+00 0. -1.
         23    2    1    0    0    0  0.11849396870E+02  0.15658164522E+02 -0.23565173365E+02  0.94325846090E+02  0.89198999559E+02 0.  0.
         13    1    3    3    0    0  0.30085048229E+01  0.50987762151E+02 -0.26948732731E+02  0.57749877492E+02  0.10566000000E+00 0.  1.
         22    1    1    0    0    0 -0.11849396870E+02 -0.15658164522E+02  0.23565173365E+02  0.30674153910E+02  0.00000000000E+00 0.  1.
</event>
<event>
 5    1  0.1285346E-004  0.9118800E+02  0.7818608E-02  0.1130116E+00
         25   -1    0    0    0    0  0.00000000000E+00  0.00000000000E+00  0.99999998245E-14  0.12500000000E+03  0.12500000000E+03 0.  0.
        -13    1    3    3    0    0 -0.22754731244E+02 -0.33368682819E+02 -0.12273468939E+02  0.42212509886E+02  0.10566000000E+00 0.  1.
         23    2    1    0    0    0 -0.66566645211E+01  0.16123671664E+02 -0.23774192333E+02  0.95512779182E+02  0.90847095691E+02 0.  0.
         13    1    3    3    0    0  0.16098066723E+02  0.49492354482E+02 -0.11500723394E+02  0.53300269296E+02  0.10566000000E+00 0. -1.
         22    1    1    0    0    0  0.66566645211E+01 -0.16123671664E+02  0.23774192333E+02  0.29487220818E+02  0.00000000000E+00 0.  1.
</event>
<event>
 5    1  0.1285346E-004  0.9118800E+02  0.7818608E-02  0.1130116E+00
         25   -1    0    0    0    0  0.00000000000E+00  0.00000000000E+00  0.99999998245E-14  0.12500000000E+03  0.12500000000E+03 0.  0.
        -13    1    3    3    0    0  0.43319134704E+02 -0.22888114582E+02 -0.25532362890E+02  0.55247859138E+02  0.10566000000E+00 0.  1.
         23    2    1    0    0    0  0.21314007785E+02 -0.18501564621E+02  0.80624665630E+01  0.95647007165E+02  0.91031597763E+02 0.  0.
         13    1    3    3    0    0 -0.22005126919E+02  0.43865499613E+01  0.33594829453E+02  0.40399148027E+02  0.10566000000E+00 0. -1.
         22    1    1    0    0    0 -0.21314007785E+02  0.18501564621E+02 -0.80624665630E+01  0.29352992835E+02  0.00000000000E+00 0.  1.
</event>
<event>
 5    1  0.1285346E-004  0.9118800E+02  0.7818608E-02  0.1130116E+00
         25   -1    0    0    0    0  0.00000000000E+00  0.00000000000E+00  0.99999998245E-14  0.12500000000E+03  0.12500000000E+03 0.  0.
        -13    1    3    3    0    0  0.34403731992E+02  0.14915648238E+02 -0.57746176915E+01  0.37940093711E+02  0.10566000000E+00 0. -1.
         23    2    1    0    0    0 -0.94070433294E+01 -0.22389317823E+00  0.28109540761E+02  0.95357313311E+02  0.90632931806E+02 0.  0.
         13    1    3    3    0    0 -0.43810775321E+02 -0.15139541416E+02  0.33884158452E+02  0.57417219600E+02  0.10566000000E+00 0.  1.
         22    1    1    0    0    0  0.94070433294E+01  0.22389317823E+00 -0.28109540761E+02  0.29642686689E+02  0.00000000000E+00 0.  1.
</event>
<event>
 5    1  0.1285346E-004  0.9118800E+02  0.7818608E-02  0.1130116E+00
         25   -1    0    0    0    0  0.00000000000E+00  0.00000000000E+00  0.99999998245E-14  0.12500000000E+03  0.12500000000E+03 0.  0.
        -13    1    3    3    0    0  0.23965639664E+02 -0.15896987513E+02 -0.38647537318E+02  0.48173741824E+02  0.10566000000E+00 0.  1.
         23    2    1    0    0    0  0.31843430182E+02  0.70821525017E+01 -0.17735069230E+01  0.92330346549E+02  0.86357319535E+02 0.  0.
         13    1    3    3    0    0  0.78777905177E+01  0.22979140014E+02  0.36874030395E+02  0.44156604725E+02  0.10566000000E+00 0. -1.
         22    1    1    0    0    0 -0.31843430182E+02 -0.70821525017E+01  0.17735069230E+01  0.32669653451E+02  0.00000000000E+00 0.  1.
</event>
<event>
 5    1  0.1285346E-004  0.9118800E+02  0.7818608E-02  0.1130116E+00
         25   -1    0    0    0    0  0.00000000000E+00  0.00000000000E+00  0.99999998245E-14  0.12500000000E+03  0.12500000000E+03 0.  0.
        -13    1    3    3    0    0 -0.34066829847E+02  0.27538253742E+02  0.31931707044E+02  0.54208388593E+02  0.10566000000E+00 0. -1.
         23    2    1    0    0    0  0.22627998724E+01  0.67092589096E+01  0.27827029258E+02  0.96286275482E+02  0.91905216775E+02 0.  0.
         13    1    3    3    0    0  0.36329629720E+02 -0.20828994832E+02 -0.41046777868E+01  0.42077886889E+02  0.10566000000E+00 0.  1.
         22    1    1    0    0    0 -0.22627998724E+01 -0.67092589096E+01 -0.27827029258E+02  0.28713724518E+02  0.00000000000E+00 0.  1.
</event>
<event>
 5    1  0.1285346E-004  0.9118800E+02  0.7818608E-02  0.1130116E+00
         25   -1    0    0    0    0  0.00000000000E+00  0.00000000000E+00  0.99999998245E-14  0.12500000000E+03  0.12500000000E+03 0.  0.
        -13    1    3    3    0    0  0.26267815137E+02 -0.26819074174E+02  0.43243327718E+02  0.57264800775E+02  0.10566000000E+00 0.  1.
         23    2    1    0    0    0  0.24425836239E+02 -0.13932236651E+02  0.66504654158E+01  0.96104370844E+02  0.91657474932E+02 0.  0.
         13    1    3    3    0    0 -0.18419788972E+01  0.12886837523E+02 -0.36592862303E+02  0.38839570069E+02  0.10566000000E+00 0. -1.
         22    1    1    0    0    0 -0.24425836239E+02  0.13932236651E+02 -0.66504654158E+01  0.28895629156E+02  0.00000000000E+00 0.  1.
</event>
<event>
 5    1  0.1285346E-004  0.9118800E+02  0.7818608E-02  0.1130116E+00
         25   -1    0    0    0    0  0.00000000000E+00  0.00000000000E+00  0.99999998245E-14  0.12500000000E+03  0.12500000000E+03 0.  0.
        -13    1    3    3    0    0 -0.18253480547E+02  0.37444896252E+02 -0.24410933924E+02  0.48282653888E+02  0.10566000000E+00 0. -1.
         23    2    1    0    0    0 -0.27402292521E+02 -0.59645784255E+01 -0.59604882242E+01  0.96329645083E+02  0.91964184718E+02 0.  0.
         13    1    3    3    0    0 -0.91488119738E+01 -0.43409474678E+02  0.18450445700E+02  0.48046991195E+02  0.10566000000E+00 0.  1.
         22    1    1    0    0    0  0.27402292521E+02  0.59645784255E+01  0.59604882242E+01  0.28670354917E+02  0.00000000000E+00 0.  1.
</event>
<event>
 5    1  0.1285346E-004  0.9118800E+02  0.7818608E-02  0.1130116E+00
         25   -1    0    0    0    0  0.00000000000E+00  0.00000000000E+00  0.99999998245E-14  0.12500000000E+03  0.12500000000E+03 0.  0.
        -13    1    3    3    0    0  0.91846953305E+01 -0.32547656912E+02  0.16811991301E+02  0.37767218779E+02  0.10566000000E+00 0.  1.
         23    2    1    0    0    0  0.82292467947E+01  0.24297383606E+02 -0.53636337455E+01  0.98792140112E+02  0.95252480430E+02 0.  0.
         13    1    3    3    0    0 -0.95544853572E+00  0.56845040519E+02 -0.22175625046E+02  0.61024921333E+02  0.10566000000E+00 0. -1.
         22    1    1    0    0    0 -0.82292467947E+01 -0.24297383606E+02  0.53636337455E+01  0.26207859888E+02  0.00000000000E+00 0. -1.
</event>
<event>
 5    1  0.1285346E-004  0.9118800E+02  0.7818608E-02  0.1130116E+00
         25   -1    0    0    0    0  0.00000000000E+00  0.00000000000E+00  0.99999998245E-14  0.12500000000E+03  0.12500000000E+03 0.  0.
        -13    1    3    3    0    0  0.38601812581E+02 -0.26818738214E+02 -0.65380106165E+01  0.47456310442E+02  0.10566000000E+00 0. -1.
         23    2    1    0    0    0  0.17253838308E+02  0.13317374172E+02 -0.20567321729E+02  0.95032315500E+02  0.90183584288E+02 0.  0.
         13    1    3    3    0    0 -0.21347974272E+02  0.40136112385E+02 -0.14029311112E+02  0.47576005058E+02  0.10566000000E+00 0.  1.
         22    1    1    0    0    0 -0.17253838308E+02 -0.13317374172E+02  0.20567321729E+02  0.29967684500E+02  0.00000000000E+00 0. -1.
</event>
<event>
 5    1  0.1285346E-004  0.9118800E+02  0.7818608E-02  0.1130116E+00
         25   -1    0    0    0    0  0.00000000000E+00  0.00000000000E+00  0.99999998245E-14  0.12500000000E+03  0.12500000000E+03 0.  0.
        -13    1    3    3    0    0 -0.56807096656E+02 -0.17708368438E+01 -0.98218607045E+01  0.57677224320E+02  0.10566000000E+00 0.  1.
         23    2    1    0    0    0 -0.22374582744E+02  0.15226120690E+02 -0.10198255202E+02  0.96078362539E+02  0.91621998640E+02 0.  0.
         13    1    3    3    0    0  0.34432513912E+02  0.16996957533E+02 -0.37639449801E+00  0.38401138219E+02  0.10566000000E+00 0. -1.
         22    1    1    0    0    0  0.22374582744E+02 -0.15226120690E+02  0.10198255202E+02  0.28921637461E+02  0.00000000000E+00 0.  1.
</event>
<event>
 5    1  0.1285346E-004  0.9118800E+02  0.7818608E-02  0.1130116E+00
         25   -1    0    0    0    0  0.00000000000E+00  0.00000000000E+00  0.99999998245E-14  0.12500000000E+03  0.12500000000E+03 0.  0.
        -13    1    3    3    0    0 -0.12609544838E+02 -0.25077310368E+02  0.47370525462E+02  0.55062237177E+02  0.10566000000E+00 0.  1.
         23    2    1    0    0    0 -0.24877473585E+02 -0.99395087450E+01  0.11576454451E+02  0.95816154747E+02  0.91263567138E+02 0.  0.
         13    1    3    3    0    0 -0.12267928747E+02  0.15137801623E+02 -0.35794071011E+02  0.40753917570E+02  0.10566000000E+00 0. -1.
         22    1    1    0    0    0  0.24877473585E+02  0.99395087450E+01 -0.11576454451E+02  0.29183845253E+02  0.00000000000E+00 0.  1.
</event>
<event>
 5    1  0.1285346E-004  0.9118800E+02  0.7818608E-02  0.1130116E+00
         25   -1    0    0    0    0  0.00000000000E+00  0.00000000000E+00  0.99999998245E-14  0.12500000000E+03  0.12500000000E+03 0.  0.
        -13    1    3    3    0    0  0.23430031008E+02 -0.23286241059E+02  0.92498336544E+01  0.34304314049E+02  0.10566000000E+00 0.  1.
         23    2    1    0    0    0 -0.49111170881E+01  0.29643430949E+02  0.54323271988E+01  0.94465392613E+02  0.89394340722E+02 0.  0.
         13    1    3    3    0    0 -0.28341148096E+02  0.52929672009E+02 -0.38175064556E+01  0.60161078564E+02  0.10566000000E+00 0. -1.
         22    1    1    0    0    0  0.49111170881E+01 -0.29643430949E+02 -0.54323271988E+01  0.30534607387E+02  0.00000000000E+00 0. -1.
</event>
<event>
 5    1  0.1285346E-004  0.9118800E+02  0.7818608E-02  0.1130116E+00
         25   -1    0    0    0    0  0.00000000000E+00  0.00000000000E+00  0.99999998245E-14  0.12500000000E+03  0.12500000000E+03 0.  0.
        -13    1    3    3    0    0  0.54939178433E+01 -0.23166677526E+01 -0.38162310906E+02  0.38625421946E+02  0.10566000000E+00 0. -1.
         23    2    1    0    0    0 -0.27999304670E+02 -0.11566084856E+02  0.52744108246E+01  0.94250125359E+02  0.89092824289E+02 0.  0.
         13    1    3    3    0    0 -0.33493222513E+02 -0.92494171036E+01  0.43436721731E+02  0.55624703413E+02  0.10566000000E+00 0.  1.
         22    1    1    0    0    0  0.27999304670E+02  0.11566084856E+02 -0.52744108246E+01  0.30749874641E+02  0.00000000000E+00 0.  1.
</event>
<event>
 5    1  0.1285346E-004  0.9118800E+02  0.7818608E-02  0.1130116E+00
         25   -1    0    0    0    0  0.00000000000E+00  0.00000000000E+00  0.99999998245E-14  0.12500000000E+03  0.12500000000E+03 0.  0.
        -13    1    3    3    0    0 -0.10986386881E+02 -0.39020876242E+02  0.19838889211E+01  0.40586653701E+02  0.10566000000E+00 0.  1.
         23    2    1    0    0    0  0.24716513288E+02  0.48385209807E+01  0.10377502961E+02  0.97760141665E+02  0.93888420033E+02 0.  0.
         13    1    3    3    0    0  0.35702900170E+02  0.43859397223E+02  0.83936140398E+01  0.57173487964E+02  0.10566000000E+00 0. -1.
         22    1    1    0    0    0 -0.24716513288E+02 -0.48385209807E+01 -0.10377502961E+02  0.27239858335E+02  0.00000000000E+00 0. -1.
</event>
<event>
 5    1  0.1285346E-004  0.9118800E+02  0.7818608E-02  0.1130116E+00
         25   -1    0    0    0    0  0.00000000000E+00  0.00000000000E+00  0.99999998245E-14  0.12500000000E+03  0.12500000000E+03 0.  0.
        -13    1    3    3    0    0 -0.38050781154E+02  0.81694993888E+01  0.17648908013E+02  0.42732865394E+02  0.10566000000E+00 0. -1.
         23    2    1    0    0    0  0.12568230262E+02 -0.15598678119E+01  0.27052946272E+02  0.95129353849E+02  0.90317985265E+02 0.  0.
         13    1    3    3    0    0  0.50619011416E+02 -0.97293672007E+01  0.94040382584E+01  0.52396488455E+02  0.10566000000E+00 0.  1.
         22    1    1    0    0    0 -0.12568230262E+02  0.15598678119E+01 -0.27052946272E+02  0.29870646151E+02  0.00000000000E+00 0.  1.
</event>
<event>
 5    1  0.1285346E-004  0.9118800E+02  0.7818608E-02  0.1130116E+00
         25   -1    0    0    0    0  0.00000000000E+00  0.00000000000E+00  0.99999998245E-14  0.12500000000E+03  0.12500000000E+03 0.  0.
        -13    1    3    3    0    0 -0.21314771965E+02 -0.36703596319E+02  0.36155844122E+02  0.55755983669E+02  0.10566000000E+00 0.  1.
         23    2    1    0    0    0 -0.20951755995E+02 -0.80972164500E+00  0.22718751624E+02  0.94084414873E+02  0.88860023172E+02 0.  0.
         13    1    3    3    0    0  0.36301596958E+00  0.35893874674E+02 -0.13437092498E+02  0.38328431204E+02  0.10566000000E+00 0. -1.
         22    1    1    0    0    0  0.20951755995E+02  0.80972164500E+00 -0.22718751624E+02  0.30915585127E+02  0.00000000000E+00 0.  1.
</event>
<event>
 5    1  0.1285346E-004  0.9118800E+02  0.7818608E-02  0.1130116E+00
         25   -1    0    0    0    0  0.00000000000E+00  0.00000000000E+00  0.99999998245E-14  0.12500000000E+03  0.12500000000E+03 0.  0.
        -13    1    3    3    0    0  0.45100808709E+02  0.41340700193E+02  0.34767116912E+01  0.61279973293E+02  0.10566000000E+00 0. -1.
         23    2    1    0    0    0  0.20879829687E+02  0.28052488068E+02  0.76019946703E+01  0.89213135125E+02  0.81720767136E+02 0.  0.
         13    1    3    3    0    0 -0.24220979022E+02 -0.13288212124E+02  0.41252829791E+01  0.27933161832E+02  0.10566000000E+00 0.  1.
         22    1    1    0    0    0 -0.20879829687E+02 -0.28052488068E+02 -0.76019946703E+01  0.35786864875E+02  0.00000000000E+00 0. -1.
</event>
<event>
 5    1  0.1285346E-004  0.9118800E+02  0.7818608E-02  0.1130116E+00
         25   -1    0    0    0    0  0.00000000000E+00  0.00000000000E+00  0.99999998245E-14  0.12500000000E+03  0.12500000000E+03 0.  0.
        -13    1    3    3    0    0  0.27718971796E+02  0.35242841076E+01  0.22052687482E+02  0.35596266168E+02  0.10566000000E+00 0.  1.
         23    2    1    0    0    0 -0.33469941196E+01  0.23947044325E+01 -0.29184649513E+02  0.95526609524E+02  0.90866123396E+02 0.  0.
         13    1    3    3    0    0 -0.31065965915E+02 -0.11295796751E+01 -0.51237336995E+02  0.59930343356E+02  0.10566000000E+00 0. -1.
         22    1    1    0    0    0  0.33469941196E+01 -0.23947044325E+01  0.29184649513E+02  0.29473390476E+02  0.00000000000E+00 0. -1.
</event>
<event>
 5    1  0.1285346E-004  0.9118800E+02  0.7818608E-02  0.1130116E+00
         25   -1    0    0    0    0  0.00000000000E+00  0.00000000000E+00  0.99999998245E-14  0.12500000000E+03  0.12500000000E+03 0.  0.
        -13    1    3    3    0    0 -0.39122149518E+02 -0.24103643449E+02  0.38713058952E+02  0.60085275300E+02  0.10566000000E+00 0.  1.
         23    2    1    0    0    0 -0.11663566021E+02 -0.15481932417E+02  0.28313320924E+02  0.90687128574E+02  0.83945113876E+02 0.  0.
         13    1    3    3    0    0  0.27458583497E+02  0.86217110319E+01 -0.10399738028E+02  0.30601853275E+02  0.10566000000E+00 0. -1.
         22    1    1    0    0    0  0.11663566021E+02  0.15481932417E+02 -0.28313320924E+02  0.34312871426E+02  0.00000000000E+00 0.  1.
</event>
<event>
 5    1  0.1285346E-004  0.9118800E+02  0.7818608E-02  0.1130116E+00
         25   -1    0    0    0    0  0.00000000000E+00  0.00000000000E+00  0.99999998245E-14  0.12500000000E+03  0.12500000000E+03 0.  0.
        -13    1    3    3    0    0 -0.13473391924E+01  0.25669061548E+01  0.37043582748E+02  0.37156998223E+02  0.10566000000E+00 0.  1.
         23    2    1    0    0    0 -0.84734845158E+01 -0.21871059983E+02 -0.16417978442E+02  0.96369714973E+02  0.92018632588E+02 0.  0.
         13    1    3    3    0    0 -0.71261453234E+01 -0.24437966138E+02 -0.53461561189E+02  0.59212716750E+02  0.10566000000E+00 0. -1.
         22    1    1    0    0    0  0.84734845158E+01  0.21871059983E+02  0.16417978442E+02  0.28630285027E+02  0.00000000000E+00 0. -1.
</event>
<event>
 5    1  0.1285346E-004  0.9118800E+02  0.7818608E-02  0.1130116E+00
         25   -1    0    0    0    0  0.00000000000E+00  0.00000000000E+00  0.99999998245E-14  0.12500000000E+03  0.12500000000E+03 0.  0.
        -13    1    3    3    0    0 -0.94299400596E-01 -0.93614870721E+01 -0.42566698122E+02  0.43584186187E+02  0.10566000000E+00 0.  1.
         23    2    1    0    0    0  0.99073163930E+01  0.17827044262E+02  0.89812654586E+01  0.10271499261E+03  0.10026838062E+03 0.  0.
         13    1    3    3    0    0  0.10001615794E+02  0.27188531335E+02  0.51547963580E+02  0.59130806420E+02  0.10566000000E+00 0. -1.
         22    1    1    0    0    0 -0.99073163930E+01 -0.17827044262E+02 -0.89812654586E+01  0.22285007393E+02  0.00000000000E+00 0. -1.
</event>
<event>
 5    1  0.1285346E-004  0.9118800E+02  0.7818608E-02  0.1130116E+00
         25   -1    0    0    0    0  0.00000000000E+00  0.00000000000E+00  0.99999998245E-14  0.12500000000E+03  0.12500000000E+03 0.  0.
        -13    1    3    3    0    0  0.25012689551E+02  0.52570093195E+02  0.10606228966E+02  0.59175608100E+02  0.10566000000E+00 0.  1.
         23    2    1    0    0    0 -0.60730312366E+00  0.26818802940E+02  0.12188187470E+02  0.95535293621E+02  0.90878068891E+02 0.  0.
         13    1    3    3    0    0 -0.25619992675E+02 -0.25751290255E+02  0.15819585035E+01  0.36359685521E+02  0.10566000000E+00 0. -1.
         22    1    1    0    0    0  0.60730312366E+00 -0.26818802940E+02 -0.12188187470E+02  0.29464706379E+02  0.00000000000E+00 0.  1.
</event>
<event>
 5    1  0.1285346E-004  0.9118800E+02  0.7818608E-02  0.1130116E+00
         25   -1    0    0    0    0  0.00000000000E+00  0.00000000000E+00  0.99999998245E-14  0.12500000000E+03  0.12500000000E+03 0.  0.
        -13    1    3    3    0    0 -0.39138688168E+02 -0.28606920394E+02  0.22962538046E+02  0.53642167401E+02  0.10566000000E+00 0. -1.
         23    2    1    0    0    0 -0.19368755025E+02 -0.18735505343E+02 -0.12396169128E+02  0.95338023655E+02  0.90606323806E+02 0.  0.
         13    1    3    3    0    0  0.19769933143E+02  0.98714150509E+01 -0.35358707174E+02  0.41695856253E+02  0.10566000000E+00 0.  1.
         22    1    1    0    0    0  0.19368755025E+02  0.18735505343E+02  0.12396169128E+02  0.29661976345E+02  0.00000000000E+00 0. -1.
</event>
<event>
 5    1  0.1285346E-004  0.9118800E+02  0.7818608E-02  0.1130116E+00
         25   -1    0    0    0    0  0.00000000000E+00  0.00000000000E+00  0.99999998245E-14  0.12500000000E+03  0.12500000000E+03 0.  0.
        -13    1    3    3    0    0 -0.25557796444E+02 -0.18823112207E+02  0.26445272523E+02  0.41314333047E+02  0.10566000000E+00 0.  1.
         23    2    1    0    0    0  0.19249037704E+02 -0.22014949503E+02 -0.38617681570E+01  0.95502598294E+02  0.90833086337E+02 0.  0.
         13    1    3    3    0    0  0.44806834148E+02 -0.31918372954E+01 -0.30307040680E+02  0.54188265247E+02  0.10566000000E+00 0. -1.
         22    1    1    0    0    0 -0.19249037704E+02  0.22014949503E+02  0.38617681570E+01  0.29497401706E+02  0.00000000000E+00 0. -1.
</event>
<event>
 5    1  0.1285346E-004  0.9118800E+02  0.7818608E-02  0.1130116E+00
         25   -1    0    0    0    0  0.00000000000E+00  0.00000000000E+00  0.99999998245E-14  0.12500000000E+03  0.12500000000E+03 0.  0.
        -13    1    3    3    0    0  0.22431576627E+02 -0.56886867232E+02  0.89602464768E+01  0.61802819308E+02  0.10566000000E+00 0. -1.
         23    2    1    0    0    0  0.42396119077E+01 -0.28559717123E+02  0.33350110167E+01  0.95935347073E+02  0.91426674272E+02 0.  0.
         13    1    3    3    0    0 -0.18191964719E+02  0.28327150109E+02 -0.56252354601E+01  0.34132527766E+02  0.10566000000E+00 0.  1.
         22    1    1    0    0    0 -0.42396119077E+01  0.28559717123E+02 -0.33350110167E+01  0.29064652927E+02  0.00000000000E+00 0. -1.
</event>
<event>
 5    1  0.1285346E-004  0.9118800E+02  0.7818608E-02  0.1130116E+00
         25   -1    0    0    0    0  0.00000000000E+00  0.00000000000E+00  0.99999998245E-14  0.12500000000E+03  0.12500000000E+03 0.  0.
        -13    1    3    3    0    0  0.48249299630E+02  0.12816664202E+02  0.15138568902E+02  0.52167511235E+02  0.10566000000E+00 0. -1.
         23    2    1    0    0    0  0.88005606154E+01  0.27134302418E+02  0.11329264425E+02  0.94306800961E+02  0.89172306464E+02 0.  0.
         13    1    3    3    0    0 -0.39448739015E+02  0.14317638216E+02 -0.38093044772E+01  0.42139289725E+02  0.10566000000E+00 0.  1.
         22    1    1    0    0    0 -0.88005606154E+01 -0.27134302418E+02 -0.11329264425E+02  0.30693199039E+02  0.00000000000E+00 0. -1.
</event>
<event>
 5    1  0.1285346E-004  0.9118800E+02  0.7818608E-02  0.1130116E+00
         25   -1    0    0    0    0  0.00000000000E+00  0.00000000000E+00  0.99999998245E-14  0.12500000000E+03  0.12500000000E+03 0.  0.
        -13    1    3    3    0    0  0.23538355316E+02 -0.30445825250E+02  0.47580809352E+02  0.61195972325E+02  0.10566000000E+00 0.  1.
         23    2    1    0    0    0  0.12784327594E+01 -0.13678399956E+02  0.22216620025E+02  0.98878912331E+02  0.95366283784E+02 0.  0.
         13    1    3    3    0    0 -0.22259922557E+02  0.16767425294E+02 -0.25364189327E+02  0.37682940006E+02  0.10566000000E+00 0. -1.
         22    1    1    0    0    0 -0.12784327594E+01  0.13678399956E+02 -0.22216620025E+02  0.26121087669E+02  0.00000000000E+00 0.  1.
</event>
<event>
 5    1  0.1285346E-004  0.9118800E+02  0.7818608E-02  0.1130116E+00
         25   -1    0    0    0    0  0.00000000000E+00  0.00000000000E+00  0.99999998245E-14  0.12500000000E+03  0.12500000000E+03 0.  0.
        -13    1    3    3    0    0 -0.25430274773E+02  0.27100206589E+02 -0.66698189649E+01  0.37757353208E+02  0.10566000000E+00 0. -1.
         23    2    1    0    0    0  0.42329525704E+01 -0.22531877819E+02 -0.16954456800E+02  0.96485845429E+02  0.92176251591E+02 0.  0.
         13    1    3    3    0    0  0.29663227344E+02 -0.49632084408E+02 -0.10284637835E+02  0.58728492221E+02  0.10566000000E+00 0.  1.
         22    1    1    0    0    0 -0.42329525704E+01  0.22531877819E+02  0.16954456800E+02  0.28514154571E+02  0.00000000000E+00 0.  1.
</event>
<event>
 5    1  0.1285346E-004  0.9118800E+02  0.7818608E-02  0.1130116E+00
         25   -1    0    0    0    0  0.00000000000E+00  0.00000000000E+00  0.99999998245E-14  0.12500000000E+03  0.12500000000E+03 0.  0.
        -13    1    3    3    0    0  0.48271202950E+02  0.11932782132E+01  0.20530672540E+02  0.52469539983E+02  0.10566000000E+00 0. -1.
         23    2    1    0    0    0  0.18102752260E+02  0.23794198299E+02  0.63000150595E+00  0.95095645569E+02  0.90271320984E+02 0.  0.
         13    1    3    3    0    0 -0.30168450690E+02  0.22600920086E+02 -0.19900671034E+02  0.42626105585E+02  0.10566000000E+00 0.  1.
         22    1    1    0    0    0 -0.18102752260E+02 -0.23794198299E+02 -0.63000150595E+00  0.29904354431E+02  0.00000000000E+00 0. -1.
</event>
<event>
 5    1  0.1285346E-004  0.9118800E+02  0.7818608E-02  0.1130116E+00
         25   -1    0    0    0    0  0.00000000000E+00  0.00000000000E+00  0.99999998245E-14  0.12500000000E+03  0.12500000000E+03 0.  0.
        -13    1    3    3    0    0  0.53149046204E+02  0.19075283661E+02  0.48667267973E+01  0.56677894746E+02  0.10566000000E+00 0. -1.
         23    2    1    0    0    0  0.17410494602E+02  0.22308493467E+02 -0.92335017388E+01  0.95233378469E+02  0.90461840669E+02 0.  0.
         13    1    3    3    0    0 -0.35738551602E+02  0.32332098063E+01 -0.14100228536E+02  0.38555483723E+02  0.10566000000E+00 0.  1.
         22    1    1    0    0    0 -0.17410494602E+02 -0.22308493467E+02  0.92335017388E+01  0.29766621531E+02  0.00000000000E+00 0. -1.
</event>
<event>
 5    1  0.1285346E-004  0.9118800E+02  0.7818608E-02  0.1130116E+00
         25   -1    0    0    0    0  0.00000000000E+00  0.00000000000E+00  0.99999998245E-14  0.12500000000E+03  0.12500000000E+03 0.  0.
        -13    1    3    3    0    0 -0.39544211065E+02 -0.91785470199E+01  0.20696106674E+02  0.45566768040E+02  0.10566000000E+00 0. -1.
         23    2    1    0    0    0  0.10518055189E+02 -0.29147478828E+00  0.26255205485E+02  0.96714840330E+02  0.92486269697E+02 0.  0.
         13    1    3    3    0    0  0.50062266254E+02  0.88870722316E+01  0.55590988106E+01  0.51148072290E+02  0.10566000000E+00 0.  1.
         22    1    1    0    0    0 -0.10518055189E+02  0.29147478828E+00 -0.26255205485E+02  0.28285159670E+02  0.00000000000E+00 0.  1.
</event>
<event>
 5    1  0.1285346E-004  0.9118800E+02  0.7818608E-02  0.1130116E+00
         25   -1    0    0    0    0  0.00000000000E+00  0.00000000000E+00  0.99999998245E-14  0.12500000000E+03  0.12500000000E+03 0.  0.
        -13    1    3    3    0    0 -0.37472817834E+01  0.28223255657E+02  0.24709392894E+02  0.37698269746E+02  0.10566000000E+00 0. -1.
         23    2    1    0    0    0  0.16575302598E+02 -0.22723510341E+02  0.29049241685E+01  0.96723911818E+02  0.92498529472E+02 0.  0.
         13    1    3    3    0    0  0.20322584382E+02 -0.50946765998E+02 -0.21804468726E+02  0.59025642072E+02  0.10566000000E+00 0.  1.
         22    1    1    0    0    0 -0.16575302598E+02  0.22723510341E+02 -0.29049241685E+01  0.28276088182E+02  0.00000000000E+00 0.  1.
</event>
<event>
 5    1  0.1285346E-004  0.9118800E+02  0.7818608E-02  0.1130116E+00
         25   -1    0    0    0    0  0.00000000000E+00  0.00000000000E+00  0.99999998245E-14  0.12500000000E+03  0.12500000000E+03 0.  0.
        -13    1    3    3    0    0 -0.38276639255E+02  0.42377127528E+02 -0.11870520399E+02  0.58325315848E+02  0.10566000000E+00 0.  1.
         23    2    1    0    0    0 -0.16512813671E+02  0.13951750452E+02 -0.20561293665E+02  0.95165604528E+02  0.90368142240E+02 0.  0.
         13    1    3    3    0    0  0.21763825584E+02 -0.28425377077E+02 -0.86907732663E+01  0.36840288679E+02  0.10566000000E+00 0. -1.
         22    1    1    0    0    0  0.16512813671E+02 -0.13951750452E+02  0.20561293665E+02  0.29834395472E+02  0.00000000000E+00 0.  1.
</event>
<event>
 5    1  0.1285346E-004  0.9118800E+02  0.7818608E-02  0.1130116E+00
         25   -1    0    0    0    0  0.00000000000E+00  0.00000000000E+00  0.99999998245E-14  0.12500000000E+03  0.12500000000E+03 0.  0.
        -13    1    3    3    0    0  0.43506042955E+02  0.38799360247E+02  0.44545181527E+01  0.58463835191E+02  0.10566000000E+00 0.  1.
         23    2    1    0    0    0  0.18026481390E+02  0.19677825072E+02 -0.13564959369E+02  0.95063751846E+02  0.90227146477E+02 0.  0.
         13    1    3    3    0    0 -0.25479561565E+02 -0.19121535174E+02 -0.18019477521E+02  0.36599916655E+02  0.10566000000E+00 0. -1.
         22    1    1    0    0    0 -0.18026481390E+02 -0.19677825072E+02  0.13564959369E+02  0.29936248154E+02  0.00000000000E+00 0.  1.
</event>
<event>
 5    1  0.1285346E-004  0.9118800E+02  0.7818608E-02  0.1130116E+00
         25   -1    0    0    0    0  0.00000000000E+00  0.00000000000E+00  0.99999998245E-14  0.12500000000E+03  0.12500000000E+03 0.  0.
        -13    1    3    3    0    0 -0.76907051075E+01  0.18414159184E+02  0.33167014492E+02  0.38707753976E+02  0.10566000000E+00 0.  1.
         23    2    1    0    0    0  0.11070325017E+02 -0.27193795338E+02  0.59265002285E+01  0.95047070163E+02  0.90204032841E+02 0.  0.
         13    1    3    3    0    0  0.18761030124E+02 -0.45607954522E+02 -0.27240514264E+02  0.56339316187E+02  0.10566000000E+00 0. -1.
         22    1    1    0    0    0 -0.11070325017E+02  0.27193795338E+02 -0.59265002285E+01  0.29952929837E+02  0.00000000000E+00 0. -1.
</event>
<event>
 5    1  0.1285346E-004  0.9118800E+02  0.7818608E-02  0.1130116E+00
         25   -1    0    0    0    0  0.00000000000E+00  0.00000000000E+00  0.99999998245E-14  0.12500000000E+03  0.12500000000E+03 0.  0.
        -13    1    3    3    0    0 -0.12736579929E+02 -0.36032146913E+02  0.39348239681E+01  0.38419136939E+02  0.10566000000E+00 0.  1.
         23    2    1    0    0    0 -0.12313242702E+02  0.17769888585E+02  0.20996155204E+02  0.94863254663E+02  0.89948950332E+02 0.  0.
         13    1    3    3    0    0  0.42333722714E+00  0.53802035498E+02  0.17061331236E+02  0.56444117724E+02  0.10566000000E+00 0. -1.
         22    1    1    0    0    0  0.12313242702E+02 -0.17769888585E+02 -0.20996155204E+02  0.30136745337E+02  0.00000000000E+00 0.  1.
</event>
<event>
 5    1  0.1285346E-004  0.9118800E+02  0.7818608E-02  0.1130116E+00
         25   -1    0    0    0    0  0.00000000000E+00  0.00000000000E+00  0.99999998245E-14  0.12500000000E+03  0.12500000000E+03 0.  0.
        -13    1    3    3    0    0 -0.27236651780E+02  0.49345044030E+02  0.13391128905E+02  0.57931874368E+02  0.10566000000E+00 0.  1.
         23    2    1    0    0    0  0.25050780074E+01  0.25261552009E+02  0.13596919914E+02  0.96202471340E+02  0.91791164254E+02 0.  0.
         13    1    3    3    0    0  0.29741729787E+02 -0.24083492020E+02  0.20579100937E+00  0.38270596972E+02  0.10566000000E+00 0. -1.
         22    1    1    0    0    0 -0.25050780074E+01 -0.25261552009E+02 -0.13596919914E+02  0.28797528660E+02  0.00000000000E+00 0.  1.
</event>
<event>
 5    1  0.1285346E-004  0.9118800E+02  0.7818608E-02  0.1130116E+00
         25   -1    0    0    0    0  0.00000000000E+00  0.00000000000E+00  0.99999998245E-14  0.12500000000E+03  0.12500000000E+03 0.  0.
        -13    1    3    3    0    0  0.80891733475E+00  0.39516989036E+02 -0.14374364746E+01  0.39551537990E+02  0.10566000000E+00 0. -1.
         23    2    1    0    0    0 -0.14338589060E+02 -0.11111607403E+02 -0.22200984185E+02  0.96330387968E+02  0.91965194459E+02 0.  0.
         13    1    3    3    0    0 -0.15147506395E+02 -0.50628596438E+02 -0.20763547710E+02  0.56778849978E+02  0.10566000000E+00 0.  1.
         22    1    1    0    0    0  0.14338589060E+02  0.11111607403E+02  0.22200984185E+02  0.28669612032E+02  0.00000000000E+00 0.  1.
</event>
<event>
 5    1  0.1285346E-004  0.9118800E+02  0.7818608E-02  0.1130116E+00
         25   -1    0    0    0    0  0.00000000000E+00  0.00000000000E+00  0.99999998245E-14  0.12500000000E+03  0.12500000000E+03 0.  0.
        -13    1    3    3    0    0  0.28915915833E+02 -0.23186356833E+02  0.17181937105E+02  0.40852998156E+02  0.10566000000E+00 0.  1.
         23    2    1    0    0    0 -0.20580702254E+02 -0.24284907412E+02  0.28466558753E+00  0.93166007668E+02  0.87558562786E+02 0.  0.
         13    1    3    3    0    0 -0.49496618087E+02 -0.10985505795E+01 -0.16897271517E+02  0.52313009512E+02  0.10566000000E+00 0. -1.
         22    1    1    0    0    0  0.20580702254E+02  0.24284907412E+02 -0.28466558753E+00  0.31833992332E+02  0.00000000000E+00 0.  1.
</event>
<event>
 5    1  0.1285346E-004  0.9118800E+02  0.7818608E-02  0.1130116E+00
         25   -1    0    0    0    0  0.00000000000E+00  0.00000000000E+00  0.99999998245E-14  0.12500000000E+03  0.12500000000E+03 0.  0.
        -13    1    3    3    0    0 -0.12063113723E+02 -0.43342419291E+02 -0.31493709925E+02  0.54917656101E+02  0.10566000000E+00 0.  1.
         23    2    1    0    0    0 -0.22298741936E+02 -0.14435589228E+02 -0.62520679705E+00  0.98429132272E+02  0.94774907375E+02 0.  0.
         13    1    3    3    0    0 -0.10235628213E+02  0.28906830063E+02  0.30868503128E+02  0.43511476171E+02  0.10566000000E+00 0. -1.
         22    1    1    0    0    0  0.22298741936E+02  0.14435589228E+02  0.62520679705E+00  0.26570867728E+02  0.00000000000E+00 0.  1.
</event>
<event>
 5    1  0.1285346E-004  0.9118800E+02  0.7818608E-02  0.1130116E+00
         25   -1    0    0    0    0  0.00000000000E+00  0.00000000000E+00  0.99999998245E-14  0.12500000000E+03  0.12500000000E+03 0.  0.
        -13    1    3    3    0    0 -0.53790101140E+02 -0.13688064500E+02  0.64214826485E+01  0.55874723210E+02  0.10566000000E+00 0. -1.
         23    2    1    0    0    0 -0.21076144499E+02  0.39362656012E+01  0.20234903995E+02  0.95518660249E+02  0.90855187316E+02 0.  0.
         13    1    3    3    0    0  0.32713956640E+02  0.17624330101E+02  0.13813421347E+02  0.39643937039E+02  0.10566000000E+00 0.  1.
         22    1    1    0    0    0  0.21076144499E+02 -0.39362656012E+01 -0.20234903995E+02  0.29481339751E+02  0.00000000000E+00 0. -1.
</event>
<event>
 5    1  0.1285346E-004  0.9118800E+02  0.7818608E-02  0.1130116E+00
         25   -1    0    0    0    0  0.00000000000E+00  0.00000000000E+00  0.99999998245E-14  0.12500000000E+03  0.12500000000E+03 0.  0.
        -13    1    3    3    0    0 -0.25056774658E+02  0.74357841353E+01  0.27590179663E+02  0.38004763120E+02  0.10566000000E+00 0.  1.
         23    2    1    0    0    0 -0.21018213837E+02 -0.31056839284E+02 -0.30594687887E+01  0.87374836499E+02  0.78858792311E+02 0.  0.
         13    1    3    3    0    0  0.40385608206E+01 -0.38492623419E+02 -0.30649648452E+02  0.49370073379E+02  0.10566000000E+00 0. -1.
         22    1    1    0    0    0  0.21018213837E+02  0.31056839284E+02  0.30594687887E+01  0.37625163501E+02  0.00000000000E+00 0.  1.
</event>
<event>
 5    1  0.1285346E-004  0.9118800E+02  0.7818608E-02  0.1130116E+00
         25   -1    0    0    0    0  0.00000000000E+00  0.00000000000E+00  0.99999998245E-14  0.12500000000E+03  0.12500000000E+03 0.  0.
        -13    1    3    3    0    0 -0.40036380611E+02  0.33533593892E+02  0.20306264595E+02  0.56033643801E+02  0.10566000000E+00 0. -1.
         23    2    1    0    0    0 -0.50759359319E+01  0.28629123640E+02  0.18609378835E+01  0.95864884833E+02  0.91330286369E+02 0.  0.
         13    1    3    3    0    0  0.34960444679E+02 -0.49044702515E+01 -0.18445326712E+02  0.39831241032E+02  0.10566000000E+00 0.  1.
         22    1    1    0    0    0  0.50759359319E+01 -0.28629123640E+02 -0.18609378835E+01  0.29135115167E+02  0.00000000000E+00 0. -1.
</event>
<event>
 5    1  0.1285346E-004  0.9118800E+02  0.7818608E-02  0.1130116E+00
         25   -1    0    0    0    0  0.00000000000E+00  0.00000000000E+00  0.99999998245E-14  0.12500000000E+03  0.12500000000E+03 0.  0.
        -13    1    3    3    0    0 -0.21518014031E+02 -0.18142530863E+01  0.41558014364E+02  0.46833707562E+02  0.10566000000E+00 0.  1.
         23    2    1    0    0    0 -0.20898501967E+02 -0.15892323801E+02 -0.73535406055E+01  0.97734859257E+02  0.93854753818E+02 0.  0.
         13    1    3    3    0    0  0.61951206361E+00 -0.14078070715E+02 -0.48911554970E+02  0.50901151695E+02  0.10566000000E+00 0. -1.
         22    1    1    0    0    0  0.20898501967E+02  0.15892323801E+02  0.73535406055E+01  0.27265140743E+02  0.00000000000E+00 0.  1.
</event>
<event>
 5    1  0.1285346E-004  0.9118800E+02  0.7818608E-02  0.1130116E+00
         25   -1    0    0    0    0  0.00000000000E+00  0.00000000000E+00  0.99999998245E-14  0.12500000000E+03  0.12500000000E+03 0.  0.
        -13    1    3    3    0    0 -0.12947889082E+02 -0.26660075818E+02 -0.97272250816E+01  0.31193549752E+02  0.10566000000E+00 0.  1.
         23    2    1    0    0    0  0.17395428707E+02  0.99324886844E+00 -0.39447275580E+02  0.81876050345E+02  0.69598940984E+02 0.  0.
         13    1    3    3    0    0  0.30343317789E+02  0.27653324687E+02 -0.29720050498E+02  0.50682500593E+02  0.10566000000E+00 0. -1.
         22    1    1    0    0    0 -0.17395428707E+02 -0.99324886844E+00  0.39447275580E+02  0.43123949655E+02  0.00000000000E+00 0. -1.
</event>
<event>
 5    1  0.1285346E-004  0.9118800E+02  0.7818608E-02  0.1130116E+00
         25   -1    0    0    0    0  0.00000000000E+00  0.00000000000E+00  0.99999998245E-14  0.12500000000E+03  0.12500000000E+03 0.  0.
        -13    1    3    3    0    0  0.61748096657E+01 -0.19994318870E+02 -0.55947323573E+02  0.59732865664E+02  0.10566000000E+00 0. -1.
         23    2    1    0    0    0 -0.19077504751E+01 -0.22789610763E+02 -0.28632712432E+02  0.88355244689E+02  0.80397830643E+02 0.  0.
         13    1    3    3    0    0 -0.80825601408E+01 -0.27952918933E+01  0.27314611141E+02  0.28622379024E+02  0.10566000000E+00 0.  1.
         22    1    1    0    0    0  0.19077504751E+01  0.22789610763E+02  0.28632712432E+02  0.36644755311E+02  0.00000000000E+00 0. -1.
</event>
<event>
 5    1  0.1285346E-004  0.9118800E+02  0.7818608E-02  0.1130116E+00
         25   -1    0    0    0    0  0.00000000000E+00  0.00000000000E+00  0.99999998245E-14  0.12500000000E+03  0.12500000000E+03 0.  0.
        -13    1    3    3    0    0  0.14780542474E+02  0.29990473886E+02  0.93226983115E+01  0.34710471440E+02  0.10566000000E+00 0.  1.
         23    2    1    0    0    0 -0.19658036832E+02 -0.17475511550E+02 -0.10594418093E+02  0.96643808246E+02  0.92390216265E+02 0.  0.
         13    1    3    3    0    0 -0.34438579306E+02 -0.47465985437E+02 -0.19917116405E+02  0.61933336806E+02  0.10566000000E+00 0. -1.
         22    1    1    0    0    0  0.19658036832E+02  0.17475511550E+02  0.10594418093E+02  0.28356191754E+02  0.00000000000E+00 0. -1.
</event>
<event>
 5    1  0.1285346E-004  0.9118800E+02  0.7818608E-02  0.1130116E+00
         25   -1    0    0    0    0  0.00000000000E+00  0.00000000000E+00  0.99999998245E-14  0.12500000000E+03  0.12500000000E+03 0.  0.
        -13    1    3    3    0    0  0.15683018153E+02 -0.47648546262E+02 -0.17852663311E+02  0.53245373232E+02  0.10566000000E+00 0.  1.
         23    2    1    0    0    0  0.24476283736E+02 -0.13625208184E+02  0.68019929142E+01  0.96172896934E+02  0.91750881377E+02 0.  0.
         13    1    3    3    0    0  0.87932655833E+01  0.34023338078E+02  0.24654656225E+02  0.42927523702E+02  0.10566000000E+00 0. -1.
         22    1    1    0    0    0 -0.24476283736E+02  0.13625208184E+02 -0.68019929142E+01  0.28827103066E+02  0.00000000000E+00 0.  1.
</event>
<event>
 5    1  0.1285346E-004  0.9118800E+02  0.7818608E-02  0.1130116E+00
         25   -1    0    0    0    0  0.00000000000E+00  0.00000000000E+00  0.99999998245E-14  0.12500000000E+03  0.12500000000E+03 0.  0.
        -13    1    3    3    0    0 -0.35523880373E+02  0.47481478313E+02 -0.13164701892E+00  0.59299792196E+02  0.10566000000E+00 0.  1.
         23    2    1    0    0    0 -0.45501399946E+01  0.28447509759E+02 -0.42186313080E+01  0.95883656899E+02  0.91355975309E+02 0.  0.
         13    1    3    3    0    0  0.30973740379E+02 -0.19033968554E+02 -0.40869842890E+01  0.36583864702E+02  0.10566000000E+00 0. -1.
         22    1    1    0    0    0  0.45501399946E+01 -0.28447509759E+02  0.42186313080E+01  0.29116343101E+02  0.00000000000E+00 0.  1.
</event>
<event>
 5    1  0.1285346E-004  0.9118800E+02  0.7818608E-02  0.1130116E+00
         25   -1    0    0    0    0  0.00000000000E+00  0.00000000000E+00  0.99999998245E-14  0.12500000000E+03  0.12500000000E+03 0.  0.
        -13    1    3    3    0    0 -0.44362577258E+02 -0.67402730353E+01  0.22148949289E+02  0.50040550159E+02  0.10566000000E+00 0.  1.
         23    2    1    0    0    0 -0.38819098329E+01  0.13679054879E+02  0.25815249949E+02  0.95527760583E+02  0.90867706837E+02 0.  0.
         13    1    3    3    0    0  0.40480667425E+02  0.20419327914E+02  0.36663006604E+01  0.45487210424E+02  0.10566000000E+00 0. -1.
         22    1    1    0    0    0  0.38819098329E+01 -0.13679054879E+02 -0.25815249949E+02  0.29472239417E+02  0.00000000000E+00 0.  1.
</event>
<event>
 5    1  0.1285346E-004  0.9118800E+02  0.7818608E-02  0.1130116E+00
         25   -1    0    0    0    0  0.00000000000E+00  0.00000000000E+00  0.99999998245E-14  0.12500000000E+03  0.12500000000E+03 0.  0.
        -13    1    3    3    0    0  0.43827788100E+02  0.22058154295E+01  0.14944971672E+01  0.43908829605E+02  0.10566000000E+00 0. -1.
         23    2    1    0    0    0 -0.29553506476E+00  0.20463071045E+02  0.21170182694E+02  0.95555114996E+02  0.90905328497E+02 0.  0.
         13    1    3    3    0    0 -0.44123323165E+02  0.18257255615E+02  0.19675685527E+02  0.51646285391E+02  0.10566000000E+00 0.  1.
         22    1    1    0    0    0  0.29553506476E+00 -0.20463071045E+02 -0.21170182694E+02  0.29444885004E+02  0.00000000000E+00 0.  1.
</event>
<event>
 5    1  0.1285346E-004  0.9118800E+02  0.7818608E-02  0.1130116E+00
         25   -1    0    0    0    0  0.00000000000E+00  0.00000000000E+00  0.99999998245E-14  0.12500000000E+03  0.12500000000E+03 0.  0.
        -13    1    3    3    0    0 -0.26596601846E+02 -0.21196479511E+02 -0.10421049011E+02  0.35570766086E+02  0.10566000000E+00 0. -1.
         23    2    1    0    0    0  0.36649010909E+01  0.28578214051E+02  0.48291108246E+01  0.95785857368E+02  0.91222060611E+02 0.  0.
         13    1    3    3    0    0  0.30261502937E+02  0.49774693561E+02  0.15250159835E+02  0.60215091283E+02  0.10566000000E+00 0.  1.
         22    1    1    0    0    0 -0.36649010909E+01 -0.28578214051E+02 -0.48291108246E+01  0.29214142632E+02  0.00000000000E+00 0.  1.
</event>
<event>
 5    1  0.1285346E-004  0.9118800E+02  0.7818608E-02  0.1130116E+00
         25   -1    0    0    0    0  0.00000000000E+00  0.00000000000E+00  0.99999998245E-14  0.12500000000E+03  0.12500000000E+03 0.  0.
        -13    1    3    3    0    0  0.33624535781E+02 -0.49624876553E+02 -0.12788692982E+02  0.61292737022E+02  0.10566000000E+00 0. -1.
         23    2    1    0    0    0  0.81932804504E+01 -0.27294387067E+02 -0.43559704942E+01  0.96171405014E+02  0.91748848786E+02 0.  0.
         13    1    3    3    0    0 -0.25431255330E+02  0.22330489486E+02  0.84327224876E+01  0.34878667993E+02  0.10566000000E+00 0.  1.
         22    1    1    0    0    0 -0.81932804504E+01  0.27294387067E+02  0.43559704942E+01  0.28828594986E+02  0.00000000000E+00 0. -1.
</event>
<event>
 5    1  0.1285346E-004  0.9118800E+02  0.7818608E-02  0.1130116E+00
         25   -1    0    0    0    0  0.00000000000E+00  0.00000000000E+00  0.99999998245E-14  0.12500000000E+03  0.12500000000E+03 0.  0.
        -13    1    3    3    0    0 -0.53582494584E+02 -0.29547120204E+02  0.65261186470E+01  0.61536309825E+02  0.10566000000E+00 0.  1.
         23    2    1    0    0    0 -0.25083951721E+02 -0.10150226784E+02  0.99263389565E+01  0.96177024047E+02  0.91756503921E+02 0.  0.
         13    1    3    3    0    0  0.28498542864E+02  0.19396893419E+02  0.34002203095E+01  0.34640714223E+02  0.10566000000E+00 0. -1.
         22    1    1    0    0    0  0.25083951721E+02  0.10150226784E+02 -0.99263389565E+01  0.28822975953E+02  0.00000000000E+00 0.  1.
</event>
<event>
 5    1  0.1285346E-004  0.9118800E+02  0.7818608E-02  0.1130116E+00
         25   -1    0    0    0    0  0.00000000000E+00  0.00000000000E+00  0.99999998245E-14  0.12500000000E+03  0.12500000000E+03 0.  0.
        -13    1    3    3    0    0 -0.21171980435E+02  0.57215747825E+01 -0.54197720228E+02  0.58467026738E+02  0.10566000000E+00 0. -1.
         23    2    1    0    0    0 -0.17604428952E+02 -0.10679641174E+02 -0.21445218352E+02  0.95270081660E+02  0.90512542860E+02 0.  0.
         13    1    3    3    0    0  0.35675514834E+01 -0.16401215956E+02  0.32752501876E+02  0.36803054922E+02  0.10566000000E+00 0.  1.
         22    1    1    0    0    0  0.17604428952E+02  0.10679641174E+02  0.21445218352E+02  0.29729918340E+02  0.00000000000E+00 0. -1.
</event>
<event>
 5    1  0.1285346E-004  0.9118800E+02  0.7818608E-02  0.1130116E+00
         25   -1    0    0    0    0  0.00000000000E+00  0.00000000000E+00  0.99999998245E-14  0.12500000000E+03  0.12500000000E+03 0.  0.
        -13    1    3    3    0    0  0.10833829930E+02 -0.59274243411E+02 -0.17649892717E+01  0.60282121347E+02  0.10566000000E+00 0. -1.
         23    2    1    0    0    0 -0.63608627668E+00 -0.26936897265E+02 -0.11127969191E+02  0.95848109180E+02  0.91307323338E+02 0.  0.
         13    1    3    3    0    0 -0.11469916207E+02  0.32337346146E+02 -0.93629799196E+01  0.35565987833E+02  0.10566000000E+00 0.  1.
         22    1    1    0    0    0  0.63608627668E+00  0.26936897265E+02  0.11127969191E+02  0.29151890820E+02  0.00000000000E+00 0. -1.
</event>
<event>
 5    1  0.1285346E-004  0.9118800E+02  0.7818608E-02  0.1130116E+00
         25   -1    0    0    0    0  0.00000000000E+00  0.00000000000E+00  0.99999998245E-14  0.12500000000E+03  0.12500000000E+03 0.  0.
        -13    1    3    3    0    0  0.11259529979E+02 -0.36427755472E+02  0.19478164573E+01  0.38178050462E+02  0.10566000000E+00 0.  1.
         23    2    1    0    0    0 -0.28548075201E+02  0.29878327008E+01 -0.82833267602E+01  0.95124705120E+02  0.90311551200E+02 0.  0.
         13    1    3    3    0    0 -0.39807605180E+02  0.39415588173E+02 -0.10231143218E+02  0.56946654658E+02  0.10566000000E+00 0. -1.
         22    1    1    0    0    0  0.28548075201E+02 -0.29878327008E+01  0.82833267602E+01  0.29875294880E+02  0.00000000000E+00 0. -1.
</event>
<event>
 5    1  0.1285346E-004  0.9118800E+02  0.7818608E-02  0.1130116E+00
         25   -1    0    0    0    0  0.00000000000E+00  0.00000000000E+00  0.99999998245E-14  0.12500000000E+03  0.12500000000E+03 0.  0.
        -13    1    3    3    0    0  0.29715362062E+02  0.12890229432E+02 -0.27606831804E+02  0.42559477013E+02  0.10566000000E+00 0.  1.
         23    2    1    0    0    0  0.57183494938E+01  0.70095153541E+01  0.23769091274E+02  0.99567687356E+02  0.96264852563E+02 0.  0.
         13    1    3    3    0    0 -0.23997012569E+02 -0.58807140778E+01  0.51375923079E+02  0.57008210343E+02  0.10566000000E+00 0. -1.
         22    1    1    0    0    0 -0.57183494938E+01 -0.70095153541E+01 -0.23769091274E+02  0.25432312644E+02  0.00000000000E+00 0. -1.
</event>
<event>
 5    1  0.1285346E-004  0.9118800E+02  0.7818608E-02  0.1130116E+00
         25   -1    0    0    0    0  0.00000000000E+00  0.00000000000E+00  0.99999998245E-14  0.12500000000E+03  0.12500000000E+03 0.  0.
        -13    1    3    3    0    0  0.47313829380E+02  0.11925458183E+02 -0.53288797347E+01  0.49083837734E+02  0.10566000000E+00 0. -1.
         23    2    1    0    0    0  0.81234432666E+01 -0.10763442208E+01 -0.27747152642E+02  0.96068126104E+02  0.91608031996E+02 0.  0.
         13    1    3    3    0    0 -0.39190386113E+02 -0.13001802404E+02 -0.22418272907E+02  0.46984288370E+02  0.10566000000E+00 0.  1.
         22    1    1    0    0    0 -0.81234432666E+01  0.10763442208E+01  0.27747152642E+02  0.28931873896E+02  0.00000000000E+00 0. -1.
</event>
<event>
 5    1  0.1285346E-004  0.9118800E+02  0.7818608E-02  0.1130116E+00
         25   -1    0    0    0    0  0.00000000000E+00  0.00000000000E+00  0.99999998245E-14  0.12500000000E+03  0.12500000000E+03 0.  0.
        -13    1    3    3    0    0  0.18287589367E+02 -0.39107578095E+02  0.25451337331E+02  0.50116068533E+02  0.10566000000E+00 0. -1.
         23    2    1    0    0    0 -0.13721168201E+02 -0.63722196932E+01  0.24853628398E+02  0.95903978190E+02  0.91383776172E+02 0.  0.
         13    1    3    3    0    0 -0.32008757568E+02  0.32735358402E+02 -0.59770893225E+00  0.45787909657E+02  0.10566000000E+00 0.  1.
         22    1    1    0    0    0  0.13721168201E+02  0.63722196932E+01 -0.24853628398E+02  0.29096021810E+02  0.00000000000E+00 0.  1.
</event>
<event>
 5    1  0.1285346E-004  0.9118800E+02  0.7818608E-02  0.1130116E+00
         25   -1    0    0    0    0  0.00000000000E+00  0.00000000000E+00  0.99999998245E-14  0.12500000000E+03  0.12500000000E+03 0.  0.
        -13    1    3    3    0    0  0.43524368533E+02  0.81686724460E+01 -0.10183476032E+02  0.45440204817E+02  0.10566000000E+00 0. -1.
         23    2    1    0    0    0 -0.50818236920E+01  0.20929793072E+02 -0.18780716596E+02  0.96423847601E+02  0.92092138103E+02 0.  0.
         13    1    3    3    0    0 -0.48606192225E+02  0.12761120626E+02 -0.85972405635E+01  0.50983642784E+02  0.10566000000E+00 0.  1.
         22    1    1    0    0    0  0.50818236920E+01 -0.20929793072E+02  0.18780716596E+02  0.28576152399E+02  0.00000000000E+00 0.  1.
</event>
<event>
 5    1  0.1285346E-004  0.9118800E+02  0.7818608E-02  0.1130116E+00
         25   -1    0    0    0    0  0.00000000000E+00  0.00000000000E+00  0.99999998245E-14  0.12500000000E+03  0.12500000000E+03 0.  0.
        -13    1    3    3    0    0 -0.32150794163E+01  0.73454934286E+01  0.30775157118E+02  0.31802743105E+02  0.10566000000E+00 0.  1.
         23    2    1    0    0    0  0.15874759136E+02 -0.23817967062E+01 -0.27092231272E+02  0.93509208831E+02  0.88047158999E+02 0.  0.
         13    1    3    3    0    0  0.19089838552E+02 -0.97272901348E+01 -0.57867388390E+02  0.61706465726E+02  0.10566000000E+00 0. -1.
         22    1    1    0    0    0 -0.15874759136E+02  0.23817967062E+01  0.27092231272E+02  0.31490791169E+02  0.00000000000E+00 0. -1.
</event>
<event>
 5    1  0.1285346E-004  0.9118800E+02  0.7818608E-02  0.1130116E+00
         25   -1    0    0    0    0  0.00000000000E+00  0.00000000000E+00  0.99999998245E-14  0.12500000000E+03  0.12500000000E+03 0.  0.
        -13    1    3    3    0    0 -0.19566844243E+02  0.19481957846E+02  0.28255703543E+02  0.39507012314E+02  0.10566000000E+00 0. -1.
         23    2    1    0    0    0  0.16179595430E+02  0.18105488112E+02 -0.15627946360E+02  0.96124046068E+02  0.91684303547E+02 0.  0.
         13    1    3    3    0    0  0.35746439673E+02 -0.13764697341E+01 -0.43883649904E+02  0.56617033754E+02  0.10566000000E+00 0.  1.
         22    1    1    0    0    0 -0.16179595430E+02 -0.18105488112E+02  0.15627946360E+02  0.28875953932E+02  0.00000000000E+00 0.  1.
</event>
<event>
 5    1  0.1285346E-004  0.9118800E+02  0.7818608E-02  0.1130116E+00
         25   -1    0    0    0    0  0.00000000000E+00  0.00000000000E+00  0.99999998245E-14  0.12500000000E+03  0.12500000000E+03 0.  0.
        -13    1    3    3    0    0 -0.33011728541E+02 -0.74886101987E+01  0.42396888188E+02  0.54252749202E+02  0.10566000000E+00 0. -1.
         23    2    1    0    0    0  0.39114682414E+01  0.37367637119E+01  0.29597958209E+02  0.94911761152E+02  0.90016333451E+02 0.  0.
         13    1    3    3    0    0  0.36923196783E+02  0.11225373911E+02 -0.12798929979E+02  0.40659011950E+02  0.10566000000E+00 0.  1.
         22    1    1    0    0    0 -0.39114682414E+01 -0.37367637119E+01 -0.29597958209E+02  0.30088238848E+02  0.00000000000E+00 0. -1.
</event>
<event>
 5    1  0.1285346E-004  0.9118800E+02  0.7818608E-02  0.1130116E+00
         25   -1    0    0    0    0  0.00000000000E+00  0.00000000000E+00  0.99999998245E-14  0.12500000000E+03  0.12500000000E+03 0.  0.
        -13    1    3    3    0    0 -0.22020454782E+02 -0.30103522454E+02 -0.48208940116E+02  0.60952732211E+02  0.10566000000E+00 0. -1.
         23    2    1    0    0    0 -0.11906590616E+02 -0.50865994598E+01 -0.26203970804E+02  0.95771786232E+02  0.91202777140E+02 0.  0.
         13    1    3    3    0    0  0.10113864167E+02  0.25016922994E+02  0.22004969312E+02  0.34819054021E+02  0.10566000000E+00 0.  1.
         22    1    1    0    0    0  0.11906590616E+02  0.50865994598E+01  0.26203970804E+02  0.29228213768E+02  0.00000000000E+00 0. -1.
</event>
<event>
 5    1  0.1285346E-004  0.9118800E+02  0.7818608E-02  0.1130116E+00
         25   -1    0    0    0    0  0.00000000000E+00  0.00000000000E+00  0.99999998245E-14  0.12500000000E+03  0.12500000000E+03 0.  0.
        -13    1    3    3    0    0 -0.37795684465E+02 -0.11664462379E+02  0.43762093979E+02  0.58989028474E+02  0.10566000000E+00 0. -1.
         23    2    1    0    0    0 -0.18718144029E+02  0.94168380867E+01  0.19788840256E+02  0.96179105598E+02  0.91759339577E+02 0.  0.
         13    1    3    3    0    0  0.19077540437E+02  0.21081300465E+02 -0.23973253723E+02  0.37190077124E+02  0.10566000000E+00 0.  1.
         22    1    1    0    0    0  0.18718144029E+02 -0.94168380867E+01 -0.19788840256E+02  0.28820894402E+02  0.00000000000E+00 0. -1.
</event>
<event>
 5    1  0.1285346E-004  0.9118800E+02  0.7818608E-02  0.1130116E+00
         25   -1    0    0    0    0  0.00000000000E+00  0.00000000000E+00  0.99999998245E-14  0.12500000000E+03  0.12500000000E+03 0.  0.
        -13    1    3    3    0    0  0.87503832997E+01  0.16769654640E+02  0.15414075167E+02  0.24400725439E+02  0.10566000000E+00 0. -1.
         23    2    1    0    0    0 -0.20490788099E+02 -0.16961536749E+02 -0.27794260122E+02  0.86528100885E+02  0.77505001265E+02 0.  0.
         13    1    3    3    0    0 -0.29241171398E+02 -0.33731191389E+02 -0.43208335289E+02  0.62127375446E+02  0.10566000000E+00 0.  1.
         22    1    1    0    0    0  0.20490788099E+02  0.16961536749E+02  0.27794260122E+02  0.38471899115E+02  0.00000000000E+00 0.  1.
</event>
<event>
 5    1  0.1285346E-004  0.9118800E+02  0.7818608E-02  0.1130116E+00
         25   -1    0    0    0    0  0.00000000000E+00  0.00000000000E+00  0.99999998245E-14  0.12500000000E+03  0.12500000000E+03 0.  0.
        -13    1    3    3    0    0  0.16246548783E+02 -0.30230842813E+01 -0.45302811106E+02  0.48222870550E+02  0.10566000000E+00 0. -1.
         23    2    1    0    0    0  0.11602795706E+02 -0.27222940433E+02 -0.57038147219E+01  0.94862865823E+02  0.89948409968E+02 0.  0.
         13    1    3    3    0    0 -0.46437530771E+01 -0.24199856152E+02  0.39598996384E+02  0.46639995273E+02  0.10566000000E+00 0.  1.
         22    1    1    0    0    0 -0.11602795706E+02  0.27222940433E+02  0.57038147219E+01  0.30137134177E+02  0.00000000000E+00 0.  1.
</event>
<event>
 5    1  0.1285346E-004  0.9118800E+02  0.7818608E-02  0.1130116E+00
         25   -1    0    0    0    0  0.00000000000E+00  0.00000000000E+00  0.99999998245E-14  0.12500000000E+03  0.12500000000E+03 0.  0.
        -13    1    3    3    0    0 -0.29891079463E+02  0.91619166493E+01  0.15041106983E+02  0.34693852647E+02  0.10566000000E+00 0.  1.
         23    2    1    0    0    0  0.74279753196E+01 -0.21727335176E+02 -0.20053180894E+02  0.94514233236E+02  0.89462608441E+02 0.  0.
         13    1    3    3    0    0  0.37319054783E+02 -0.30889251826E+02 -0.35094287877E+02  0.59820380589E+02  0.10566000000E+00 0. -1.
         22    1    1    0    0    0 -0.74279753196E+01  0.21727335176E+02  0.20053180894E+02  0.30485766764E+02  0.00000000000E+00 0. -1.
</event>
<event>
 5    1  0.1285346E-004  0.9118800E+02  0.7818608E-02  0.1130116E+00
         25   -1    0    0    0    0  0.00000000000E+00  0.00000000000E+00  0.99999998245E-14  0.12500000000E+03  0.12500000000E+03 0.  0.
        -13    1    3    3    0    0 -0.46639988640E+02 -0.29054675747E+02 -0.14249472580E+02  0.56767256019E+02  0.10566000000E+00 0.  1.
         23    2    1    0    0    0 -0.22183769769E+02  0.68454745107E+01 -0.34433325660E+01  0.10153008944E+03  0.98780171900E+02 0.  0.
         13    1    3    3    0    0  0.24456218871E+02  0.35900150258E+02  0.10806140014E+02  0.44762833423E+02  0.10566000000E+00 0. -1.
         22    1    1    0    0    0  0.22183769769E+02 -0.68454745107E+01  0.34433325660E+01  0.23469910558E+02  0.00000000000E+00 0.  1.
</event>
<event>
 5    1  0.1285346E-004  0.9118800E+02  0.7818608E-02  0.1130116E+00
         25   -1    0    0    0    0  0.00000000000E+00  0.00000000000E+00  0.99999998245E-14  0.12500000000E+03  0.12500000000E+03 0.  0.
        -13    1    3    3    0    0 -0.30071058176E+02  0.15072936986E+02 -0.25270062913E+02  0.42071952805E+02  0.10566000000E+00 0.  1.
         23    2    1    0    0    0 -0.20327813197E+02 -0.46185077527E+01  0.22302107926E+02  0.94472395752E+02  0.89404132667E+02 0.  0.
         13    1    3    3    0    0  0.97432449788E+01 -0.19691444739E+02  0.47572170839E+02  0.52400442946E+02  0.10566000000E+00 0. -1.
         22    1    1    0    0    0  0.20327813197E+02  0.46185077527E+01 -0.22302107926E+02  0.30527604248E+02  0.00000000000E+00 0. -1.
</event>
<event>
 5    1  0.1285346E-004  0.9118800E+02  0.7818608E-02  0.1130116E+00
         25   -1    0    0    0    0  0.00000000000E+00  0.00000000000E+00  0.99999998245E-14  0.12500000000E+03  0.12500000000E+03 0.  0.
        -13    1    3    3    0    0 -0.30399456857E+02 -0.28492367565E+02  0.46416798426E+01  0.41922527864E+02  0.10566000000E+00 0.  1.
         23    2    1    0    0    0 -0.21235953367E+02  0.17763640280E+02 -0.15580843761E+02  0.93230906156E+02  0.87651163934E+02 0.  0.
         13    1    3    3    0    0  0.91635034905E+01  0.46256007846E+02 -0.20222523604E+02  0.51308378292E+02  0.10566000000E+00 0. -1.
         22    1    1    0    0    0  0.21235953367E+02 -0.17763640280E+02  0.15580843761E+02  0.31769093844E+02  0.00000000000E+00 0. -1.
</event>
<event>
 5    1  0.1285346E-004  0.9118800E+02  0.7818608E-02  0.1130116E+00
         25   -1    0    0    0    0  0.00000000000E+00  0.00000000000E+00  0.99999998245E-14  0.12500000000E+03  0.12500000000E+03 0.  0.
        -13    1    3    3    0    0 -0.30125408613E+02 -0.33558268372E+02 -0.16907075983E+02  0.48161789861E+02  0.10566000000E+00 0. -1.
         23    2    1    0    0    0  0.79063075564E+01 -0.51795498579E+01 -0.26753929047E+02  0.96625536915E+02  0.92365492630E+02 0.  0.
         13    1    3    3    0    0  0.38031716169E+02  0.28378718514E+02 -0.98468530637E+01  0.48463747055E+02  0.10566000000E+00 0.  1.
         22    1    1    0    0    0 -0.79063075564E+01  0.51795498579E+01  0.26753929047E+02  0.28374463085E+02  0.00000000000E+00 0.  1.
</event>
<event>
 5    1  0.1285346E-004  0.9118800E+02  0.7818608E-02  0.1130116E+00
         25   -1    0    0    0    0  0.00000000000E+00  0.00000000000E+00  0.99999998245E-14  0.12500000000E+03  0.12500000000E+03 0.  0.
        -13    1    3    3    0    0  0.23958307561E+02  0.19319988183E+02  0.12547084435E+02  0.33237071719E+02  0.10566000000E+00 0.  1.
         23    2    1    0    0    0 -0.23401045179E+02 -0.16874410314E+02 -0.57361501055E+01  0.95584730888E+02  0.90946042915E+02 0.  0.
         13    1    3    3    0    0 -0.47359352740E+02 -0.36194398497E+02 -0.18283234541E+02  0.62347659169E+02  0.10566000000E+00 0. -1.
         22    1    1    0    0    0  0.23401045179E+02  0.16874410314E+02  0.57361501055E+01  0.29415269112E+02  0.00000000000E+00 0. -1.
</event>
<event>
 5    1  0.1285346E-004  0.9118800E+02  0.7818608E-02  0.1130116E+00
         25   -1    0    0    0    0  0.00000000000E+00  0.00000000000E+00  0.99999998245E-14  0.12500000000E+03  0.12500000000E+03 0.  0.
        -13    1    3    3    0    0 -0.38771259971E+02  0.34692576804E+02 -0.33134242356E+02  0.61682044920E+02  0.10566000000E+00 0. -1.
         23    2    1    0    0    0 -0.14105307904E+02  0.21008082296E+02 -0.11634322993E+02  0.97149385925E+02  0.93071727615E+02 0.  0.
         13    1    3    3    0    0  0.24665952067E+02 -0.13684494507E+02  0.21499919363E+02  0.35467341005E+02  0.10566000000E+00 0.  1.
         22    1    1    0    0    0  0.14105307904E+02 -0.21008082296E+02  0.11634322993E+02  0.27850614075E+02  0.00000000000E+00 0. -1.
</event>
<event>
 5    1  0.1285346E-004  0.9118800E+02  0.7818608E-02  0.1130116E+00
         25   -1    0    0    0    0  0.00000000000E+00  0.00000000000E+00  0.99999998245E-14  0.12500000000E+03  0.12500000000E+03 0.  0.
        -13    1    3    3    0    0 -0.27298049772E+02 -0.35223426806E+02 -0.24467125184E+02  0.50838220820E+02  0.10566000000E+00 0.  1.
         23    2    1    0    0    0  0.88974367276E+01 -0.18011609612E+02 -0.27399362269E+02  0.91024898618E+02  0.84446578703E+02 0.  0.
         13    1    3    3    0    0  0.36195486500E+02  0.17211817194E+02 -0.29322370847E+01  0.40186677798E+02  0.10566000000E+00 0. -1.
         22    1    1    0    0    0 -0.88974367276E+01  0.18011609612E+02  0.27399362269E+02  0.33975101382E+02  0.00000000000E+00 0.  1.
</event>
<event>
 5    1  0.1285346E-004  0.9118800E+02  0.7818608E-02  0.1130116E+00
         25   -1    0    0    0    0  0.00000000000E+00  0.00000000000E+00  0.99999998245E-14  0.12500000000E+03  0.12500000000E+03 0.  0.
        -13    1    3    3    0    0 -0.53302963824E+02  0.16160594099E+02 -0.24184985657E+02  0.60723104740E+02  0.10566000000E+00 0.  1.
         23    2    1    0    0    0 -0.28084245157E+02  0.73160854881E+01 -0.12311207573E+01  0.95952356529E+02  0.91449926912E+02 0.  0.
         13    1    3    3    0    0  0.25218718667E+02 -0.88445086105E+01  0.22953864899E+02  0.35229251789E+02  0.10566000000E+00 0. -1.
         22    1    1    0    0    0  0.28084245157E+02 -0.73160854881E+01  0.12311207573E+01  0.29047643471E+02  0.00000000000E+00 0.  1.
</event>
<event>
 5    1  0.1285346E-004  0.9118800E+02  0.7818608E-02  0.1130116E+00
         25   -1    0    0    0    0  0.00000000000E+00  0.00000000000E+00  0.99999998245E-14  0.12500000000E+03  0.12500000000E+03 0.  0.
        -13    1    3    3    0    0  0.21446398141E+02 -0.11833818162E+02 -0.57016563075E+02  0.62055514456E+02  0.10566000000E+00 0.  1.
         23    2    1    0    0    0  0.15036871816E+02 -0.54015711647E+01 -0.25038890300E+02  0.95297634563E+02  0.90550586088E+02 0.  0.
         13    1    3    3    0    0 -0.64095263248E+01  0.64322469972E+01  0.31977672774E+02  0.33242120108E+02  0.10566000000E+00 0. -1.
         22    1    1    0    0    0 -0.15036871816E+02  0.54015711647E+01  0.25038890300E+02  0.29702365437E+02  0.00000000000E+00 0.  1.
</event>
<event>
 5    1  0.1285346E-004  0.9118800E+02  0.7818608E-02  0.1130116E+00
         25   -1    0    0    0    0  0.00000000000E+00  0.00000000000E+00  0.99999998245E-14  0.12500000000E+03  0.12500000000E+03 0.  0.
        -13    1    3    3    0    0 -0.42267951469E+02  0.23417197962E+02 -0.10830282286E+02  0.49520208605E+02  0.10566000000E+00 0.  1.
         23    2    1    0    0    0 -0.10105494422E+02 -0.85316812364E+01 -0.24745760157E+02  0.96941788226E+02  0.92792494613E+02 0.  0.
         13    1    3    3    0    0  0.32162457047E+02 -0.31948879199E+02 -0.13915477870E+02  0.47421579621E+02  0.10566000000E+00 0. -1.
         22    1    1    0    0    0  0.10105494422E+02  0.85316812364E+01  0.24745760157E+02  0.28058211774E+02  0.00000000000E+00 0. -1.
</event>
<event>
 5    1  0.1285346E-004  0.9118800E+02  0.7818608E-02  0.1130116E+00
         25   -1    0    0    0    0  0.00000000000E+00  0.00000000000E+00  0.99999998245E-14  0.12500000000E+03  0.12500000000E+03 0.  0.
        -13    1    3    3    0    0  0.27451414824E+02  0.22805869719E+02 -0.18801520504E+02  0.40338520136E+02  0.10566000000E+00 0.  1.
         23    2    1    0    0    0  0.10647337835E+02 -0.26379276750E+02 -0.15934583730E+02  0.92394126243E+02  0.86449589708E+02 0.  0.
         13    1    3    3    0    0 -0.16804076989E+02 -0.49185146469E+02  0.28669367744E+01  0.52055606107E+02  0.10566000000E+00 0. -1.
         22    1    1    0    0    0 -0.10647337835E+02  0.26379276750E+02  0.15934583730E+02  0.32605873757E+02  0.00000000000E+00 0. -1.
</event>
<event>
 5    1  0.1285346E-004  0.9118800E+02  0.7818608E-02  0.1130116E+00
         25   -1    0    0    0    0  0.00000000000E+00  0.00000000000E+00  0.99999998245E-14  0.12500000000E+03  0.12500000000E+03 0.  0.
        -13    1    3    3    0    0  0.11213965948E+02 -0.54818448620E+02  0.68467420792E+01  0.56371130754E+02  0.10566000000E+00 0.  1.
         23    2    1    0    0    0  0.20225770697E+02 -0.15424245140E+02  0.11566323511E+02  0.97057756389E+02  0.92948583084E+02 0.  0.
         13    1    3    3    0    0  0.90118047488E+01  0.39394203480E+02  0.47195814318E+01  0.40686625635E+02  0.10566000000E+00 0. -1.
         22    1    1    0    0    0 -0.20225770697E+02  0.15424245140E+02 -0.11566323511E+02  0.27942243611E+02  0.00000000000E+00 0.  1.
</event>
<event>
 5    1  0.1285346E-004  0.9118800E+02  0.7818608E-02  0.1130116E+00
         25   -1    0    0    0    0  0.00000000000E+00  0.00000000000E+00  0.99999998245E-14  0.12500000000E+03  0.12500000000E+03 0.  0.
        -13    1    3    3    0    0 -0.19120329591E+02  0.22292834480E+02 -0.24036025310E+02  0.37951273359E+02  0.10566000000E+00 0. -1.
         23    2    1    0    0    0 -0.21302090314E+02 -0.13272158677E+02  0.18779082051E+02  0.93653817292E+02  0.88252219932E+02 0.  0.
         13    1    3    3    0    0 -0.21817607228E+01 -0.35564993157E+02  0.42815107362E+02  0.55702543932E+02  0.10566000000E+00 0.  1.
         22    1    1    0    0    0  0.21302090314E+02  0.13272158677E+02 -0.18779082051E+02  0.31346182708E+02  0.00000000000E+00 0.  1.
</event>
<event>
 5    1  0.1285346E-004  0.9118800E+02  0.7818608E-02  0.1130116E+00
         25   -1    0    0    0    0  0.00000000000E+00  0.00000000000E+00  0.99999998245E-14  0.12500000000E+03  0.12500000000E+03 0.  0.
        -13    1    3    3    0    0 -0.31542933499E+02  0.24177382528E+02  0.12421384060E+02  0.41638977241E+02  0.10566000000E+00 0.  1.
         23    2    1    0    0    0  0.19022423009E+02  0.39979942378E+01  0.20581449346E+02  0.96690415188E+02  0.92453251954E+02 0.  0.
         13    1    3    3    0    0  0.50565356508E+02 -0.20179388290E+02  0.81600652859E+01  0.55051437947E+02  0.10566000000E+00 0. -1.
         22    1    1    0    0    0 -0.19022423009E+02 -0.39979942378E+01 -0.20581449346E+02  0.28309584812E+02  0.00000000000E+00 0. -1.
</event>
<event>
 5    1  0.1285346E-004  0.9118800E+02  0.7818608E-02  0.1130116E+00
         25   -1    0    0    0    0  0.00000000000E+00  0.00000000000E+00  0.99999998245E-14  0.12500000000E+03  0.12500000000E+03 0.  0.
        -13    1    3    3    0    0 -0.37632863337E+02 -0.34938092721E+02 -0.42877579161E+01  0.51529591091E+02  0.10566000000E+00 0.  1.
         23    2    1    0    0    0  0.27813692016E+01 -0.15751986221E+02 -0.20397090971E+02  0.99078919686E+02  0.95628081240E+02 0.  0.
         13    1    3    3    0    0  0.40414232539E+02  0.19186106501E+02 -0.16109333055E+02  0.47549328596E+02  0.10566000000E+00 0. -1.
         22    1    1    0    0    0 -0.27813692016E+01  0.15751986221E+02  0.20397090971E+02  0.25921080314E+02  0.00000000000E+00 0.  1.
</event>
<event>
 5    1  0.1285346E-004  0.9118800E+02  0.7818608E-02  0.1130116E+00
         25   -1    0    0    0    0  0.00000000000E+00  0.00000000000E+00  0.99999998245E-14  0.12500000000E+03  0.12500000000E+03 0.  0.
        -13    1    3    3    0    0 -0.11366114785E+02 -0.33088414708E+02  0.16344509372E+02  0.38615876318E+02  0.10566000000E+00 0. -1.
         23    2    1    0    0    0  0.10881536698E+02 -0.17030230654E+01 -0.26562725469E+02  0.96244365547E+02  0.91848197515E+02 0.  0.
         13    1    3    3    0    0  0.22247651483E+02  0.31385391642E+02 -0.42907234841E+02  0.57628489229E+02  0.10566000000E+00 0.  1.
         22    1    1    0    0    0 -0.10881536698E+02  0.17030230654E+01  0.26562725469E+02  0.28755634453E+02  0.00000000000E+00 0.  1.
</event>
<event>
 5    1  0.1285346E-004  0.9118800E+02  0.7818608E-02  0.1130116E+00
         25   -1    0    0    0    0  0.00000000000E+00  0.00000000000E+00  0.99999998245E-14  0.12500000000E+03  0.12500000000E+03 0.  0.
        -13    1    3    3    0    0 -0.39327551309E+02 -0.27196425815E+02  0.39567328942E+02  0.62063568642E+02  0.10566000000E+00 0.  1.
         23    2    1    0    0    0 -0.21112093719E+02 -0.10812074439E+02  0.14083950435E+02  0.97414150100E+02  0.93426642479E+02 0.  0.
         13    1    3    3    0    0  0.18215457590E+02  0.16384351375E+02 -0.25483378507E+02  0.35350581457E+02  0.10566000000E+00 0. -1.
         22    1    1    0    0    0  0.21112093719E+02  0.10812074439E+02 -0.14083950435E+02  0.27585849900E+02  0.00000000000E+00 0.  1.
</event>
<event>
 5    1  0.1285346E-004  0.9118800E+02  0.7818608E-02  0.1130116E+00
         25   -1    0    0    0    0  0.00000000000E+00  0.00000000000E+00  0.99999998245E-14  0.12500000000E+03  0.12500000000E+03 0.  0.
        -13    1    3    3    0    0  0.10308442409E+02 -0.24990434171E+01 -0.30053028812E+02  0.31870125631E+02  0.10566000000E+00 0. -1.
         23    2    1    0    0    0 -0.25057320808E+02 -0.20257080198E+01  0.19803080262E+02  0.92997893711E+02  0.87318230787E+02 0.  0.
         13    1    3    3    0    0 -0.35365763218E+02  0.47333539729E+00  0.49856109074E+02  0.61127768080E+02  0.10566000000E+00 0.  1.
         22    1    1    0    0    0  0.25057320808E+02  0.20257080198E+01 -0.19803080262E+02  0.32002106289E+02  0.00000000000E+00 0.  1.
</event>
<event>
 5    1  0.1285346E-004  0.9118800E+02  0.7818608E-02  0.1130116E+00
         25   -1    0    0    0    0  0.00000000000E+00  0.00000000000E+00  0.99999998245E-14  0.12500000000E+03  0.12500000000E+03 0.  0.
        -13    1    3    3    0    0 -0.43758135702E+02 -0.91351853995E+01 -0.18985708790E+02  0.48566391205E+02  0.10566000000E+00 0.  1.
         23    2    1    0    0    0 -0.16127134023E+02  0.23912832185E+02  0.11862618796E+01  0.96132800410E+02  0.91696238214E+02 0.  0.
         13    1    3    3    0    0  0.27631001678E+02  0.33048017584E+02  0.20171970669E+02  0.47566409206E+02  0.10566000000E+00 0. -1.
         22    1    1    0    0    0  0.16127134023E+02 -0.23912832185E+02 -0.11862618796E+01  0.28867199590E+02  0.00000000000E+00 0.  1.
</event>
<event>
 5    1  0.1285346E-004  0.9118800E+02  0.7818608E-02  0.1130116E+00
         25   -1    0    0    0    0  0.00000000000E+00  0.00000000000E+00  0.99999998245E-14  0.12500000000E+03  0.12500000000E+03 0.  0.
        -13    1    3    3    0    0 -0.17487453082E+02 -0.33473797308E+02 -0.43254666378E+02  0.57421977055E+02  0.10566000000E+00 0. -1.
         23    2    1    0    0    0 -0.72581931499E+01 -0.26731934149E+02 -0.59751243504E+01  0.96663102108E+02  0.92416316346E+02 0.  0.
         13    1    3    3    0    0  0.10229259932E+02  0.67418631592E+01  0.37279542027E+02  0.39241125053E+02  0.10566000000E+00 0.  1.
         22    1    1    0    0    0  0.72581931499E+01  0.26731934149E+02  0.59751243504E+01  0.28336897892E+02  0.00000000000E+00 0. -1.
</event>
<event>
 5    1  0.1285346E-004  0.9118800E+02  0.7818608E-02  0.1130116E+00
         25   -1    0    0    0    0  0.00000000000E+00  0.00000000000E+00  0.99999998245E-14  0.12500000000E+03  0.12500000000E+03 0.  0.
        -13    1    3    3    0    0  0.38109766462E+02  0.23105085937E+02  0.95290058085E+01  0.45574251631E+02  0.10566000000E+00 0. -1.
         23    2    1    0    0    0  0.69262309160E+01  0.72295390355E+01 -0.27026752306E+02  0.96178406539E+02  0.91758387273E+02 0.  0.
         13    1    3    3    0    0 -0.31183535546E+02 -0.15875546902E+02 -0.36555758115E+02  0.50604154909E+02  0.10566000000E+00 0.  1.
         22    1    1    0    0    0 -0.69262309160E+01 -0.72295390355E+01  0.27026752306E+02  0.28821593461E+02  0.00000000000E+00 0.  1.
</event>
<event>
 5    1  0.1285346E-004  0.9118800E+02  0.7818608E-02  0.1130116E+00
         25   -1    0    0    0    0  0.00000000000E+00  0.00000000000E+00  0.99999998245E-14  0.12500000000E+03  0.12500000000E+03 0.  0.
        -13    1    3    3    0    0  0.53813404267E+01 -0.51876022275E+01 -0.42868893415E+02  0.43515781371E+02  0.10566000000E+00 0.  1.
         23    2    1    0    0    0  0.26943417361E+02  0.65602019383E+01  0.45342327991E+01  0.96901187647E+02  0.92737785782E+02 0.  0.
         13    1    3    3    0    0  0.21562076934E+02  0.11747804166E+02  0.47403126214E+02  0.53385406277E+02  0.10566000000E+00 0. -1.
         22    1    1    0    0    0 -0.26943417361E+02 -0.65602019383E+01 -0.45342327991E+01  0.28098812353E+02  0.00000000000E+00 0. -1.
</event>
<event>
 5    1  0.1285346E-004  0.9118800E+02  0.7818608E-02  0.1130116E+00
         25   -1    0    0    0    0  0.00000000000E+00  0.00000000000E+00  0.99999998245E-14  0.12500000000E+03  0.12500000000E+03 0.  0.
        -13    1    3    3    0    0  0.34897279997E+02 -0.74552728752E+01  0.48258051552E+02  0.60018763303E+02  0.10566000000E+00 0.  1.
         23    2    1    0    0    0  0.62409763432E+01  0.13141721640E+01  0.28218183837E+02  0.96070037449E+02  0.91610640005E+02 0.  0.
         13    1    3    3    0    0 -0.28656303654E+02  0.87694450392E+01 -0.20039867716E+02  0.36051274145E+02  0.10566000000E+00 0. -1.
         22    1    1    0    0    0 -0.62409763432E+01 -0.13141721640E+01 -0.28218183837E+02  0.28929962551E+02  0.00000000000E+00 0.  1.
</event>
<event>
 5    1  0.1285346E-004  0.9118800E+02  0.7818608E-02  0.1130116E+00
         25   -1    0    0    0    0  0.00000000000E+00  0.00000000000E+00  0.99999998245E-14  0.12500000000E+03  0.12500000000E+03 0.  0.
        -13    1    3    3    0    0  0.46020927678E+02 -0.23029265448E+02  0.29082024790E+02  0.59110474379E+02  0.10566000000E+00 0.  1.
         23    2    1    0    0    0  0.15606992207E+02 -0.23067286233E+02  0.83295859943E+01  0.95930085953E+02  0.91419480901E+02 0.  0.
         13    1    3    3    0    0 -0.30413935471E+02 -0.38020784744E-01 -0.20752438796E+02  0.36819611574E+02  0.10566000000E+00 0. -1.
         22    1    1    0    0    0 -0.15606992207E+02  0.23067286233E+02 -0.83295859943E+01  0.29069914047E+02  0.00000000000E+00 0.  1.
</event>
<event>
 5    1  0.1285346E-004  0.9118800E+02  0.7818608E-02  0.1130116E+00
         25   -1    0    0    0    0  0.00000000000E+00  0.00000000000E+00  0.99999998245E-14  0.12500000000E+03  0.12500000000E+03 0.  0.
        -13    1    3    3    0    0  0.15671636358E+02 -0.35770825604E+02 -0.30086526481E+02  0.49298705767E+02  0.10566000000E+00 0.  1.
         23    2    1    0    0    0  0.93008623147E+00 -0.36250823979E+02  0.59641682525E+01  0.88250053027E+02  0.80234115292E+02 0.  0.
         13    1    3    3    0    0 -0.14741550127E+02 -0.47999837497E+00  0.36050694733E+02  0.38951347260E+02  0.10566000000E+00 0. -1.
         22    1    1    0    0    0 -0.93008623147E+00  0.36250823979E+02 -0.59641682525E+01  0.36749946973E+02  0.00000000000E+00 0.  1.
</event>
<event>
 5    1  0.1285346E-004  0.9118800E+02  0.7818608E-02  0.1130116E+00
         25   -1    0    0    0    0  0.00000000000E+00  0.00000000000E+00  0.99999998245E-14  0.12500000000E+03  0.12500000000E+03 0.  0.
        -13    1    3    3    0    0  0.40388513095E+02  0.10785148310E+02  0.41081853904E+02  0.58611272792E+02  0.10566000000E+00 0.  1.
         23    2    1    0    0    0  0.88350490985E+01  0.17537652678E+02  0.18712038896E+02  0.97874960762E+02  0.94041162214E+02 0.  0.
         13    1    3    3    0    0 -0.31553463997E+02  0.67525043682E+01 -0.22369815008E+02  0.39263687970E+02  0.10566000000E+00 0. -1.
         22    1    1    0    0    0 -0.88350490985E+01 -0.17537652678E+02 -0.18712038896E+02  0.27125039238E+02  0.00000000000E+00 0.  1.
</event>
<event>
 5    1  0.1285346E-004  0.9118800E+02  0.7818608E-02  0.1130116E+00
         25   -1    0    0    0    0  0.00000000000E+00  0.00000000000E+00  0.99999998245E-14  0.12500000000E+03  0.12500000000E+03 0.  0.
        -13    1    3    3    0    0 -0.11272359536E+02 -0.15513135716E+02  0.26952401395E+02  0.33078188800E+02  0.10566000000E+00 0.  1.
         23    2    1    0    0    0  0.10106901552E+02  0.28039617353E+02 -0.94486682233E+01  0.93732653911E+02  0.88363813169E+02 0.  0.
         13    1    3    3    0    0  0.21379261088E+02  0.43552753069E+02 -0.36401069619E+02  0.60654465111E+02  0.10566000000E+00 0. -1.
         22    1    1    0    0    0 -0.10106901552E+02 -0.28039617353E+02  0.94486682233E+01  0.31267346089E+02  0.00000000000E+00 0. -1.
</event>
<event>
 5    1  0.1285346E-004  0.9118800E+02  0.7818608E-02  0.1130116E+00
         25   -1    0    0    0    0  0.00000000000E+00  0.00000000000E+00  0.99999998245E-14  0.12500000000E+03  0.12500000000E+03 0.  0.
        -13    1    3    3    0    0 -0.19523314983E+01  0.18388568537E+02 -0.44418431840E+02  0.48114023967E+02  0.10566000000E+00 0. -1.
         23    2    1    0    0    0  0.55020192324E+01  0.28352323077E+02  0.18819180193E+01  0.96057504342E+02  0.91593537357E+02 0.  0.
         13    1    3    3    0    0  0.74543507308E+01  0.99637545393E+01  0.46300349859E+02  0.47943480375E+02  0.10566000000E+00 0.  1.
         22    1    1    0    0    0 -0.55020192324E+01 -0.28352323077E+02 -0.18819180193E+01  0.28942495658E+02  0.00000000000E+00 0.  1.
</event>
<event>
 5    1  0.1285346E-004  0.9118800E+02  0.7818608E-02  0.1130116E+00
         25   -1    0    0    0    0  0.00000000000E+00  0.00000000000E+00  0.99999998245E-14  0.12500000000E+03  0.12500000000E+03 0.  0.
        -13    1    3    3    0    0  0.36436098534E+02 -0.18075658821E+02  0.35933492685E+02  0.54272882536E+02  0.10566000000E+00 0.  1.
         23    2    1    0    0    0  0.27471703644E+02 -0.81701235644E+01 -0.37034537336E+01  0.96100847941E+02  0.91652670367E+02 0.  0.
         13    1    3    3    0    0 -0.89643948903E+01  0.99055352571E+01 -0.39636946419E+02  0.41827965405E+02  0.10566000000E+00 0. -1.
         22    1    1    0    0    0 -0.27471703644E+02  0.81701235644E+01  0.37034537336E+01  0.28899152059E+02  0.00000000000E+00 0. -1.
</event>
<event>
 5    1  0.1285346E-004  0.9118800E+02  0.7818608E-02  0.1130116E+00
         25   -1    0    0    0    0  0.00000000000E+00  0.00000000000E+00  0.99999998245E-14  0.12500000000E+03  0.12500000000E+03 0.  0.
        -13    1    3    3    0    0 -0.22357436618E+01 -0.78614635761E+01 -0.44850937524E+02  0.45589679974E+02  0.10566000000E+00 0.  1.
         23    2    1    0    0    0 -0.23906601042E+02 -0.16255628701E+02 -0.15544434074E-01  0.96090290914E+02  0.91638271090E+02 0.  0.
         13    1    3    3    0    0 -0.21670857380E+02 -0.83941651250E+01  0.44835393090E+02  0.50500610940E+02  0.10566000000E+00 0. -1.
         22    1    1    0    0    0  0.23906601042E+02  0.16255628701E+02  0.15544434074E-01  0.28909709086E+02  0.00000000000E+00 0. -1.
</event>
<event>
 5    1  0.1285346E-004  0.9118800E+02  0.7818608E-02  0.1130116E+00
         25   -1    0    0    0    0  0.00000000000E+00  0.00000000000E+00  0.99999998245E-14  0.12500000000E+03  0.12500000000E+03 0.  0.
        -13    1    3    3    0    0  0.10766539488E+02  0.31401463688E+02 -0.97342200397E+01  0.34593879489E+02  0.10566000000E+00 0.  1.
         23    2    1    0    0    0 -0.92485029594E+01 -0.24594711314E+02  0.94478261797E+01  0.97076962001E+02  0.92974407770E+02 0.  0.
         13    1    3    3    0    0 -0.20015042447E+02 -0.55996175002E+02  0.19182046219E+02  0.62483082512E+02  0.10566000000E+00 0. -1.
         22    1    1    0    0    0  0.92485029594E+01  0.24594711314E+02 -0.94478261797E+01  0.27923037999E+02  0.00000000000E+00 0. -1.
</event>
<event>
 5    1  0.1285346E-004  0.9118800E+02  0.7818608E-02  0.1130116E+00
         25   -1    0    0    0    0  0.00000000000E+00  0.00000000000E+00  0.99999998245E-14  0.12500000000E+03  0.12500000000E+03 0.  0.
        -13    1    3    3    0    0 -0.42782996833E+01  0.47675068702E+02  0.27856178190E+02  0.55382252133E+02  0.10566000000E+00 0. -1.
         23    2    1    0    0    0  0.12618637820E+02  0.26881657525E+02 -0.16750605806E+01  0.95256776239E+02  0.90494165888E+02 0.  0.
         13    1    3    3    0    0  0.16896937503E+02 -0.20793411177E+02 -0.29531238771E+02  0.39874524106E+02  0.10566000000E+00 0.  1.
         22    1    1    0    0    0 -0.12618637820E+02 -0.26881657525E+02  0.16750605806E+01  0.29743223761E+02  0.00000000000E+00 0. -1.
</event>
<event>
 5    1  0.1285346E-004  0.9118800E+02  0.7818608E-02  0.1130116E+00
         25   -1    0    0    0    0  0.00000000000E+00  0.00000000000E+00  0.99999998245E-14  0.12500000000E+03  0.12500000000E+03 0.  0.
        -13    1    3    3    0    0 -0.77573888293E+01  0.51370998897E+02 -0.71355144835E+01  0.52441237019E+02  0.10566000000E+00 0.  1.
         23    2    1    0    0    0  0.20875719080E+02  0.21020360977E+02  0.25147774224E+01  0.95268277409E+02  0.90510051112E+02 0.  0.
         13    1    3    3    0    0  0.28633107909E+02 -0.30350637920E+02  0.96502919059E+01  0.42827040390E+02  0.10566000000E+00 0. -1.
         22    1    1    0    0    0 -0.20875719080E+02 -0.21020360977E+02 -0.25147774224E+01  0.29731722591E+02  0.00000000000E+00 0.  1.
</event>
<event>
 5    1  0.1285346E-004  0.9118800E+02  0.7818608E-02  0.1130116E+00
         25   -1    0    0    0    0  0.00000000000E+00  0.00000000000E+00  0.99999998245E-14  0.12500000000E+03  0.12500000000E+03 0.  0.
        -13    1    3    3    0    0  0.37076245936E+01 -0.43152316891E+01 -0.46658810477E+02  0.47004504719E+02  0.10566000000E+00 0.  1.
         23    2    1    0    0    0 -0.28937596525E+00  0.28061235168E+02 -0.12372132503E+02  0.94331020227E+02  0.89206250099E+02 0.  0.
         13    1    3    3    0    0 -0.39970005588E+01  0.32376466858E+02  0.34286677974E+02  0.47326515508E+02  0.10566000000E+00 0. -1.
         22    1    1    0    0    0  0.28937596525E+00 -0.28061235168E+02  0.12372132503E+02  0.30668979773E+02  0.00000000000E+00 0.  1.
</event>
<event>
 5    1  0.1285346E-004  0.9118800E+02  0.7818608E-02  0.1130116E+00
         25   -1    0    0    0    0  0.00000000000E+00  0.00000000000E+00  0.99999998245E-14  0.12500000000E+03  0.12500000000E+03 0.  0.
        -13    1    3    3    0    0 -0.37031487491E+02  0.45732220978E+02 -0.18594200725E+02  0.61713228453E+02  0.10566000000E+00 0. -1.
         23    2    1    0    0    0 -0.10793946387E+02  0.21612868566E+02 -0.12251762284E+02  0.97912529735E+02  0.94091085836E+02 0.  0.
         13    1    3    3    0    0  0.26237541104E+02 -0.24119352412E+02  0.63424384412E+01  0.36199301283E+02  0.10566000000E+00 0.  1.
         22    1    1    0    0    0  0.10793946387E+02 -0.21612868566E+02  0.12251762284E+02  0.27087470265E+02  0.00000000000E+00 0. -1.
</event>
<event>
 5    1  0.1285346E-004  0.9118800E+02  0.7818608E-02  0.1130116E+00
         25   -1    0    0    0    0  0.00000000000E+00  0.00000000000E+00  0.99999998245E-14  0.12500000000E+03  0.12500000000E+03 0.  0.
        -13    1    3    3    0    0 -0.25093596954E+02  0.27553141902E+02 -0.42529984620E+02  0.56547988404E+02  0.10566000000E+00 0.  1.
         23    2    1    0    0    0  0.72519067551E+01  0.15852301458E+02 -0.23123125123E+02  0.96042021331E+02  0.91572404866E+02 0.  0.
         13    1    3    3    0    0  0.32345503709E+02 -0.11700840444E+02  0.19406859497E+02  0.39494032927E+02  0.10566000000E+00 0. -1.
         22    1    1    0    0    0 -0.72519067551E+01 -0.15852301458E+02  0.23123125123E+02  0.28957978669E+02  0.00000000000E+00 0.  1.
</event>
<event>
 5    1  0.1285346E-004  0.9118800E+02  0.7818608E-02  0.1130116E+00
         25   -1    0    0    0    0  0.00000000000E+00  0.00000000000E+00  0.99999998245E-14  0.12500000000E+03  0.12500000000E+03 0.  0.
        -13    1    3    3    0    0  0.21075704656E+02 -0.21429441865E+02  0.35759510971E+02  0.46713596461E+02  0.10566000000E+00 0. -1.
         23    2    1    0    0    0  0.14902315755E+02 -0.21354617214E+02 -0.13022593224E+02  0.95884941603E+02  0.91357733119E+02 0.  0.
         13    1    3    3    0    0 -0.61733889012E+01  0.74824651181E-01 -0.48782104195E+02  0.49171345141E+02  0.10566000000E+00 0.  1.
         22    1    1    0    0    0 -0.14902315755E+02  0.21354617214E+02  0.13022593224E+02  0.29115058397E+02  0.00000000000E+00 0.  1.
</event>
<event>
 5    1  0.1285346E-004  0.9118800E+02  0.7818608E-02  0.1130116E+00
         25   -1    0    0    0    0  0.00000000000E+00  0.00000000000E+00  0.99999998245E-14  0.12500000000E+03  0.12500000000E+03 0.  0.
        -13    1    3    3    0    0  0.53240195472E+01  0.18251477633E+02 -0.31870376705E+02  0.37110560428E+02  0.10566000000E+00 0. -1.
         23    2    1    0    0    0 -0.32471398982E+02  0.27997955466E+02 -0.16803149469E+02  0.78949776393E+02  0.64128340835E+02 0.  0.
         13    1    3    3    0    0 -0.37795418529E+02  0.97464778337E+01  0.15067227236E+02  0.41839215965E+02  0.10566000000E+00 0.  1.
         22    1    1    0    0    0  0.32471398982E+02 -0.27997955466E+02  0.16803149469E+02  0.46050223607E+02  0.00000000000E+00 0. -1.
</event>
<event>
 5    1  0.1285346E-004  0.9118800E+02  0.7818608E-02  0.1130116E+00
         25   -1    0    0    0    0  0.00000000000E+00  0.00000000000E+00  0.99999998245E-14  0.12500000000E+03  0.12500000000E+03 0.  0.
        -13    1    3    3    0    0  0.18787118333E+02 -0.38581727006E+02  0.52452943427E+01  0.43232276725E+02  0.10566000000E+00 0. -1.
         23    2    1    0    0    0 -0.26234971009E+02 -0.11861653017E+02 -0.22502275722E+01  0.96120317864E+02  0.91679220470E+02 0.  0.
         13    1    3    3    0    0 -0.45022089342E+02  0.26720073989E+02 -0.74955219150E+01  0.52888041139E+02  0.10566000000E+00 0.  1.
         22    1    1    0    0    0  0.26234971009E+02  0.11861653017E+02  0.22502275722E+01  0.28879682136E+02  0.00000000000E+00 0. -1.
</event>
<event>
 5    1  0.1285346E-004  0.9118800E+02  0.7818608E-02  0.1130116E+00
         25   -1    0    0    0    0  0.00000000000E+00  0.00000000000E+00  0.99999998245E-14  0.12500000000E+03  0.12500000000E+03 0.  0.
        -13    1    3    3    0    0  0.27941274172E+02  0.10644044245E+02 -0.42143759705E+02  0.51673185758E+02  0.10566000000E+00 0. -1.
         23    2    1    0    0    0  0.85148485494E+01 -0.21092076734E+02 -0.17451585672E+02  0.96330570475E+02  0.91965442525E+02 0.  0.
         13    1    3    3    0    0 -0.19426425623E+02 -0.31736120979E+02  0.24692174033E+02  0.44657384717E+02  0.10566000000E+00 0.  1.
         22    1    1    0    0    0 -0.85148485494E+01  0.21092076734E+02  0.17451585672E+02  0.28669429525E+02  0.00000000000E+00 0.  1.
</event>
<event>
 5    1  0.1285346E-004  0.9118800E+02  0.7818608E-02  0.1130116E+00
         25   -1    0    0    0    0  0.00000000000E+00  0.00000000000E+00  0.99999998245E-14  0.12500000000E+03  0.12500000000E+03 0.  0.
        -13    1    3    3    0    0  0.25330276528E+02 -0.22353286823E+02  0.66045088626E+01  0.34422711138E+02  0.10566000000E+00 0. -1.
         23    2    1    0    0    0 -0.29433080378E+02  0.36362068937E+01  0.59819526751E+00  0.95337126594E+02  0.90605086218E+02 0.  0.
         13    1    3    3    0    0 -0.54763356906E+02  0.25989493716E+02 -0.60063135951E+01  0.60914415456E+02  0.10566000000E+00 0.  1.
         22    1    1    0    0    0  0.29433080378E+02 -0.36362068937E+01 -0.59819526751E+00  0.29662873406E+02  0.00000000000E+00 0.  1.
</event>
<event>
 5    1  0.1285346E-004  0.9118800E+02  0.7818608E-02  0.1130116E+00
         25   -1    0    0    0    0  0.00000000000E+00  0.00000000000E+00  0.99999998245E-14  0.12500000000E+03  0.12500000000E+03 0.  0.
        -13    1    3    3    0    0 -0.31866939863E+02 -0.20833092626E+02 -0.35277976075E+02  0.51904396390E+02  0.10566000000E+00 0.  1.
         23    2    1    0    0    0  0.61171557401E+01  0.30886358540E+01 -0.26479878930E+02  0.97647792521E+02  0.93738722684E+02 0.  0.
         13    1    3    3    0    0  0.37984095603E+02  0.23921728480E+02  0.87980971452E+01  0.45743396132E+02  0.10566000000E+00 0. -1.
         22    1    1    0    0    0 -0.61171557401E+01 -0.30886358540E+01  0.26479878930E+02  0.27352207479E+02  0.00000000000E+00 0.  1.
</event>
<event>
 5    1  0.1285346E-004  0.9118800E+02  0.7818608E-02  0.1130116E+00
         25   -1    0    0    0    0  0.00000000000E+00  0.00000000000E+00  0.99999998245E-14  0.12500000000E+03  0.12500000000E+03 0.  0.
        -13    1    3    3    0    0  0.59874602298E+01  0.63060226730E+01 -0.45657368776E+02  0.46478189396E+02  0.10566000000E+00 0.  1.
         23    2    1    0    0    0 -0.26137589594E+02 -0.71719980925E+01 -0.10613626503E+02  0.95892265393E+02  0.91367753328E+02 0.  0.
         13    1    3    3    0    0 -0.32125049824E+02 -0.13478020766E+02  0.35043742274E+02  0.49414075996E+02  0.10566000000E+00 0. -1.
         22    1    1    0    0    0  0.26137589594E+02  0.71719980925E+01  0.10613626503E+02  0.29107734607E+02  0.00000000000E+00 0.  1.
</event>
<event>
 5    1  0.1285346E-004  0.9118800E+02  0.7818608E-02  0.1130116E+00
         25   -1    0    0    0    0  0.00000000000E+00  0.00000000000E+00  0.99999998245E-14  0.12500000000E+03  0.12500000000E+03 0.  0.
        -13    1    3    3    0    0 -0.34976808514E+02  0.59230309635E+01 -0.21180608445E+02  0.41316930764E+02  0.10566000000E+00 0.  1.
         23    2    1    0    0    0  0.30210315709E+01 -0.25962924268E+02 -0.21860072471E+02  0.90925627860E+02  0.84299507502E+02 0.  0.
         13    1    3    3    0    0  0.37997840085E+02 -0.31885955231E+02 -0.67946402581E+00  0.49608697096E+02  0.10566000000E+00 0. -1.
         22    1    1    0    0    0 -0.30210315709E+01  0.25962924268E+02  0.21860072471E+02  0.34074372140E+02  0.00000000000E+00 0. -1.
</event>
<event>
 5    1  0.1285346E-004  0.9118800E+02  0.7818608E-02  0.1130116E+00
         25   -1    0    0    0    0  0.00000000000E+00  0.00000000000E+00  0.99999998245E-14  0.12500000000E+03  0.12500000000E+03 0.  0.
        -13    1    3    3    0    0 -0.15832838989E+02 -0.27775746518E+02 -0.36257428718E+02  0.48340285336E+02  0.10566000000E+00 0. -1.
         23    2    1    0    0    0  0.13593629982E+02 -0.26321094243E+02  0.40381423670E+00  0.95373156696E+02  0.90654780205E+02 0.  0.
         13    1    3    3    0    0  0.29426468970E+02  0.14546522746E+01  0.36661242955E+02  0.47032871360E+02  0.10566000000E+00 0.  1.
         22    1    1    0    0    0 -0.13593629982E+02  0.26321094243E+02 -0.40381423670E+00  0.29626843304E+02  0.00000000000E+00 0. -1.
</event>
<event>
 5    1  0.1285346E-004  0.9118800E+02  0.7818608E-02  0.1130116E+00
         25   -1    0    0    0    0  0.00000000000E+00  0.00000000000E+00  0.99999998245E-14  0.12500000000E+03  0.12500000000E+03 0.  0.
        -13    1    3    3    0    0  0.27848008020E+02 -0.30774793621E+01  0.20560816336E+02  0.34752564831E+02  0.10566000000E+00 0. -1.
         23    2    1    0    0    0 -0.16031052136E+02 -0.80890489623E+01 -0.22349914065E+02  0.96330399298E+02  0.91965209860E+02 0.  0.
         13    1    3    3    0    0 -0.43879060156E+02 -0.50115696002E+01 -0.42910730401E+02  0.61577834467E+02  0.10566000000E+00 0.  1.
         22    1    1    0    0    0  0.16031052136E+02  0.80890489623E+01  0.22349914065E+02  0.28669600702E+02  0.00000000000E+00 0.  1.
</event>
<event>
 5    1  0.1285346E-004  0.9118800E+02  0.7818608E-02  0.1130116E+00
         25   -1    0    0    0    0  0.00000000000E+00  0.00000000000E+00  0.99999998245E-14  0.12500000000E+03  0.12500000000E+03 0.  0.
        -13    1    3    3    0    0 -0.52493853940E+02 -0.14578983474E+02  0.12873718110E+01  0.54496054452E+02  0.10566000000E+00 0.  1.
         23    2    1    0    0    0 -0.16805246578E+02 -0.11784530683E+02 -0.20162264321E+02  0.96228340706E+02  0.91826386058E+02 0.  0.
         13    1    3    3    0    0  0.35688607361E+02  0.27944527911E+01 -0.21449636132E+02  0.41732286254E+02  0.10566000000E+00 0. -1.
         22    1    1    0    0    0  0.16805246578E+02  0.11784530683E+02  0.20162264321E+02  0.28771659294E+02  0.00000000000E+00 0.  1.
</event>
<event>
 5    1  0.1285346E-004  0.9118800E+02  0.7818608E-02  0.1130116E+00
         25   -1    0    0    0    0  0.00000000000E+00  0.00000000000E+00  0.99999998245E-14  0.12500000000E+03  0.12500000000E+03 0.  0.
        -13    1    3    3    0    0  0.32546956247E+02 -0.66290797780E+01  0.26400618081E+02  0.42429386736E+02  0.10566000000E+00 0.  1.
         23    2    1    0    0    0  0.71737015342E+01  0.53300776013E+01  0.46953364514E+02  0.77203659553E+02  0.60629323666E+02 0.  0.
         13    1    3    3    0    0 -0.25373254713E+02  0.11959157379E+02  0.20552746434E+02  0.34774272817E+02  0.10566000000E+00 0. -1.
         22    1    1    0    0    0 -0.71737015342E+01 -0.53300776013E+01 -0.46953364514E+02  0.47796340447E+02  0.00000000000E+00 0.  1.
</event>
<event>
 5    1  0.1285346E-004  0.9118800E+02  0.7818608E-02  0.1130116E+00
         25   -1    0    0    0    0  0.00000000000E+00  0.00000000000E+00  0.99999998245E-14  0.12500000000E+03  0.12500000000E+03 0.  0.
        -13    1    3    3    0    0  0.41218383781E+01 -0.11007041167E+01 -0.47154988765E+02  0.47347705654E+02  0.10566000000E+00 0. -1.
         23    2    1    0    0    0 -0.26806611652E+02  0.89527179627E+00 -0.85620067006E+01  0.96845002245E+02  0.92662023295E+02 0.  0.
         13    1    3    3    0    0 -0.30928450030E+02  0.19959759129E+01  0.38592982065E+02  0.49497296591E+02  0.10566000000E+00 0.  1.
         22    1    1    0    0    0  0.26806611652E+02 -0.89527179627E+00  0.85620067006E+01  0.28154997755E+02  0.00000000000E+00 0.  1.
</event>
<event>
 5    1  0.1285346E-004  0.9118800E+02  0.7818608E-02  0.1130116E+00
         25   -1    0    0    0    0  0.00000000000E+00  0.00000000000E+00  0.99999998245E-14  0.12500000000E+03  0.12500000000E+03 0.  0.
        -13    1    3    3    0    0 -0.30511522200E+02  0.37102872243E+00  0.15780604851E+02  0.34353010097E+02  0.10566000000E+00 0.  1.
         23    2    1    0    0    0  0.28787755342E+02  0.64932402798E+01  0.28679601722E+01  0.95350004679E+02  0.90622851256E+02 0.  0.
         13    1    3    3    0    0  0.59299277542E+02  0.61222115574E+01 -0.12912644679E+02  0.60996994582E+02  0.10566000000E+00 0. -1.
         22    1    1    0    0    0 -0.28787755342E+02 -0.64932402798E+01 -0.28679601722E+01  0.29649995321E+02  0.00000000000E+00 0. -1.
</event>
<event>
 5    1  0.1285346E-004  0.9118800E+02  0.7818608E-02  0.1130116E+00
         25   -1    0    0    0    0  0.00000000000E+00  0.00000000000E+00  0.99999998245E-14  0.12500000000E+03  0.12500000000E+03 0.  0.
        -13    1    3    3    0    0  0.23256736079E+02 -0.19748079235E+02 -0.23588667652E+02  0.38565513249E+02  0.10566000000E+00 0.  1.
         23    2    1    0    0    0  0.65270021602E+01  0.16806929624E+02  0.20142111973E+02  0.97967069798E+02  0.94163514428E+02 0.  0.
         13    1    3    3    0    0 -0.16729733919E+02  0.36555008859E+02  0.43730779625E+02  0.59401556548E+02  0.10566000000E+00 0. -1.
         22    1    1    0    0    0 -0.65270021602E+01 -0.16806929624E+02 -0.20142111973E+02  0.27032930202E+02  0.00000000000E+00 0. -1.
</event>
<event>
 5    1  0.1285346E-004  0.9118800E+02  0.7818608E-02  0.1130116E+00
         25   -1    0    0    0    0  0.00000000000E+00  0.00000000000E+00  0.99999998245E-14  0.12500000000E+03  0.12500000000E+03 0.  0.
        -13    1    3    3    0    0  0.37659763362E+02 -0.16461281548E+02  0.35007872837E+02  0.53988831172E+02  0.10566000000E+00 0.  1.
         23    2    1    0    0    0  0.24226351451E+02 -0.23661189127E+02  0.11530211669E+01  0.91116413511E+02  0.84581932927E+02 0.  0.
         13    1    3    3    0    0 -0.13433411911E+02 -0.71999075796E+01 -0.33854851670E+02  0.37127582339E+02  0.10566000000E+00 0. -1.
         22    1    1    0    0    0 -0.24226351451E+02  0.23661189127E+02 -0.11530211669E+01  0.33883586489E+02  0.00000000000E+00 0.  1.
</event>
<event>
 5    1  0.1285346E-004  0.9118800E+02  0.7818608E-02  0.1130116E+00
         25   -1    0    0    0    0  0.00000000000E+00  0.00000000000E+00  0.99999998245E-14  0.12500000000E+03  0.12500000000E+03 0.  0.
        -13    1    3    3    0    0  0.11102855240E+02  0.43856723325E+01 -0.39772653138E+02  0.41525686243E+02  0.10566000000E+00 0.  1.
         23    2    1    0    0    0 -0.17424319012E+02 -0.24803395835E+02 -0.69479910240E+01  0.93901930651E+02  0.88602949515E+02 0.  0.
         13    1    3    3    0    0 -0.28527174253E+02 -0.29189068167E+02  0.32824662114E+02  0.52376244408E+02  0.10566000000E+00 0. -1.
         22    1    1    0    0    0  0.17424319012E+02  0.24803395835E+02  0.69479910240E+01  0.31098069349E+02  0.00000000000E+00 0. -1.
</event>
<event>
 5    1  0.1285346E-004  0.9118800E+02  0.7818608E-02  0.1130116E+00
         25   -1    0    0    0    0  0.00000000000E+00  0.00000000000E+00  0.99999998245E-14  0.12500000000E+03  0.12500000000E+03 0.  0.
        -13    1    3    3    0    0 -0.29823214636E+02  0.38742690988E+02  0.97933290000E+01  0.49863219843E+02  0.10566000000E+00 0.  1.
         23    2    1    0    0    0 -0.18690582702E+02 -0.50927200099E+01  0.20970701220E+02  0.96451024738E+02  0.92129019231E+02 0.  0.
         13    1    3    3    0    0  0.11132631934E+02 -0.43835410998E+02  0.11177372220E+02  0.46587804895E+02  0.10566000000E+00 0. -1.
         22    1    1    0    0    0  0.18690582702E+02  0.50927200099E+01 -0.20970701220E+02  0.28548975262E+02  0.00000000000E+00 0.  1.
</event>
<event>
 5    1  0.1285346E-004  0.9118800E+02  0.7818608E-02  0.1130116E+00
         25   -1    0    0    0    0  0.00000000000E+00  0.00000000000E+00  0.99999998245E-14  0.12500000000E+03  0.12500000000E+03 0.  0.
        -13    1    3    3    0    0  0.38249824071E+02 -0.10089978281E+02  0.21919576861E+02  0.45225387969E+02  0.10566000000E+00 0. -1.
         23    2    1    0    0    0  0.18939636370E+02  0.17224671530E+02 -0.15226333904E+02  0.95213419477E+02  0.90434257166E+02 0.  0.
         13    1    3    3    0    0 -0.19310187701E+02  0.27314649811E+02 -0.37145910765E+02  0.49988031507E+02  0.10566000000E+00 0.  1.
         22    1    1    0    0    0 -0.18939636370E+02 -0.17224671530E+02  0.15226333904E+02  0.29786580523E+02  0.00000000000E+00 0. -1.
</event>
<event>
 5    1  0.1285346E-004  0.9118800E+02  0.7818608E-02  0.1130116E+00
         25   -1    0    0    0    0  0.00000000000E+00  0.00000000000E+00  0.99999998245E-14  0.12500000000E+03  0.12500000000E+03 0.  0.
        -13    1    3    3    0    0  0.30848675830E+02 -0.28120848585E+02  0.38462754578E+01  0.41919302529E+02  0.10566000000E+00 0. -1.
         23    2    1    0    0    0  0.81311652413E+01  0.23183069623E+02  0.10225023824E+02  0.98389444246E+02  0.94722547799E+02 0.  0.
         13    1    3    3    0    0 -0.22717510589E+02  0.51303918207E+02  0.63787483666E+01  0.56470141717E+02  0.10566000000E+00 0.  1.
         22    1    1    0    0    0 -0.81311652413E+01 -0.23183069623E+02 -0.10225023824E+02  0.26610555754E+02  0.00000000000E+00 0.  1.
</event>
<event>
 5    1  0.1285346E-004  0.9118800E+02  0.7818608E-02  0.1130116E+00
         25   -1    0    0    0    0  0.00000000000E+00  0.00000000000E+00  0.99999998245E-14  0.12500000000E+03  0.12500000000E+03 0.  0.
        -13    1    3    3    0    0 -0.37973479150E+02 -0.41133741229E+01  0.43250812640E+02  0.57702243661E+02  0.10566000000E+00 0.  1.
         23    2    1    0    0    0 -0.26249963957E+02 -0.50011957397E+01  0.48775464884E+01  0.97836365738E+02  0.93989847508E+02 0.  0.
         13    1    3    3    0    0  0.11723515193E+02 -0.88782161685E+00 -0.38373266152E+02  0.40134122077E+02  0.10566000000E+00 0. -1.
         22    1    1    0    0    0  0.26249963957E+02  0.50011957397E+01 -0.48775464884E+01  0.27163634262E+02  0.00000000000E+00 0.  1.
</event>
<event>
 5    1  0.1285346E-004  0.9118800E+02  0.7818608E-02  0.1130116E+00
         25   -1    0    0    0    0  0.00000000000E+00  0.00000000000E+00  0.99999998245E-14  0.12500000000E+03  0.12500000000E+03 0.  0.
        -13    1    3    3    0    0  0.58045144778E+02  0.14667074977E+02  0.14882490955E+02  0.61691665740E+02  0.10566000000E+00 0. -1.
         23    2    1    0    0    0  0.24783924759E+02  0.10434599218E+02  0.12612926127E+02  0.95297985038E+02  0.90551069897E+02 0.  0.
         13    1    3    3    0    0 -0.33261220019E+02 -0.42324757592E+01 -0.22695648276E+01  0.33606319298E+02  0.10566000000E+00 0.  1.
         22    1    1    0    0    0 -0.24783924759E+02 -0.10434599218E+02 -0.12612926127E+02  0.29702014962E+02  0.00000000000E+00 0. -1.
</event>
<event>
 5    1  0.1285346E-004  0.9118800E+02  0.7818608E-02  0.1130116E+00
         25   -1    0    0    0    0  0.00000000000E+00  0.00000000000E+00  0.99999998245E-14  0.12500000000E+03  0.12500000000E+03 0.  0.
        -13    1    3    3    0    0 -0.54112272314E+01 -0.16904023175E+02 -0.17383490009E+02  0.24843998644E+02  0.10566000000E+00 0. -1.
         23    2    1    0    0    0  0.26341279975E+01  0.14102191994E+02  0.35521393524E+02  0.86690995220E+02  0.77767273355E+02 0.  0.
         13    1    3    3    0    0  0.80453552289E+01  0.31006215169E+02  0.52904883533E+02  0.61846996577E+02  0.10566000000E+00 0.  1.
         22    1    1    0    0    0 -0.26341279975E+01 -0.14102191994E+02 -0.35521393524E+02  0.38309004780E+02  0.00000000000E+00 0.  1.
</event>
<event>
 5    1  0.1285346E-004  0.9118800E+02  0.7818608E-02  0.1130116E+00
         25   -1    0    0    0    0  0.00000000000E+00  0.00000000000E+00  0.99999998245E-14  0.12500000000E+03  0.12500000000E+03 0.  0.
        -13    1    3    3    0    0  0.11312431544E+02 -0.30363860260E+02 -0.34601111629E+02  0.47404464002E+02  0.10566000000E+00 0. -1.
         23    2    1    0    0    0 -0.19871350823E+02 -0.22195873096E+02  0.68799200517E+00  0.95200659419E+02  0.90416618245E+02 0.  0.
         13    1    3    3    0    0 -0.31183782367E+02  0.81679871637E+01  0.35289103634E+02  0.47796195417E+02  0.10566000000E+00 0.  1.
         22    1    1    0    0    0  0.19871350823E+02  0.22195873096E+02 -0.68799200517E+00  0.29799340581E+02  0.00000000000E+00 0.  1.
</event>
<event>
 5    1  0.1285346E-004  0.9118800E+02  0.7818608E-02  0.1130116E+00
         25   -1    0    0    0    0  0.00000000000E+00  0.00000000000E+00  0.99999998245E-14  0.12500000000E+03  0.12500000000E+03 0.  0.
        -13    1    3    3    0    0 -0.31569784943E+02 -0.63153575120E+01  0.29390828409E+02  0.43593199245E+02  0.10566000000E+00 0.  1.
         23    2    1    0    0    0 -0.71191910953E+01 -0.22041777816E+02 -0.15538622755E+02  0.97107856872E+02  0.93015935291E+02 0.  0.
         13    1    3    3    0    0  0.24450593847E+02 -0.15726420305E+02 -0.44929451163E+02  0.53514657627E+02  0.10566000000E+00 0. -1.
         22    1    1    0    0    0  0.71191910953E+01  0.22041777816E+02  0.15538622755E+02  0.27892143128E+02  0.00000000000E+00 0. -1.
</event>
<event>
 5    1  0.1285346E-004  0.9118800E+02  0.7818608E-02  0.1130116E+00
         25   -1    0    0    0    0  0.00000000000E+00  0.00000000000E+00  0.99999998245E-14  0.12500000000E+03  0.12500000000E+03 0.  0.
        -13    1    3    3    0    0  0.39008620975E+02 -0.36498755591E+01 -0.20968261265E+02  0.44437295670E+02  0.10566000000E+00 0.  1.
         23    2    1    0    0    0 -0.16620484006E+02 -0.43120632666E+01 -0.17961240977E+02  0.10015164883E+03  0.97020163928E+02 0.  0.
         13    1    3    3    0    0 -0.55629104981E+02 -0.66218770757E+00  0.30070202877E+01  0.55714353165E+02  0.10566000000E+00 0. -1.
         22    1    1    0    0    0  0.16620484006E+02  0.43120632666E+01  0.17961240977E+02  0.24848351166E+02  0.00000000000E+00 0. -1.
</event>
<event>
 5    1  0.1285346E-004  0.9118800E+02  0.7818608E-02  0.1130116E+00
         25   -1    0    0    0    0  0.00000000000E+00  0.00000000000E+00  0.99999998245E-14  0.12500000000E+03  0.12500000000E+03 0.  0.
        -13    1    3    3    0    0  0.54785085952E+02 -0.21359012979E+02  0.15538040754E+02  0.60819856566E+02  0.10566000000E+00 0.  1.
         23    2    1    0    0    0  0.30800451756E+02 -0.70108383396E+01 -0.11843708247E+01  0.93389520458E+02  0.87877073885E+02 0.  0.
         13    1    3    3    0    0 -0.23984634196E+02  0.14348174639E+02 -0.16722411578E+02  0.32569663892E+02  0.10566000000E+00 0. -1.
         22    1    1    0    0    0 -0.30800451756E+02  0.70108383396E+01  0.11843708247E+01  0.31610479542E+02  0.00000000000E+00 0.  1.
</event>
<event>
 5    1  0.1285346E-004  0.9118800E+02  0.7818608E-02  0.1130116E+00
         25   -1    0    0    0    0  0.00000000000E+00  0.00000000000E+00  0.99999998245E-14  0.12500000000E+03  0.12500000000E+03 0.  0.
        -13    1    3    3    0    0 -0.13369653236E+02  0.81409328062E+01 -0.35305654927E+02  0.38620238845E+02  0.10566000000E+00 0.  1.
         23    2    1    0    0    0 -0.76547557443E+01  0.29476916404E+02  0.13115329737E+02  0.91841354667E+02  0.85646591682E+02 0.  0.
         13    1    3    3    0    0  0.57148974921E+01  0.21335983598E+02  0.48420984664E+02  0.53221115822E+02  0.10566000000E+00 0. -1.
         22    1    1    0    0    0  0.76547557443E+01 -0.29476916404E+02 -0.13115329737E+02  0.33158645333E+02  0.00000000000E+00 0. -1.
</event>
<event>
 5    1  0.1285346E-004  0.9118800E+02  0.7818608E-02  0.1130116E+00
         25   -1    0    0    0    0  0.00000000000E+00  0.00000000000E+00  0.99999998245E-14  0.12500000000E+03  0.12500000000E+03 0.  0.
        -13    1    3    3    0    0 -0.12557224684E+02  0.21332407880E+02 -0.27735653226E+02  0.37175706336E+02  0.10566000000E+00 0.  1.
         23    2    1    0    0    0 -0.14516351419E+02 -0.24798571368E+02  0.75525345323E+01  0.95289153861E+02  0.90538878198E+02 0.  0.
         13    1    3    3    0    0 -0.19591267351E+01 -0.46130979248E+02  0.35288187758E+02  0.58113447525E+02  0.10566000000E+00 0. -1.
         22    1    1    0    0    0  0.14516351419E+02  0.24798571368E+02 -0.75525345323E+01  0.29710846139E+02  0.00000000000E+00 0. -1.
</event>
<event>
 5    1  0.1285346E-004  0.9118800E+02  0.7818608E-02  0.1130116E+00
         25   -1    0    0    0    0  0.00000000000E+00  0.00000000000E+00  0.99999998245E-14  0.12500000000E+03  0.12500000000E+03 0.  0.
        -13    1    3    3    0    0 -0.28365158567E+02 -0.22024331141E+02 -0.24121151930E+02  0.43260773424E+02  0.10566000000E+00 0.  1.
         23    2    1    0    0    0  0.14334996987E+02  0.93346302123E+01 -0.23108607398E+02  0.96248735754E+02  0.91854144918E+02 0.  0.
         13    1    3    3    0    0  0.42700155554E+02  0.31358961353E+02  0.10125445316E+01  0.52987962331E+02  0.10566000000E+00 0. -1.
         22    1    1    0    0    0 -0.14334996987E+02 -0.93346302123E+01  0.23108607398E+02  0.28751264246E+02  0.00000000000E+00 0.  1.
</event>
<event>
 5    1  0.1285346E-004  0.9118800E+02  0.7818608E-02  0.1130116E+00
         25   -1    0    0    0    0  0.00000000000E+00  0.00000000000E+00  0.99999998245E-14  0.12500000000E+03  0.12500000000E+03 0.  0.
        -13    1    3    3    0    0 -0.33108276813E+02  0.18889797060E+02 -0.63208729584E+00  0.38123393407E+02  0.10566000000E+00 0. -1.
         23    2    1    0    0    0  0.10444099733E+02 -0.14192910454E+01  0.28701864224E+02  0.94424018965E+02  0.89336469268E+02 0.  0.
         13    1    3    3    0    0  0.43552376546E+02 -0.20309088105E+02  0.29333951520E+02  0.56300625558E+02  0.10566000000E+00 0.  1.
         22    1    1    0    0    0 -0.10444099733E+02  0.14192910454E+01 -0.28701864224E+02  0.30575981035E+02  0.00000000000E+00 0.  1.
</event>
<event>
 5    1  0.1285346E-004  0.9118800E+02  0.7818608E-02  0.1130116E+00
         25   -1    0    0    0    0  0.00000000000E+00  0.00000000000E+00  0.99999998245E-14  0.12500000000E+03  0.12500000000E+03 0.  0.
        -13    1    3    3    0    0 -0.34818472830E+02  0.28179170262E+02 -0.25535276922E+02  0.51560190248E+02  0.10566000000E+00 0. -1.
         23    2    1    0    0    0  0.76604692269E+01  0.25042006725E+02 -0.11395463554E+02  0.96440562344E+02  0.92114822836E+02 0.  0.
         13    1    3    3    0    0  0.42478942057E+02 -0.31371635371E+01  0.14139813368E+02  0.44880372096E+02  0.10566000000E+00 0.  1.
         22    1    1    0    0    0 -0.76604692269E+01 -0.25042006725E+02  0.11395463554E+02  0.28559437656E+02  0.00000000000E+00 0. -1.
</event>
<event>
 5    1  0.1285346E-004  0.9118800E+02  0.7818608E-02  0.1130116E+00
         25   -1    0    0    0    0  0.00000000000E+00  0.00000000000E+00  0.99999998245E-14  0.12500000000E+03  0.12500000000E+03 0.  0.
        -13    1    3    3    0    0 -0.20175488530E+02  0.59474301727E+01 -0.30179342904E+02  0.36786222492E+02  0.10566000000E+00 0. -1.
         23    2    1    0    0    0  0.22118505269E+02 -0.18080837487E+02  0.38821487708E+01  0.96169182484E+02  0.91745820727E+02 0.  0.
         13    1    3    3    0    0  0.42293993799E+02 -0.24028267660E+02  0.34061491675E+02  0.59382959992E+02  0.10566000000E+00 0.  1.
         22    1    1    0    0    0 -0.22118505269E+02  0.18080837487E+02 -0.38821487708E+01  0.28830817516E+02  0.00000000000E+00 0.  1.
</event>
<event>
 5    1  0.1285346E-004  0.9118800E+02  0.7818608E-02  0.1130116E+00
         25   -1    0    0    0    0  0.00000000000E+00  0.00000000000E+00  0.99999998245E-14  0.12500000000E+03  0.12500000000E+03 0.  0.
        -13    1    3    3    0    0 -0.29893139970E+02 -0.40851450169E+02 -0.11531057388E+02  0.51917407935E+02  0.10566000000E+00 0. -1.
         23    2    1    0    0    0 -0.23941859456E+02  0.30640425548E+01 -0.15344716944E+02  0.96398228567E+02  0.92057357890E+02 0.  0.
         13    1    3    3    0    0  0.59512805133E+01  0.43915492723E+02 -0.38136595565E+01  0.44480820633E+02  0.10566000000E+00 0.  1.
         22    1    1    0    0    0  0.23941859456E+02 -0.30640425548E+01  0.15344716944E+02  0.28601771433E+02  0.00000000000E+00 0.  1.
</event>
<event>
 5    1  0.1285346E-004  0.9118800E+02  0.7818608E-02  0.1130116E+00
         25   -1    0    0    0    0  0.00000000000E+00  0.00000000000E+00  0.99999998245E-14  0.12500000000E+03  0.12500000000E+03 0.  0.
        -13    1    3    3    0    0 -0.63179354508E+01 -0.72260034662E+01 -0.43765759489E+02  0.44806074389E+02  0.10566000000E+00 0.  1.
         23    2    1    0    0    0 -0.16259597895E+02 -0.23682653411E+02  0.37166905672E+01  0.96033529986E+02  0.91560813105E+02 0.  0.
         13    1    3    3    0    0 -0.99416624446E+01 -0.16456649945E+02  0.47482450056E+02  0.51227455597E+02  0.10566000000E+00 0. -1.
         22    1    1    0    0    0  0.16259597895E+02  0.23682653411E+02 -0.37166905672E+01  0.28966470014E+02  0.00000000000E+00 0.  1.
</event>
<event>
 5    1  0.1285346E-004  0.9118800E+02  0.7818608E-02  0.1130116E+00
         25   -1    0    0    0    0  0.00000000000E+00  0.00000000000E+00  0.99999998245E-14  0.12500000000E+03  0.12500000000E+03 0.  0.
        -13    1    3    3    0    0 -0.26247267257E+02  0.46101235626E+01 -0.24701551724E+02  0.36336622013E+02  0.10566000000E+00 0.  1.
         23    2    1    0    0    0  0.26510496498E+02  0.11985101979E+02  0.18296975264E+01  0.95848724093E+02  0.91308165150E+02 0.  0.
         13    1    3    3    0    0  0.52757763755E+02  0.73749784161E+01  0.26531249250E+02  0.59512102079E+02  0.10566000000E+00 0. -1.
         22    1    1    0    0    0 -0.26510496498E+02 -0.11985101979E+02 -0.18296975264E+01  0.29151275907E+02  0.00000000000E+00 0. -1.
</event>
<event>
 5    1  0.1285346E-004  0.9118800E+02  0.7818608E-02  0.1130116E+00
         25   -1    0    0    0    0  0.00000000000E+00  0.00000000000E+00  0.99999998245E-14  0.12500000000E+03  0.12500000000E+03 0.  0.
        -13    1    3    3    0    0 -0.20539236300E+02 -0.46015329956E+02  0.79184371783E+01  0.51009642521E+02  0.10566000000E+00 0. -1.
         23    2    1    0    0    0 -0.90315509326E+00 -0.25742227161E+02 -0.21257502234E+02  0.91603003884E+02  0.85298012703E+02 0.  0.
         13    1    3    3    0    0  0.19636081207E+02  0.20273102795E+02 -0.29175939412E+02  0.40593361363E+02  0.10566000000E+00 0.  1.
         22    1    1    0    0    0  0.90315509326E+00  0.25742227161E+02  0.21257502234E+02  0.33396996116E+02  0.00000000000E+00 0. -1.
</event>
<event>
 5    1  0.1285346E-004  0.9118800E+02  0.7818608E-02  0.1130116E+00
         25   -1    0    0    0    0  0.00000000000E+00  0.00000000000E+00  0.99999998245E-14  0.12500000000E+03  0.12500000000E+03 0.  0.
        -13    1    3    3    0    0  0.90734305267E+01 -0.35198669826E+02  0.38643091295E+02  0.53052551003E+02  0.10566000000E+00 0.  1.
         23    2    1    0    0    0 -0.18982264856E+02 -0.81617507417E+01  0.19989402948E+02  0.96250795064E+02  0.91856947293E+02 0.  0.
         13    1    3    3    0    0 -0.28055695383E+02  0.27036919084E+02 -0.18653688347E+02  0.43198244061E+02  0.10566000000E+00 0. -1.
         22    1    1    0    0    0  0.18982264856E+02  0.81617507417E+01 -0.19989402948E+02  0.28749204936E+02  0.00000000000E+00 0. -1.
</event>
<event>
 5    1  0.1285346E-004  0.9118800E+02  0.7818608E-02  0.1130116E+00
         25   -1    0    0    0    0  0.00000000000E+00  0.00000000000E+00  0.99999998245E-14  0.12500000000E+03  0.12500000000E+03 0.  0.
        -13    1    3    3    0    0 -0.20742916869E+02 -0.67131045227E+01  0.36605225890E+02  0.42606197895E+02  0.10566000000E+00 0.  1.
         23    2    1    0    0    0  0.43924751621E+01  0.28711336415E+02  0.71503705689E+01  0.95087419435E+02  0.90259929419E+02 0.  0.
         13    1    3    3    0    0  0.25135392031E+02  0.35424440938E+02 -0.29454855321E+02  0.52481221540E+02  0.10566000000E+00 0. -1.
         22    1    1    0    0    0 -0.43924751621E+01 -0.28711336415E+02 -0.71503705689E+01  0.29912580565E+02  0.00000000000E+00 0. -1.
</event>
<event>
 5    1  0.1285346E-004  0.9118800E+02  0.7818608E-02  0.1130116E+00
         25   -1    0    0    0    0  0.00000000000E+00  0.00000000000E+00  0.99999998245E-14  0.12500000000E+03  0.12500000000E+03 0.  0.
        -13    1    3    3    0    0  0.38528483412E+01 -0.32472758191E+02  0.28126241892E+02  0.43132599178E+02  0.10566000000E+00 0.  1.
         23    2    1    0    0    0  0.30089460229E+02  0.23731821540E+01  0.40631865070E+00  0.94814362600E+02  0.89880980469E+02 0.  0.
         13    1    3    3    0    0  0.26236611888E+02  0.34845940345E+02 -0.27719923241E+02  0.51681763422E+02  0.10566000000E+00 0. -1.
         22    1    1    0    0    0 -0.30089460229E+02 -0.23731821540E+01 -0.40631865070E+00  0.30185637400E+02  0.00000000000E+00 0. -1.
</event>
<event>
 5    1  0.1285346E-004  0.9118800E+02  0.7818608E-02  0.1130116E+00
         25   -1    0    0    0    0  0.00000000000E+00  0.00000000000E+00  0.99999998245E-14  0.12500000000E+03  0.12500000000E+03 0.  0.
        -13    1    3    3    0    0 -0.14791081166E+02  0.27114981566E+02 -0.18843015630E+02  0.36181054565E+02  0.10566000000E+00 0. -1.
         23    2    1    0    0    0  0.11758141587E+02 -0.18120684058E+01  0.26374436449E+02  0.96066483389E+02  0.91605790468E+02 0.  0.
         13    1    3    3    0    0  0.26549222753E+02 -0.28927049972E+02  0.45217452079E+02  0.59885428824E+02  0.10566000000E+00 0.  1.
         22    1    1    0    0    0 -0.11758141587E+02  0.18120684058E+01 -0.26374436449E+02  0.28933516611E+02  0.00000000000E+00 0.  1.
</event>
<event>
 5    1  0.1285346E-004  0.9118800E+02  0.7818608E-02  0.1130116E+00
         25   -1    0    0    0    0  0.00000000000E+00  0.00000000000E+00  0.99999998245E-14  0.12500000000E+03  0.12500000000E+03 0.  0.
        -13    1    3    3    0    0  0.13591100038E+02 -0.20564667160E+02  0.23615858122E+02  0.34137127215E+02  0.10566000000E+00 0.  1.
         23    2    1    0    0    0 -0.19085523888E+02  0.91602134405E+01 -0.19755804117E+02  0.96043851626E+02  0.91574903257E+02 0.  0.
         13    1    3    3    0    0 -0.32676623926E+02  0.29724880601E+02 -0.43371662238E+02  0.61906724411E+02  0.10566000000E+00 0. -1.
         22    1    1    0    0    0  0.19085523888E+02 -0.91602134405E+01  0.19755804117E+02  0.28956148374E+02  0.00000000000E+00 0. -1.
</event>
<event>
 5    1  0.1285346E-004  0.9118800E+02  0.7818608E-02  0.1130116E+00
         25   -1    0    0    0    0  0.00000000000E+00  0.00000000000E+00  0.99999998245E-14  0.12500000000E+03  0.12500000000E+03 0.  0.
        -13    1    3    3    0    0  0.33347667078E+02 -0.16061008919E+02 -0.10697884991E+02  0.38528934768E+02  0.10566000000E+00 0.  1.
         23    2    1    0    0    0 -0.22818102751E+02 -0.18281704837E+02  0.73655361119E-01  0.95761464298E+02  0.91188629086E+02 0.  0.
         13    1    3    3    0    0 -0.56165769829E+02 -0.22206959180E+01  0.10771540352E+02  0.57232529530E+02  0.10566000000E+00 0. -1.
         22    1    1    0    0    0  0.22818102751E+02  0.18281704837E+02 -0.73655361119E-01  0.29238535702E+02  0.00000000000E+00 0. -1.
</event>
<event>
 5    1  0.1285346E-004  0.9118800E+02  0.7818608E-02  0.1130116E+00
         25   -1    0    0    0    0  0.00000000000E+00  0.00000000000E+00  0.99999998245E-14  0.12500000000E+03  0.12500000000E+03 0.  0.
        -13    1    3    3    0    0  0.35549895687E+02 -0.32397428949E+02 -0.37914194941E+02  0.61244475897E+02  0.10566000000E+00 0.  1.
         23    2    1    0    0    0  0.18866667175E+02 -0.74210676210E+01 -0.21402043017E+02  0.95519992873E+02  0.90857020743E+02 0.  0.
         13    1    3    3    0    0 -0.16683228512E+02  0.24976361328E+02  0.16512151925E+02  0.34275516976E+02  0.10566000000E+00 0. -1.
         22    1    1    0    0    0 -0.18866667175E+02  0.74210676210E+01  0.21402043017E+02  0.29480007127E+02  0.00000000000E+00 0.  1.
</event>
<event>
 5    1  0.1285346E-004  0.9118800E+02  0.7818608E-02  0.1130116E+00
         25   -1    0    0    0    0  0.00000000000E+00  0.00000000000E+00  0.99999998245E-14  0.12500000000E+03  0.12500000000E+03 0.  0.
        -13    1    3    3    0    0  0.18058545239E+02  0.44770187437E+02  0.73087523098E+01  0.48825298398E+02  0.10566000000E+00 0. -1.
         23    2    1    0    0    0  0.15633600688E+02  0.60898660889E+01  0.27697227904E+02  0.92617406326E+02  0.86771836339E+02 0.  0.
         13    1    3    3    0    0 -0.24249445510E+01 -0.38680321348E+02  0.20388475595E+02  0.43792107928E+02  0.10566000000E+00 0.  1.
         22    1    1    0    0    0 -0.15633600688E+02 -0.60898660889E+01 -0.27697227904E+02  0.32382593674E+02  0.00000000000E+00 0. -1.
</event>
<event>
 5    1  0.1285346E-004  0.9118800E+02  0.7818608E-02  0.1130116E+00
         25   -1    0    0    0    0  0.00000000000E+00  0.00000000000E+00  0.99999998245E-14  0.12500000000E+03  0.12500000000E+03 0.  0.
        -13    1    3    3    0    0 -0.26891928591E+02  0.80510053973E+01 -0.17908647941E+02  0.33297527631E+02  0.10566000000E+00 0.  1.
         23    2    1    0    0    0  0.22153864568E+02 -0.11374878424E+02  0.15431610527E+02  0.95702966398E+02  0.91108405756E+02 0.  0.
         13    1    3    3    0    0  0.49045793158E+02 -0.19425883821E+02  0.33340258469E+02  0.62405438766E+02  0.10566000000E+00 0. -1.
         22    1    1    0    0    0 -0.22153864568E+02  0.11374878424E+02 -0.15431610527E+02  0.29297033602E+02  0.00000000000E+00 0. -1.
</event>
<event>
 5    1  0.1285346E-004  0.9118800E+02  0.7818608E-02  0.1130116E+00
         25   -1    0    0    0    0  0.00000000000E+00  0.00000000000E+00  0.99999998245E-14  0.12500000000E+03  0.12500000000E+03 0.  0.
        -13    1    3    3    0    0 -0.28433358129E+02 -0.11370054632E+02  0.12786424038E+02  0.33184903202E+02  0.10566000000E+00 0.  1.
         23    2    1    0    0    0  0.12786977293E+02  0.20259127755E+02 -0.19286890279E+02  0.94244135806E+02  0.89084420363E+02 0.  0.
         13    1    3    3    0    0  0.41220335422E+02  0.31629182387E+02 -0.32073314318E+02  0.61059232604E+02  0.10566000000E+00 0. -1.
         22    1    1    0    0    0 -0.12786977293E+02 -0.20259127755E+02  0.19286890279E+02  0.30755864194E+02  0.00000000000E+00 0. -1.
</event>
<event>
 5    1  0.1285346E-004  0.9118800E+02  0.7818608E-02  0.1130116E+00
         25   -1    0    0    0    0  0.00000000000E+00  0.00000000000E+00  0.99999998245E-14  0.12500000000E+03  0.12500000000E+03 0.  0.
        -13    1    3    3    0    0  0.30569696900E+01 -0.15003856491E+02 -0.31905394676E+02  0.35389633323E+02  0.10566000000E+00 0. -1.
         23    2    1    0    0    0 -0.20846629780E+02  0.13314511610E+02  0.15687708005E+02  0.95709005222E+02  0.91116690598E+02 0.  0.
         13    1    3    3    0    0 -0.23903599470E+02  0.28318368101E+02  0.47593102681E+02  0.60319371900E+02  0.10566000000E+00 0.  1.
         22    1    1    0    0    0  0.20846629780E+02 -0.13314511610E+02 -0.15687708005E+02  0.29290994778E+02  0.00000000000E+00 0.  1.
</event>
<event>
 5    1  0.1285346E-004  0.9118800E+02  0.7818608E-02  0.1130116E+00
         25   -1    0    0    0    0  0.00000000000E+00  0.00000000000E+00  0.99999998245E-14  0.12500000000E+03  0.12500000000E+03 0.  0.
        -13    1    3    3    0    0 -0.16940161705E+02 -0.24939183681E+02  0.38453614458E+02  0.48863315382E+02  0.10566000000E+00 0.  1.
         23    2    1    0    0    0 -0.19248889420E+02  0.14288708273E+02  0.24911781968E+02  0.90427123220E+02  0.83557051199E+02 0.  0.
         13    1    3    3    0    0 -0.23087277154E+01  0.39227891954E+02 -0.13541832490E+02  0.41563807838E+02  0.10566000000E+00 0. -1.
         22    1    1    0    0    0  0.19248889420E+02 -0.14288708273E+02 -0.24911781968E+02  0.34572876780E+02  0.00000000000E+00 0.  1.
</event>
<event>
 5    1  0.1285346E-004  0.9118800E+02  0.7818608E-02  0.1130116E+00
         25   -1    0    0    0    0  0.00000000000E+00  0.00000000000E+00  0.99999998245E-14  0.12500000000E+03  0.12500000000E+03 0.  0.
        -13    1    3    3    0    0  0.30458998885E+02 -0.30181068295E+02 -0.41828474064E+02  0.59902252904E+02  0.10566000000E+00 0. -1.
         23    2    1    0    0    0  0.30576878682E+01 -0.20443870478E+02 -0.19706931469E+02  0.96440160309E+02  0.92114277272E+02 0.  0.
         13    1    3    3    0    0 -0.27401311016E+02  0.97371978169E+01  0.22121542594E+02  0.36537907405E+02  0.10566000000E+00 0.  1.
         22    1    1    0    0    0 -0.30576878682E+01  0.20443870478E+02  0.19706931469E+02  0.28559839691E+02  0.00000000000E+00 0. -1.
</event>
<event>
 5    1  0.1285346E-004  0.9118800E+02  0.7818608E-02  0.1130116E+00
         25   -1    0    0    0    0  0.00000000000E+00  0.00000000000E+00  0.99999998245E-14  0.12500000000E+03  0.12500000000E+03 0.  0.
        -13    1    3    3    0    0  0.58451129437E+02 -0.77313101263E+01  0.13474027043E+02  0.60480312975E+02  0.10566000000E+00 0.  1.
         23    2    1    0    0    0  0.24616713497E+02 -0.13637737823E+02  0.16318877432E+01  0.96810754995E+02  0.92615812628E+02 0.  0.
         13    1    3    3    0    0 -0.33834415940E+02 -0.59064276967E+01 -0.11842139299E+02  0.36330442020E+02  0.10566000000E+00 0. -1.
         22    1    1    0    0    0 -0.24616713497E+02  0.13637737823E+02 -0.16318877432E+01  0.28189245005E+02  0.00000000000E+00 0.  1.
</event>
<event>
 5    1  0.1285346E-004  0.9118800E+02  0.7818608E-02  0.1130116E+00
         25   -1    0    0    0    0  0.00000000000E+00  0.00000000000E+00  0.99999998245E-14  0.12500000000E+03  0.12500000000E+03 0.  0.
        -13    1    3    3    0    0  0.25833120321E+02 -0.34984323037E+02  0.32566316202E+01  0.43610431980E+02  0.10566000000E+00 0.  1.
         23    2    1    0    0    0 -0.10550692299E+02 -0.10239499599E+02 -0.25066950013E+02  0.95939434916E+02  0.91432263064E+02 0.  0.
         13    1    3    3    0    0 -0.36383812620E+02  0.24744823438E+02 -0.28323581633E+02  0.52329002937E+02  0.10566000000E+00 0. -1.
         22    1    1    0    0    0  0.10550692299E+02  0.10239499599E+02  0.25066950013E+02  0.29060565084E+02  0.00000000000E+00 0. -1.
</event>
<event>
 5    1  0.1285346E-004  0.9118800E+02  0.7818608E-02  0.1130116E+00
         25   -1    0    0    0    0  0.00000000000E+00  0.00000000000E+00  0.99999998245E-14  0.12500000000E+03  0.12500000000E+03 0.  0.
        -13    1    3    3    0    0  0.14269871711E+02 -0.39840787558E+02  0.25336644218E+02  0.49324175575E+02  0.10566000000E+00 0.  1.
         23    2    1    0    0    0  0.13762749736E+02  0.10341478560E+02  0.18086981700E+02  0.10003005074E+03  0.96863371223E+02 0.  0.
         13    1    3    3    0    0 -0.50712197536E+00  0.50182266118E+02 -0.72496625184E+01  0.50705875164E+02  0.10566000000E+00 0. -1.
         22    1    1    0    0    0 -0.13762749736E+02 -0.10341478560E+02 -0.18086981700E+02  0.24969949261E+02  0.00000000000E+00 0.  1.
</event>
<event>
 5    1  0.1285346E-004  0.9118800E+02  0.7818608E-02  0.1130116E+00
         25   -1    0    0    0    0  0.00000000000E+00  0.00000000000E+00  0.99999998245E-14  0.12500000000E+03  0.12500000000E+03 0.  0.
        -13    1    3    3    0    0  0.30024650655E+02  0.47677712443E+02  0.14000094155E+02  0.58057365692E+02  0.10566000000E+00 0.  1.
         23    2    1    0    0    0  0.34617713915E+00  0.29967774949E+02  0.90349548405E+00  0.95016609964E+02  0.90161812820E+02 0.  0.
         13    1    3    3    0    0 -0.29678473516E+02 -0.17709937494E+02 -0.13096598671E+02  0.36959244271E+02  0.10566000000E+00 0. -1.
         22    1    1    0    0    0 -0.34617713915E+00 -0.29967774949E+02 -0.90349548405E+00  0.29983390036E+02  0.00000000000E+00 0.  1.
</event>
<event>
 5    1  0.1285346E-004  0.9118800E+02  0.7818608E-02  0.1130116E+00
         25   -1    0    0    0    0  0.00000000000E+00  0.00000000000E+00  0.99999998245E-14  0.12500000000E+03  0.12500000000E+03 0.  0.
        -13    1    3    3    0    0  0.10063364211E+01 -0.27840986655E+02 -0.26245867059E+02  0.38275187166E+02  0.10566000000E+00 0.  1.
         23    2    1    0    0    0  0.22194093289E+02  0.20189546219E+02 -0.69765330375E+01  0.94196305958E+02  0.89017281970E+02 0.  0.
         13    1    3    3    0    0  0.21187756868E+02  0.48030532874E+02  0.19269334022E+02  0.55921118791E+02  0.10566000000E+00 0. -1.
         22    1    1    0    0    0 -0.22194093289E+02 -0.20189546219E+02  0.69765330375E+01  0.30803694042E+02  0.00000000000E+00 0. -1.
</event>
<event>
 5    1  0.1285346E-004  0.9118800E+02  0.7818608E-02  0.1130116E+00
         25   -1    0    0    0    0  0.00000000000E+00  0.00000000000E+00  0.99999998245E-14  0.12500000000E+03  0.12500000000E+03 0.  0.
        -13    1    3    3    0    0  0.88472729179E+01  0.39438719434E+02 -0.20047217438E+02  0.45117501258E+02  0.10566000000E+00 0.  1.
         23    2    1    0    0    0 -0.28532869862E+02  0.12320002668E+02 -0.96826375343E+01  0.92447571551E+02  0.86526833339E+02 0.  0.
         13    1    3    3    0    0 -0.37380142780E+02 -0.27118716766E+02  0.10364579904E+02  0.47330070293E+02  0.10566000000E+00 0. -1.
         22    1    1    0    0    0  0.28532869862E+02 -0.12320002668E+02  0.96826375343E+01  0.32552428449E+02  0.00000000000E+00 0. -1.
</event>
<event>
 5    1  0.1285346E-004  0.9118800E+02  0.7818608E-02  0.1130116E+00
         25   -1    0    0    0    0  0.00000000000E+00  0.00000000000E+00  0.99999998245E-14  0.12500000000E+03  0.12500000000E+03 0.  0.
        -13    1    3    3    0    0 -0.18920892556E+02  0.18311737969E+02 -0.50179607038E+02  0.56668545500E+02  0.10566000000E+00 0.  1.
         23    2    1    0    0    0 -0.24758482520E+02  0.73103279309E+01 -0.12569236329E+02  0.96287475676E+02  0.91906849141E+02 0.  0.
         13    1    3    3    0    0 -0.58375899644E+01 -0.11001410038E+02  0.37610370709E+02  0.39618930177E+02  0.10566000000E+00 0. -1.
         22    1    1    0    0    0  0.24758482520E+02 -0.73103279309E+01  0.12569236329E+02  0.28712524324E+02  0.00000000000E+00 0.  1.
</event>
<event>
 5    1  0.1285346E-004  0.9118800E+02  0.7818608E-02  0.1130116E+00
         25   -1    0    0    0    0  0.00000000000E+00  0.00000000000E+00  0.99999998245E-14  0.12500000000E+03  0.12500000000E+03 0.  0.
        -13    1    3    3    0    0  0.38534422514E+02  0.45908626510E+01  0.14275832772E+01  0.38833321986E+02  0.10566000000E+00 0.  1.
         23    2    1    0    0    0 -0.99279185179E+01 -0.20312708389E+02  0.18343557763E+02  0.95885470988E+02  0.91358457446E+02 0.  0.
         13    1    3    3    0    0 -0.48462341032E+02 -0.24903571040E+02  0.16915974486E+02  0.57052149002E+02  0.10566000000E+00 0. -1.
         22    1    1    0    0    0  0.99279185179E+01  0.20312708389E+02 -0.18343557763E+02  0.29114529012E+02  0.00000000000E+00 0.  1.
</event>
<event>
 5    1  0.1285346E-004  0.9118800E+02  0.7818608E-02  0.1130116E+00
         25   -1    0    0    0    0  0.00000000000E+00  0.00000000000E+00  0.99999998245E-14  0.12500000000E+03  0.12500000000E+03 0.  0.
        -13    1    3    3    0    0  0.30423225289E+02  0.33851437106E+02 -0.14838949716E+02  0.47871682901E+02  0.10566000000E+00 0. -1.
         23    2    1    0    0    0 -0.97079467735E+00  0.19447745362E+02  0.20108976865E+02  0.97008426402E+02  0.92882218968E+02 0.  0.
         13    1    3    3    0    0 -0.31394019966E+02 -0.14403691744E+02  0.34947926581E+02  0.49136743500E+02  0.10566000000E+00 0.  1.
         22    1    1    0    0    0  0.97079467735E+00 -0.19447745362E+02 -0.20108976865E+02  0.27991573598E+02  0.00000000000E+00 0.  1.
</event>
<event>
 5    1  0.1285346E-004  0.9118800E+02  0.7818608E-02  0.1130116E+00
         25   -1    0    0    0    0  0.00000000000E+00  0.00000000000E+00  0.99999998245E-14  0.12500000000E+03  0.12500000000E+03 0.  0.
        -13    1    3    3    0    0  0.47692384512E+02  0.16443593916E+02 -0.20609595122E+02  0.54495154797E+02  0.10566000000E+00 0. -1.
         23    2    1    0    0    0  0.15845992943E+02  0.29109249302E+02 -0.10733094404E+02  0.90162617740E+02  0.83160413870E+02 0.  0.
         13    1    3    3    0    0 -0.31846391569E+02  0.12665655386E+02  0.98765007175E+01  0.35667462943E+02  0.10566000000E+00 0.  1.
         22    1    1    0    0    0 -0.15845992943E+02 -0.29109249302E+02  0.10733094404E+02  0.34837382260E+02  0.00000000000E+00 0.  1.
</event>
<event>
 5    1  0.1285346E-004  0.9118800E+02  0.7818608E-02  0.1130116E+00
         25   -1    0    0    0    0  0.00000000000E+00  0.00000000000E+00  0.99999998245E-14  0.12500000000E+03  0.12500000000E+03 0.  0.
        -13    1    3    3    0    0 -0.18290958321E+02  0.24256322830E+02  0.19826747247E+02  0.36277257669E+02  0.10566000000E+00 0.  1.
         23    2    1    0    0    0  0.26119516234E+02 -0.90177645418E+01 -0.47384261270E+01  0.96964274794E+02  0.92822781140E+02 0.  0.
         13    1    3    3    0    0  0.44410474555E+02 -0.33274087372E+02 -0.24565173374E+02  0.60687017126E+02  0.10566000000E+00 0. -1.
         22    1    1    0    0    0 -0.26119516234E+02  0.90177645418E+01  0.47384261270E+01  0.28035725206E+02  0.00000000000E+00 0. -1.
</event>
<event>
 5    1  0.1285346E-004  0.9118800E+02  0.7818608E-02  0.1130116E+00
         25   -1    0    0    0    0  0.00000000000E+00  0.00000000000E+00  0.99999998245E-14  0.12500000000E+03  0.12500000000E+03 0.  0.
        -13    1    3    3    0    0 -0.16688061444E+02 -0.30266265141E+02 -0.33273602377E+02  0.47975847877E+02  0.10566000000E+00 0.  1.
         23    2    1    0    0    0  0.22393839613E+02 -0.10994653823E+02 -0.18331664223E+02  0.94041699361E+02  0.88799914640E+02 0.  0.
         13    1    3    3    0    0  0.39081901057E+02  0.19271611318E+02  0.14941938155E+02  0.46065851483E+02  0.10566000000E+00 0. -1.
         22    1    1    0    0    0 -0.22393839613E+02  0.10994653823E+02  0.18331664223E+02  0.30958300639E+02  0.00000000000E+00 0.  1.
</event>
<event>
 5    1  0.1285346E-004  0.9118800E+02  0.7818608E-02  0.1130116E+00
         25   -1    0    0    0    0  0.00000000000E+00  0.00000000000E+00  0.99999998245E-14  0.12500000000E+03  0.12500000000E+03 0.  0.
        -13    1    3    3    0    0  0.22631782693E+02 -0.63688415973E+01  0.35754200131E+02  0.42791748296E+02  0.10566000000E+00 0. -1.
         23    2    1    0    0    0 -0.24994055115E+02  0.79870098975E+00  0.18272666902E+02  0.94028544269E+02  0.88781394827E+02 0.  0.
         13    1    3    3    0    0 -0.47625837807E+02  0.71675425870E+01 -0.17481533229E+02  0.51236795974E+02  0.10566000000E+00 0.  1.
         22    1    1    0    0    0  0.24994055115E+02 -0.79870098975E+00 -0.18272666902E+02  0.30971455731E+02  0.00000000000E+00 0. -1.
</event>
<event>
 5    1  0.1285346E-004  0.9118800E+02  0.7818608E-02  0.1130116E+00
         25   -1    0    0    0    0  0.00000000000E+00  0.00000000000E+00  0.99999998245E-14  0.12500000000E+03  0.12500000000E+03 0.  0.
        -13    1    3    3    0    0  0.43786697839E+02  0.25537137309E+01 -0.38686018538E+01  0.44031506967E+02  0.10566000000E+00 0.  1.
         23    2    1    0    0    0  0.24813591086E+01  0.18392490207E+02 -0.25649004641E+02  0.93340684181E+02  0.87807579657E+02 0.  0.
         13    1    3    3    0    0 -0.41305338730E+02  0.15838776476E+02 -0.21780402787E+02  0.49309177214E+02  0.10566000000E+00 0. -1.
         22    1    1    0    0    0 -0.24813591086E+01 -0.18392490207E+02  0.25649004641E+02  0.31659315819E+02  0.00000000000E+00 0. -1.
</event>
<event>
 5    1  0.1285346E-004  0.9118800E+02  0.7818608E-02  0.1130116E+00
         25   -1    0    0    0    0  0.00000000000E+00  0.00000000000E+00  0.99999998245E-14  0.12500000000E+03  0.12500000000E+03 0.  0.
        -13    1    3    3    0    0  0.28930285090E+02 -0.19002460311E+02 -0.26493845321E+01  0.34714338474E+02  0.10566000000E+00 0.  1.
         23    2    1    0    0    0 -0.26804586705E+02 -0.41218320716E+01  0.13620606209E+02  0.94652079453E+02  0.89655004674E+02 0.  0.
         13    1    3    3    0    0 -0.55734871795E+02  0.14880628239E+02  0.16269990742E+02  0.59937740978E+02  0.10566000000E+00 0. -1.
         22    1    1    0    0    0  0.26804586705E+02  0.41218320716E+01 -0.13620606209E+02  0.30347920547E+02  0.00000000000E+00 0. -1.
</event>
<event>
 5    1  0.1285346E-004  0.9118800E+02  0.7818608E-02  0.1130116E+00
         25   -1    0    0    0    0  0.00000000000E+00  0.00000000000E+00  0.99999998245E-14  0.12500000000E+03  0.12500000000E+03 0.  0.
        -13    1    3    3    0    0  0.17765511797E+02 -0.91279150162E+01  0.54045784739E+02  0.57618488822E+02  0.10566000000E+00 0.  1.
         23    2    1    0    0    0  0.44122654104E+01  0.13050950844E+02  0.24419891714E+02  0.96962052227E+02  0.92819788067E+02 0.  0.
         13    1    3    3    0    0 -0.13353246386E+02  0.22178865860E+02 -0.29625893025E+02  0.39343563405E+02  0.10566000000E+00 0. -1.
         22    1    1    0    0    0 -0.44122654104E+01 -0.13050950844E+02 -0.24419891714E+02  0.28037947773E+02  0.00000000000E+00 0.  1.
</event>
<event>
 5    1  0.1285346E-004  0.9118800E+02  0.7818608E-02  0.1130116E+00
         25   -1    0    0    0    0  0.00000000000E+00  0.00000000000E+00  0.99999998245E-14  0.12500000000E+03  0.12500000000E+03 0.  0.
        -13    1    3    3    0    0  0.24932991396E+02 -0.98836969234E+01  0.38022821965E+02  0.46530502674E+02  0.10566000000E+00 0. -1.
         23    2    1    0    0    0 -0.87402625459E+01  0.20804173936E+02  0.17220467136E+02  0.96614258317E+02  0.92350227825E+02 0.  0.
         13    1    3    3    0    0 -0.33673253941E+02  0.30687870859E+02 -0.20802354830E+02  0.50083755644E+02  0.10566000000E+00 0.  1.
         22    1    1    0    0    0  0.87402625459E+01 -0.20804173936E+02 -0.17220467136E+02  0.28385741683E+02  0.00000000000E+00 0. -1.
</event>
<event>
 5    1  0.1285346E-004  0.9118800E+02  0.7818608E-02  0.1130116E+00
         25   -1    0    0    0    0  0.00000000000E+00  0.00000000000E+00  0.99999998245E-14  0.12500000000E+03  0.12500000000E+03 0.  0.
        -13    1    3    3    0    0 -0.89401552592E+01 -0.28758065784E+02  0.20024987930E+02  0.36165785341E+02  0.10566000000E+00 0.  1.
         23    2    1    0    0    0  0.19912756714E+02  0.10263325013E+02 -0.16727286401E+02  0.97041891505E+02  0.92927245070E+02 0.  0.
         13    1    3    3    0    0  0.28852911973E+02  0.39021390797E+02 -0.36752274332E+02  0.60876106164E+02  0.10566000000E+00 0. -1.
         22    1    1    0    0    0 -0.19912756714E+02 -0.10263325013E+02  0.16727286401E+02  0.27958108495E+02  0.00000000000E+00 0. -1.
</event>
<event>
 5    1  0.1285346E-004  0.9118800E+02  0.7818608E-02  0.1130116E+00
         25   -1    0    0    0    0  0.00000000000E+00  0.00000000000E+00  0.99999998245E-14  0.12500000000E+03  0.12500000000E+03 0.  0.
        -13    1    3    3    0    0 -0.10369956089E+02 -0.33516480688E+02 -0.22633556014E+00  0.35084937777E+02  0.10566000000E+00 0.  1.
         23    2    1    0    0    0 -0.29714276913E+02  0.16946707791E+02 -0.84848998424E+01  0.89756239094E+02  0.82547318391E+02 0.  0.
         13    1    3    3    0    0 -0.19344320825E+02  0.50463188479E+02 -0.82585642822E+01  0.54671301317E+02  0.10566000000E+00 0. -1.
         22    1    1    0    0    0  0.29714276913E+02 -0.16946707791E+02  0.84848998424E+01  0.35243760906E+02  0.00000000000E+00 0. -1.
</event>
<event>
 5    1  0.1285346E-004  0.9118800E+02  0.7818608E-02  0.1130116E+00
         25   -1    0    0    0    0  0.00000000000E+00  0.00000000000E+00  0.99999998245E-14  0.12500000000E+03  0.12500000000E+03 0.  0.
        -13    1    3    3    0    0  0.37533702559E+02 -0.14227324975E+02 -0.85659255582E+01  0.41043657834E+02  0.10566000000E+00 0.  1.
         23    2    1    0    0    0  0.41523217145E+01  0.24811931197E+01  0.29938717846E+02  0.94673033103E+02  0.89684214195E+02 0.  0.
         13    1    3    3    0    0 -0.33381380844E+02  0.16708518095E+02  0.38504643404E+02  0.53629375269E+02  0.10566000000E+00 0. -1.
         22    1    1    0    0    0 -0.41523217145E+01 -0.24811931197E+01 -0.29938717846E+02  0.30326966897E+02  0.00000000000E+00 0.  1.
</event>
<event>
 5    1  0.1285346E-004  0.9118800E+02  0.7818608E-02  0.1130116E+00
         25   -1    0    0    0    0  0.00000000000E+00  0.00000000000E+00  0.99999998245E-14  0.12500000000E+03  0.12500000000E+03 0.  0.
        -13    1    3    3    0    0 -0.10254009111E+02  0.35426908153E+02 -0.68651573958E+01  0.37514691445E+02  0.10566000000E+00 0. -1.
         23    2    1    0    0    0 -0.19242608589E+02 -0.20719685316E+02  0.66309087838E+01  0.95956028230E+02  0.91454945505E+02 0.  0.
         13    1    3    3    0    0 -0.89885994775E+01 -0.56146593469E+02  0.13496066180E+02  0.58441336784E+02  0.10566000000E+00 0.  1.
         22    1    1    0    0    0  0.19242608589E+02  0.20719685316E+02 -0.66309087838E+01  0.29043971770E+02  0.00000000000E+00 0.  1.
</event>
<event>
 5    1  0.1285346E-004  0.9118800E+02  0.7818608E-02  0.1130116E+00
         25   -1    0    0    0    0  0.00000000000E+00  0.00000000000E+00  0.99999998245E-14  0.12500000000E+03  0.12500000000E+03 0.  0.
        -13    1    3    3    0    0 -0.25524649340E+02  0.26806568115E+02  0.27393172282E+02  0.46048853078E+02  0.10566000000E+00 0.  1.
         23    2    1    0    0    0 -0.23799500698E+01  0.24170579869E+02 -0.16429069614E+02  0.95677731638E+02  0.91073777288E+02 0.  0.
         13    1    3    3    0    0  0.23144699271E+02 -0.26359882467E+01 -0.43822241895E+02  0.49628878560E+02  0.10566000000E+00 0. -1.
         22    1    1    0    0    0  0.23799500698E+01 -0.24170579869E+02  0.16429069614E+02  0.29322268362E+02  0.00000000000E+00 0. -1.
</event>
<event>
 5    1  0.1285346E-004  0.9118800E+02  0.7818608E-02  0.1130116E+00
         25   -1    0    0    0    0  0.00000000000E+00  0.00000000000E+00  0.99999998245E-14  0.12500000000E+03  0.12500000000E+03 0.  0.
        -13    1    3    3    0    0  0.10350032670E+02  0.45905808231E+02  0.23999303824E+00  0.47058847907E+02  0.10566000000E+00 0.  1.
         23    2    1    0    0    0  0.46076726887E+01 -0.27021740129E+01  0.23250348928E+02  0.10114395009E+03  0.98290322630E+02 0.  0.
         13    1    3    3    0    0 -0.57423599813E+01 -0.48607982244E+02  0.23010355890E+02  0.54085102184E+02  0.10566000000E+00 0. -1.
         22    1    1    0    0    0 -0.46076726887E+01  0.27021740129E+01 -0.23250348928E+02  0.23856049909E+02  0.00000000000E+00 0. -1.
</event>
<event>
 5    1  0.1285346E-004  0.9118800E+02  0.7818608E-02  0.1130116E+00
         25   -1    0    0    0    0  0.00000000000E+00  0.00000000000E+00  0.99999998245E-14  0.12500000000E+03  0.12500000000E+03 0.  0.
        -13    1    3    3    0    0 -0.16782290970E+02  0.43193493696E+02 -0.37769529656E+02  0.59781867839E+02  0.10566000000E+00 0. -1.
         23    2    1    0    0    0 -0.15502942219E+02  0.10854075556E+02 -0.22592044687E+02  0.95528782571E+02  0.90869112699E+02 0.  0.
         13    1    3    3    0    0  0.12793487515E+01 -0.32339418140E+02  0.15177484969E+02  0.35746914732E+02  0.10566000000E+00 0.  1.
         22    1    1    0    0    0  0.15502942219E+02 -0.10854075556E+02  0.22592044687E+02  0.29471217429E+02  0.00000000000E+00 0. -1.
</event>
<event>
 5    1  0.1285346E-004  0.9118800E+02  0.7818608E-02  0.1130116E+00
         25   -1    0    0    0    0  0.00000000000E+00  0.00000000000E+00  0.99999998245E-14  0.12500000000E+03  0.12500000000E+03 0.  0.
        -13    1    3    3    0    0  0.52585375736E+02  0.45783169068E+01  0.31367151405E+02  0.61401075547E+02  0.10566000000E+00 0. -1.
         23    2    1    0    0    0  0.30256454930E+02  0.67608533838E+01  0.98934768322E+01  0.92457057797E+02  0.86540536450E+02 0.  0.
         13    1    3    3    0    0 -0.22328920805E+02  0.21825364770E+01 -0.21473674573E+02  0.31055982250E+02  0.10566000000E+00 0.  1.
         22    1    1    0    0    0 -0.30256454930E+02 -0.67608533838E+01 -0.98934768322E+01  0.32542942203E+02  0.00000000000E+00 0. -1.
</event>
<event>
 5    1  0.1285346E-004  0.9118800E+02  0.7818608E-02  0.1130116E+00
         25   -1    0    0    0    0  0.00000000000E+00  0.00000000000E+00  0.99999998245E-14  0.12500000000E+03  0.12500000000E+03 0.  0.
        -13    1    3    3    0    0  0.54961661004E+02 -0.10263991845E+02 -0.11188715451E+02  0.57020454456E+02  0.10566000000E+00 0.  1.
         23    2    1    0    0    0  0.17461479858E+02 -0.18463348108E+02 -0.14826209403E+02  0.95578664418E+02  0.90937704526E+02 0.  0.
         13    1    3    3    0    0 -0.37500181146E+02 -0.81993562623E+01 -0.36374939525E+01  0.38558209961E+02  0.10566000000E+00 0. -1.
         22    1    1    0    0    0 -0.17461479858E+02  0.18463348108E+02  0.14826209403E+02  0.29421335582E+02  0.00000000000E+00 0.  1.
</event>
<event>
 5    1  0.1285346E-004  0.9118800E+02  0.7818608E-02  0.1130116E+00
         25   -1    0    0    0    0  0.00000000000E+00  0.00000000000E+00  0.99999998245E-14  0.12500000000E+03  0.12500000000E+03 0.  0.
        -13    1    3    3    0    0 -0.19448827560E+02 -0.40610810755E+02 -0.31848451464E+01  0.45140328381E+02  0.10566000000E+00 0. -1.
         23    2    1    0    0    0 -0.13827742906E+02  0.20895874606E+01  0.24818453901E+02  0.96512660643E+02  0.92212608469E+02 0.  0.
         13    1    3    3    0    0  0.56210846542E+01  0.42700398216E+02  0.28003299047E+02  0.51372332262E+02  0.10566000000E+00 0.  1.
         22    1    1    0    0    0  0.13827742906E+02 -0.20895874606E+01 -0.24818453901E+02  0.28487339357E+02  0.00000000000E+00 0.  1.
</event>
<event>
 5    1  0.1285346E-004  0.9118800E+02  0.7818608E-02  0.1130116E+00
         25   -1    0    0    0    0  0.00000000000E+00  0.00000000000E+00  0.99999998245E-14  0.12500000000E+03  0.12500000000E+03 0.  0.
        -13    1    3    3    0    0  0.20534930306E+02 -0.12386865554E+02 -0.30091731987E+02  0.38479102106E+02  0.10566000000E+00 0. -1.
         23    2    1    0    0    0 -0.29270777918E+02  0.20327046493E+00 -0.64708106218E+01  0.95021822122E+02  0.90169038647E+02 0.  0.
         13    1    3    3    0    0 -0.49805708223E+02  0.12590136019E+02  0.23620921365E+02  0.56542720016E+02  0.10566000000E+00 0.  1.
         22    1    1    0    0    0  0.29270777918E+02 -0.20327046493E+00  0.64708106218E+01  0.29978177878E+02  0.00000000000E+00 0.  1.
</event>
<event>
 5    1  0.1285346E-004  0.9118800E+02  0.7818608E-02  0.1130116E+00
         25   -1    0    0    0    0  0.00000000000E+00  0.00000000000E+00  0.99999998245E-14  0.12500000000E+03  0.12500000000E+03 0.  0.
        -13    1    3    3    0    0  0.30880105727E+02  0.37569423228E+02  0.30602615131E+02  0.57459322205E+02  0.10566000000E+00 0.  1.
         23    2    1    0    0    0  0.24722964787E+02  0.12185504969E+02  0.34055192364E+00  0.97435031383E+02  0.93454576377E+02 0.  0.
         13    1    3    3    0    0 -0.61571409396E+01 -0.25383918259E+02 -0.30262063207E+02  0.39975709178E+02  0.10566000000E+00 0. -1.
         22    1    1    0    0    0 -0.24722964787E+02 -0.12185504969E+02 -0.34055192364E+00  0.27564968617E+02  0.00000000000E+00 0.  1.
</event>
<event>
 5    1  0.1285346E-004  0.9118800E+02  0.7818608E-02  0.1130116E+00
         25   -1    0    0    0    0  0.00000000000E+00  0.00000000000E+00  0.99999998245E-14  0.12500000000E+03  0.12500000000E+03 0.  0.
        -13    1    3    3    0    0  0.19152860414E+02 -0.22218956014E+02  0.39104130986E+02  0.48884131296E+02  0.10566000000E+00 0.  1.
         23    2    1    0    0    0  0.42066747927E+01 -0.36370454750E+02  0.59517763186E+01  0.87906473168E+02  0.79697040672E+02 0.  0.
         13    1    3    3    0    0 -0.14946185621E+02 -0.14151498736E+02 -0.33152354668E+02  0.39022341871E+02  0.10566000000E+00 0. -1.
         22    1    1    0    0    0 -0.42066747927E+01  0.36370454750E+02 -0.59517763186E+01  0.37093526832E+02  0.00000000000E+00 0.  1.
</event>
<event>
 5    1  0.1285346E-004  0.9118800E+02  0.7818608E-02  0.1130116E+00
         25   -1    0    0    0    0  0.00000000000E+00  0.00000000000E+00  0.99999998245E-14  0.12500000000E+03  0.12500000000E+03 0.  0.
        -13    1    3    3    0    0 -0.36582778130E+02  0.29395207605E+02  0.38609964212E+02  0.60771032461E+02  0.10566000000E+00 0.  1.
         23    2    1    0    0    0 -0.14277489370E+02  0.14034836116E+02  0.29505742165E+02  0.89343133225E+02  0.81919370763E+02 0.  0.
         13    1    3    3    0    0  0.22305288761E+02 -0.15360371489E+02 -0.91042220472E+01  0.28572100764E+02  0.10566000000E+00 0. -1.
         22    1    1    0    0    0  0.14277489370E+02 -0.14034836116E+02 -0.29505742165E+02  0.35656866775E+02  0.00000000000E+00 0.  1.
</event>
<event>
 5    1  0.1285346E-004  0.9118800E+02  0.7818608E-02  0.1130116E+00
         25   -1    0    0    0    0  0.00000000000E+00  0.00000000000E+00  0.99999998245E-14  0.12500000000E+03  0.12500000000E+03 0.  0.
        -13    1    3    3    0    0  0.32346927314E+02 -0.53695981391E+01 -0.51106210727E+02  0.60720772637E+02  0.10566000000E+00 0. -1.
         23    2    1    0    0    0  0.14427564444E+02  0.81087686522E+01 -0.22554915867E+02  0.97024457564E+02  0.92903791047E+02 0.  0.
         13    1    3    3    0    0 -0.17919362870E+02  0.13478366791E+02  0.28551294860E+02  0.36303684926E+02  0.10566000000E+00 0.  1.
         22    1    1    0    0    0 -0.14427564444E+02 -0.81087686522E+01  0.22554915867E+02  0.27975542436E+02  0.00000000000E+00 0. -1.
</event>
<event>
 5    1  0.1285346E-004  0.9118800E+02  0.7818608E-02  0.1130116E+00
         25   -1    0    0    0    0  0.00000000000E+00  0.00000000000E+00  0.99999998245E-14  0.12500000000E+03  0.12500000000E+03 0.  0.
        -13    1    3    3    0    0  0.44785028349E+01 -0.34497444892E+02  0.35562387067E+02  0.49747615316E+02  0.10566000000E+00 0. -1.
         23    2    1    0    0    0  0.20911834147E+02 -0.18481285702E+02 -0.52816516012E+01  0.96596504225E+02  0.92326193771E+02 0.  0.
         13    1    3    3    0    0  0.16433331312E+02  0.16016159190E+02 -0.40844038668E+02  0.46848888909E+02  0.10566000000E+00 0.  1.
         22    1    1    0    0    0 -0.20911834147E+02  0.18481285702E+02  0.52816516012E+01  0.28403495775E+02  0.00000000000E+00 0. -1.
</event>
<event>
 5    1  0.1285346E-004  0.9118800E+02  0.7818608E-02  0.1130116E+00
         25   -1    0    0    0    0  0.00000000000E+00  0.00000000000E+00  0.99999998245E-14  0.12500000000E+03  0.12500000000E+03 0.  0.
        -13    1    3    3    0    0  0.28875285027E+01 -0.92469412999E+01 -0.47499008658E+02  0.48476909264E+02  0.10566000000E+00 0. -1.
         23    2    1    0    0    0  0.13259022666E+02 -0.25774564107E+02 -0.45375085824E+01  0.95661990164E+02  0.91052169338E+02 0.  0.
         13    1    3    3    0    0  0.10371494164E+02 -0.16527622807E+02  0.42961500075E+02  0.47185080901E+02  0.10566000000E+00 0.  1.
         22    1    1    0    0    0 -0.13259022666E+02  0.25774564107E+02  0.45375085824E+01  0.29338009836E+02  0.00000000000E+00 0.  1.
</event>
<event>
 5    1  0.1285346E-004  0.9118800E+02  0.7818608E-02  0.1130116E+00
         25   -1    0    0    0    0  0.00000000000E+00  0.00000000000E+00  0.99999998245E-14  0.12500000000E+03  0.12500000000E+03 0.  0.
        -13    1    3    3    0    0  0.36868434819E+02 -0.35274656033E+02 -0.28766151862E+02  0.58575468425E+02  0.10566000000E+00 0. -1.
         23    2    1    0    0    0  0.13316576821E+02 -0.26343864910E+02 -0.18732162513E+01  0.95422316255E+02  0.90722538896E+02 0.  0.
         13    1    3    3    0    0 -0.23551857998E+02  0.89307911231E+01  0.26892935610E+02  0.36846847830E+02  0.10566000000E+00 0.  1.
         22    1    1    0    0    0 -0.13316576821E+02  0.26343864910E+02  0.18732162513E+01  0.29577683745E+02  0.00000000000E+00 0. -1.
</event>
<event>
 5    1  0.1285346E-004  0.9118800E+02  0.7818608E-02  0.1130116E+00
         25   -1    0    0    0    0  0.00000000000E+00  0.00000000000E+00  0.99999998245E-14  0.12500000000E+03  0.12500000000E+03 0.  0.
        -13    1    3    3    0    0 -0.39654521586E+02 -0.33008745681E+02  0.22806703238E+02  0.56411127008E+02  0.10566000000E+00 0.  1.
         23    2    1    0    0    0 -0.25694293229E+02  0.28666985263E+01  0.12611331097E+02  0.96234389681E+02  0.91834619944E+02 0.  0.
         13    1    3    3    0    0  0.13960228357E+02  0.35875444207E+02 -0.10195372141E+02  0.39823262674E+02  0.10566000000E+00 0. -1.
         22    1    1    0    0    0  0.25694293229E+02 -0.28666985263E+01 -0.12611331097E+02  0.28765610319E+02  0.00000000000E+00 0.  1.
</event>
<event>
 5    1  0.1285346E-004  0.9118800E+02  0.7818608E-02  0.1130116E+00
         25   -1    0    0    0    0  0.00000000000E+00  0.00000000000E+00  0.99999998245E-14  0.12500000000E+03  0.12500000000E+03 0.  0.
        -13    1    3    3    0    0  0.31453934931E+02 -0.23027473930E+02 -0.35532127995E+02  0.52746164431E+02  0.10566000000E+00 0.  1.
         23    2    1    0    0    0  0.26732708585E+01 -0.28324567288E+02 -0.31765351829E+01  0.96372777556E+02  0.92022792768E+02 0.  0.
         13    1    3    3    0    0 -0.28780664072E+02 -0.52970933578E+01  0.32355592812E+02  0.43626613125E+02  0.10566000000E+00 0. -1.
         22    1    1    0    0    0 -0.26732708585E+01  0.28324567288E+02  0.31765351829E+01  0.28627222444E+02  0.00000000000E+00 0.  1.
</event>
<event>
 5    1  0.1285346E-004  0.9118800E+02  0.7818608E-02  0.1130116E+00
         25   -1    0    0    0    0  0.00000000000E+00  0.00000000000E+00  0.99999998245E-14  0.12500000000E+03  0.12500000000E+03 0.  0.
        -13    1    3    3    0    0 -0.32034865829E+02  0.14327761726E+02  0.34989951373E+01  0.35267144991E+02  0.10566000000E+00 0.  1.
         23    2    1    0    0    0  0.28015116126E+02  0.75376303131E+01 -0.18068358779E+01  0.95932367517E+02  0.91422600484E+02 0.  0.
         13    1    3    3    0    0  0.60049981955E+02 -0.67901314132E+01 -0.53058310152E+01  0.60665222526E+02  0.10566000000E+00 0. -1.
         22    1    1    0    0    0 -0.28015116126E+02 -0.75376303131E+01  0.18068358779E+01  0.29067632483E+02  0.00000000000E+00 0. -1.
</event>
<event>
 5    1  0.1285346E-004  0.9118800E+02  0.7818608E-02  0.1130116E+00
         25   -1    0    0    0    0  0.00000000000E+00  0.00000000000E+00  0.99999998245E-14  0.12500000000E+03  0.12500000000E+03 0.  0.
        -13    1    3    3    0    0 -0.11026308338E+02 -0.14917462264E+02  0.34804503015E+02  0.39439507478E+02  0.10566000000E+00 0.  1.
         23    2    1    0    0    0  0.15610594720E+02 -0.18057585120E+02 -0.15564048188E+02  0.96504269725E+02  0.92201233351E+02 0.  0.
         13    1    3    3    0    0  0.26636903057E+02 -0.31401228561E+01 -0.50368551203E+02  0.57064762247E+02  0.10566000000E+00 0. -1.
         22    1    1    0    0    0 -0.15610594720E+02  0.18057585120E+02  0.15564048188E+02  0.28495730275E+02  0.00000000000E+00 0. -1.
</event>
<event>
 5    1  0.1285346E-004  0.9118800E+02  0.7818608E-02  0.1130116E+00
         25   -1    0    0    0    0  0.00000000000E+00  0.00000000000E+00  0.99999998245E-14  0.12500000000E+03  0.12500000000E+03 0.  0.
        -13    1    3    3    0    0  0.19593085764E+02 -0.91562746938E+01  0.55558645082E+02  0.59619632533E+02  0.10566000000E+00 0.  1.
         23    2    1    0    0    0  0.18655139876E+01  0.61465356335E+01  0.30144393334E+02  0.94178830454E+02  0.88992739105E+02 0.  0.
         13    1    3    3    0    0 -0.17727571776E+02  0.15302810327E+02 -0.25414251748E+02  0.34559197921E+02  0.10566000000E+00 0. -1.
         22    1    1    0    0    0 -0.18655139876E+01 -0.61465356335E+01 -0.30144393334E+02  0.30821169546E+02  0.00000000000E+00 0.  1.
</event>
<event>
 5    1  0.1285346E-004  0.9118800E+02  0.7818608E-02  0.1130116E+00
         25   -1    0    0    0    0  0.00000000000E+00  0.00000000000E+00  0.99999998245E-14  0.12500000000E+03  0.12500000000E+03 0.  0.
        -13    1    3    3    0    0 -0.41345991575E+02  0.37455272588E+02  0.95398892396E+01  0.56598667075E+02  0.10566000000E+00 0. -1.
         23    2    1    0    0    0 -0.23306440560E+02  0.10962202312E+02 -0.13354965828E+02  0.95987672217E+02  0.91498186071E+02 0.  0.
         13    1    3    3    0    0  0.18039551015E+02 -0.26493070276E+02 -0.22894855068E+02  0.39389005142E+02  0.10566000000E+00 0.  1.
         22    1    1    0    0    0  0.23306440560E+02 -0.10962202312E+02  0.13354965828E+02  0.29012327783E+02  0.00000000000E+00 0.  1.
</event>
<event>
 5    1  0.1285346E-004  0.9118800E+02  0.7818608E-02  0.1130116E+00
         25   -1    0    0    0    0  0.00000000000E+00  0.00000000000E+00  0.99999998245E-14  0.12500000000E+03  0.12500000000E+03 0.  0.
        -13    1    3    3    0    0  0.51327413459E+02 -0.41494623975E+00  0.72268179519E+01  0.51835447471E+02  0.10566000000E+00 0.  1.
         23    2    1    0    0    0  0.15184596603E+02  0.24556953136E+02  0.32226950992E+01  0.95948292908E+02  0.91444372308E+02 0.  0.
         13    1    3    3    0    0 -0.36142816856E+02  0.24971899375E+02 -0.40041228527E+01  0.44112845437E+02  0.10566000000E+00 0. -1.
         22    1    1    0    0    0 -0.15184596603E+02 -0.24556953136E+02 -0.32226950992E+01  0.29051707092E+02  0.00000000000E+00 0. -1.
</event>
<event>
 5    1  0.1285346E-004  0.9118800E+02  0.7818608E-02  0.1130116E+00
         25   -1    0    0    0    0  0.00000000000E+00  0.00000000000E+00  0.99999998245E-14  0.12500000000E+03  0.12500000000E+03 0.  0.
        -13    1    3    3    0    0  0.54873396374E+02 -0.18299986307E+02  0.21508743118E+02  0.61713988066E+02  0.10566000000E+00 0. -1.
         23    2    1    0    0    0  0.33679697723E+02 -0.67803685244E+01  0.18375892545E+02  0.86038880112E+02  0.76711928851E+02 0.  0.
         13    1    3    3    0    0 -0.21193698650E+02  0.11519617783E+02 -0.31328505727E+01  0.24324892047E+02  0.10566000000E+00 0.  1.
         22    1    1    0    0    0 -0.33679697723E+02  0.67803685244E+01 -0.18375892545E+02  0.38961119888E+02  0.00000000000E+00 0. -1.
</event>
<event>
 5    1  0.1285346E-004  0.9118800E+02  0.7818608E-02  0.1130116E+00
         25   -1    0    0    0    0  0.00000000000E+00  0.00000000000E+00  0.99999998245E-14  0.12500000000E+03  0.12500000000E+03 0.  0.
        -13    1    3    3    0    0 -0.16674112374E+02 -0.60186811050E+01 -0.56643989245E+02  0.59353207388E+02  0.10566000000E+00 0. -1.
         23    2    1    0    0    0 -0.15422260225E+02 -0.13848263285E+02 -0.22491287319E+02  0.94414406795E+02  0.89323018862E+02 0.  0.
         13    1    3    3    0    0  0.12518521483E+01 -0.78295821804E+01  0.34152701926E+02  0.35061199406E+02  0.10566000000E+00 0.  1.
         22    1    1    0    0    0  0.15422260225E+02  0.13848263285E+02  0.22491287319E+02  0.30585593205E+02  0.00000000000E+00 0. -1.
</event>
<event>
 5    1  0.1285346E-004  0.9118800E+02  0.7818608E-02  0.1130116E+00
         25   -1    0    0    0    0  0.00000000000E+00  0.00000000000E+00  0.99999998245E-14  0.12500000000E+03  0.12500000000E+03 0.  0.
        -13    1    3    3    0    0 -0.32002420951E+02  0.25723930622E+02  0.23022776990E+02  0.47073718546E+02  0.10566000000E+00 0. -1.
         23    2    1    0    0    0  0.16615662855E+02  0.15953250275E+02 -0.49999393320E+00  0.10196011197E+03  0.99322847285E+02 0.  0.
         13    1    3    3    0    0  0.48618083806E+02 -0.97706803475E+01 -0.23522770923E+02  0.54886393426E+02  0.10566000000E+00 0.  1.
         22    1    1    0    0    0 -0.16615662855E+02 -0.15953250275E+02  0.49999393320E+00  0.23039888029E+02  0.00000000000E+00 0. -1.
</event>
<event>
 5    1  0.1285346E-004  0.9118800E+02  0.7818608E-02  0.1130116E+00
         25   -1    0    0    0    0  0.00000000000E+00  0.00000000000E+00  0.99999998245E-14  0.12500000000E+03  0.12500000000E+03 0.  0.
        -13    1    3    3    0    0 -0.17239226817E+02  0.50202831488E+01 -0.67788956691E+01  0.19192675026E+02  0.10566000000E+00 0.  1.
         23    2    1    0    0    0  0.88116807025E+01 -0.43974229363E+02  0.13327999114E+02  0.78213098785E+02  0.62675949904E+02 0.  0.
         13    1    3    3    0    0  0.26050907519E+02 -0.48994512512E+02  0.20106894783E+02  0.59020423759E+02  0.10566000000E+00 0. -1.
         22    1    1    0    0    0 -0.88116807025E+01  0.43974229363E+02 -0.13327999114E+02  0.46786901215E+02  0.00000000000E+00 0. -1.
</event>
<event>
 5    1  0.1285346E-004  0.9118800E+02  0.7818608E-02  0.1130116E+00
         25   -1    0    0    0    0  0.00000000000E+00  0.00000000000E+00  0.99999998245E-14  0.12500000000E+03  0.12500000000E+03 0.  0.
        -13    1    3    3    0    0 -0.27165726042E+02  0.23183070052E+02 -0.25296521978E+02  0.43764787177E+02  0.10566000000E+00 0. -1.
         23    2    1    0    0    0  0.14377235211E+01 -0.19689755377E+02 -0.22046643074E+02  0.95405946770E+02  0.90699981767E+02 0.  0.
         13    1    3    3    0    0  0.28603449563E+02 -0.42872825429E+02  0.32498789040E+01  0.51641159593E+02  0.10566000000E+00 0.  1.
         22    1    1    0    0    0 -0.14377235211E+01  0.19689755377E+02  0.22046643074E+02  0.29594053230E+02  0.00000000000E+00 0.  1.
</event>
<event>
 5    1  0.1285346E-004  0.9118800E+02  0.7818608E-02  0.1130116E+00
         25   -1    0    0    0    0  0.00000000000E+00  0.00000000000E+00  0.99999998245E-14  0.12500000000E+03  0.12500000000E+03 0.  0.
        -13    1    3    3    0    0 -0.32858623699E+02 -0.15818081167E+02 -0.46189565622E+01  0.36759308576E+02  0.10566000000E+00 0.  1.
         23    2    1    0    0    0  0.21490907596E+02 -0.86495574002E+00 -0.20462784086E+02  0.95312750376E+02  0.90571450214E+02 0.  0.
         13    1    3    3    0    0  0.54349531295E+02  0.14953125427E+02 -0.15843827524E+02  0.58553441800E+02  0.10566000000E+00 0. -1.
         22    1    1    0    0    0 -0.21490907596E+02  0.86495574002E+00  0.20462784086E+02  0.29687249624E+02  0.00000000000E+00 0. -1.
</event>
<event>
 5    1  0.1285346E-004  0.9118800E+02  0.7818608E-02  0.1130116E+00
         25   -1    0    0    0    0  0.00000000000E+00  0.00000000000E+00  0.99999998245E-14  0.12500000000E+03  0.12500000000E+03 0.  0.
        -13    1    3    3    0    0 -0.90436699642E+01  0.20588652681E+02 -0.34394156951E+02  0.41093184132E+02  0.10566000000E+00 0. -1.
         23    2    1    0    0    0  0.27932580725E+02  0.68169317413E+01  0.37866195529E+01  0.95999342904E+02  0.91514128560E+02 0.  0.
         13    1    3    3    0    0  0.36976250689E+02 -0.13771720940E+02  0.38180776504E+02  0.54906158773E+02  0.10566000000E+00 0.  1.
         22    1    1    0    0    0 -0.27932580725E+02 -0.68169317413E+01 -0.37866195529E+01  0.29000657096E+02  0.00000000000E+00 0.  1.
</event>
<event>
 5    1  0.1285346E-004  0.9118800E+02  0.7818608E-02  0.1130116E+00
         25   -1    0    0    0    0  0.00000000000E+00  0.00000000000E+00  0.99999998245E-14  0.12500000000E+03  0.12500000000E+03 0.  0.
        -13    1    3    3    0    0 -0.41072950273E+02 -0.71892549345E+00 -0.14075650194E+02  0.43423947200E+02  0.10566000000E+00 0. -1.
         23    2    1    0    0    0  0.74884717996E+01  0.56507207206E+01 -0.28915888979E+02  0.94600386680E+02  0.89582903893E+02 0.  0.
         13    1    3    3    0    0  0.48561422073E+02  0.63696462140E+01 -0.14840238786E+02  0.51176439480E+02  0.10566000000E+00 0.  1.
         22    1    1    0    0    0 -0.74884717996E+01 -0.56507207206E+01  0.28915888979E+02  0.30399613320E+02  0.00000000000E+00 0.  1.
</event>
<event>
 5    1  0.1285346E-004  0.9118800E+02  0.7818608E-02  0.1130116E+00
         25   -1    0    0    0    0  0.00000000000E+00  0.00000000000E+00  0.99999998245E-14  0.12500000000E+03  0.12500000000E+03 0.  0.
        -13    1    3    3    0    0  0.12972255817E+02 -0.13284250506E+02  0.29184840548E+02  0.34590704161E+02  0.10566000000E+00 0. -1.
         23    2    1    0    0    0 -0.21429906434E+02  0.68478746320E+01 -0.17877199443E+02  0.96264507370E+02  0.91875605263E+02 0.  0.
         13    1    3    3    0    0 -0.34402162251E+02  0.20132125138E+02 -0.47062039991E+02  0.61673803209E+02  0.10566000000E+00 0.  1.
         22    1    1    0    0    0  0.21429906434E+02 -0.68478746320E+01  0.17877199443E+02  0.28735492630E+02  0.00000000000E+00 0.  1.
</event>
<event>
 5    1  0.1285346E-004  0.9118800E+02  0.7818608E-02  0.1130116E+00
         25   -1    0    0    0    0  0.00000000000E+00  0.00000000000E+00  0.99999998245E-14  0.12500000000E+03  0.12500000000E+03 0.  0.
        -13    1    3    3    0    0 -0.36119898913E+02 -0.24636516080E+01  0.19192427190E+02  0.40976543317E+02  0.10566000000E+00 0.  1.
         23    2    1    0    0    0  0.18823815224E+02 -0.10307435731E+01  0.22020876333E+02  0.96011770555E+02  0.91531102029E+02 0.  0.
         13    1    3    3    0    0  0.54943714136E+02  0.14329080350E+01  0.28284491434E+01  0.55035227238E+02  0.10566000000E+00 0. -1.
         22    1    1    0    0    0 -0.18823815224E+02  0.10307435731E+01 -0.22020876333E+02  0.28988229445E+02  0.00000000000E+00 0. -1.
</event>
<event>
 5    1  0.1285346E-004  0.9118800E+02  0.7818608E-02  0.1130116E+00
         25   -1    0    0    0    0  0.00000000000E+00  0.00000000000E+00  0.99999998245E-14  0.12500000000E+03  0.12500000000E+03 0.  0.
        -13    1    3    3    0    0  0.99138491200E+00  0.47313670307E+02 -0.15104060987E+01  0.47348270640E+02  0.10566000000E+00 0. -1.
         23    2    1    0    0    0  0.13487112432E+02  0.11177043453E+02 -0.26650104939E+02  0.93108675233E+02  0.87476675795E+02 0.  0.
         13    1    3    3    0    0  0.12495727520E+02 -0.36136626854E+02 -0.25139698841E+02  0.45760404593E+02  0.10566000000E+00 0.  1.
         22    1    1    0    0    0 -0.13487112432E+02 -0.11177043453E+02  0.26650104939E+02  0.31891324767E+02  0.00000000000E+00 0.  1.
</event>
<event>
 5    1  0.1285346E-004  0.9118800E+02  0.7818608E-02  0.1130116E+00
         25   -1    0    0    0    0  0.00000000000E+00  0.00000000000E+00  0.99999998245E-14  0.12500000000E+03  0.12500000000E+03 0.  0.
        -13    1    3    3    0    0  0.26218610735E+02 -0.52505658593E+01  0.17605749630E+02  0.32014958610E+02  0.10566000000E+00 0. -1.
         23    2    1    0    0    0 -0.25688112633E+02  0.29125909693E+00 -0.16589231367E+02  0.94419506874E+02  0.89330155706E+02 0.  0.
         13    1    3    3    0    0 -0.51906723367E+02  0.55418249562E+01 -0.34194980997E+02  0.62404548264E+02  0.10566000000E+00 0.  1.
         22    1    1    0    0    0  0.25688112633E+02 -0.29125909693E+00  0.16589231367E+02  0.30580493126E+02  0.00000000000E+00 0.  1.
</event>
<event>
 5    1  0.1285346E-004  0.9118800E+02  0.7818608E-02  0.1130116E+00
         25   -1    0    0    0    0  0.00000000000E+00  0.00000000000E+00  0.99999998245E-14  0.12500000000E+03  0.12500000000E+03 0.  0.
        -13    1    3    3    0    0  0.44451150160E+02  0.27015022359E+02  0.27599850128E+02  0.58885304404E+02  0.10566000000E+00 0.  1.
         23    2    1    0    0    0  0.23964587340E+02 -0.17872427065E+00  0.20036140898E+02  0.93762517213E+02  0.88406047889E+02 0.  0.
         13    1    3    3    0    0 -0.20486562820E+02 -0.27193746630E+02 -0.75637092300E+01  0.34877212809E+02  0.10566000000E+00 0. -1.
         22    1    1    0    0    0 -0.23964587340E+02  0.17872427065E+00 -0.20036140898E+02  0.31237482787E+02  0.00000000000E+00 0.  1.
</event>
<event>
 5    1  0.1285346E-004  0.9118800E+02  0.7818608E-02  0.1130116E+00
         25   -1    0    0    0    0  0.00000000000E+00  0.00000000000E+00  0.99999998245E-14  0.12500000000E+03  0.12500000000E+03 0.  0.
        -13    1    3    3    0    0  0.60437744045E+02 -0.58051602123E+00  0.95832504250E+01  0.61195651454E+02  0.10566000000E+00 0. -1.
         23    2    1    0    0    0  0.33401422239E+02  0.42574746995E+01 -0.25701560907E+01  0.91230386429E+02  0.84750201222E+02 0.  0.
         13    1    3    3    0    0 -0.27036321806E+02  0.48379907207E+01 -0.12153406516E+02  0.30034734975E+02  0.10566000000E+00 0.  1.
         22    1    1    0    0    0 -0.33401422239E+02 -0.42574746995E+01  0.25701560907E+01  0.33769613571E+02  0.00000000000E+00 0. -1.
</event>
<event>
 5    1  0.1285346E-004  0.9118800E+02  0.7818608E-02  0.1130116E+00
         25   -1    0    0    0    0  0.00000000000E+00  0.00000000000E+00  0.99999998245E-14  0.12500000000E+03  0.12500000000E+03 0.  0.
        -13    1    3    3    0    0 -0.87577552455E+01 -0.37395259552E+02 -0.13652007927E+02  0.40761405745E+02  0.10566000000E+00 0.  1.
         23    2    1    0    0    0 -0.62606033561E+01  0.16415900191E+02 -0.23637456166E+02  0.95548238296E+02  0.90895872151E+02 0.  0.
         13    1    3    3    0    0  0.24971518894E+01  0.53811159742E+02 -0.99854482396E+01  0.54786832551E+02  0.10566000000E+00 0. -1.
         22    1    1    0    0    0  0.62606033561E+01 -0.16415900191E+02  0.23637456166E+02  0.29451761704E+02  0.00000000000E+00 0. -1.
</event>
<event>
 5    1  0.1285346E-004  0.9118800E+02  0.7818608E-02  0.1130116E+00
         25   -1    0    0    0    0  0.00000000000E+00  0.00000000000E+00  0.99999998245E-14  0.12500000000E+03  0.12500000000E+03 0.  0.
        -13    1    3    3    0    0  0.37549710388E+02 -0.12385651991E+02 -0.43658024421E+02  0.58901777442E+02  0.10566000000E+00 0.  1.
         23    2    1    0    0    0  0.21115518295E+02  0.85706847053E+01 -0.17135391792E+02  0.96487837664E+02  0.92178953216E+02 0.  0.
         13    1    3    3    0    0 -0.16434192093E+02  0.20956336696E+02  0.26522632628E+02  0.37586060222E+02  0.10566000000E+00 0. -1.
         22    1    1    0    0    0 -0.21115518295E+02 -0.85706847053E+01  0.17135391792E+02  0.28512162336E+02  0.00000000000E+00 0.  1.
</event>
<event>
 5    1  0.1285346E-004  0.9118800E+02  0.7818608E-02  0.1130116E+00
         25   -1    0    0    0    0  0.00000000000E+00  0.00000000000E+00  0.99999998245E-14  0.12500000000E+03  0.12500000000E+03 0.  0.
        -13    1    3    3    0    0  0.17772447687E+02  0.29214437774E+02  0.47668541322E+02  0.58665528780E+02  0.10566000000E+00 0. -1.
         23    2    1    0    0    0  0.21784748027E+02  0.18235911609E+02  0.16062912500E+02  0.92363503914E+02  0.86405300638E+02 0.  0.
         13    1    3    3    0    0  0.40123003401E+01 -0.10978526166E+02 -0.31605628822E+02  0.33697975133E+02  0.10566000000E+00 0.  1.
         22    1    1    0    0    0 -0.21784748027E+02 -0.18235911609E+02 -0.16062912500E+02  0.32636496086E+02  0.00000000000E+00 0. -1.
</event>
<event>
 5    1  0.1285346E-004  0.9118800E+02  0.7818608E-02  0.1130116E+00
         25   -1    0    0    0    0  0.00000000000E+00  0.00000000000E+00  0.99999998245E-14  0.12500000000E+03  0.12500000000E+03 0.  0.
        -13    1    3    3    0    0  0.69172596673E+01 -0.44872406082E+02 -0.14517122710E+02  0.47666962613E+02  0.10566000000E+00 0.  1.
         23    2    1    0    0    0 -0.11011647301E+02 -0.15450305665E+02  0.20689851445E+02  0.96927980581E+02  0.92773892584E+02 0.  0.
         13    1    3    3    0    0 -0.17928906968E+02  0.29422100418E+02  0.35206974155E+02  0.49261017968E+02  0.10566000000E+00 0. -1.
         22    1    1    0    0    0  0.11011647301E+02  0.15450305665E+02 -0.20689851445E+02  0.28072019419E+02  0.00000000000E+00 0. -1.
</event>
<event>
 5    1  0.1285346E-004  0.9118800E+02  0.7818608E-02  0.1130116E+00
         25   -1    0    0    0    0  0.00000000000E+00  0.00000000000E+00  0.99999998245E-14  0.12500000000E+03  0.12500000000E+03 0.  0.
        -13    1    3    3    0    0  0.32681641218E+01 -0.15889395074E+02  0.41192470285E+02  0.44271712693E+02  0.10566000000E+00 0.  1.
         23    2    1    0    0    0  0.20975445846E+02 -0.23181015108E+02 -0.41226243184E+01  0.93467083529E+02  0.87987333647E+02 0.  0.
         13    1    3    3    0    0  0.17707281724E+02 -0.72916200335E+01 -0.45315094603E+02  0.49195370836E+02  0.10566000000E+00 0. -1.
         22    1    1    0    0    0 -0.20975445846E+02  0.23181015108E+02  0.41226243184E+01  0.31532916471E+02  0.00000000000E+00 0.  1.
</event>
<event>
 5    1  0.1285346E-004  0.9118800E+02  0.7818608E-02  0.1130116E+00
         25   -1    0    0    0    0  0.00000000000E+00  0.00000000000E+00  0.99999998245E-14  0.12500000000E+03  0.12500000000E+03 0.  0.
        -13    1    3    3    0    0  0.75483466695E+00 -0.51040275898E+02 -0.62291603647E+01  0.51424635555E+02  0.10566000000E+00 0. -1.
         23    2    1    0    0    0 -0.18274840595E+01 -0.46890639056E+02  0.16944428253E+02  0.75108263431E+02  0.56143261909E+02 0.  0.
         13    1    3    3    0    0 -0.25823187264E+01  0.41496368423E+01  0.23173588617E+02  0.23683627876E+02  0.10566000000E+00 0.  1.
         22    1    1    0    0    0  0.18274840595E+01  0.46890639056E+02 -0.16944428253E+02  0.49891736569E+02  0.00000000000E+00 0. -1.
</event>
<event>
 5    1  0.1285346E-004  0.9118800E+02  0.7818608E-02  0.1130116E+00
         25   -1    0    0    0    0  0.00000000000E+00  0.00000000000E+00  0.99999998245E-14  0.12500000000E+03  0.12500000000E+03 0.  0.
        -13    1    3    3    0    0  0.59787934274E+01  0.56985626222E+02  0.12019642597E+01  0.57311111042E+02  0.10566000000E+00 0. -1.
         23    2    1    0    0    0 -0.15186051342E+02  0.23549134058E+02  0.21690477742E+01  0.96895149200E+02  0.92729646284E+02 0.  0.
         13    1    3    3    0    0 -0.21164844770E+02 -0.33436492164E+02  0.96708351447E+00  0.39584038158E+02  0.10566000000E+00 0.  1.
         22    1    1    0    0    0  0.15186051342E+02 -0.23549134058E+02 -0.21690477742E+01  0.28104850800E+02  0.00000000000E+00 0.  1.
</event>
<event>
 5    1  0.1285346E-004  0.9118800E+02  0.7818608E-02  0.1130116E+00
         25   -1    0    0    0    0  0.00000000000E+00  0.00000000000E+00  0.99999998245E-14  0.12500000000E+03  0.12500000000E+03 0.  0.
        -13    1    3    3    0    0  0.40569241377E+02 -0.40098527321E+01  0.15368149370E+02  0.43567573307E+02  0.10566000000E+00 0.  1.
         23    2    1    0    0    0  0.39142652746E+01 -0.19315253822E+02 -0.20121735154E+02  0.96834689271E+02  0.92648110169E+02 0.  0.
         13    1    3    3    0    0 -0.36654976102E+02 -0.15305401090E+02 -0.35489884523E+02  0.53267115964E+02  0.10566000000E+00 0. -1.
         22    1    1    0    0    0 -0.39142652746E+01  0.19315253822E+02  0.20121735154E+02  0.28165310729E+02  0.00000000000E+00 0. -1.
</event>
<event>
 5    1  0.1285346E-004  0.9118800E+02  0.7818608E-02  0.1130116E+00
         25   -1    0    0    0    0  0.00000000000E+00  0.00000000000E+00  0.99999998245E-14  0.12500000000E+03  0.12500000000E+03 0.  0.
        -13    1    3    3    0    0  0.35308835361E+02 -0.14907655991E+02  0.89623471708E+01  0.39360981854E+02  0.10566000000E+00 0.  1.
         23    2    1    0    0    0 -0.60530083537E+01  0.25613047934E+02  0.87525121134E+01  0.97264218005E+02  0.93225825291E+02 0.  0.
         13    1    3    3    0    0 -0.41361843714E+02  0.40520703924E+02 -0.20983505738E+00  0.57903236151E+02  0.10566000000E+00 0. -1.
         22    1    1    0    0    0  0.60530083537E+01 -0.25613047934E+02 -0.87525121134E+01  0.27735781995E+02  0.00000000000E+00 0. -1.
</event>
<event>
 5    1  0.1285346E-004  0.9118800E+02  0.7818608E-02  0.1130116E+00
         25   -1    0    0    0    0  0.00000000000E+00  0.00000000000E+00  0.99999998245E-14  0.12500000000E+03  0.12500000000E+03 0.  0.
        -13    1    3    3    0    0  0.22670683505E+02  0.25962478880E+02 -0.45134240544E+02  0.56790149091E+02  0.10566000000E+00 0. -1.
         23    2    1    0    0    0  0.26356689833E+02  0.94553872440E+01 -0.10942934239E+02  0.94936280059E+02  0.90050374874E+02 0.  0.
         13    1    3    3    0    0  0.36860063279E+01 -0.16507091636E+02  0.34191306306E+02  0.38146130968E+02  0.10566000000E+00 0.  1.
         22    1    1    0    0    0 -0.26356689833E+02 -0.94553872440E+01  0.10942934239E+02  0.30063719941E+02  0.00000000000E+00 0. -1.
</event>
<event>
 5    1  0.1285346E-004  0.9118800E+02  0.7818608E-02  0.1130116E+00
         25   -1    0    0    0    0  0.00000000000E+00  0.00000000000E+00  0.99999998245E-14  0.12500000000E+03  0.12500000000E+03 0.  0.
        -13    1    3    3    0    0 -0.18211775781E+02 -0.82538796740E+01 -0.50909465869E+02  0.54695339709E+02  0.10566000000E+00 0.  1.
         23    2    1    0    0    0  0.69085736097E+00  0.16495198845E+02 -0.24097766581E+02  0.95789193386E+02  0.91226631783E+02 0.  0.
         13    1    3    3    0    0  0.18902633142E+02  0.24749078519E+02  0.26811699288E+02  0.41093853677E+02  0.10566000000E+00 0. -1.
         22    1    1    0    0    0 -0.69085736097E+00 -0.16495198845E+02  0.24097766581E+02  0.29210806614E+02  0.00000000000E+00 0.  1.
</event>
<event>
 5    1  0.1285346E-004  0.9118800E+02  0.7818608E-02  0.1130116E+00
         25   -1    0    0    0    0  0.00000000000E+00  0.00000000000E+00  0.99999998245E-14  0.12500000000E+03  0.12500000000E+03 0.  0.
        -13    1    3    3    0    0 -0.12547736981E+02 -0.44366442386E+02 -0.14305481346E+02  0.48275095794E+02  0.10566000000E+00 0.  1.
         23    2    1    0    0    0 -0.29162234710E+02 -0.14044631258E+01 -0.34406208263E+01  0.95601933369E+02  0.90969683644E+02 0.  0.
         13    1    3    3    0    0 -0.16614497729E+02  0.42961979260E+02  0.10864860519E+02  0.47326837575E+02  0.10566000000E+00 0. -1.
         22    1    1    0    0    0  0.29162234710E+02  0.14044631258E+01  0.34406208263E+01  0.29398066631E+02  0.00000000000E+00 0. -1.
</event>
<event>
 5    1  0.1285346E-004  0.9118800E+02  0.7818608E-02  0.1130116E+00
         25   -1    0    0    0    0  0.00000000000E+00  0.00000000000E+00  0.99999998245E-14  0.12500000000E+03  0.12500000000E+03 0.  0.
        -13    1    3    3    0    0  0.43471337022E+02 -0.18998472794E+02 -0.21935119717E+02  0.52267195755E+02  0.10566000000E+00 0. -1.
         23    2    1    0    0    0  0.27503985715E+02  0.79626922536E+01  0.76503996441E+01  0.95362147297E+02  0.90639598544E+02 0.  0.
         13    1    3    3    0    0 -0.15967351307E+02  0.26961165048E+02  0.29585519362E+02  0.43094951542E+02  0.10566000000E+00 0.  1.
         22    1    1    0    0    0 -0.27503985715E+02 -0.79626922536E+01 -0.76503996441E+01  0.29637852703E+02  0.00000000000E+00 0.  1.
</event>
<event>
 5    1  0.1285346E-004  0.9118800E+02  0.7818608E-02  0.1130116E+00
         25   -1    0    0    0    0  0.00000000000E+00  0.00000000000E+00  0.99999998245E-14  0.12500000000E+03  0.12500000000E+03 0.  0.
        -13    1    3    3    0    0 -0.71392767620E+01 -0.19362931992E+02 -0.48263833018E+02  0.52490962552E+02  0.10566000000E+00 0.  1.
         23    2    1    0    0    0 -0.22814896194E+02  0.41913551570E+01 -0.33067896291E+02  0.84607269076E+02  0.74342567006E+02 0.  0.
         13    1    3    3    0    0 -0.15675619432E+02  0.23554287149E+02  0.15195936727E+02  0.32116306524E+02  0.10566000000E+00 0. -1.
         22    1    1    0    0    0  0.22814896194E+02 -0.41913551570E+01  0.33067896291E+02  0.40392730924E+02  0.00000000000E+00 0.  1.
</event>
<event>
 5    1  0.1285346E-004  0.9118800E+02  0.7818608E-02  0.1130116E+00
         25   -1    0    0    0    0  0.00000000000E+00  0.00000000000E+00  0.99999998245E-14  0.12500000000E+03  0.12500000000E+03 0.  0.
        -13    1    3    3    0    0 -0.28816612624E+02  0.31467602139E+02 -0.36699178252E+02  0.56280085252E+02  0.10566000000E+00 0. -1.
         23    2    1    0    0    0 -0.20031797521E+02  0.24956121843E+02 -0.16936233320E+01  0.92953950488E+02  0.87255301397E+02 0.  0.
         13    1    3    3    0    0  0.87848151032E+01 -0.65114802962E+01  0.35005554920E+02  0.36673865236E+02  0.10566000000E+00 0.  1.
         22    1    1    0    0    0  0.20031797521E+02 -0.24956121843E+02  0.16936233320E+01  0.32046049512E+02  0.00000000000E+00 0.  1.
</event>
<event>
 5    1  0.1285346E-004  0.9118800E+02  0.7818608E-02  0.1130116E+00
         25   -1    0    0    0    0  0.00000000000E+00  0.00000000000E+00  0.99999998245E-14  0.12500000000E+03  0.12500000000E+03 0.  0.
        -13    1    3    3    0    0 -0.16107469707E+02 -0.48050727501E+02  0.41672126113E+01  0.50849776978E+02  0.10566000000E+00 0.  1.
         23    2    1    0    0    0 -0.20878218577E+02 -0.12587969598E+02  0.23171366904E+02  0.91365653957E+02  0.84949476097E+02 0.  0.
         13    1    3    3    0    0 -0.47707488694E+01  0.35462757903E+02  0.19004154293E+02  0.40515876978E+02  0.10566000000E+00 0. -1.
         22    1    1    0    0    0  0.20878218577E+02  0.12587969598E+02 -0.23171366904E+02  0.33634346043E+02  0.00000000000E+00 0.  1.
</event>
<event>
 5    1  0.1285346E-004  0.9118800E+02  0.7818608E-02  0.1130116E+00
         25   -1    0    0    0    0  0.00000000000E+00  0.00000000000E+00  0.99999998245E-14  0.12500000000E+03  0.12500000000E+03 0.  0.
        -13    1    3    3    0    0  0.37750913058E+02 -0.45351287546E+02 -0.53875213255E+01  0.59252909371E+02  0.10566000000E+00 0. -1.
         23    2    1    0    0    0  0.25538201817E+02 -0.19779225781E+02  0.95876664914E+01  0.91305180320E+02  0.84860444731E+02 0.  0.
         13    1    3    3    0    0 -0.12212711242E+02  0.25572061765E+02  0.14975187817E+02  0.32052270949E+02  0.10566000000E+00 0.  1.
         22    1    1    0    0    0 -0.25538201817E+02  0.19779225781E+02 -0.95876664914E+01  0.33694819680E+02  0.00000000000E+00 0. -1.
</event>
<event>
 5    1  0.1285346E-004  0.9118800E+02  0.7818608E-02  0.1130116E+00
         25   -1    0    0    0    0  0.00000000000E+00  0.00000000000E+00  0.99999998245E-14  0.12500000000E+03  0.12500000000E+03 0.  0.
        -13    1    3    3    0    0 -0.38877816109E+02 -0.32871719569E+02  0.30130853771E+02  0.59160071381E+02  0.10566000000E+00 0. -1.
         23    2    1    0    0    0 -0.27587692668E+02 -0.76313436280E+01  0.62359353008E+01  0.95704862496E+02  0.91111007151E+02 0.  0.
         13    1    3    3    0    0  0.11290123441E+02  0.25240375941E+02 -0.23894918470E+02  0.36544791115E+02  0.10566000000E+00 0.  1.
         22    1    1    0    0    0  0.27587692668E+02  0.76313436280E+01 -0.62359353008E+01  0.29295137504E+02  0.00000000000E+00 0. -1.
</event>
<event>
 5    1  0.1285346E-004  0.9118800E+02  0.7818608E-02  0.1130116E+00
         25   -1    0    0    0    0  0.00000000000E+00  0.00000000000E+00  0.99999998245E-14  0.12500000000E+03  0.12500000000E+03 0.  0.
        -13    1    3    3    0    0 -0.28117810928E+02  0.34882017109E+01 -0.30104770021E+02  0.41341107685E+02  0.10566000000E+00 0.  1.
         23    2    1    0    0    0 -0.48784881838E+01  0.21705996486E+02  0.17044397297E+02  0.96973915550E+02  0.92835762977E+02 0.  0.
         13    1    3    3    0    0  0.23239322745E+02  0.18217794775E+02  0.47149167318E+02  0.55632807865E+02  0.10566000000E+00 0. -1.
         22    1    1    0    0    0  0.48784881838E+01 -0.21705996486E+02 -0.17044397297E+02  0.28026084450E+02  0.00000000000E+00 0. -1.
</event>
<event>
 5    1  0.1285346E-004  0.9118800E+02  0.7818608E-02  0.1130116E+00
         25   -1    0    0    0    0  0.00000000000E+00  0.00000000000E+00  0.99999998245E-14  0.12500000000E+03  0.12500000000E+03 0.  0.
        -13    1    3    3    0    0  0.29773224897E+02  0.16063144629E+02 -0.20200201449E+02  0.39402142565E+02  0.10566000000E+00 0. -1.
         23    2    1    0    0    0  0.12648394674E+01  0.40485993745E+01  0.28002234936E+02  0.96678345084E+02  0.92436931315E+02 0.  0.
         13    1    3    3    0    0 -0.28508385429E+02 -0.12014545254E+02  0.48202436385E+02  0.57276202519E+02  0.10566000000E+00 0.  1.
         22    1    1    0    0    0 -0.12648394674E+01 -0.40485993745E+01 -0.28002234936E+02  0.28321654916E+02  0.00000000000E+00 0.  1.
</event>
<event>
 5    1  0.1285346E-004  0.9118800E+02  0.7818608E-02  0.1130116E+00
         25   -1    0    0    0    0  0.00000000000E+00  0.00000000000E+00  0.99999998245E-14  0.12500000000E+03  0.12500000000E+03 0.  0.
        -13    1    3    3    0    0 -0.47559678587E+02  0.17048743785E+02 -0.34357629730E+02  0.61098613541E+02  0.10566000000E+00 0.  1.
         23    2    1    0    0    0 -0.16891277669E+02  0.62664809820E+01 -0.23533508808E+02  0.95362016229E+02  0.90639417789E+02 0.  0.
         13    1    3    3    0    0  0.30668400918E+02 -0.10782262803E+02  0.10824120921E+02  0.34263402688E+02  0.10566000000E+00 0. -1.
         22    1    1    0    0    0  0.16891277669E+02 -0.62664809820E+01  0.23533508808E+02  0.29637983771E+02  0.00000000000E+00 0.  1.
</event>
<event>
 5    1  0.1285346E-004  0.9118800E+02  0.7818608E-02  0.1130116E+00
         25   -1    0    0    0    0  0.00000000000E+00  0.00000000000E+00  0.99999998245E-14  0.12500000000E+03  0.12500000000E+03 0.  0.
        -13    1    3    3    0    0 -0.38944538911E+02 -0.14990314800E+01  0.14984328698E+02  0.41754825792E+02  0.10566000000E+00 0.  1.
         23    2    1    0    0    0 -0.70029824049E+01 -0.14240907677E+02 -0.25556737501E+02  0.94916914291E+02  0.90023489006E+02 0.  0.
         13    1    3    3    0    0  0.31941556506E+02 -0.12741876197E+02 -0.40541066199E+02  0.53162088500E+02  0.10566000000E+00 0. -1.
         22    1    1    0    0    0  0.70029824049E+01  0.14240907677E+02  0.25556737501E+02  0.30083085709E+02  0.00000000000E+00 0. -1.
</event>
<event>
 5    1  0.1285346E-004  0.9118800E+02  0.7818608E-02  0.1130116E+00
         25   -1    0    0    0    0  0.00000000000E+00  0.00000000000E+00  0.99999998245E-14  0.12500000000E+03  0.12500000000E+03 0.  0.
        -13    1    3    3    0    0  0.20091683868E+02 -0.13138848657E+02 -0.31744235127E+02  0.39799657442E+02  0.10566000000E+00 0. -1.
         23    2    1    0    0    0  0.13383804564E+02  0.13831374828E+02  0.19188905763E+02  0.97821934238E+02  0.93970652650E+02 0.  0.
         13    1    3    3    0    0 -0.67078793044E+01  0.26970223485E+02  0.50933140890E+02  0.58022276795E+02  0.10566000000E+00 0.  1.
         22    1    1    0    0    0 -0.13383804564E+02 -0.13831374828E+02 -0.19188905763E+02  0.27178065762E+02  0.00000000000E+00 0.  1.
</event>
<event>
 5    1  0.1285346E-004  0.9118800E+02  0.7818608E-02  0.1130116E+00
         25   -1    0    0    0    0  0.00000000000E+00  0.00000000000E+00  0.99999998245E-14  0.12500000000E+03  0.12500000000E+03 0.  0.
        -13    1    3    3    0    0  0.10842586237E+02  0.11720513025E+02  0.51767143177E+02  0.54173613306E+02  0.10566000000E+00 0. -1.
         23    2    1    0    0    0  0.22726458397E+02 -0.67344297310E+01  0.15141290771E+02  0.96873444198E+02  0.92700383222E+02 0.  0.
         13    1    3    3    0    0  0.11883872160E+02 -0.18454942756E+02 -0.36625852406E+02  0.42699830892E+02  0.10566000000E+00 0.  1.
         22    1    1    0    0    0 -0.22726458397E+02  0.67344297310E+01 -0.15141290771E+02  0.28126555802E+02  0.00000000000E+00 0. -1.
</event>
<event>
 5    1  0.1285346E-004  0.9118800E+02  0.7818608E-02  0.1130116E+00
         25   -1    0    0    0    0  0.00000000000E+00  0.00000000000E+00  0.99999998245E-14  0.12500000000E+03  0.12500000000E+03 0.  0.
        -13    1    3    3    0    0  0.93965153736E+01  0.82819145990E+01 -0.39443180892E+02  0.41384300084E+02  0.10566000000E+00 0.  1.
         23    2    1    0    0    0 -0.28833693330E+02 -0.66516722293E+01 -0.49488114039E+01  0.94998044250E+02  0.90136069709E+02 0.  0.
         13    1    3    3    0    0 -0.38230208704E+02 -0.14933586828E+02  0.34494369488E+02  0.53613744166E+02  0.10566000000E+00 0. -1.
         22    1    1    0    0    0  0.28833693330E+02  0.66516722293E+01  0.49488114039E+01  0.30001955750E+02  0.00000000000E+00 0. -1.
</event>
<event>
 5    1  0.1285346E-004  0.9118800E+02  0.7818608E-02  0.1130116E+00
         25   -1    0    0    0    0  0.00000000000E+00  0.00000000000E+00  0.99999998245E-14  0.12500000000E+03  0.12500000000E+03 0.  0.
        -13    1    3    3    0    0 -0.45651276587E+02  0.24407291048E+01  0.37724532120E+02  0.59271812021E+02  0.10566000000E+00 0.  1.
         23    2    1    0    0    0 -0.12485208543E+02 -0.63815517172E+01  0.25858072923E+02  0.95584960140E+02  0.90946358008E+02 0.  0.
         13    1    3    3    0    0  0.33166068044E+02 -0.88222808221E+01 -0.11866459197E+02  0.36313148119E+02  0.10566000000E+00 0. -1.
         22    1    1    0    0    0  0.12485208543E+02  0.63815517172E+01 -0.25858072923E+02  0.29415039860E+02  0.00000000000E+00 0.  1.
</event>
<event>
 5    1  0.1285346E-004  0.9118800E+02  0.7818608E-02  0.1130116E+00
         25   -1    0    0    0    0  0.00000000000E+00  0.00000000000E+00  0.99999998245E-14  0.12500000000E+03  0.12500000000E+03 0.  0.
        -13    1    3    3    0    0 -0.34634029709E+02  0.26699467933E+02  0.35378793800E+02  0.56249869481E+02  0.10566000000E+00 0.  1.
         23    2    1    0    0    0 -0.17717176613E+02  0.28506407552E+02  0.50031980464E+01  0.91065568969E+02  0.84506758560E+02 0.  0.
         13    1    3    3    0    0  0.16916853096E+02  0.18069396193E+01 -0.30375595753E+02  0.34815699489E+02  0.10566000000E+00 0. -1.
         22    1    1    0    0    0  0.17717176613E+02 -0.28506407552E+02 -0.50031980464E+01  0.33934431031E+02  0.00000000000E+00 0.  1.
</event>
<event>
 5    1  0.1285346E-004  0.9118800E+02  0.7818608E-02  0.1130116E+00
         25   -1    0    0    0    0  0.00000000000E+00  0.00000000000E+00  0.99999998245E-14  0.12500000000E+03  0.12500000000E+03 0.  0.
        -13    1    3    3    0    0 -0.37425907447E+02  0.22512731776E+02 -0.38929045967E+02  0.58506439168E+02  0.10566000000E+00 0.  1.
         23    2    1    0    0    0 -0.26892123172E+02  0.15071037067E+01 -0.89080726897E+01  0.96630801751E+02  0.92372617358E+02 0.  0.
         13    1    3    3    0    0  0.10533784275E+02 -0.21005628069E+02  0.30020973277E+02  0.38124362582E+02  0.10566000000E+00 0. -1.
         22    1    1    0    0    0  0.26892123172E+02 -0.15071037067E+01  0.89080726897E+01  0.28369198249E+02  0.00000000000E+00 0.  1.
</event>
<event>
 5    1  0.1285346E-004  0.9118800E+02  0.7818608E-02  0.1130116E+00
         25   -1    0    0    0    0  0.00000000000E+00  0.00000000000E+00  0.99999998245E-14  0.12500000000E+03  0.12500000000E+03 0.  0.
        -13    1    3    3    0    0 -0.37438037421E+02  0.20044521890E+02 -0.38505227989E+02  0.57324107060E+02  0.10566000000E+00 0. -1.
         23    2    1    0    0    0 -0.23053409723E+02 -0.74730654985E+01 -0.13049714605E+02  0.97475438985E+02  0.93508607873E+02 0.  0.
         13    1    3    3    0    0  0.14384627698E+02 -0.27517587388E+02  0.25455513384E+02  0.40151331925E+02  0.10566000000E+00 0.  1.
         22    1    1    0    0    0  0.23053409723E+02  0.74730654985E+01  0.13049714605E+02  0.27524561015E+02  0.00000000000E+00 0.  1.
</event>
<event>
 5    1  0.1285346E-004  0.9118800E+02  0.7818608E-02  0.1130116E+00
         25   -1    0    0    0    0  0.00000000000E+00  0.00000000000E+00  0.99999998245E-14  0.12500000000E+03  0.12500000000E+03 0.  0.
        -13    1    3    3    0    0  0.32721224368E+02  0.11431758162E+02  0.73161076761E+01  0.35424570772E+02  0.10566000000E+00 0. -1.
         23    2    1    0    0    0 -0.12751815390E+02 -0.15039909216E+02  0.26968374744E+02  0.91591903657E+02  0.85281744320E+02 0.  0.
         13    1    3    3    0    0 -0.45473039758E+02 -0.26471667377E+02  0.19652267067E+02  0.56167332885E+02  0.10566000000E+00 0.  1.
         22    1    1    0    0    0  0.12751815390E+02  0.15039909216E+02 -0.26968374744E+02  0.33408096343E+02  0.00000000000E+00 0.  1.
</event>
<event>
 5    1  0.1285346E-004  0.9118800E+02  0.7818608E-02  0.1130116E+00
         25   -1    0    0    0    0  0.00000000000E+00  0.00000000000E+00  0.99999998245E-14  0.12500000000E+03  0.12500000000E+03 0.  0.
        -13    1    3    3    0    0  0.46118988844E+02  0.80264036115E+01  0.35041567656E+02  0.58474840015E+02  0.10566000000E+00 0.  1.
         23    2    1    0    0    0  0.18180035840E+02  0.18618344840E+02  0.11336274078E+02  0.96615716009E+02  0.92352200852E+02 0.  0.
         13    1    3    3    0    0 -0.27938953004E+02  0.10591941229E+02 -0.23705293578E+02  0.38140875994E+02  0.10566000000E+00 0. -1.
         22    1    1    0    0    0 -0.18180035840E+02 -0.18618344840E+02 -0.11336274078E+02  0.28384283991E+02  0.00000000000E+00 0.  1.
</event>
<event>
 5    1  0.1285346E-004  0.9118800E+02  0.7818608E-02  0.1130116E+00
         25   -1    0    0    0    0  0.00000000000E+00  0.00000000000E+00  0.99999998245E-14  0.12500000000E+03  0.12500000000E+03 0.  0.
        -13    1    3    3    0    0 -0.34163679836E+02  0.38131161477E+01 -0.32339655419E+02  0.47197048121E+02  0.10566000000E+00 0. -1.
         23    2    1    0    0    0  0.14691203194E+02  0.83809741380E+01 -0.21841002460E+02  0.97375706936E+02  0.93375193355E+02 0.  0.
         13    1    3    3    0    0  0.48854883030E+02  0.45678579904E+01  0.10498652959E+02  0.50178658815E+02  0.10566000000E+00 0.  1.
         22    1    1    0    0    0 -0.14691203194E+02 -0.83809741380E+01  0.21841002460E+02  0.27624293064E+02  0.00000000000E+00 0. -1.
</event>
<event>
 5    1  0.1285346E-004  0.9118800E+02  0.7818608E-02  0.1130116E+00
         25   -1    0    0    0    0  0.00000000000E+00  0.00000000000E+00  0.99999998245E-14  0.12500000000E+03  0.12500000000E+03 0.  0.
        -13    1    3    3    0    0 -0.11329652843E+02 -0.46681021440E+02  0.15009658686E+02  0.50326730612E+02  0.10566000000E+00 0. -1.
         23    2    1    0    0    0 -0.27311473815E+02 -0.79871803429E+01 -0.39268323985E+01  0.96274894874E+02  0.91889736742E+02 0.  0.
         13    1    3    3    0    0 -0.15981820973E+02  0.38693841097E+02 -0.18936491084E+02  0.45948164262E+02  0.10566000000E+00 0.  1.
         22    1    1    0    0    0  0.27311473815E+02  0.79871803429E+01  0.39268323985E+01  0.28725105126E+02  0.00000000000E+00 0.  1.
</event>
<event>
 5    1  0.1285346E-004  0.9118800E+02  0.7818608E-02  0.1130116E+00
         25   -1    0    0    0    0  0.00000000000E+00  0.00000000000E+00  0.99999998245E-14  0.12500000000E+03  0.12500000000E+03 0.  0.
        -13    1    3    3    0    0 -0.80285835701E+01  0.31338549762E+02  0.20477889486E+02  0.38287308304E+02  0.10566000000E+00 0. -1.
         23    2    1    0    0    0  0.16668685727E+02 -0.68714082473E+00 -0.22296050177E+02  0.97153436480E+02  0.93077167555E+02 0.  0.
         13    1    3    3    0    0  0.24697269297E+02 -0.32025690586E+02 -0.42773939663E+02  0.58866128177E+02  0.10566000000E+00 0.  1.
         22    1    1    0    0    0 -0.16668685727E+02  0.68714082473E+00  0.22296050177E+02  0.27846563520E+02  0.00000000000E+00 0.  1.
</event>
<event>
 5    1  0.1285346E-004  0.9118800E+02  0.7818608E-02  0.1130116E+00
         25   -1    0    0    0    0  0.00000000000E+00  0.00000000000E+00  0.99999998245E-14  0.12500000000E+03  0.12500000000E+03 0.  0.
        -13    1    3    3    0    0 -0.47229032742E+02  0.82646860407E+01 -0.23928056767E+02  0.53585908910E+02  0.10566000000E+00 0. -1.
         23    2    1    0    0    0 -0.30229492158E+02  0.20203090806E+01  0.10867936446E+02  0.92812799322E+02  0.87052856532E+02 0.  0.
         13    1    3    3    0    0  0.16999540584E+02 -0.62443769601E+01  0.34795993213E+02  0.39226890412E+02  0.10566000000E+00 0.  1.
         22    1    1    0    0    0  0.30229492158E+02 -0.20203090806E+01 -0.10867936446E+02  0.32187200678E+02  0.00000000000E+00 0. -1.
</event>
<event>
 5    1  0.1285346E-004  0.9118800E+02  0.7818608E-02  0.1130116E+00
         25   -1    0    0    0    0  0.00000000000E+00  0.00000000000E+00  0.99999998245E-14  0.12500000000E+03  0.12500000000E+03 0.  0.
        -13    1    3    3    0    0 -0.15233927002E+02 -0.16770534110E+02  0.53154795496E+02  0.57782062913E+02  0.10566000000E+00 0.  1.
         23    2    1    0    0    0 -0.16200691627E+02 -0.18602471407E+02  0.14717836778E+02  0.96274940016E+02  0.91889798150E+02 0.  0.
         13    1    3    3    0    0 -0.96676462479E+00 -0.18319372977E+01 -0.38436958719E+02  0.38492877103E+02  0.10566000000E+00 0. -1.
         22    1    1    0    0    0  0.16200691627E+02  0.18602471407E+02 -0.14717836778E+02  0.28725059984E+02  0.00000000000E+00 0.  1.
</event>
<event>
 5    1  0.1285346E-004  0.9118800E+02  0.7818608E-02  0.1130116E+00
         25   -1    0    0    0    0  0.00000000000E+00  0.00000000000E+00  0.99999998245E-14  0.12500000000E+03  0.12500000000E+03 0.  0.
        -13    1    3    3    0    0  0.13403066787E+02  0.99371427502E+01 -0.28280939546E+02  0.32836134227E+02  0.10566000000E+00 0. -1.
         23    2    1    0    0    0 -0.10720219429E+02 -0.18720748821E+02  0.21104215928E+02  0.94820910038E+02  0.89890085713E+02 0.  0.
         13    1    3    3    0    0 -0.24123286216E+02 -0.28657891571E+02  0.49385155474E+02  0.61984775811E+02  0.10566000000E+00 0.  1.
         22    1    1    0    0    0  0.10720219429E+02  0.18720748821E+02 -0.21104215928E+02  0.30179089962E+02  0.00000000000E+00 0.  1.
</event>
<event>
 5    1  0.1285346E-004  0.9118800E+02  0.7818608E-02  0.1130116E+00
         25   -1    0    0    0    0  0.00000000000E+00  0.00000000000E+00  0.99999998245E-14  0.12500000000E+03  0.12500000000E+03 0.  0.
        -13    1    3    3    0    0 -0.24086926844E+02  0.34172169762E+02  0.12275571614E+02  0.43573134539E+02  0.10566000000E+00 0. -1.
         23    2    1    0    0    0 -0.11339845586E+02 -0.16178660964E+02  0.20917989084E+02  0.96226688827E+02  0.91824137387E+02 0.  0.
         13    1    3    3    0    0  0.12747081258E+02 -0.50350830726E+02  0.86424174708E+01  0.52653554289E+02  0.10566000000E+00 0.  1.
         22    1    1    0    0    0  0.11339845586E+02  0.16178660964E+02 -0.20917989084E+02  0.28773311173E+02  0.00000000000E+00 0.  1.
</event>
<event>
 5    1  0.1285346E-004  0.9118800E+02  0.7818608E-02  0.1130116E+00
         25   -1    0    0    0    0  0.00000000000E+00  0.00000000000E+00  0.99999998245E-14  0.12500000000E+03  0.12500000000E+03 0.  0.
        -13    1    3    3    0    0 -0.20389785372E+01  0.31978741214E+02  0.34040592560E+02  0.46750084802E+02  0.10566000000E+00 0. -1.
         23    2    1    0    0    0 -0.29842297907E+02  0.28383411405E+01  0.11594876864E+02  0.92858747779E+02  0.87118809363E+02 0.  0.
         13    1    3    3    0    0 -0.27803319370E+02 -0.29140400074E+02 -0.22445715695E+02  0.46108662977E+02  0.10566000000E+00 0.  1.
         22    1    1    0    0    0  0.29842297907E+02 -0.28383411405E+01 -0.11594876864E+02  0.32141252221E+02  0.00000000000E+00 0.  1.
</event>
<event>
 5    1  0.1285346E-004  0.9118800E+02  0.7818608E-02  0.1130116E+00
         25   -1    0    0    0    0  0.00000000000E+00  0.00000000000E+00  0.99999998245E-14  0.12500000000E+03  0.12500000000E+03 0.  0.
        -13    1    3    3    0    0  0.92609859918E+01 -0.52536979908E+01  0.52421866268E+02  0.53492339930E+02  0.10566000000E+00 0. -1.
         23    2    1    0    0    0 -0.10749608045E+02  0.15974626300E+02  0.24109299043E+02  0.94145485599E+02  0.88945890292E+02 0.  0.
         13    1    3    3    0    0 -0.20010594037E+02  0.21228324291E+02 -0.28312567225E+02  0.40653145669E+02  0.10566000000E+00 0.  1.
         22    1    1    0    0    0  0.10749608045E+02 -0.15974626300E+02 -0.24109299043E+02  0.30854514401E+02  0.00000000000E+00 0. -1.
</event>
<event>
 5    1  0.1285346E-004  0.9118800E+02  0.7818608E-02  0.1130116E+00
         25   -1    0    0    0    0  0.00000000000E+00  0.00000000000E+00  0.99999998245E-14  0.12500000000E+03  0.12500000000E+03 0.  0.
        -13    1    3    3    0    0  0.51165161862E+02 -0.83947275830E+01  0.13845978604E+02  0.53666260603E+02  0.10566000000E+00 0.  1.
         23    2    1    0    0    0  0.17260381999E+02  0.16524042273E+02  0.16711852600E+02  0.95840940051E+02  0.91297508250E+02 0.  0.
         13    1    3    3    0    0 -0.33904779863E+02  0.24918769856E+02  0.28658739961E+01  0.42174679447E+02  0.10566000000E+00 0. -1.
         22    1    1    0    0    0 -0.17260381999E+02 -0.16524042273E+02 -0.16711852600E+02  0.29159059949E+02  0.00000000000E+00 0.  1.
</event>
<event>
 5    1  0.1285346E-004  0.9118800E+02  0.7818608E-02  0.1130116E+00
         25   -1    0    0    0    0  0.00000000000E+00  0.00000000000E+00  0.99999998245E-14  0.12500000000E+03  0.12500000000E+03 0.  0.
        -13    1    3    3    0    0  0.31544419406E+02  0.19888266995E+02 -0.10172233316E+02  0.38653318802E+02  0.10566000000E+00 0. -1.
         23    2    1    0    0    0 -0.24523154909E+02  0.12127990011E+02 -0.11625538295E+02  0.95274145781E+02  0.90518155335E+02 0.  0.
         13    1    3    3    0    0 -0.56067574315E+02 -0.77602769835E+01 -0.14533049789E+01  0.56620826979E+02  0.10566000000E+00 0.  1.
         22    1    1    0    0    0  0.24523154909E+02 -0.12127990011E+02  0.11625538295E+02  0.29725854219E+02  0.00000000000E+00 0.  1.
</event>
<event>
 5    1  0.1285346E-004  0.9118800E+02  0.7818608E-02  0.1130116E+00
         25   -1    0    0    0    0  0.00000000000E+00  0.00000000000E+00  0.99999998245E-14  0.12500000000E+03  0.12500000000E+03 0.  0.
        -13    1    3    3    0    0 -0.18678129553E+02  0.16207443530E+02 -0.46506092829E+02  0.52672398689E+02  0.10566000000E+00 0.  1.
         23    2    1    0    0    0 -0.13485034806E+02  0.24937910612E+02 -0.40081447371E+01  0.96367662100E+02  0.92015843880E+02 0.  0.
         13    1    3    3    0    0  0.51930947471E+01  0.87304670821E+01  0.42497948092E+02  0.43695263411E+02  0.10566000000E+00 0. -1.
         22    1    1    0    0    0  0.13485034806E+02 -0.24937910612E+02  0.40081447371E+01  0.28632337900E+02  0.00000000000E+00 0. -1.
</event>
<event>
 5    1  0.1285346E-004  0.9118800E+02  0.7818608E-02  0.1130116E+00
         25   -1    0    0    0    0  0.00000000000E+00  0.00000000000E+00  0.99999998245E-14  0.12500000000E+03  0.12500000000E+03 0.  0.
        -13    1    3    3    0    0  0.48926789329E+02 -0.13522348152E+02  0.21369960940E+02  0.55076047500E+02  0.10566000000E+00 0.  1.
         23    2    1    0    0    0  0.26208738878E+02  0.18695305814E+01 -0.10118314884E+02  0.96843767399E+02  0.92660357488E+02 0.  0.
         13    1    3    3    0    0 -0.22718050450E+02  0.15391878734E+02 -0.31488275824E+02  0.41767719899E+02  0.10566000000E+00 0. -1.
         22    1    1    0    0    0 -0.26208738878E+02 -0.18695305814E+01  0.10118314884E+02  0.28156232601E+02  0.00000000000E+00 0.  1.
</event>
<event>
 5    1  0.1285346E-004  0.9118800E+02  0.7818608E-02  0.1130116E+00
         25   -1    0    0    0    0  0.00000000000E+00  0.00000000000E+00  0.99999998245E-14  0.12500000000E+03  0.12500000000E+03 0.  0.
        -13    1    3    3    0    0  0.33810573093E+02  0.33727099043E+02  0.15758732606E+01  0.47782492644E+02  0.10566000000E+00 0.  1.
         23    2    1    0    0    0 -0.74097892084E+01  0.21050788353E+02 -0.19116029606E+02  0.95615254735E+02  0.90987986480E+02 0.  0.
         13    1    3    3    0    0 -0.41220362301E+02 -0.12676310689E+02 -0.20691902867E+02  0.47832762091E+02  0.10566000000E+00 0. -1.
         22    1    1    0    0    0  0.74097892084E+01 -0.21050788353E+02  0.19116029606E+02  0.29384745265E+02  0.00000000000E+00 0.  1.
</event>
<event>
 5    1  0.1285346E-004  0.9118800E+02  0.7818608E-02  0.1130116E+00
         25   -1    0    0    0    0  0.00000000000E+00  0.00000000000E+00  0.99999998245E-14  0.12500000000E+03  0.12500000000E+03 0.  0.
        -13    1    3    3    0    0 -0.41193545544E+02 -0.38751106497E+02 -0.23890499105E+02  0.61394817051E+02  0.10566000000E+00 0.  1.
         23    2    1    0    0    0 -0.24763862991E+02 -0.11944710342E+02 -0.10479078343E+02  0.95576606275E+02  0.90934875426E+02 0.  0.
         13    1    3    3    0    0  0.16429682553E+02  0.26806396156E+02  0.13411420761E+02  0.34181789224E+02  0.10566000000E+00 0. -1.
         22    1    1    0    0    0  0.24763862991E+02  0.11944710342E+02  0.10479078343E+02  0.29423393725E+02  0.00000000000E+00 0.  1.
</event>
<event>
 5    1  0.1285346E-004  0.9118800E+02  0.7818608E-02  0.1130116E+00
         25   -1    0    0    0    0  0.00000000000E+00  0.00000000000E+00  0.99999998245E-14  0.12500000000E+03  0.12500000000E+03 0.  0.
        -13    1    3    3    0    0 -0.13311887348E+02 -0.41087773339E+02  0.30232575341E+02  0.52720311442E+02  0.10566000000E+00 0.  1.
         23    2    1    0    0    0  0.16474270828E+02 -0.22779619705E+02  0.36284120785E+01  0.96654311661E+02  0.92404425843E+02 0.  0.
         13    1    3    3    0    0  0.29786158176E+02  0.18308153635E+02 -0.26604163262E+02  0.43934000220E+02  0.10566000000E+00 0. -1.
         22    1    1    0    0    0 -0.16474270828E+02  0.22779619705E+02 -0.36284120785E+01  0.28345688339E+02  0.00000000000E+00 0.  1.
</event>
<event>
 5    1  0.1285346E-004  0.9118800E+02  0.7818608E-02  0.1130116E+00
         25   -1    0    0    0    0  0.00000000000E+00  0.00000000000E+00  0.99999998245E-14  0.12500000000E+03  0.12500000000E+03 0.  0.
        -13    1    3    3    0    0 -0.18342102111E+02 -0.41992879755E+02  0.16802414095E+02  0.48807447622E+02  0.10566000000E+00 0.  1.
         23    2    1    0    0    0 -0.25353061712E+02  0.52701904332E+01  0.10721368784E+02  0.96973220057E+02  0.92834826516E+02 0.  0.
         13    1    3    3    0    0 -0.70109596011E+01  0.47263070188E+02 -0.60810453110E+01  0.48165772435E+02  0.10566000000E+00 0. -1.
         22    1    1    0    0    0  0.25353061712E+02 -0.52701904332E+01 -0.10721368784E+02  0.28026779943E+02  0.00000000000E+00 0.  1.
</event>
<event>
 5    1  0.1285346E-004  0.9118800E+02  0.7818608E-02  0.1130116E+00
         25   -1    0    0    0    0  0.00000000000E+00  0.00000000000E+00  0.99999998245E-14  0.12500000000E+03  0.12500000000E+03 0.  0.
        -13    1    3    3    0    0  0.44174315173E+01 -0.11779309552E+02  0.33417525422E+02  0.35707254222E+02  0.10566000000E+00 0. -1.
         23    2    1    0    0    0  0.53150847826E+00  0.25665834738E+02 -0.13607541414E+02  0.95945176694E+02  0.91440112497E+02 0.  0.
         13    1    3    3    0    0 -0.38859230390E+01  0.37445144290E+02 -0.47025066836E+02  0.60237922471E+02  0.10566000000E+00 0.  1.
         22    1    1    0    0    0 -0.53150847826E+00 -0.25665834738E+02  0.13607541414E+02  0.29054823306E+02  0.00000000000E+00 0.  1.
</event>
<event>
 5    1  0.1285346E-004  0.9118800E+02  0.7818608E-02  0.1130116E+00
         25   -1    0    0    0    0  0.00000000000E+00  0.00000000000E+00  0.99999998245E-14  0.12500000000E+03  0.12500000000E+03 0.  0.
        -13    1    3    3    0    0  0.35039343806E+02  0.11763743342E+02  0.12387227457E+02  0.38981993790E+02  0.10566000000E+00 0. -1.
         23    2    1    0    0    0 -0.56531020853E+00 -0.27252448923E+02 -0.94667479553E+01  0.96144586906E+02  0.91712304118E+02 0.  0.
         13    1    3    3    0    0 -0.35604654014E+02 -0.39016192266E+02 -0.21853975412E+02  0.57162593116E+02  0.10566000000E+00 0.  1.
         22    1    1    0    0    0  0.56531020853E+00  0.27252448923E+02  0.94667479553E+01  0.28855413094E+02  0.00000000000E+00 0.  1.
</event>
<event>
 5    1  0.1285346E-004  0.9118800E+02  0.7818608E-02  0.1130116E+00
         25   -1    0    0    0    0  0.00000000000E+00  0.00000000000E+00  0.99999998245E-14  0.12500000000E+03  0.12500000000E+03 0.  0.
        -13    1    3    3    0    0 -0.19508266616E+02 -0.20310597144E+02  0.33344843728E+02  0.43646106241E+02  0.10566000000E+00 0.  1.
         23    2    1    0    0    0  0.17945035311E+02 -0.18884951136E+02 -0.62941362716E+01  0.98199219729E+02  0.94471185725E+02 0.  0.
         13    1    3    3    0    0  0.37453301927E+02  0.14256460079E+01 -0.39638980000E+02  0.54553113488E+02  0.10566000000E+00 0. -1.
         22    1    1    0    0    0 -0.17945035311E+02  0.18884951136E+02  0.62941362716E+01  0.26800780271E+02  0.00000000000E+00 0. -1.
</event>
<event>
 5    1  0.1285346E-004  0.9118800E+02  0.7818608E-02  0.1130116E+00
         25   -1    0    0    0    0  0.00000000000E+00  0.00000000000E+00  0.99999998245E-14  0.12500000000E+03  0.12500000000E+03 0.  0.
        -13    1    3    3    0    0 -0.26966462788E+02 -0.46056170959E+02  0.24444730145E+02  0.58701933482E+02  0.10566000000E+00 0. -1.
         23    2    1    0    0    0 -0.15699093245E+02 -0.93677034110E+01  0.20881196763E+02  0.97246806055E+02  0.93202475899E+02 0.  0.
         13    1    3    3    0    0  0.11267369543E+02  0.36688467548E+02 -0.35635333820E+01  0.38544872572E+02  0.10566000000E+00 0.  1.
         22    1    1    0    0    0  0.15699093245E+02  0.93677034110E+01 -0.20881196763E+02  0.27753193945E+02  0.00000000000E+00 0.  1.
</event>
<event>
 5    1  0.1285346E-004  0.9118800E+02  0.7818608E-02  0.1130116E+00
         25   -1    0    0    0    0  0.00000000000E+00  0.00000000000E+00  0.99999998245E-14  0.12500000000E+03  0.12500000000E+03 0.  0.
        -13    1    3    3    0    0  0.64868268034E+01  0.46120751880E+02  0.11855635196E+02  0.48060065812E+02  0.10566000000E+00 0.  1.
         23    2    1    0    0    0 -0.20733306411E+02  0.79370780726E+01  0.19352703110E+02  0.95548441116E+02  0.90896151067E+02 0.  0.
         13    1    3    3    0    0 -0.27220133214E+02 -0.38183673807E+02  0.74970679144E+01  0.47488375304E+02  0.10566000000E+00 0. -1.
         22    1    1    0    0    0  0.20733306411E+02 -0.79370780726E+01 -0.19352703110E+02  0.29451558884E+02  0.00000000000E+00 0. -1.
</event>
<event>
 5    1  0.1285346E-004  0.9118800E+02  0.7818608E-02  0.1130116E+00
         25   -1    0    0    0    0  0.00000000000E+00  0.00000000000E+00  0.99999998245E-14  0.12500000000E+03  0.12500000000E+03 0.  0.
        -13    1    3    3    0    0 -0.16498136400E+02 -0.25960235131E+02  0.14081987867E+02  0.33829511658E+02  0.10566000000E+00 0. -1.
         23    2    1    0    0    0  0.11032705528E+02  0.27209257014E+02  0.10525232744E+02  0.93809540195E+02  0.88472510130E+02 0.  0.
         13    1    3    3    0    0  0.27530841927E+02  0.53169492145E+02 -0.35567551236E+01  0.59980028537E+02  0.10566000000E+00 0.  1.
         22    1    1    0    0    0 -0.11032705528E+02 -0.27209257014E+02 -0.10525232744E+02  0.31190459805E+02  0.00000000000E+00 0.  1.
</event>
<event>
 5    1  0.1285346E-004  0.9118800E+02  0.7818608E-02  0.1130116E+00
         25   -1    0    0    0    0  0.00000000000E+00  0.00000000000E+00  0.99999998245E-14  0.12500000000E+03  0.12500000000E+03 0.  0.
        -13    1    3    3    0    0 -0.27990465706E+02 -0.49483172475E+02 -0.25621619242E+02  0.62358071372E+02  0.10566000000E+00 0.  1.
         23    2    1    0    0    0 -0.14788212447E+02 -0.20874725935E+02 -0.99180418942E+01  0.97562562706E+02  0.93625000275E+02 0.  0.
         13    1    3    3    0    0  0.13202253259E+02  0.28608446540E+02  0.15703577348E+02  0.35204491334E+02  0.10566000000E+00 0. -1.
         22    1    1    0    0    0  0.14788212447E+02  0.20874725935E+02  0.99180418942E+01  0.27437437294E+02  0.00000000000E+00 0.  1.
</event>
<event>
 5    1  0.1285346E-004  0.9118800E+02  0.7818608E-02  0.1130116E+00
         25   -1    0    0    0    0  0.00000000000E+00  0.00000000000E+00  0.99999998245E-14  0.12500000000E+03  0.12500000000E+03 0.  0.
        -13    1    3    3    0    0 -0.29072627163E+02 -0.19116705381E+02  0.21606525416E+02  0.40957528970E+02  0.10566000000E+00 0.  1.
         23    2    1    0    0    0  0.23479422478E+02 -0.15146630940E+02  0.12285102564E+02  0.94477427144E+02  0.89411167010E+02 0.  0.
         13    1    3    3    0    0  0.52552049641E+02  0.39700744406E+01 -0.93214228522E+01  0.53519898174E+02  0.10566000000E+00 0. -1.
         22    1    1    0    0    0 -0.23479422478E+02  0.15146630940E+02 -0.12285102564E+02  0.30522572856E+02  0.00000000000E+00 0. -1.
</event>
<event>
 5    1  0.1285346E-004  0.9118800E+02  0.7818608E-02  0.1130116E+00
         25   -1    0    0    0    0  0.00000000000E+00  0.00000000000E+00  0.99999998245E-14  0.12500000000E+03  0.12500000000E+03 0.  0.
        -13    1    3    3    0    0 -0.31576190387E+02  0.19218608218E+02  0.19341786919E+02  0.41719618724E+02  0.10566000000E+00 0.  1.
         23    2    1    0    0    0 -0.33713765552E+01 -0.26233314903E+02  0.12819855599E+02  0.95607795451E+02  0.90977738281E+02 0.  0.
         13    1    3    3    0    0  0.28204813832E+02 -0.45451923122E+02 -0.65219313200E+01  0.53888176727E+02  0.10566000000E+00 0. -1.
         22    1    1    0    0    0  0.33713765552E+01  0.26233314903E+02 -0.12819855599E+02  0.29392204549E+02  0.00000000000E+00 0. -1.
</event>
<event>
 5    1  0.1285346E-004  0.9118800E+02  0.7818608E-02  0.1130116E+00
         25   -1    0    0    0    0  0.00000000000E+00  0.00000000000E+00  0.99999998245E-14  0.12500000000E+03  0.12500000000E+03 0.  0.
        -13    1    3    3    0    0  0.19110886820E+02  0.13149099812E+02  0.37632562882E+02  0.44207983148E+02  0.10566000000E+00 0.  1.
         23    2    1    0    0    0  0.10797301125E+02 -0.26083922623E+02  0.41213196699E+01  0.96470401215E+02  0.92155305348E+02 0.  0.
         13    1    3    3    0    0 -0.83135856952E+01 -0.39233022436E+02 -0.33511243212E+02  0.52262418067E+02  0.10566000000E+00 0. -1.
         22    1    1    0    0    0 -0.10797301125E+02  0.26083922623E+02 -0.41213196699E+01  0.28529598785E+02  0.00000000000E+00 0. -1.
</event>
<event>
 5    1  0.1285346E-004  0.9118800E+02  0.7818608E-02  0.1130116E+00
         25   -1    0    0    0    0  0.00000000000E+00  0.00000000000E+00  0.99999998245E-14  0.12500000000E+03  0.12500000000E+03 0.  0.
        -13    1    3    3    0    0  0.43237664717E+02  0.14756309297E+02  0.17282535705E+02  0.48846100342E+02  0.10566000000E+00 0. -1.
         23    2    1    0    0    0 -0.14939311647E+01  0.27577467371E+02  0.56702022888E+01  0.96806033786E+02  0.92609440374E+02 0.  0.
         13    1    3    3    0    0 -0.44731595882E+02  0.12821158074E+02 -0.11612333416E+02  0.47959933443E+02  0.10566000000E+00 0.  1.
         22    1    1    0    0    0  0.14939311647E+01 -0.27577467371E+02 -0.56702022888E+01  0.28193966214E+02  0.00000000000E+00 0.  1.
</event>
<event>
 5    1  0.1285346E-004  0.9118800E+02  0.7818608E-02  0.1130116E+00
         25   -1    0    0    0    0  0.00000000000E+00  0.00000000000E+00  0.99999998245E-14  0.12500000000E+03  0.12500000000E+03 0.  0.
        -13    1    3    3    0    0 -0.35097629406E+02 -0.15714898843E+02  0.24545890223E+02  0.45621415217E+02  0.10566000000E+00 0.  1.
         23    2    1    0    0    0 -0.12382265855E+02 -0.80235441507E+01 -0.22306643301E+02  0.98255204174E+02  0.94545232790E+02 0.  0.
         13    1    3    3    0    0  0.22715363550E+02  0.76913546924E+01 -0.46852533524E+02  0.52633788956E+02  0.10566000000E+00 0. -1.
         22    1    1    0    0    0  0.12382265855E+02  0.80235441507E+01  0.22306643301E+02  0.26744795826E+02  0.00000000000E+00 0. -1.
</event>
<event>
 5    1  0.1285346E-004  0.9118800E+02  0.7818608E-02  0.1130116E+00
         25   -1    0    0    0    0  0.00000000000E+00  0.00000000000E+00  0.99999998245E-14  0.12500000000E+03  0.12500000000E+03 0.  0.
        -13    1    3    3    0    0 -0.10838267213E+02 -0.23914029734E+02 -0.52602067753E+02  0.58790624679E+02  0.10566000000E+00 0.  1.
         23    2    1    0    0    0 -0.16447050761E+02 -0.18918065065E+02 -0.18152107216E+02  0.94050078176E+02  0.88811708372E+02 0.  0.
         13    1    3    3    0    0 -0.56087835484E+01  0.49959646685E+01  0.34449960536E+02  0.35259453496E+02  0.10566000000E+00 0. -1.
         22    1    1    0    0    0  0.16447050761E+02  0.18918065065E+02  0.18152107216E+02  0.30949921824E+02  0.00000000000E+00 0.  1.
</event>
<event>
 5    1  0.1285346E-004  0.9118800E+02  0.7818608E-02  0.1130116E+00
         25   -1    0    0    0    0  0.00000000000E+00  0.00000000000E+00  0.99999998245E-14  0.12500000000E+03  0.12500000000E+03 0.  0.
        -13    1    3    3    0    0  0.26107763914E+02 -0.20580816495E+02  0.27493637810E+02  0.43140429162E+02  0.10566000000E+00 0. -1.
         23    2    1    0    0    0 -0.21542767363E+02  0.30096065517E+01  0.17133018402E+02  0.97310852725E+02  0.93288333576E+02 0.  0.
         13    1    3    3    0    0 -0.47650531277E+02  0.23590423047E+02 -0.10360619409E+02  0.54170423564E+02  0.10566000000E+00 0.  1.
         22    1    1    0    0    0  0.21542767363E+02 -0.30096065517E+01 -0.17133018402E+02  0.27689147275E+02  0.00000000000E+00 0.  1.
</event>
<event>
 5    1  0.1285346E-004  0.9118800E+02  0.7818608E-02  0.1130116E+00
         25   -1    0    0    0    0  0.00000000000E+00  0.00000000000E+00  0.99999998245E-14  0.12500000000E+03  0.12500000000E+03 0.  0.
        -13    1    3    3    0    0 -0.17906965107E+02  0.52688862392E+02  0.18847884555E+02  0.58753974638E+02  0.10566000000E+00 0.  1.
         23    2    1    0    0    0  0.51439587147E+01  0.30706396566E+02  0.50828901549E+01  0.93453544199E+02  0.87968096772E+02 0.  0.
         13    1    3    3    0    0  0.23050923821E+02 -0.21982465827E+02 -0.13764994400E+02  0.34699569561E+02  0.10566000000E+00 0. -1.
         22    1    1    0    0    0 -0.51439587147E+01 -0.30706396566E+02 -0.50828901549E+01  0.31546455801E+02  0.00000000000E+00 0.  1.
</event>
<event>
 5    1  0.1285346E-004  0.9118800E+02  0.7818608E-02  0.1130116E+00
         25   -1    0    0    0    0  0.00000000000E+00  0.00000000000E+00  0.99999998245E-14  0.12500000000E+03  0.12500000000E+03 0.  0.
        -13    1    3    3    0    0 -0.18880971848E+02  0.50099666825E+02 -0.91450516182E+01  0.54314922876E+02  0.10566000000E+00 0. -1.
         23    2    1    0    0    0  0.66250274256E+01  0.21614083892E+02 -0.20792229628E+02  0.94285566523E+02  0.89142535474E+02 0.  0.
         13    1    3    3    0    0  0.25505999273E+02 -0.28485582933E+02 -0.11647178010E+02  0.39970643647E+02  0.10566000000E+00 0.  1.
         22    1    1    0    0    0 -0.66250274256E+01 -0.21614083892E+02  0.20792229628E+02  0.30714433477E+02  0.00000000000E+00 0. -1.
</event>
<event>
 4    1  0.1285346E-004  0.9118800E+02  0.7818608E-02  0.1130116E+00
         25   -1    0    0    0    0  0.00000000000E+00  0.00000000000E+00  0.99999998245E-14  0.12500000000E+03  0.12500000000E+03 0.  0.
        -13    1    1    0    0    0 -0.12682468004E+02  0.11789815557E+02  0.16043339094E+02  0.23606029714E+02  0.10566000000E+00 0. -1.
         13    1    1    0    0    0  0.37794991310E+02  0.32046035582E+02 -0.94633477950E+01  0.50447753965E+02  0.10566000000E+00 0.  1.
         22    1    1    0    0    0 -0.25112523306E+02 -0.43835851139E+02 -0.65799912993E+01  0.50946216320E+02  0.00000000000E+00 0.  1.
</event>
<event>
 5    1  0.1285346E-004  0.9118800E+02  0.7818608E-02  0.1130116E+00
         25   -1    0    0    0    0  0.00000000000E+00  0.00000000000E+00  0.99999998245E-14  0.12500000000E+03  0.12500000000E+03 0.  0.
        -13    1    3    3    0    0 -0.13003230528E+02 -0.57795555260E+01  0.35419484306E+02  0.38171171043E+02  0.10566000000E+00 0. -1.
         23    2    1    0    0    0 -0.13607446495E+02  0.26265254170E+02 -0.10012370493E+02  0.93770626974E+02  0.88417513783E+02 0.  0.
         13    1    3    3    0    0 -0.60421596675E+00  0.32044809696E+02 -0.45431854799E+02  0.55599455931E+02  0.10566000000E+00 0.  1.
         22    1    1    0    0    0  0.13607446495E+02 -0.26265254170E+02  0.10012370493E+02  0.31229373026E+02  0.00000000000E+00 0.  1.
</event>
<event>
 4    1  0.1285346E-004  0.9118800E+02  0.7818608E-02  0.1130116E+00
         25   -1    0    0    0    0  0.00000000000E+00  0.00000000000E+00  0.99999998245E-14  0.12500000000E+03  0.12500000000E+03 0.  0.
        -13    1    1    0    0    0  0.17906461364E+02  0.42162169697E+00 -0.23038806791E+02  0.29182476006E+02  0.10566000000E+00 0. -1.
         13    1    1    0    0    0  0.18990172600E+02  0.31788524876E+02 -0.79317670590E+01  0.37868998692E+02  0.10566000000E+00 0.  1.
         22    1    1    0    0    0 -0.36896633964E+02 -0.32210146573E+02  0.30970573850E+02  0.57948525303E+02  0.00000000000E+00 0.  1.
</event>
<event>
 5    1  0.1285346E-004  0.9118800E+02  0.7818608E-02  0.1130116E+00
         25   -1    0    0    0    0  0.00000000000E+00  0.00000000000E+00  0.99999998245E-14  0.12500000000E+03  0.12500000000E+03 0.  0.
        -13    1    3    3    0    0  0.54896568820E+02 -0.10287147233E+02 -0.21906996879E+02  0.59994885971E+02  0.10566000000E+00 0. -1.
         23    2    1    0    0    0  0.25767065622E+02  0.58291772845E+01 -0.16845015956E+02  0.93668298145E+02  0.88272728157E+02 0.  0.
         13    1    3    3    0    0 -0.29129503198E+02  0.16116324517E+02  0.50619809234E+01  0.33673412174E+02  0.10566000000E+00 0.  1.
         22    1    1    0    0    0 -0.25767065622E+02 -0.58291772845E+01  0.16845015956E+02  0.31331701855E+02  0.00000000000E+00 0. -1.
</event>
<event>
 5    1  0.1285346E-004  0.9118800E+02  0.7818608E-02  0.1130116E+00
         25   -1    0    0    0    0  0.00000000000E+00  0.00000000000E+00  0.99999998245E-14  0.12500000000E+03  0.12500000000E+03 0.  0.
        -13    1    3    3    0    0  0.13239700942E+02  0.70042511337E+01 -0.27532820723E+02  0.31343525583E+02  0.10566000000E+00 0. -1.
         23    2    1    0    0    0  0.89387726412E+01  0.60989614366E+01  0.32093268010E+02  0.91131477173E+02  0.84604191936E+02 0.  0.
         13    1    3    3    0    0 -0.43009283003E+01 -0.90528969717E+00  0.59626088733E+02  0.59787951590E+02  0.10566000000E+00 0.  1.
         22    1    1    0    0    0 -0.89387726412E+01 -0.60989614366E+01 -0.32093268010E+02  0.33868522827E+02  0.00000000000E+00 0.  1.
</event>
<event>
 5    1  0.1285346E-004  0.9118800E+02  0.7818608E-02  0.1130116E+00
         25   -1    0    0    0    0  0.00000000000E+00  0.00000000000E+00  0.99999998245E-14  0.12500000000E+03  0.12500000000E+03 0.  0.
        -13    1    3    3    0    0  0.42121999529E+02  0.22439298412E+02  0.10739943329E+02  0.48919755766E+02  0.10566000000E+00 0. -1.
         23    2    1    0    0    0  0.19635215174E+02 -0.15728626510E+02  0.18340046498E+02  0.93866598766E+02  0.88553089678E+02 0.  0.
         13    1    3    3    0    0 -0.22486784354E+02 -0.38167924922E+02  0.76001031684E+01  0.44946843000E+02  0.10566000000E+00 0.  1.
         22    1    1    0    0    0 -0.19635215174E+02  0.15728626510E+02 -0.18340046498E+02  0.31133401234E+02  0.00000000000E+00 0. -1.
</event>
<event>
 5    1  0.1285346E-004  0.9118800E+02  0.7818608E-02  0.1130116E+00
         25   -1    0    0    0    0  0.00000000000E+00  0.00000000000E+00  0.99999998245E-14  0.12500000000E+03  0.12500000000E+03 0.  0.
        -13    1    3    3    0    0  0.18290718347E+02  0.51956108987E+02 -0.13937178512E+02  0.56817635886E+02  0.10566000000E+00 0.  1.
         23    2    1    0    0    0 -0.92091035135E+01  0.23941211234E+02 -0.13358908558E+02  0.96078561227E+02  0.91622269709E+02 0.  0.
         13    1    3    3    0    0 -0.27499821860E+02 -0.28014897753E+02  0.57826995388E+00  0.39260925341E+02  0.10566000000E+00 0. -1.
         22    1    1    0    0    0  0.92091035135E+01 -0.23941211234E+02  0.13358908558E+02  0.28921438773E+02  0.00000000000E+00 0.  1.
</event>
<event>
 5    1  0.1285346E-004  0.9118800E+02  0.7818608E-02  0.1130116E+00
         25   -1    0    0    0    0  0.00000000000E+00  0.00000000000E+00  0.99999998245E-14  0.12500000000E+03  0.12500000000E+03 0.  0.
        -13    1    3    3    0    0 -0.37195561414E+02  0.22911625912E+02  0.44225591937E+01  0.43909253976E+02  0.10566000000E+00 0. -1.
         23    2    1    0    0    0 -0.13987014461E+02 -0.24460461279E+02  0.31077330593E+00  0.96821154752E+02  0.92629847716E+02 0.  0.
         13    1    3    3    0    0  0.23208546953E+02 -0.47372087190E+02 -0.41117858878E+01  0.52911900776E+02  0.10566000000E+00 0.  1.
         22    1    1    0    0    0  0.13987014461E+02  0.24460461279E+02 -0.31077330593E+00  0.28178845248E+02  0.00000000000E+00 0.  1.
</event>
<event>
 5    1  0.1285346E-004  0.9118800E+02  0.7818608E-02  0.1130116E+00
         25   -1    0    0    0    0  0.00000000000E+00  0.00000000000E+00  0.99999998245E-14  0.12500000000E+03  0.12500000000E+03 0.  0.
        -13    1    3    3    0    0  0.25697888240E+02  0.24368168955E+02 -0.27594446301E+02  0.44896032663E+02  0.10566000000E+00 0. -1.
         23    2    1    0    0    0 -0.13430420196E+02 -0.86940714724E+01 -0.23878739954E+02  0.96257048043E+02  0.91865456025E+02 0.  0.
         13    1    3    3    0    0 -0.39128308436E+02 -0.33062240427E+02  0.37157063469E+01  0.51361015380E+02  0.10566000000E+00 0.  1.
         22    1    1    0    0    0  0.13430420196E+02  0.86940714724E+01  0.23878739954E+02  0.28742951957E+02  0.00000000000E+00 0.  1.
</event>
<event>
 5    1  0.1285346E-004  0.9118800E+02  0.7818608E-02  0.1130116E+00
         25   -1    0    0    0    0  0.00000000000E+00  0.00000000000E+00  0.99999998245E-14  0.12500000000E+03  0.12500000000E+03 0.  0.
        -13    1    3    3    0    0 -0.46142922817E+00 -0.36503409913E+02  0.69925500981E+01  0.37170132810E+02  0.10566000000E+00 0.  1.
         23    2    1    0    0    0  0.11497987250E+02  0.75942523535E+01 -0.27381180486E+02  0.94347016060E+02  0.89228661399E+02 0.  0.
         13    1    3    3    0    0  0.11959416478E+02  0.44097662267E+02 -0.34373730584E+02  0.57176883250E+02  0.10566000000E+00 0. -1.
         22    1    1    0    0    0 -0.11497987250E+02 -0.75942523535E+01  0.27381180486E+02  0.30652983940E+02  0.00000000000E+00 0. -1.
</event>
<event>
 5    1  0.1285346E-004  0.9118800E+02  0.7818608E-02  0.1130116E+00
         25   -1    0    0    0    0  0.00000000000E+00  0.00000000000E+00  0.99999998245E-14  0.12500000000E+03  0.12500000000E+03 0.  0.
        -13    1    3    3    0    0  0.19355682784E+02  0.36827165835E+02 -0.92099299632E+01  0.42611225908E+02  0.10566000000E+00 0.  1.
         23    2    1    0    0    0  0.23509547534E+02 -0.14220676267E+02  0.75590799956E+01  0.96503225636E+02  0.92199817836E+02 0.  0.
         13    1    3    3    0    0  0.41538647506E+01 -0.51047842102E+02  0.16769009959E+02  0.53891999728E+02  0.10566000000E+00 0. -1.
         22    1    1    0    0    0 -0.23509547534E+02  0.14220676267E+02 -0.75590799956E+01  0.28496774364E+02  0.00000000000E+00 0. -1.
</event>
<event>
 5    1  0.1285346E-004  0.9118800E+02  0.7818608E-02  0.1130116E+00
         25   -1    0    0    0    0  0.00000000000E+00  0.00000000000E+00  0.99999998245E-14  0.12500000000E+03  0.12500000000E+03 0.  0.
        -13    1    3    3    0    0  0.31000029566E+02  0.25998760572E+02  0.26397763482E+01  0.40545245930E+02  0.10566000000E+00 0.  1.
         23    2    1    0    0    0  0.81839095519E+01  0.45471865246E+02 -0.16283751984E+02  0.76011965918E+02  0.58120491048E+02 0.  0.
         13    1    3    3    0    0 -0.22816120014E+02  0.19473104674E+02 -0.18923528332E+02  0.35466719988E+02  0.10566000000E+00 0. -1.
         22    1    1    0    0    0 -0.81839095519E+01 -0.45471865246E+02  0.16283751984E+02  0.48988034082E+02  0.00000000000E+00 0. -1.
</event>
<event>
 5    1  0.1285346E-004  0.9118800E+02  0.7818608E-02  0.1130116E+00
         25   -1    0    0    0    0  0.00000000000E+00  0.00000000000E+00  0.99999998245E-14  0.12500000000E+03  0.12500000000E+03 0.  0.
        -13    1    3    3    0    0  0.38041040510E+01  0.47742216992E+02  0.85959722451E+01  0.48658939505E+02  0.10566000000E+00 0. -1.
         23    2    1    0    0    0 -0.19513026077E+02  0.33960157574E+01  0.16297876144E+02  0.99350207087E+02  0.95982038798E+02 0.  0.
         13    1    3    3    0    0 -0.23317130128E+02 -0.44346201234E+02  0.77019038985E+01  0.50691267581E+02  0.10566000000E+00 0.  1.
         22    1    1    0    0    0  0.19513026077E+02 -0.33960157574E+01 -0.16297876144E+02  0.25649792913E+02  0.00000000000E+00 0. -1.
</event>
<event>
 5    1  0.1285346E-004  0.9118800E+02  0.7818608E-02  0.1130116E+00
         25   -1    0    0    0    0  0.00000000000E+00  0.00000000000E+00  0.99999998245E-14  0.12500000000E+03  0.12500000000E+03 0.  0.
        -13    1    3    3    0    0  0.91821738295E+01  0.10235514812E+02 -0.37516159430E+02  0.39956870024E+02  0.10566000000E+00 0. -1.
         23    2    1    0    0    0  0.53811022077E+01  0.25240325881E+02  0.15302318419E+02  0.94996812494E+02  0.90134361502E+02 0.  0.
         13    1    3    3    0    0 -0.38010716218E+01  0.15004811069E+02  0.52818477849E+02  0.55039942470E+02  0.10566000000E+00 0.  1.
         22    1    1    0    0    0 -0.53811022077E+01 -0.25240325881E+02 -0.15302318419E+02  0.30003187506E+02  0.00000000000E+00 0.  1.
</event>
<event>
 5    1  0.1285346E-004  0.9118800E+02  0.7818608E-02  0.1130116E+00
         25   -1    0    0    0    0  0.00000000000E+00  0.00000000000E+00  0.99999998245E-14  0.12500000000E+03  0.12500000000E+03 0.  0.
        -13    1    3    3    0    0 -0.15994399804E+02  0.21874771905E+02  0.49071809007E+02  0.56056936005E+02  0.10566000000E+00 0.  1.
         23    2    1    0    0    0  0.94792369409E+01 -0.15661942719E+01  0.24988696895E+02  0.98227927424E+02  0.94509162816E+02 0.  0.
         13    1    3    3    0    0  0.25473636744E+02 -0.23440966176E+02 -0.24083112112E+02  0.42170991420E+02  0.10566000000E+00 0. -1.
         22    1    1    0    0    0 -0.94792369409E+01  0.15661942719E+01 -0.24988696895E+02  0.26772072576E+02  0.00000000000E+00 0.  1.
</event>
<event>
 5    1  0.1285346E-004  0.9118800E+02  0.7818608E-02  0.1130116E+00
         25   -1    0    0    0    0  0.00000000000E+00  0.00000000000E+00  0.99999998245E-14  0.12500000000E+03  0.12500000000E+03 0.  0.
        -13    1    3    3    0    0  0.37680867903E+02 -0.15907443128E+02  0.34248240824E+02  0.53346487386E+02  0.10566000000E+00 0. -1.
         23    2    1    0    0    0  0.28179368735E+02  0.15562448607E+01 -0.40411588458E+01  0.96489831898E+02  0.92181657473E+02 0.  0.
         13    1    3    3    0    0 -0.95014991677E+01  0.17463687989E+02 -0.38289399670E+02  0.43143344512E+02  0.10566000000E+00 0.  1.
         22    1    1    0    0    0 -0.28179368735E+02 -0.15562448607E+01  0.40411588458E+01  0.28510168102E+02  0.00000000000E+00 0. -1.
</event>
<event>
 5    1  0.1285346E-004  0.9118800E+02  0.7818608E-02  0.1130116E+00
         25   -1    0    0    0    0  0.00000000000E+00  0.00000000000E+00  0.99999998245E-14  0.12500000000E+03  0.12500000000E+03 0.  0.
        -13    1    3    3    0    0  0.51375599167E+02  0.23503200893E+02  0.11482307599E+02  0.57651601832E+02  0.10566000000E+00 0. -1.
         23    2    1    0    0    0  0.19289688517E+02  0.22984278974E+02 -0.63002723944E+01  0.94339559766E+02  0.89218215302E+02 0.  0.
         13    1    3    3    0    0 -0.32085910649E+02 -0.51892191845E+00 -0.17782579994E+02  0.36687957935E+02  0.10566000000E+00 0.  1.
         22    1    1    0    0    0 -0.19289688517E+02 -0.22984278974E+02  0.63002723944E+01  0.30660440234E+02  0.00000000000E+00 0. -1.
</event>
<event>
 5    1  0.1285346E-004  0.9118800E+02  0.7818608E-02  0.1130116E+00
         25   -1    0    0    0    0  0.00000000000E+00  0.00000000000E+00  0.99999998245E-14  0.12500000000E+03  0.12500000000E+03 0.  0.
        -13    1    3    3    0    0 -0.25113584494E+02 -0.20134655864E+02 -0.27458717734E+02  0.42309441459E+02  0.10566000000E+00 0.  1.
         23    2    1    0    0    0  0.83078532267E+01  0.10213459573E+01  0.19542797256E+02  0.10374007297E+03  0.10153825999E+03 0.  0.
         13    1    3    3    0    0  0.33421437721E+02  0.21156001821E+02  0.47001514990E+02  0.61430631510E+02  0.10566000000E+00 0. -1.
         22    1    1    0    0    0 -0.83078532267E+01 -0.10213459573E+01 -0.19542797256E+02  0.21259927031E+02  0.00000000000E+00 0. -1.
</event>
<event>
 5    1  0.1285346E-004  0.9118800E+02  0.7818608E-02  0.1130116E+00
         25   -1    0    0    0    0  0.00000000000E+00  0.00000000000E+00  0.99999998245E-14  0.12500000000E+03  0.12500000000E+03 0.  0.
        -13    1    3    3    0    0 -0.51515415771E+02 -0.84841323713E+01 -0.32818339539E+02  0.61667439855E+02  0.10566000000E+00 0. -1.
         23    2    1    0    0    0 -0.27756668405E+02 -0.11398268540E+01 -0.98334550193E+01  0.95530885934E+02  0.90872006050E+02 0.  0.
         13    1    3    3    0    0  0.23758747366E+02  0.73443055173E+01  0.22984884519E+02  0.33863446079E+02  0.10566000000E+00 0.  1.
         22    1    1    0    0    0  0.27756668405E+02  0.11398268540E+01  0.98334550193E+01  0.29469114066E+02  0.00000000000E+00 0. -1.
</event>
<event>
 5    1  0.1285346E-004  0.9118800E+02  0.7818608E-02  0.1130116E+00
         25   -1    0    0    0    0  0.00000000000E+00  0.00000000000E+00  0.99999998245E-14  0.12500000000E+03  0.12500000000E+03 0.  0.
        -13    1    3    3    0    0 -0.21340911455E+02  0.14691519366E+02 -0.25375871810E+02  0.36265979611E+02  0.10566000000E+00 0.  1.
         23    2    1    0    0    0 -0.10300363457E+02 -0.74844746055E+01  0.27521091661E+02  0.94676323876E+02  0.89688800689E+02 0.  0.
         13    1    3    3    0    0  0.11040547998E+02 -0.22175993972E+02  0.52896963470E+02  0.58410344265E+02  0.10566000000E+00 0. -1.
         22    1    1    0    0    0  0.10300363457E+02  0.74844746055E+01 -0.27521091661E+02  0.30323676124E+02  0.00000000000E+00 0. -1.
</event>
<event>
 5    1  0.1285346E-004  0.9118800E+02  0.7818608E-02  0.1130116E+00
         25   -1    0    0    0    0  0.00000000000E+00  0.00000000000E+00  0.99999998245E-14  0.12500000000E+03  0.12500000000E+03 0.  0.
        -13    1    3    3    0    0 -0.12375086683E+02 -0.42485247852E+02 -0.80109753009E+01  0.44970278460E+02  0.10566000000E+00 0.  1.
         23    2    1    0    0    0  0.25045555351E+02 -0.12452083277E+02  0.85853892256E+01  0.95741785274E+02  0.91161649385E+02 0.  0.
         13    1    3    3    0    0  0.37420642035E+02  0.30033164575E+02  0.16596364526E+02  0.50771506815E+02  0.10566000000E+00 0. -1.
         22    1    1    0    0    0 -0.25045555351E+02  0.12452083277E+02 -0.85853892256E+01  0.29258214726E+02  0.00000000000E+00 0. -1.
</event>
<event>
 5    1  0.1285346E-004  0.9118800E+02  0.7818608E-02  0.1130116E+00
         25   -1    0    0    0    0  0.00000000000E+00  0.00000000000E+00  0.99999998245E-14  0.12500000000E+03  0.12500000000E+03 0.  0.
        -13    1    3    3    0    0 -0.17313784237E+02 -0.25761541831E+02  0.53642289138E+02  0.61975241106E+02  0.10566000000E+00 0.  1.
         23    2    1    0    0    0 -0.12402623121E+02 -0.13927894772E+02  0.21726027673E+02  0.96367298564E+02  0.92015350030E+02 0.  0.
         13    1    3    3    0    0  0.49111611162E+01  0.11833647059E+02 -0.31916261466E+02  0.34392057458E+02  0.10566000000E+00 0. -1.
         22    1    1    0    0    0  0.12402623121E+02  0.13927894772E+02 -0.21726027673E+02  0.28632701436E+02  0.00000000000E+00 0.  1.
</event>
<event>
 5    1  0.1285346E-004  0.9118800E+02  0.7818608E-02  0.1130116E+00
         25   -1    0    0    0    0  0.00000000000E+00  0.00000000000E+00  0.99999998245E-14  0.12500000000E+03  0.12500000000E+03 0.  0.
        -13    1    3    3    0    0  0.43298895164E+02  0.11742690893E+02  0.43391583333E+00  0.44865182033E+02  0.10566000000E+00 0.  1.
         23    2    1    0    0    0  0.10193498991E+02 -0.11453414835E+02 -0.27161645929E+02  0.93809566488E+02  0.88472547279E+02 0.  0.
         13    1    3    3    0    0 -0.33105396173E+02 -0.23196105728E+02 -0.27595561762E+02  0.48944384455E+02  0.10566000000E+00 0. -1.
         22    1    1    0    0    0 -0.10193498991E+02  0.11453414835E+02  0.27161645929E+02  0.31190433512E+02  0.00000000000E+00 0. -1.
</event>
<event>
 5    1  0.1285346E-004  0.9118800E+02  0.7818608E-02  0.1130116E+00
         25   -1    0    0    0    0  0.00000000000E+00  0.00000000000E+00  0.99999998245E-14  0.12500000000E+03  0.12500000000E+03 0.  0.
        -13    1    3    3    0    0 -0.60331158950E+01  0.47031405193E+02 -0.38060250613E+02  0.60802511482E+02  0.10566000000E+00 0.  1.
         23    2    1    0    0    0 -0.26590117251E+01  0.15531936072E+02 -0.25792632993E+02  0.94774658013E+02  0.89825745215E+02 0.  0.
         13    1    3    3    0    0  0.33741041699E+01 -0.31499469121E+02  0.12267617620E+02  0.33972146531E+02  0.10566000000E+00 0. -1.
         22    1    1    0    0    0  0.26590117251E+01 -0.15531936072E+02  0.25792632993E+02  0.30225341987E+02  0.00000000000E+00 0.  1.
</event>
<event>
 5    1  0.1285346E-004  0.9118800E+02  0.7818608E-02  0.1130116E+00
         25   -1    0    0    0    0  0.00000000000E+00  0.00000000000E+00  0.99999998245E-14  0.12500000000E+03  0.12500000000E+03 0.  0.
        -13    1    3    3    0    0  0.68261959865E+01  0.49295404737E+02  0.20211360995E+02  0.53713537932E+02  0.10566000000E+00 0.  1.
         23    2    1    0    0    0 -0.18248879156E+02  0.20959972091E+02 -0.11889541676E+01  0.97183536664E+02  0.93117582475E+02 0.  0.
         13    1    3    3    0    0 -0.25075075143E+02 -0.28335432646E+02 -0.21400315163E+02  0.43469998732E+02  0.10566000000E+00 0. -1.
         22    1    1    0    0    0  0.18248879156E+02 -0.20959972091E+02  0.11889541676E+01  0.27816463336E+02  0.00000000000E+00 0.  1.
</event>
<event>
 5    1  0.1285346E-004  0.9118800E+02  0.7818608E-02  0.1130116E+00
         25   -1    0    0    0    0  0.00000000000E+00  0.00000000000E+00  0.99999998245E-14  0.12500000000E+03  0.12500000000E+03 0.  0.
        -13    1    3    3    0    0 -0.86327690665E+00 -0.45659423955E+02  0.95239331151E+01  0.46650238038E+02  0.10566000000E+00 0.  1.
         23    2    1    0    0    0 -0.14938076978E+02  0.22835713535E+01  0.22148996134E+02  0.98186964520E+02  0.94454968794E+02 0.  0.
         13    1    3    3    0    0 -0.14074800071E+02  0.47942995309E+02  0.12625063019E+02  0.51536726482E+02  0.10566000000E+00 0. -1.
         22    1    1    0    0    0  0.14938076978E+02 -0.22835713535E+01 -0.22148996134E+02  0.26813035480E+02  0.00000000000E+00 0.  1.
</event>
<event>
 5    1  0.1285346E-004  0.9118800E+02  0.7818608E-02  0.1130116E+00
         25   -1    0    0    0    0  0.00000000000E+00  0.00000000000E+00  0.99999998245E-14  0.12500000000E+03  0.12500000000E+03 0.  0.
        -13    1    3    3    0    0  0.19292709962E+02  0.34056483562E+02 -0.88914100214E+00  0.39151685354E+02  0.10566000000E+00 0. -1.
         23    2    1    0    0    0 -0.25608699781E+02 -0.39880347186E+01 -0.65284302795E+01  0.98273041188E+02  0.94568812497E+02 0.  0.
         13    1    3    3    0    0 -0.44901409743E+02 -0.38044518281E+02 -0.56392892774E+01  0.59121355835E+02  0.10566000000E+00 0.  1.
         22    1    1    0    0    0  0.25608699781E+02  0.39880347186E+01  0.65284302795E+01  0.26726958812E+02  0.00000000000E+00 0.  1.
</event>
<event>
 5    1  0.1285346E-004  0.9118800E+02  0.7818608E-02  0.1130116E+00
         25   -1    0    0    0    0  0.00000000000E+00  0.00000000000E+00  0.99999998245E-14  0.12500000000E+03  0.12500000000E+03 0.  0.
        -13    1    3    3    0    0 -0.53284554006E+01  0.55351192386E+02  0.11596764678E+02  0.56803547869E+02  0.10566000000E+00 0. -1.
         23    2    1    0    0    0  0.14463075515E+02  0.24904988971E+02  0.13553991805E+02  0.93169987075E+02  0.87564243665E+02 0.  0.
         13    1    3    3    0    0  0.19791530916E+02 -0.30446203415E+02  0.19572271264E+01  0.36366439205E+02  0.10566000000E+00 0.  1.
         22    1    1    0    0    0 -0.14463075515E+02 -0.24904988971E+02 -0.13553991805E+02  0.31830012925E+02  0.00000000000E+00 0. -1.
</event>
<event>
 5    1  0.1285346E-004  0.9118800E+02  0.7818608E-02  0.1130116E+00
         25   -1    0    0    0    0  0.00000000000E+00  0.00000000000E+00  0.99999998245E-14  0.12500000000E+03  0.12500000000E+03 0.  0.
        -13    1    3    3    0    0 -0.32435961077E+02 -0.14721992072E+02 -0.95534498146E-01  0.35620905554E+02  0.10566000000E+00 0.  1.
         23    2    1    0    0    0  0.13292934531E+02  0.21167792275E+02  0.15219446351E+02  0.95735532031E+02  0.91153074593E+02 0.  0.
         13    1    3    3    0    0  0.45728895608E+02  0.35889784348E+02  0.15314980849E+02  0.60114626477E+02  0.10566000000E+00 0. -1.
         22    1    1    0    0    0 -0.13292934531E+02 -0.21167792275E+02 -0.15219446351E+02  0.29264467969E+02  0.00000000000E+00 0. -1.
</event>
<event>
 5    1  0.1285346E-004  0.9118800E+02  0.7818608E-02  0.1130116E+00
         25   -1    0    0    0    0  0.00000000000E+00  0.00000000000E+00  0.99999998245E-14  0.12500000000E+03  0.12500000000E+03 0.  0.
        -13    1    3    3    0    0 -0.10589555280E+02 -0.18925876063E-01 -0.32431318294E+02  0.34116573825E+02  0.10566000000E+00 0.  1.
         23    2    1    0    0    0  0.13559853724E+02  0.47910705993E+01  0.24750343543E+02  0.96374775180E+02  0.92025506219E+02 0.  0.
         13    1    3    3    0    0  0.24149409004E+02  0.48099964754E+01  0.57181661838E+02  0.62258201355E+02  0.10566000000E+00 0. -1.
         22    1    1    0    0    0 -0.13559853724E+02 -0.47910705993E+01 -0.24750343543E+02  0.28625224820E+02  0.00000000000E+00 0. -1.
</event>
<event>
 5    1  0.1285346E-004  0.9118800E+02  0.7818608E-02  0.1130116E+00
         25   -1    0    0    0    0  0.00000000000E+00  0.00000000000E+00  0.99999998245E-14  0.12500000000E+03  0.12500000000E+03 0.  0.
        -13    1    3    3    0    0  0.24600609891E+02  0.47539553922E+02  0.31307721866E+02  0.62011158726E+02  0.10566000000E+00 0. -1.
         23    2    1    0    0    0  0.15949714714E+02  0.19811511577E+02  0.12096460795E+02  0.96835949258E+02  0.92649810116E+02 0.  0.
         13    1    3    3    0    0 -0.86508951771E+01 -0.27728042345E+02 -0.19211261071E+02  0.34824790532E+02  0.10566000000E+00 0.  1.
         22    1    1    0    0    0 -0.15949714714E+02 -0.19811511577E+02 -0.12096460795E+02  0.28164050742E+02  0.00000000000E+00 0. -1.
</event>
<event>
 5    1  0.1285346E-004  0.9118800E+02  0.7818608E-02  0.1130116E+00
         25   -1    0    0    0    0  0.00000000000E+00  0.00000000000E+00  0.99999998245E-14  0.12500000000E+03  0.12500000000E+03 0.  0.
        -13    1    3    3    0    0 -0.26091304632E+02 -0.24526828646E+02  0.16149694761E+01  0.35846070793E+02  0.10566000000E+00 0. -1.
         23    2    1    0    0    0 -0.42778040093E+01  0.30017462109E+02 -0.11712958800E+01  0.94656638739E+02  0.89661361158E+02 0.  0.
         13    1    3    3    0    0  0.21813500623E+02  0.54544290755E+02 -0.27862653560E+01  0.58810567946E+02  0.10566000000E+00 0.  1.
         22    1    1    0    0    0  0.42778040093E+01 -0.30017462109E+02  0.11712958800E+01  0.30343361261E+02  0.00000000000E+00 0.  1.
</event>
<event>
 5    1  0.1285346E-004  0.9118800E+02  0.7818608E-02  0.1130116E+00
         25   -1    0    0    0    0  0.00000000000E+00  0.00000000000E+00  0.99999998245E-14  0.12500000000E+03  0.12500000000E+03 0.  0.
        -13    1    3    3    0    0 -0.18309554038E+02  0.28655006632E+02  0.17447265636E+02  0.38219987132E+02  0.10566000000E+00 0.  1.
         23    2    1    0    0    0 -0.97502149283E+01 -0.26987262440E+02  0.67022659291E+01  0.95533079670E+02  0.90875023617E+02 0.  0.
         13    1    3    3    0    0  0.85593391093E+01 -0.55642269072E+02 -0.10744999707E+02  0.57313092538E+02  0.10566000000E+00 0. -1.
         22    1    1    0    0    0  0.97502149283E+01  0.26987262440E+02 -0.67022659291E+01  0.29466920330E+02  0.00000000000E+00 0. -1.
</event>
<event>
 5    1  0.1285346E-004  0.9118800E+02  0.7818608E-02  0.1130116E+00
         25   -1    0    0    0    0  0.00000000000E+00  0.00000000000E+00  0.99999998245E-14  0.12500000000E+03  0.12500000000E+03 0.  0.
        -13    1    3    3    0    0 -0.30688709253E+02  0.33965208660E+02 -0.29806303401E+02  0.54624712003E+02  0.10566000000E+00 0.  1.
         23    2    1    0    0    0 -0.29829926150E+02  0.22959557629E+01 -0.54423079157E+01  0.94590879289E+02  0.89569636720E+02 0.  0.
         13    1    3    3    0    0  0.85878310285E+00 -0.31669252897E+02  0.24363995485E+02  0.39966167286E+02  0.10566000000E+00 0. -1.
         22    1    1    0    0    0  0.29829926150E+02 -0.22959557629E+01  0.54423079157E+01  0.30409120711E+02  0.00000000000E+00 0. -1.
</event>
<event>
 5    1  0.1285346E-004  0.9118800E+02  0.7818608E-02  0.1130116E+00
         25   -1    0    0    0    0  0.00000000000E+00  0.00000000000E+00  0.99999998245E-14  0.12500000000E+03  0.12500000000E+03 0.  0.
        -13    1    3    3    0    0 -0.15992596782E+02 -0.13229916141E+02 -0.54810375661E+02  0.58608721851E+02  0.10566000000E+00 0.  1.
         23    2    1    0    0    0  0.47998721169E+01  0.32940098789E+01 -0.28200964047E+02  0.96204450924E+02  0.91793859985E+02 0.  0.
         13    1    3    3    0    0  0.20792468899E+02  0.16523926020E+02  0.26609411614E+02  0.37595729072E+02  0.10566000000E+00 0. -1.
         22    1    1    0    0    0 -0.47998721169E+01 -0.32940098789E+01  0.28200964047E+02  0.28795549076E+02  0.00000000000E+00 0.  1.
</event>
<event>
 5    1  0.1285346E-004  0.9118800E+02  0.7818608E-02  0.1130116E+00
         25   -1    0    0    0    0  0.00000000000E+00  0.00000000000E+00  0.99999998245E-14  0.12500000000E+03  0.12500000000E+03 0.  0.
        -13    1    3    3    0    0  0.59974474371E+02 -0.45165631287E+01 -0.15215640996E+02  0.62039211903E+02  0.10566000000E+00 0. -1.
         23    2    1    0    0    0  0.26818513520E+02 -0.71606615978E+01 -0.84779028399E+01  0.95976172228E+02  0.91482474043E+02 0.  0.
         13    1    3    3    0    0 -0.33155960851E+02 -0.26440984690E+01  0.67377381558E+01  0.33936960325E+02  0.10566000000E+00 0.  1.
         22    1    1    0    0    0 -0.26818513520E+02  0.71606615978E+01  0.84779028399E+01  0.29023827772E+02  0.00000000000E+00 0. -1.
</event>
<event>
 5    1  0.1285346E-004  0.9118800E+02  0.7818608E-02  0.1130116E+00
         25   -1    0    0    0    0  0.00000000000E+00  0.00000000000E+00  0.99999998245E-14  0.12500000000E+03  0.12500000000E+03 0.  0.
        -13    1    3    3    0    0  0.59778451001E+02 -0.70405473666E+01  0.23050449115E+01  0.60235844042E+02  0.10566000000E+00 0. -1.
         23    2    1    0    0    0  0.35670863102E+02 -0.11463669278E+02  0.10515497251E+02  0.86084683347E+02  0.76786527704E+02 0.  0.
         13    1    3    3    0    0 -0.24107587900E+02 -0.44231219117E+01  0.82104523393E+01  0.25848839306E+02  0.10566000000E+00 0.  1.
         22    1    1    0    0    0 -0.35670863102E+02  0.11463669278E+02 -0.10515497251E+02  0.38915316653E+02  0.00000000000E+00 0. -1.
</event>
<event>
 5    1  0.1285346E-004  0.9118800E+02  0.7818608E-02  0.1130116E+00
         25   -1    0    0    0    0  0.00000000000E+00  0.00000000000E+00  0.99999998245E-14  0.12500000000E+03  0.12500000000E+03 0.  0.
        -13    1    3    3    0    0 -0.20406734981E+02 -0.20848058462E+02 -0.19473252643E+02  0.35075562815E+02  0.10566000000E+00 0. -1.
         23    2    1    0    0    0 -0.28009035960E+01  0.24385646108E+02  0.16440813573E+02  0.95456724149E+02  0.90769934655E+02 0.  0.
         13    1    3    3    0    0  0.17605831385E+02  0.45233704570E+02  0.35914066216E+02  0.60381161334E+02  0.10566000000E+00 0.  1.
         22    1    1    0    0    0  0.28009035960E+01 -0.24385646108E+02 -0.16440813573E+02  0.29543275851E+02  0.00000000000E+00 0.  1.
</event>
<event>
 5    1  0.1285346E-004  0.9118800E+02  0.7818608E-02  0.1130116E+00
         25   -1    0    0    0    0  0.00000000000E+00  0.00000000000E+00  0.99999998245E-14  0.12500000000E+03  0.12500000000E+03 0.  0.
        -13    1    3    3    0    0  0.98650730509E+01 -0.44223795049E+01  0.47230999648E+02  0.48452611886E+02  0.10566000000E+00 0.  1.
         23    2    1    0    0    0 -0.20616965962E+02 -0.13792161174E+02  0.81564662568E+01  0.98888490332E+02  0.95378837187E+02 0.  0.
         13    1    3    3    0    0 -0.30482039013E+02 -0.93697816694E+01 -0.39074533391E+02  0.50435878446E+02  0.10566000000E+00 0. -1.
         22    1    1    0    0    0  0.20616965962E+02  0.13792161174E+02 -0.81564662568E+01  0.26111509668E+02  0.00000000000E+00 0. -1.
</event>
<event>
 5    1  0.1285346E-004  0.9118800E+02  0.7818608E-02  0.1130116E+00
         25   -1    0    0    0    0  0.00000000000E+00  0.00000000000E+00  0.99999998245E-14  0.12500000000E+03  0.12500000000E+03 0.  0.
        -13    1    3    3    0    0 -0.34986194734E+02 -0.49458899240E+02  0.10357431172E+02  0.61461403177E+02  0.10566000000E+00 0.  1.
         23    2    1    0    0    0 -0.23084155541E+02 -0.19427137797E+02  0.23863755731E+01  0.94734727683E+02  0.89770161640E+02 0.  0.
         13    1    3    3    0    0  0.11902039193E+02  0.30031761443E+02 -0.79710555990E+01  0.33273324506E+02  0.10566000000E+00 0. -1.
         22    1    1    0    0    0  0.23084155541E+02  0.19427137797E+02 -0.23863755731E+01  0.30265272317E+02  0.00000000000E+00 0.  1.
</event>
<event>
 5    1  0.1285346E-004  0.9118800E+02  0.7818608E-02  0.1130116E+00
         25   -1    0    0    0    0  0.00000000000E+00  0.00000000000E+00  0.99999998245E-14  0.12500000000E+03  0.12500000000E+03 0.  0.
        -13    1    3    3    0    0 -0.83788423035E+01  0.20252790700E+02  0.44330598137E+02  0.49452943539E+02  0.10566000000E+00 0.  1.
         23    2    1    0    0    0  0.20054494871E+02 -0.74723376460E+01  0.13961195701E+02  0.99447434966E+02  0.96108577876E+02 0.  0.
         13    1    3    3    0    0  0.28433337174E+02 -0.27725128346E+02 -0.30369402436E+02  0.49994491427E+02  0.10566000000E+00 0. -1.
         22    1    1    0    0    0 -0.20054494871E+02  0.74723376460E+01 -0.13961195701E+02  0.25552565034E+02  0.00000000000E+00 0. -1.
</event>
<event>
 5    1  0.1285346E-004  0.9118800E+02  0.7818608E-02  0.1130116E+00
         25   -1    0    0    0    0  0.00000000000E+00  0.00000000000E+00  0.99999998245E-14  0.12500000000E+03  0.12500000000E+03 0.  0.
        -13    1    3    3    0    0  0.26368446108E+02  0.18527866432E+02 -0.25760351203E+02  0.41257528317E+02  0.10566000000E+00 0.  1.
         23    2    1    0    0    0  0.35190851763E+02 -0.15121086645E+02 -0.30062708979E+02  0.76309038002E+02  0.58755931619E+02 0.  0.
         13    1    3    3    0    0  0.88224056553E+01 -0.33648953077E+02 -0.43023577762E+01  0.35051509685E+02  0.10566000000E+00 0. -1.
         22    1    1    0    0    0 -0.35190851763E+02  0.15121086645E+02  0.30062708979E+02  0.48690961998E+02  0.00000000000E+00 0.  1.
</event>
<event>
 5    1  0.1285346E-004  0.9118800E+02  0.7818608E-02  0.1130116E+00
         25   -1    0    0    0    0  0.00000000000E+00  0.00000000000E+00  0.99999998245E-14  0.12500000000E+03  0.12500000000E+03 0.  0.
        -13    1    3    3    0    0 -0.27954572559E+02  0.16882242326E+02 -0.23065823260E+02  0.39981390667E+02  0.10566000000E+00 0.  1.
         23    2    1    0    0    0  0.22184697038E+02  0.12577769901E+02  0.69381772377E+01  0.98570861124E+02  0.94961651634E+02 0.  0.
         13    1    3    3    0    0  0.50139269597E+02 -0.43044724251E+01  0.30004000498E+02  0.58589470458E+02  0.10566000000E+00 0. -1.
         22    1    1    0    0    0 -0.22184697038E+02 -0.12577769901E+02 -0.69381772377E+01  0.26429138876E+02  0.00000000000E+00 0. -1.
</event>
<event>
 5    1  0.1285346E-004  0.9118800E+02  0.7818608E-02  0.1130116E+00
         25   -1    0    0    0    0  0.00000000000E+00  0.00000000000E+00  0.99999998245E-14  0.12500000000E+03  0.12500000000E+03 0.  0.
        -13    1    3    3    0    0 -0.38651908932E+02 -0.27133589921E+02 -0.25023382149E+02  0.53445136208E+02  0.10566000000E+00 0.  1.
         23    2    1    0    0    0 -0.38886507456E+02 -0.10092945049E+02  0.13001542822E+01  0.84804000161E+02  0.74672619080E+02 0.  0.
         13    1    3    3    0    0 -0.23459852372E+00  0.17040644872E+02  0.26323536431E+02  0.31358863953E+02  0.10566000000E+00 0. -1.
         22    1    1    0    0    0  0.38886507456E+02  0.10092945049E+02 -0.13001542822E+01  0.40195999839E+02  0.00000000000E+00 0.  1.
</event>
<event>
 5    1  0.1285346E-004  0.9118800E+02  0.7818608E-02  0.1130116E+00
         25   -1    0    0    0    0  0.00000000000E+00  0.00000000000E+00  0.99999998245E-14  0.12500000000E+03  0.12500000000E+03 0.  0.
        -13    1    3    3    0    0 -0.33494967592E+01  0.42887474383E+02  0.17652762035E+02  0.46499309232E+02  0.10566000000E+00 0.  1.
         23    2    1    0    0    0 -0.30550424518E+02  0.96688903927E+01  0.15279994268E+02  0.89499378815E+02  0.82157438518E+02 0.  0.
         13    1    3    3    0    0 -0.27200927759E+02 -0.33218583990E+02 -0.23727677673E+01  0.43000069584E+02  0.10566000000E+00 0. -1.
         22    1    1    0    0    0  0.30550424518E+02 -0.96688903927E+01 -0.15279994268E+02  0.35500621185E+02  0.00000000000E+00 0.  1.
</event>
<event>
 5    1  0.1285346E-004  0.9118800E+02  0.7818608E-02  0.1130116E+00
         25   -1    0    0    0    0  0.00000000000E+00  0.00000000000E+00  0.99999998245E-14  0.12500000000E+03  0.12500000000E+03 0.  0.
        -13    1    3    3    0    0  0.79999527163E+01  0.31603802359E+02  0.67843307266E+01  0.33299217325E+02  0.10566000000E+00 0.  1.
         23    2    1    0    0    0 -0.23136209091E+02 -0.10030911394E+02 -0.20942701936E+02  0.92220431380E+02  0.86198073326E+02 0.  0.
         13    1    3    3    0    0 -0.31136161807E+02 -0.41634713753E+02 -0.27727032663E+02  0.58921214055E+02  0.10566000000E+00 0. -1.
         22    1    1    0    0    0  0.23136209091E+02  0.10030911394E+02  0.20942701936E+02  0.32779568620E+02  0.00000000000E+00 0. -1.
</event>
<event>
 5    1  0.1285346E-004  0.9118800E+02  0.7818608E-02  0.1130116E+00
         25   -1    0    0    0    0  0.00000000000E+00  0.00000000000E+00  0.99999998245E-14  0.12500000000E+03  0.12500000000E+03 0.  0.
        -13    1    3    3    0    0 -0.28798121130E+02  0.26763480210E+02  0.44994415207E+02  0.59750516462E+02  0.10566000000E+00 0.  1.
         23    2    1    0    0    0 -0.24873535956E+02  0.16538139095E+02  0.15219143949E+02  0.91476498121E+02  0.85112422890E+02 0.  0.
         13    1    3    3    0    0  0.39245851732E+01 -0.10225341115E+02 -0.29775271258E+02  0.31725981659E+02  0.10566000000E+00 0. -1.
         22    1    1    0    0    0  0.24873535956E+02 -0.16538139095E+02 -0.15219143949E+02  0.33523501879E+02  0.00000000000E+00 0.  1.
</event>
<event>
 5    1  0.1285346E-004  0.9118800E+02  0.7818608E-02  0.1130116E+00
         25   -1    0    0    0    0  0.00000000000E+00  0.00000000000E+00  0.99999998245E-14  0.12500000000E+03  0.12500000000E+03 0.  0.
        -13    1    3    3    0    0  0.13918736794E+01 -0.35143511400E+02 -0.29591202294E+00  0.35172466985E+02  0.10566000000E+00 0. -1.
         23    2    1    0    0    0 -0.23928464854E+01  0.22147244212E+02 -0.19170133717E+02  0.95610883525E+02  0.90981981080E+02 0.  0.
         13    1    3    3    0    0 -0.37847201648E+01  0.57290755612E+02 -0.18874221694E+02  0.60438416540E+02  0.10566000000E+00 0.  1.
         22    1    1    0    0    0  0.23928464854E+01 -0.22147244212E+02  0.19170133717E+02  0.29389116475E+02  0.00000000000E+00 0.  1.
</event>
<event>
 5    1  0.1285346E-004  0.9118800E+02  0.7818608E-02  0.1130116E+00
         25   -1    0    0    0    0  0.00000000000E+00  0.00000000000E+00  0.99999998245E-14  0.12500000000E+03  0.12500000000E+03 0.  0.
        -13    1    3    3    0    0 -0.51910890887E+02  0.63185288848E+01 -0.15168756538E+02  0.54449671615E+02  0.10566000000E+00 0.  1.
         23    2    1    0    0    0 -0.11521877156E+02  0.18971641606E+02 -0.17345106122E+02  0.96830343545E+02  0.92642246768E+02 0.  0.
         13    1    3    3    0    0  0.40389013732E+02  0.12653112721E+02 -0.21763495836E+01  0.42380671931E+02  0.10566000000E+00 0. -1.
         22    1    1    0    0    0  0.11521877156E+02 -0.18971641606E+02  0.17345106122E+02  0.28169656455E+02  0.00000000000E+00 0.  1.
</event>
<event>
 5    1  0.1285346E-004  0.9118800E+02  0.7818608E-02  0.1130116E+00
         25   -1    0    0    0    0  0.00000000000E+00  0.00000000000E+00  0.99999998245E-14  0.12500000000E+03  0.12500000000E+03 0.  0.
        -13    1    3    3    0    0  0.46066178550E+01 -0.40970395940E+02  0.16820103798E+02  0.44527759065E+02  0.10566000000E+00 0.  1.
         23    2    1    0    0    0 -0.29233978592E+02 -0.57710605239E+01  0.47503407181E+01  0.94825567431E+02  0.89896561991E+02 0.  0.
         13    1    3    3    0    0 -0.33840596447E+02  0.35199335416E+02 -0.12069763080E+02  0.50297808366E+02  0.10566000000E+00 0. -1.
         22    1    1    0    0    0  0.29233978592E+02  0.57710605239E+01 -0.47503407181E+01  0.30174432569E+02  0.00000000000E+00 0. -1.
</event>
<event>
 5    1  0.1285346E-004  0.9118800E+02  0.7818608E-02  0.1130116E+00
         25   -1    0    0    0    0  0.00000000000E+00  0.00000000000E+00  0.99999998245E-14  0.12500000000E+03  0.12500000000E+03 0.  0.
        -13    1    3    3    0    0 -0.70451470495E+01  0.68411511375E+01 -0.35722965979E+02  0.37048305066E+02  0.10566000000E+00 0.  1.
         23    2    1    0    0    0 -0.18737502677E+02  0.26185133662E+01  0.21935901016E+02  0.96032183855E+02  0.91558975332E+02 0.  0.
         13    1    3    3    0    0 -0.11692355628E+02 -0.42226377713E+01  0.57658866995E+02  0.58983878790E+02  0.10566000000E+00 0. -1.
         22    1    1    0    0    0  0.18737502677E+02 -0.26185133662E+01 -0.21935901016E+02  0.28967816145E+02  0.00000000000E+00 0. -1.
</event>
<event>
 5    1  0.1285346E-004  0.9118800E+02  0.7818608E-02  0.1130116E+00
         25   -1    0    0    0    0  0.00000000000E+00  0.00000000000E+00  0.99999998245E-14  0.12500000000E+03  0.12500000000E+03 0.  0.
        -13    1    3    3    0    0 -0.24578680647E+02 -0.25636874377E+02 -0.16475802014E+02  0.39151297376E+02  0.10566000000E+00 0.  1.
         23    2    1    0    0    0  0.67223777675E+01 -0.11071319866E+02  0.27229088316E+02  0.94847259876E+02  0.89926719995E+02 0.  0.
         13    1    3    3    0    0  0.31301058415E+02  0.14565554511E+02  0.43704890330E+02  0.55695962501E+02  0.10566000000E+00 0. -1.
         22    1    1    0    0    0 -0.67223777675E+01  0.11071319866E+02 -0.27229088316E+02  0.30152740124E+02  0.00000000000E+00 0. -1.
</event>
<event>
 5    1  0.1285346E-004  0.9118800E+02  0.7818608E-02  0.1130116E+00
         25   -1    0    0    0    0  0.00000000000E+00  0.00000000000E+00  0.99999998245E-14  0.12500000000E+03  0.12500000000E+03 0.  0.
        -13    1    3    3    0    0 -0.35285774859E+02  0.33043573947E+02  0.61670017929E+00  0.48346201192E+02  0.10566000000E+00 0.  1.
         23    2    1    0    0    0 -0.26229104564E+01  0.18361394252E+02  0.26586683437E+02  0.92582841051E+02  0.86722028705E+02 0.  0.
         13    1    3    3    0    0  0.32662864403E+02 -0.14682179694E+02  0.25969983257E+02  0.44236639859E+02  0.10566000000E+00 0. -1.
         22    1    1    0    0    0  0.26229104564E+01 -0.18361394252E+02 -0.26586683437E+02  0.32417158949E+02  0.00000000000E+00 0.  1.
</event>
<event>
 5    1  0.1285346E-004  0.9118800E+02  0.7818608E-02  0.1130116E+00
         25   -1    0    0    0    0  0.00000000000E+00  0.00000000000E+00  0.99999998245E-14  0.12500000000E+03  0.12500000000E+03 0.  0.
        -13    1    3    3    0    0  0.51696954587E+01 -0.24286288130E+02 -0.24407880811E+02  0.34818175598E+02  0.10566000000E+00 0.  1.
         23    2    1    0    0    0 -0.16049769125E+02  0.92758752929E+01  0.22220219077E+02  0.96062565987E+02  0.91600444850E+02 0.  0.
         13    1    3    3    0    0 -0.21219464583E+02  0.33562163423E+02  0.46628099888E+02  0.61244390389E+02  0.10566000000E+00 0. -1.
         22    1    1    0    0    0  0.16049769125E+02 -0.92758752929E+01 -0.22220219077E+02  0.28937434013E+02  0.00000000000E+00 0. -1.
</event>
<event>
 5    1  0.1285346E-004  0.9118800E+02  0.7818608E-02  0.1130116E+00
         25   -1    0    0    0    0  0.00000000000E+00  0.00000000000E+00  0.99999998245E-14  0.12500000000E+03  0.12500000000E+03 0.  0.
        -13    1    3    3    0    0  0.12119981161E+02 -0.93087827330E+01 -0.33397718456E+02  0.36728274414E+02  0.10566000000E+00 0.  1.
         23    2    1    0    0    0 -0.28197881659E+02 -0.54220620729E+00  0.85123927453E+01  0.95540275835E+02  0.90884921515E+02 0.  0.
         13    1    3    3    0    0 -0.40317862819E+02  0.87665765257E+01  0.41910111201E+02  0.58812001422E+02  0.10566000000E+00 0. -1.
         22    1    1    0    0    0  0.28197881659E+02  0.54220620729E+00 -0.85123927453E+01  0.29459724165E+02  0.00000000000E+00 0. -1.
</event>
<event>
 5    1  0.1285346E-004  0.9118800E+02  0.7818608E-02  0.1130116E+00
         25   -1    0    0    0    0  0.00000000000E+00  0.00000000000E+00  0.99999998245E-14  0.12500000000E+03  0.12500000000E+03 0.  0.
        -13    1    3    3    0    0 -0.23158832353E+02 -0.21344339317E+02 -0.20745000739E+02  0.37713108550E+02  0.10566000000E+00 0. -1.
         23    2    1    0    0    0  0.61985926728E+01  0.27285219366E+02 -0.66145480335E+01  0.96248339306E+02  0.91853605408E+02 0.  0.
         13    1    3    3    0    0  0.29357425026E+02  0.48629558683E+02  0.14130452705E+02  0.58535230755E+02  0.10566000000E+00 0.  1.
         22    1    1    0    0    0 -0.61985926728E+01 -0.27285219366E+02  0.66145480335E+01  0.28751660694E+02  0.00000000000E+00 0.  1.
</event>
<event>
 5    1  0.1285346E-004  0.9118800E+02  0.7818608E-02  0.1130116E+00
         25   -1    0    0    0    0  0.00000000000E+00  0.00000000000E+00  0.99999998245E-14  0.12500000000E+03  0.12500000000E+03 0.  0.
        -13    1    3    3    0    0 -0.33772686002E+02  0.18668545529E+02  0.33768085965E+02  0.51277711588E+02  0.10566000000E+00 0. -1.
         23    2    1    0    0    0 -0.41994376220E+02  0.78693645728E+01  0.64384622783E+01  0.81792265399E+02  0.69448299833E+02 0.  0.
         13    1    3    3    0    0 -0.82216902175E+01 -0.10799180956E+02 -0.27329623687E+02  0.30514553810E+02  0.10566000000E+00 0.  1.
         22    1    1    0    0    0  0.41994376220E+02 -0.78693645728E+01 -0.64384622783E+01  0.43207734601E+02  0.00000000000E+00 0. -1.
</event>
<event>
 5    1  0.1285346E-004  0.9118800E+02  0.7818608E-02  0.1130116E+00
         25   -1    0    0    0    0  0.00000000000E+00  0.00000000000E+00  0.99999998245E-14  0.12500000000E+03  0.12500000000E+03 0.  0.
        -13    1    3    3    0    0 -0.20348711814E+02  0.22774546142E+02 -0.69098985272E+01  0.31313062548E+02  0.10566000000E+00 0.  1.
         23    2    1    0    0    0  0.13130023223E+02 -0.24725655801E+02 -0.19637905111E+02  0.90803466816E+02  0.84118171069E+02 0.  0.
         13    1    3    3    0    0  0.33478735038E+02 -0.47500201943E+02 -0.12728006584E+02  0.59490404268E+02  0.10566000000E+00 0. -1.
         22    1    1    0    0    0 -0.13130023223E+02  0.24725655801E+02  0.19637905111E+02  0.34196533184E+02  0.00000000000E+00 0. -1.
</event>
<event>
 5    1  0.1285346E-004  0.9118800E+02  0.7818608E-02  0.1130116E+00
         25   -1    0    0    0    0  0.00000000000E+00  0.00000000000E+00  0.99999998245E-14  0.12500000000E+03  0.12500000000E+03 0.  0.
        -13    1    3    3    0    0 -0.10481176853E+02 -0.16413488230E+02  0.30393937676E+02  0.36097926196E+02  0.10566000000E+00 0.  1.
         23    2    1    0    0    0 -0.41172058928E+01  0.23479888182E+02 -0.14976921139E+02  0.96847474355E+02  0.92665358084E+02 0.  0.
         13    1    3    3    0    0  0.63639709606E+01  0.39893376412E+02 -0.45370858815E+02  0.60749548160E+02  0.10566000000E+00 0. -1.
         22    1    1    0    0    0  0.41172058928E+01 -0.23479888182E+02  0.14976921139E+02  0.28152525645E+02  0.00000000000E+00 0. -1.
</event>
<event>
 5    1  0.1285346E-004  0.9118800E+02  0.7818608E-02  0.1130116E+00
         25   -1    0    0    0    0  0.00000000000E+00  0.00000000000E+00  0.99999998245E-14  0.12500000000E+03  0.12500000000E+03 0.  0.
        -13    1    3    3    0    0 -0.37242906833E+02  0.46422713726E+02  0.13037764132E+02  0.60926980203E+02  0.10566000000E+00 0.  1.
         23    2    1    0    0    0 -0.23776249585E+02  0.14997128058E+02  0.96270764720E+01  0.95286291115E+02  0.90534925739E+02 0.  0.
         13    1    3    3    0    0  0.13466657248E+02 -0.31425585667E+02 -0.34106876596E+01  0.34359310912E+02  0.10566000000E+00 0. -1.
         22    1    1    0    0    0  0.23776249585E+02 -0.14997128058E+02 -0.96270764720E+01  0.29713708885E+02  0.00000000000E+00 0.  1.
</event>
<event>
 5    1  0.1285346E-004  0.9118800E+02  0.7818608E-02  0.1130116E+00
         25   -1    0    0    0    0  0.00000000000E+00  0.00000000000E+00  0.99999998245E-14  0.12500000000E+03  0.12500000000E+03 0.  0.
        -13    1    3    3    0    0 -0.42875152805E+02 -0.34332988295E+02  0.19759378751E+02  0.58373598707E+02  0.10566000000E+00 0. -1.
         23    2    1    0    0    0 -0.60739014540E+01 -0.22429061137E+02  0.14995474252E+02  0.97344633244E+02  0.93333586190E+02 0.  0.
         13    1    3    3    0    0  0.36801251351E+02  0.11903927158E+02 -0.47639044987E+01  0.38971034537E+02  0.10566000000E+00 0.  1.
         22    1    1    0    0    0  0.60739014540E+01  0.22429061137E+02 -0.14995474252E+02  0.27655366756E+02  0.00000000000E+00 0. -1.
</event>
<event>
 5    1  0.1285346E-004  0.9118800E+02  0.7818608E-02  0.1130116E+00
         25   -1    0    0    0    0  0.00000000000E+00  0.00000000000E+00  0.99999998245E-14  0.12500000000E+03  0.12500000000E+03 0.  0.
        -13    1    3    3    0    0 -0.13744933504E+02 -0.23412326554E+02  0.23087878749E+02  0.35638764581E+02  0.10566000000E+00 0.  1.
         23    2    1    0    0    0  0.26880311354E+02  0.80431324378E+01 -0.81665436430E+01  0.95777824295E+02  0.91211052366E+02 0.  0.
         13    1    3    3    0    0  0.40625244858E+02  0.31455458992E+02 -0.31254422392E+02  0.60139059714E+02  0.10566000000E+00 0. -1.
         22    1    1    0    0    0 -0.26880311354E+02 -0.80431324378E+01  0.81665436430E+01  0.29222175705E+02  0.00000000000E+00 0. -1.
</event>
<event>
 5    1  0.1285346E-004  0.9118800E+02  0.7818608E-02  0.1130116E+00
         25   -1    0    0    0    0  0.00000000000E+00  0.00000000000E+00  0.99999998245E-14  0.12500000000E+03  0.12500000000E+03 0.  0.
        -13    1    3    3    0    0  0.18615955096E+02  0.31740971270E+02 -0.10410082842E+02  0.38241653077E+02  0.10566000000E+00 0. -1.
         23    2    1    0    0    0 -0.27033256928E+02  0.49256049389E+01 -0.18606114602E+02  0.91814972281E+02  0.85608078300E+02 0.  0.
         13    1    3    3    0    0 -0.45649212024E+02 -0.26815366331E+02 -0.81960317594E+01  0.53573319203E+02  0.10566000000E+00 0.  1.
         22    1    1    0    0    0  0.27033256928E+02 -0.49256049389E+01  0.18606114602E+02  0.33185027719E+02  0.00000000000E+00 0.  1.
</event>
<event>
 5    1  0.1285346E-004  0.9118800E+02  0.7818608E-02  0.1130116E+00
         25   -1    0    0    0    0  0.00000000000E+00  0.00000000000E+00  0.99999998245E-14  0.12500000000E+03  0.12500000000E+03 0.  0.
        -13    1    3    3    0    0  0.41880254592E+01  0.89119701030E+01  0.41838288197E+02  0.42981580842E+02  0.10566000000E+00 0.  1.
         23    2    1    0    0    0  0.24115050396E+02 -0.18344893040E+02  0.28369626386E+01  0.94567794801E+02  0.89537415086E+02 0.  0.
         13    1    3    3    0    0  0.19927024937E+02 -0.27256863143E+02 -0.39001325559E+02  0.51586213959E+02  0.10566000000E+00 0. -1.
         22    1    1    0    0    0 -0.24115050396E+02  0.18344893040E+02 -0.28369626386E+01  0.30432205199E+02  0.00000000000E+00 0.  1.
</event>
<event>
 5    1  0.1285346E-004  0.9118800E+02  0.7818608E-02  0.1130116E+00
         25   -1    0    0    0    0  0.00000000000E+00  0.00000000000E+00  0.99999998245E-14  0.12500000000E+03  0.12500000000E+03 0.  0.
        -13    1    3    3    0    0 -0.91979261032E+01  0.31717271843E+02  0.26789067800E+02  0.42523552243E+02  0.10566000000E+00 0. -1.
         23    2    1    0    0    0  0.29741412280E+01  0.17330754601E+02 -0.23166701849E+02  0.95915697608E+02  0.91399805262E+02 0.  0.
         13    1    3    3    0    0  0.12172067331E+02 -0.14386517242E+02 -0.49955769648E+02  0.53392145365E+02  0.10566000000E+00 0.  1.
         22    1    1    0    0    0 -0.29741412280E+01 -0.17330754601E+02  0.23166701849E+02  0.29084302392E+02  0.00000000000E+00 0.  1.
</event>
<event>
 5    1  0.1285346E-004  0.9118800E+02  0.7818608E-02  0.1130116E+00
         25   -1    0    0    0    0  0.00000000000E+00  0.00000000000E+00  0.99999998245E-14  0.12500000000E+03  0.12500000000E+03 0.  0.
        -13    1    3    3    0    0 -0.12447174283E+02  0.30754232994E+02 -0.37848013678E+02  0.50331285480E+02  0.10566000000E+00 0. -1.
         23    2    1    0    0    0  0.10237339949E+02 -0.80950551372E+01 -0.24472381740E+02  0.97264994773E+02  0.93226866799E+02 0.  0.
         13    1    3    3    0    0  0.22684514232E+02 -0.38849288131E+02  0.13375631938E+02  0.46933709293E+02  0.10566000000E+00 0.  1.
         22    1    1    0    0    0 -0.10237339949E+02  0.80950551372E+01  0.24472381740E+02  0.27735005227E+02  0.00000000000E+00 0. -1.
</event>
<event>
 5    1  0.1285346E-004  0.9118800E+02  0.7818608E-02  0.1130116E+00
         25   -1    0    0    0    0  0.00000000000E+00  0.00000000000E+00  0.99999998245E-14  0.12500000000E+03  0.12500000000E+03 0.  0.
        -13    1    3    3    0    0 -0.20503348932E+00 -0.62808012501E+01 -0.35281698898E+02  0.35837130804E+02  0.10566000000E+00 0. -1.
         23    2    1    0    0    0  0.12394973654E+02  0.23203909831E+02  0.14432028232E+02  0.94994329832E+02  0.90130918435E+02 0.  0.
         13    1    3    3    0    0  0.12600007143E+02  0.29484711081E+02  0.49713727131E+02  0.59157199028E+02  0.10566000000E+00 0.  1.
         22    1    1    0    0    0 -0.12394973654E+02 -0.23203909831E+02 -0.14432028232E+02  0.30005670168E+02  0.00000000000E+00 0.  1.
</event>
<event>
 5    1  0.1285346E-004  0.9118800E+02  0.7818608E-02  0.1130116E+00
         25   -1    0    0    0    0  0.00000000000E+00  0.00000000000E+00  0.99999998245E-14  0.12500000000E+03  0.12500000000E+03 0.  0.
        -13    1    3    3    0    0 -0.15487237600E+02 -0.38738902325E+01  0.31086795179E+02  0.34946552800E+02  0.10566000000E+00 0. -1.
         23    2    1    0    0    0  0.14822705044E+02  0.22848069205E+02 -0.13061376380E+02  0.94794927509E+02  0.89853947478E+02 0.  0.
         13    1    3    3    0    0  0.30309942645E+02  0.26721959438E+02 -0.44148171559E+02  0.59848374710E+02  0.10566000000E+00 0.  1.
         22    1    1    0    0    0 -0.14822705044E+02 -0.22848069205E+02  0.13061376380E+02  0.30205072491E+02  0.00000000000E+00 0.  1.
</event>
<event>
 5    1  0.1285346E-004  0.9118800E+02  0.7818608E-02  0.1130116E+00
         25   -1    0    0    0    0  0.00000000000E+00  0.00000000000E+00  0.99999998245E-14  0.12500000000E+03  0.12500000000E+03 0.  0.
        -13    1    3    3    0    0 -0.32008935988E+02 -0.52119983405E+01  0.23398904121E+01  0.32514968260E+02  0.10566000000E+00 0. -1.
         23    2    1    0    0    0  0.10310102911E+02  0.23997849062E+02 -0.23322354454E+02  0.89983900860E+02  0.82891345840E+02 0.  0.
         13    1    3    3    0    0  0.42319038899E+02  0.29209847403E+02 -0.25662244866E+02  0.57468932600E+02  0.10566000000E+00 0.  1.
         22    1    1    0    0    0 -0.10310102911E+02 -0.23997849062E+02  0.23322354454E+02  0.35016099140E+02  0.00000000000E+00 0.  1.
</event>
<event>
 5    1  0.1285346E-004  0.9118800E+02  0.7818608E-02  0.1130116E+00
         25   -1    0    0    0    0  0.00000000000E+00  0.00000000000E+00  0.99999998245E-14  0.12500000000E+03  0.12500000000E+03 0.  0.
        -13    1    3    3    0    0  0.17352011881E+02 -0.41868148796E+02 -0.84334886679E+01  0.46099556343E+02  0.10566000000E+00 0.  1.
         23    2    1    0    0    0 -0.24304073220E+02 -0.13017002918E+02 -0.24663149529E+00  0.97428435533E+02  0.93445753693E+02 0.  0.
         13    1    3    3    0    0 -0.41656085102E+02  0.28851145878E+02  0.81868571726E+01  0.51328879190E+02  0.10566000000E+00 0. -1.
         22    1    1    0    0    0  0.24304073220E+02  0.13017002918E+02  0.24663149529E+00  0.27571564467E+02  0.00000000000E+00 0. -1.
</event>
<event>
 5    1  0.1285346E-004  0.9118800E+02  0.7818608E-02  0.1130116E+00
         25   -1    0    0    0    0  0.00000000000E+00  0.00000000000E+00  0.99999998245E-14  0.12500000000E+03  0.12500000000E+03 0.  0.
        -13    1    3    3    0    0 -0.12956423820E+02 -0.54414348807E+02 -0.21737038526E+02  0.60010834707E+02  0.10566000000E+00 0. -1.
         23    2    1    0    0    0  0.47011045418E+01 -0.28686670627E+02 -0.16259735518E+02  0.91692276351E+02  0.85428736897E+02 0.  0.
         13    1    3    3    0    0  0.17657528362E+02  0.25727678180E+02  0.54773030080E+01  0.31681441644E+02  0.10566000000E+00 0.  1.
         22    1    1    0    0    0 -0.47011045418E+01  0.28686670627E+02  0.16259735518E+02  0.33307723649E+02  0.00000000000E+00 0. -1.
</event>
<event>
 5    1  0.1285346E-004  0.9118800E+02  0.7818608E-02  0.1130116E+00
         25   -1    0    0    0    0  0.00000000000E+00  0.00000000000E+00  0.99999998245E-14  0.12500000000E+03  0.12500000000E+03 0.  0.
        -13    1    3    3    0    0  0.42120807150E+02  0.25720687670E+02 -0.47936840519E+01  0.49585348037E+02  0.10566000000E+00 0. -1.
         23    2    1    0    0    0  0.25231637442E+02 -0.16218625566E+02 -0.49990906580E+00  0.95001179151E+02  0.90140417060E+02 0.  0.
         13    1    3    3    0    0 -0.16889169707E+02 -0.41939313236E+02  0.42937749861E+01  0.45415831114E+02  0.10566000000E+00 0.  1.
         22    1    1    0    0    0 -0.25231637442E+02  0.16218625566E+02  0.49990906580E+00  0.29998820849E+02  0.00000000000E+00 0. -1.
</event>
<event>
 5    1  0.1285346E-004  0.9118800E+02  0.7818608E-02  0.1130116E+00
         25   -1    0    0    0    0  0.00000000000E+00  0.00000000000E+00  0.99999998245E-14  0.12500000000E+03  0.12500000000E+03 0.  0.
        -13    1    3    3    0    0  0.21865870068E+02  0.16930937218E+02 -0.22405992496E+02  0.35592310583E+02  0.10566000000E+00 0.  1.
         23    2    1    0    0    0 -0.71068653273E+01 -0.28544126281E+02  0.34341610457E+01  0.95384663736E+02  0.90670645382E+02 0.  0.
         13    1    3    3    0    0 -0.28972735395E+02 -0.45475063499E+02  0.25840153541E+02  0.59792353153E+02  0.10566000000E+00 0. -1.
         22    1    1    0    0    0  0.71068653273E+01  0.28544126281E+02 -0.34341610457E+01  0.29615336264E+02  0.00000000000E+00 0. -1.
</event>
<event>
 5    1  0.1285346E-004  0.9118800E+02  0.7818608E-02  0.1130116E+00
         25   -1    0    0    0    0  0.00000000000E+00  0.00000000000E+00  0.99999998245E-14  0.12500000000E+03  0.12500000000E+03 0.  0.
        -13    1    3    3    0    0 -0.51606579096E+02  0.17150090358E+02 -0.26017796044E+02  0.60285167996E+02  0.10566000000E+00 0.  1.
         23    2    1    0    0    0 -0.28836768505E+02 -0.10623990498E+01 -0.63581970521E+01  0.95451487697E+02  0.90762723209E+02 0.  0.
         13    1    3    3    0    0  0.22769810591E+02 -0.18212489407E+02  0.19659598992E+02  0.35166319701E+02  0.10566000000E+00 0. -1.
         22    1    1    0    0    0  0.28836768505E+02  0.10623990498E+01  0.63581970521E+01  0.29548512303E+02  0.00000000000E+00 0.  1.
</event>
<event>
 5    1  0.1285346E-004  0.9118800E+02  0.7818608E-02  0.1130116E+00
         25   -1    0    0    0    0  0.00000000000E+00  0.00000000000E+00  0.99999998245E-14  0.12500000000E+03  0.12500000000E+03 0.  0.
        -13    1    3    3    0    0 -0.15098930444E+01 -0.17907595176E+01  0.42826203051E+02  0.42890341902E+02  0.10566000000E+00 0. -1.
         23    2    1    0    0    0  0.24434283154E+01 -0.30872908758E+02  0.96484981759E+00  0.94015523689E+02  0.88763060573E+02 0.  0.
         13    1    3    3    0    0  0.39533213598E+01 -0.29082149240E+02 -0.41861353233E+02  0.51125181787E+02  0.10566000000E+00 0.  1.
         22    1    1    0    0    0 -0.24434283154E+01  0.30872908758E+02 -0.96484981759E+00  0.30984476311E+02  0.00000000000E+00 0.  1.
</event>
<event>
 5    1  0.1285346E-004  0.9118800E+02  0.7818608E-02  0.1130116E+00
         25   -1    0    0    0    0  0.00000000000E+00  0.00000000000E+00  0.99999998245E-14  0.12500000000E+03  0.12500000000E+03 0.  0.
        -13    1    3    3    0    0 -0.84982580132E+01 -0.51696977910E+02 -0.97186170528E+01  0.53284712589E+02  0.10566000000E+00 0. -1.
         23    2    1    0    0    0  0.16693801694E+02 -0.23868773469E+02  0.80002268760E+01  0.94793957691E+02  0.89852598308E+02 0.  0.
         13    1    3    3    0    0  0.25192059708E+02  0.27828204441E+02  0.17718843929E+02  0.41509245102E+02  0.10566000000E+00 0.  1.
         22    1    1    0    0    0 -0.16693801694E+02  0.23868773469E+02 -0.80002268760E+01  0.30206042309E+02  0.00000000000E+00 0. -1.
</event>
<event>
 5    1  0.1285346E-004  0.9118800E+02  0.7818608E-02  0.1130116E+00
         25   -1    0    0    0    0  0.00000000000E+00  0.00000000000E+00  0.99999998245E-14  0.12500000000E+03  0.12500000000E+03 0.  0.
        -13    1    3    3    0    0  0.49463735314E+02  0.14276393651E+02  0.14851502241E+02  0.53582224755E+02  0.10566000000E+00 0.  1.
         23    2    1    0    0    0  0.21187487659E+02 -0.16071746125E+02  0.13716691005E+02  0.95077462191E+02  0.90246138686E+02 0.  0.
         13    1    3    3    0    0 -0.28276247655E+02 -0.30348139775E+02 -0.11348112355E+01  0.41495237436E+02  0.10566000000E+00 0. -1.
         22    1    1    0    0    0 -0.21187487659E+02  0.16071746125E+02 -0.13716691005E+02  0.29922537809E+02  0.00000000000E+00 0.  1.
</event>
<event>
 5    1  0.1285346E-004  0.9118800E+02  0.7818608E-02  0.1130116E+00
         25   -1    0    0    0    0  0.00000000000E+00  0.00000000000E+00  0.99999998245E-14  0.12500000000E+03  0.12500000000E+03 0.  0.
        -13    1    3    3    0    0 -0.34449137642E+02 -0.34996315433E+01  0.34148648582E+01  0.34794582498E+02  0.10566000000E+00 0.  1.
         23    2    1    0    0    0  0.22863611596E+02 -0.76361470642E+01 -0.16699683896E+02  0.95675353038E+02  0.91070512569E+02 0.  0.
         13    1    3    3    0    0  0.57312749238E+02 -0.41365155209E+01 -0.20114548754E+02  0.60880770540E+02  0.10566000000E+00 0. -1.
         22    1    1    0    0    0 -0.22863611596E+02  0.76361470642E+01  0.16699683896E+02  0.29324646962E+02  0.00000000000E+00 0. -1.
</event>
<event>
 5    1  0.1285346E-004  0.9118800E+02  0.7818608E-02  0.1130116E+00
         25   -1    0    0    0    0  0.00000000000E+00  0.00000000000E+00  0.99999998245E-14  0.12500000000E+03  0.12500000000E+03 0.  0.
        -13    1    3    3    0    0  0.93946031546E+01  0.28878975775E+02  0.94612479638E+01  0.31808492377E+02  0.10566000000E+00 0.  1.
         23    2    1    0    0    0 -0.10604532174E+02 -0.28565268524E+02 -0.44540086572E+01  0.94206025564E+02  0.89030929406E+02 0.  0.
         13    1    3    3    0    0 -0.19999135329E+02 -0.57444244298E+02 -0.13915256621E+02  0.62397533187E+02  0.10566000000E+00 0. -1.
         22    1    1    0    0    0  0.10604532174E+02  0.28565268524E+02  0.44540086572E+01  0.30793974436E+02  0.00000000000E+00 0. -1.
</event>
<event>
 5    1  0.1285346E-004  0.9118800E+02  0.7818608E-02  0.1130116E+00
         25   -1    0    0    0    0  0.00000000000E+00  0.00000000000E+00  0.99999998245E-14  0.12500000000E+03  0.12500000000E+03 0.  0.
        -13    1    3    3    0    0 -0.10265628958E+02 -0.44907117673E+02  0.77504823339E+01  0.46713097693E+02  0.10566000000E+00 0.  1.
         23    2    1    0    0    0 -0.28669606857E+02  0.48438265425E+00  0.58809079981E+01  0.95729433507E+02  0.91144711184E+02 0.  0.
         13    1    3    3    0    0 -0.18403977899E+02  0.45391500327E+02 -0.18695743358E+01  0.49016335815E+02  0.10566000000E+00 0. -1.
         22    1    1    0    0    0  0.28669606857E+02 -0.48438265425E+00 -0.58809079981E+01  0.29270566493E+02  0.00000000000E+00 0.  1.
</event>
<event>
 5    1  0.1285346E-004  0.9118800E+02  0.7818608E-02  0.1130116E+00
         25   -1    0    0    0    0  0.00000000000E+00  0.00000000000E+00  0.99999998245E-14  0.12500000000E+03  0.12500000000E+03 0.  0.
        -13    1    3    3    0    0  0.18993704473E+02 -0.31861509902E+02  0.15680085569E+02  0.40271489546E+02  0.10566000000E+00 0. -1.
         23    2    1    0    0    0 -0.26181574910E+02 -0.69858234096E+01 -0.76042060071E+01  0.96855719187E+02  0.92676479199E+02 0.  0.
         13    1    3    3    0    0 -0.45175279383E+02  0.24875686492E+02 -0.23284291576E+02  0.56584229640E+02  0.10566000000E+00 0.  1.
         22    1    1    0    0    0  0.26181574910E+02  0.69858234096E+01  0.76042060071E+01  0.28144280813E+02  0.00000000000E+00 0.  1.
</event>
<event>
 5    1  0.1285346E-004  0.9118800E+02  0.7818608E-02  0.1130116E+00
         25   -1    0    0    0    0  0.00000000000E+00  0.00000000000E+00  0.99999998245E-14  0.12500000000E+03  0.12500000000E+03 0.  0.
        -13    1    3    3    0    0  0.84073816780E+01  0.46572428120E+02  0.32179168267E+02  0.57229233457E+02  0.10566000000E+00 0. -1.
         23    2    1    0    0    0 -0.10404820420E+02  0.28146710534E+02  0.59279669598E+01  0.94411793218E+02  0.89319361309E+02 0.  0.
         13    1    3    3    0    0 -0.18812202098E+02 -0.18425717586E+02 -0.26251201307E+02  0.37182559762E+02  0.10566000000E+00 0.  1.
         22    1    1    0    0    0  0.10404820420E+02 -0.28146710534E+02 -0.59279669598E+01  0.30588206782E+02  0.00000000000E+00 0. -1.
</event>
<event>
 5    1  0.1285346E-004  0.9118800E+02  0.7818608E-02  0.1130116E+00
         25   -1    0    0    0    0  0.00000000000E+00  0.00000000000E+00  0.99999998245E-14  0.12500000000E+03  0.12500000000E+03 0.  0.
        -13    1    3    3    0    0  0.22151360449E+02  0.23661738646E+02  0.52499065808E+01  0.32834940667E+02  0.10566000000E+00 0.  1.
         23    2    1    0    0    0 -0.22187176522E+02 -0.66430760355E+01 -0.21998206286E+02  0.93057515109E+02  0.87403539843E+02 0.  0.
         13    1    3    3    0    0 -0.44338536970E+02 -0.30304814681E+02 -0.27248112867E+02  0.60222574442E+02  0.10566000000E+00 0. -1.
         22    1    1    0    0    0  0.22187176522E+02  0.66430760355E+01  0.21998206286E+02  0.31942484891E+02  0.00000000000E+00 0. -1.
</event>
<event>
 5    1  0.1285346E-004  0.9118800E+02  0.7818608E-02  0.1130116E+00
         25   -1    0    0    0    0  0.00000000000E+00  0.00000000000E+00  0.99999998245E-14  0.12500000000E+03  0.12500000000E+03 0.  0.
        -13    1    3    3    0    0 -0.12427529049E+02 -0.32242211055E+02 -0.51550891123E+02  0.62060528451E+02  0.10566000000E+00 0. -1.
         23    2    1    0    0    0 -0.12628284561E+01 -0.13423494121E+02 -0.26088650542E+02  0.95633307690E+02  0.91012784390E+02 0.  0.
         13    1    3    3    0    0  0.11164700592E+02  0.18818716934E+02  0.25462240581E+02  0.33572779239E+02  0.10566000000E+00 0.  1.
         22    1    1    0    0    0  0.12628284561E+01  0.13423494121E+02  0.26088650542E+02  0.29366692310E+02  0.00000000000E+00 0. -1.
</event>
<event>
 5    1  0.1285346E-004  0.9118800E+02  0.7818608E-02  0.1130116E+00
         25   -1    0    0    0    0  0.00000000000E+00  0.00000000000E+00  0.99999998245E-14  0.12500000000E+03  0.12500000000E+03 0.  0.
        -13    1    3    3    0    0 -0.29511422212E+02  0.27385839057E+02  0.50725038389E+01  0.40578931492E+02  0.10566000000E+00 0.  1.
         23    2    1    0    0    0  0.17821220074E+02  0.31780538587E+01 -0.18839513411E+02  0.98872941673E+02  0.95358457508E+02 0.  0.
         13    1    3    3    0    0  0.47332642286E+02 -0.24207785198E+02 -0.23912017250E+02  0.58294010181E+02  0.10566000000E+00 0. -1.
         22    1    1    0    0    0 -0.17821220074E+02 -0.31780538587E+01  0.18839513411E+02  0.26127058327E+02  0.00000000000E+00 0. -1.
</event>
<event>
 5    1  0.1285346E-004  0.9118800E+02  0.7818608E-02  0.1130116E+00
         25   -1    0    0    0    0  0.00000000000E+00  0.00000000000E+00  0.99999998245E-14  0.12500000000E+03  0.12500000000E+03 0.  0.
        -13    1    3    3    0    0  0.14314840057E+02 -0.28252886510E+02 -0.45296780193E+02  0.55271599415E+02  0.10566000000E+00 0.  1.
         23    2    1    0    0    0  0.19880763950E+02 -0.19389662703E+02 -0.51555244621E+01  0.96754943309E+02  0.92540455085E+02 0.  0.
         13    1    3    3    0    0  0.55659238925E+01  0.88632238064E+01  0.40141255731E+02  0.41483343895E+02  0.10566000000E+00 0. -1.
         22    1    1    0    0    0 -0.19880763950E+02  0.19389662703E+02  0.51555244621E+01  0.28245056691E+02  0.00000000000E+00 0.  1.
</event>
<event>
 5    1  0.1285346E-004  0.9118800E+02  0.7818608E-02  0.1130116E+00
         25   -1    0    0    0    0  0.00000000000E+00  0.00000000000E+00  0.99999998245E-14  0.12500000000E+03  0.12500000000E+03 0.  0.
        -13    1    3    3    0    0 -0.22664802912E+02  0.24615902748E+02  0.98226080654E+01  0.34873066288E+02  0.10566000000E+00 0. -1.
         23    2    1    0    0    0  0.25690424044E+02 -0.10953392760E+02 -0.48138946320E+01  0.96660129110E+02  0.92412295056E+02 0.  0.
         13    1    3    3    0    0  0.48355226956E+02 -0.35569295508E+02 -0.14636502697E+02  0.61787062822E+02  0.10566000000E+00 0.  1.
         22    1    1    0    0    0 -0.25690424044E+02  0.10953392760E+02  0.48138946320E+01  0.28339870890E+02  0.00000000000E+00 0.  1.
</event>
<event>
 5    1  0.1285346E-004  0.9118800E+02  0.7818608E-02  0.1130116E+00
         25   -1    0    0    0    0  0.00000000000E+00  0.00000000000E+00  0.99999998245E-14  0.12500000000E+03  0.12500000000E+03 0.  0.
        -13    1    3    3    0    0  0.37052075358E+02 -0.10937810317E+02  0.49654889037E+01  0.38950728195E+02  0.10566000000E+00 0. -1.
         23    2    1    0    0    0 -0.12241379050E+02 -0.21038821943E+02 -0.18456626597E+02  0.94452815921E+02  0.89376753019E+02 0.  0.
         13    1    3    3    0    0 -0.49293454408E+02 -0.10101011626E+02 -0.23422115501E+02  0.55502087726E+02  0.10566000000E+00 0.  1.
         22    1    1    0    0    0  0.12241379050E+02  0.21038821943E+02  0.18456626597E+02  0.30547184079E+02  0.00000000000E+00 0.  1.
</event>
<event>
 5    1  0.1285346E-004  0.9118800E+02  0.7818608E-02  0.1130116E+00
         25   -1    0    0    0    0  0.00000000000E+00  0.00000000000E+00  0.99999998245E-14  0.12500000000E+03  0.12500000000E+03 0.  0.
        -13    1    3    3    0    0 -0.10730193962E+02 -0.30767002612E+02  0.13031806177E+01  0.32610657092E+02  0.10566000000E+00 0. -1.
         23    2    1    0    0    0  0.17384681388E+02  0.22537994728E+02 -0.11636844875E+02  0.94249316886E+02  0.89091689969E+02 0.  0.
         13    1    3    3    0    0  0.28114875350E+02  0.53304997340E+02 -0.12940025493E+02  0.61638659794E+02  0.10566000000E+00 0.  1.
         22    1    1    0    0    0 -0.17384681388E+02 -0.22537994728E+02  0.11636844875E+02  0.30750683114E+02  0.00000000000E+00 0.  1.
</event>
<event>
 5    1  0.1285346E-004  0.9118800E+02  0.7818608E-02  0.1130116E+00
         25   -1    0    0    0    0  0.00000000000E+00  0.00000000000E+00  0.99999998245E-14  0.12500000000E+03  0.12500000000E+03 0.  0.
        -13    1    3    3    0    0 -0.24924844796E+02 -0.32406524494E+02 -0.44979740987E+02  0.60783377507E+02  0.10566000000E+00 0. -1.
         23    2    1    0    0    0 -0.11452577596E+02 -0.21973825014E+02 -0.13004421250E+02  0.97015620582E+02  0.92891900323E+02 0.  0.
         13    1    3    3    0    0  0.13472267200E+02  0.10432699481E+02  0.31975319737E+02  0.36232243075E+02  0.10566000000E+00 0.  1.
         22    1    1    0    0    0  0.11452577596E+02  0.21973825014E+02  0.13004421250E+02  0.27984379418E+02  0.00000000000E+00 0. -1.
</event>
<event>
 5    1  0.1285346E-004  0.9118800E+02  0.7818608E-02  0.1130116E+00
         25   -1    0    0    0    0  0.00000000000E+00  0.00000000000E+00  0.99999998245E-14  0.12500000000E+03  0.12500000000E+03 0.  0.
        -13    1    3    3    0    0 -0.36347087711E+02  0.47213526593E+02  0.13665168903E+02  0.61130809610E+02  0.10566000000E+00 0.  1.
         23    2    1    0    0    0 -0.18259461019E+02  0.17974282659E+02  0.14571232035E+02  0.95524526181E+02  0.90863257400E+02 0.  0.
         13    1    3    3    0    0  0.18087626691E+02 -0.29239243934E+02  0.90606313136E+00  0.34393716571E+02  0.10566000000E+00 0. -1.
         22    1    1    0    0    0  0.18259461019E+02 -0.17974282659E+02 -0.14571232035E+02  0.29475473819E+02  0.00000000000E+00 0.  1.
</event>
<event>
 5    1  0.1285346E-004  0.9118800E+02  0.7818608E-02  0.1130116E+00
         25   -1    0    0    0    0  0.00000000000E+00  0.00000000000E+00  0.99999998245E-14  0.12500000000E+03  0.12500000000E+03 0.  0.
        -13    1    3    3    0    0  0.27756231942E+02 -0.36034408028E+01 -0.12291675455E+02  0.30569423396E+02  0.10566000000E+00 0. -1.
         23    2    1    0    0    0 -0.19672084681E+02 -0.55199927917E+01  0.26265575991E+02  0.91723255594E+02  0.85474053949E+02 0.  0.
         13    1    3    3    0    0 -0.47428316624E+02 -0.19165519890E+01  0.38557251446E+02  0.61153832197E+02  0.10566000000E+00 0.  1.
         22    1    1    0    0    0  0.19672084681E+02  0.55199927917E+01 -0.26265575991E+02  0.33276744406E+02  0.00000000000E+00 0.  1.
</event>
<event>
 5    1  0.1285346E-004  0.9118800E+02  0.7818608E-02  0.1130116E+00
         25   -1    0    0    0    0  0.00000000000E+00  0.00000000000E+00  0.99999998245E-14  0.12500000000E+03  0.12500000000E+03 0.  0.
        -13    1    3    3    0    0  0.39390853196E+01  0.33253808003E+02  0.36186176793E+02  0.49302968417E+02  0.10566000000E+00 0.  1.
         23    2    1    0    0    0 -0.21492394767E+02 -0.20798223437E+01  0.19435062670E+02  0.95948832127E+02  0.91445109393E+02 0.  0.
         13    1    3    3    0    0 -0.25431480086E+02 -0.35333630347E+02 -0.16751114123E+02  0.46645863710E+02  0.10566000000E+00 0. -1.
         22    1    1    0    0    0  0.21492394767E+02  0.20798223437E+01 -0.19435062670E+02  0.29051167873E+02  0.00000000000E+00 0. -1.
</event>
<event>
 5    1  0.1285346E-004  0.9118800E+02  0.7818608E-02  0.1130116E+00
         25   -1    0    0    0    0  0.00000000000E+00  0.00000000000E+00  0.99999998245E-14  0.12500000000E+03  0.12500000000E+03 0.  0.
        -13    1    3    3    0    0 -0.41165394684E+02  0.15590631549E+02 -0.13825617998E+02  0.46139098265E+02  0.10566000000E+00 0.  1.
         23    2    1    0    0    0 -0.16956807406E+02 -0.24202848790E+02  0.21212627559E+01  0.95372125242E+02  0.90653357967E+02 0.  0.
         13    1    3    3    0    0  0.24208587278E+02 -0.39793480340E+02  0.15946880754E+02  0.49233026978E+02  0.10566000000E+00 0. -1.
         22    1    1    0    0    0  0.16956807406E+02  0.24202848790E+02 -0.21212627559E+01  0.29627874758E+02  0.00000000000E+00 0. -1.
</event>
<event>
 5    1  0.1285346E-004  0.9118800E+02  0.7818608E-02  0.1130116E+00
         25   -1    0    0    0    0  0.00000000000E+00  0.00000000000E+00  0.99999998245E-14  0.12500000000E+03  0.12500000000E+03 0.  0.
        -13    1    3    3    0    0  0.52644363480E+02  0.54747235612E+01  0.12849329933E+02  0.54465751148E+02  0.10566000000E+00 0.  1.
         23    2    1    0    0    0  0.17253319235E+02  0.23279901220E+02  0.30495930275E+00  0.96022011360E+02  0.91545086378E+02 0.  0.
         13    1    3    3    0    0 -0.35391044245E+02  0.17805177659E+02 -0.12544370630E+02  0.41556260212E+02  0.10566000000E+00 0. -1.
         22    1    1    0    0    0 -0.17253319235E+02 -0.23279901220E+02 -0.30495930275E+00  0.28977988640E+02  0.00000000000E+00 0.  1.
</event>
<event>
 5    1  0.1285346E-004  0.9118800E+02  0.7818608E-02  0.1130116E+00
         25   -1    0    0    0    0  0.00000000000E+00  0.00000000000E+00  0.99999998245E-14  0.12500000000E+03  0.12500000000E+03 0.  0.
        -13    1    3    3    0    0 -0.25253276608E+02 -0.35130161030E+02  0.11518453893E+02  0.44772113392E+02  0.10566000000E+00 0. -1.
         23    2    1    0    0    0 -0.30524339847E+02 -0.85636270619E+00 -0.17337746271E+02  0.89884958693E+02  0.82742006704E+02 0.  0.
         13    1    3    3    0    0 -0.52710632395E+01  0.34273798324E+02 -0.28856200164E+02  0.45112845302E+02  0.10566000000E+00 0.  1.
         22    1    1    0    0    0  0.30524339847E+02  0.85636270619E+00  0.17337746271E+02  0.35115041307E+02  0.00000000000E+00 0.  1.
</event>
<event>
 5    1  0.1285346E-004  0.9118800E+02  0.7818608E-02  0.1130116E+00
         25   -1    0    0    0    0  0.00000000000E+00  0.00000000000E+00  0.99999998245E-14  0.12500000000E+03  0.12500000000E+03 0.  0.
        -13    1    3    3    0    0  0.13844725150E+02 -0.36211790688E+02  0.70526278153E+01  0.39404579968E+02  0.10566000000E+00 0. -1.
         23    2    1    0    0    0 -0.23208586761E+02  0.70150757876E+01  0.14383497747E+02  0.96808958955E+02  0.92613388550E+02 0.  0.
         13    1    3    3    0    0 -0.37053311911E+02  0.43226866476E+02  0.73308699320E+01  0.57404378987E+02  0.10566000000E+00 0.  1.
         22    1    1    0    0    0  0.23208586761E+02 -0.70150757876E+01 -0.14383497747E+02  0.28191041045E+02  0.00000000000E+00 0.  1.
</event>
<event>
 5    1  0.1285346E-004  0.9118800E+02  0.7818608E-02  0.1130116E+00
         25   -1    0    0    0    0  0.00000000000E+00  0.00000000000E+00  0.99999998245E-14  0.12500000000E+03  0.12500000000E+03 0.  0.
        -13    1    3    3    0    0  0.29939481922E+02  0.27911121498E+02 -0.21049767433E+02  0.46027243607E+02  0.10566000000E+00 0. -1.
         23    2    1    0    0    0 -0.16725005813E+00 -0.10410627501E+02 -0.27881742131E+02  0.95237596169E+02  0.90467668491E+02 0.  0.
         13    1    3    3    0    0 -0.30106731980E+02 -0.38321748999E+02 -0.68319746985E+01  0.49210352561E+02  0.10566000000E+00 0.  1.
         22    1    1    0    0    0  0.16725005813E+00  0.10410627501E+02  0.27881742131E+02  0.29762403831E+02  0.00000000000E+00 0.  1.
</event>
<event>
 5    1  0.1285346E-004  0.9118800E+02  0.7818608E-02  0.1130116E+00
         25   -1    0    0    0    0  0.00000000000E+00  0.00000000000E+00  0.99999998245E-14  0.12500000000E+03  0.12500000000E+03 0.  0.
        -13    1    3    3    0    0  0.20652165752E+02 -0.10968139574E+02  0.17117706684E+02  0.28979977262E+02  0.10566000000E+00 0. -1.
         23    2    1    0    0    0 -0.13295980731E+02 -0.82281355579E+01 -0.32367811576E+02  0.89053365323E+02  0.81476016906E+02 0.  0.
         13    1    3    3    0    0 -0.33948146483E+02  0.27400040160E+01 -0.49485518260E+02  0.60073388061E+02  0.10566000000E+00 0.  1.
         22    1    1    0    0    0  0.13295980731E+02  0.82281355579E+01  0.32367811576E+02  0.35946634677E+02  0.00000000000E+00 0.  1.
</event>
<event>
 5    1  0.1285346E-004  0.9118800E+02  0.7818608E-02  0.1130116E+00
         25   -1    0    0    0    0  0.00000000000E+00  0.00000000000E+00  0.99999998245E-14  0.12500000000E+03  0.12500000000E+03 0.  0.
        -13    1    3    3    0    0  0.26145560846E+02 -0.24482356688E+02  0.46727061699E+02  0.58876188735E+02  0.10566000000E+00 0. -1.
         23    2    1    0    0    0 -0.19446117446E+01 -0.12586082111E+02  0.26840457616E+02  0.95291396149E+02  0.90541973897E+02 0.  0.
         13    1    3    3    0    0 -0.28090172591E+02  0.11896274577E+02 -0.19886604082E+02  0.36415207413E+02  0.10566000000E+00 0.  1.
         22    1    1    0    0    0  0.19446117446E+01  0.12586082111E+02 -0.26840457616E+02  0.29708603851E+02  0.00000000000E+00 0. -1.
</event>
<event>
 5    1  0.1285346E-004  0.9118800E+02  0.7818608E-02  0.1130116E+00
         25   -1    0    0    0    0  0.00000000000E+00  0.00000000000E+00  0.99999998245E-14  0.12500000000E+03  0.12500000000E+03 0.  0.
        -13    1    3    3    0    0  0.42060122765E+02  0.12052463321E+02  0.33625562579E+02  0.55181567773E+02  0.10566000000E+00 0.  1.
         23    2    1    0    0    0  0.29186832185E+02 -0.13539619785E+02  0.21580440160E+02  0.86258447703E+02  0.77068877803E+02 0.  0.
         13    1    3    3    0    0 -0.12873290581E+02 -0.25592083105E+02 -0.12045122419E+02  0.31076879930E+02  0.10566000000E+00 0. -1.
         22    1    1    0    0    0 -0.29186832185E+02  0.13539619785E+02 -0.21580440160E+02  0.38741552297E+02  0.00000000000E+00 0.  1.
</event>
<event>
 5    1  0.1285346E-004  0.9118800E+02  0.7818608E-02  0.1130116E+00
         25   -1    0    0    0    0  0.00000000000E+00  0.00000000000E+00  0.99999998245E-14  0.12500000000E+03  0.12500000000E+03 0.  0.
        -13    1    3    3    0    0  0.56111488834E+02 -0.22451470456E+00  0.12395525791E+02  0.57464857171E+02  0.10566000000E+00 0.  1.
         23    2    1    0    0    0  0.21893047372E+02 -0.17097266580E+02  0.91443499296E+01  0.95755493108E+02  0.91180443500E+02 0.  0.
         13    1    3    3    0    0 -0.34218441462E+02 -0.16872751875E+02 -0.32511758618E+01  0.38290635937E+02  0.10566000000E+00 0. -1.
         22    1    1    0    0    0 -0.21893047372E+02  0.17097266580E+02 -0.91443499296E+01  0.29244506892E+02  0.00000000000E+00 0.  1.
</event>
<event>
 5    1  0.1285346E-004  0.9118800E+02  0.7818608E-02  0.1130116E+00
         25   -1    0    0    0    0  0.00000000000E+00  0.00000000000E+00  0.99999998245E-14  0.12500000000E+03  0.12500000000E+03 0.  0.
        -13    1    3    3    0    0 -0.50298692203E+02 -0.30678198080E+02 -0.50331122316E+01  0.59130818171E+02  0.10566000000E+00 0.  1.
         23    2    1    0    0    0 -0.28403189413E+02 -0.65617316271E+01  0.88434347507E+01  0.94536844730E+02  0.89494196363E+02 0.  0.
         13    1    3    3    0    0  0.21895502790E+02  0.24116466452E+02  0.13876546982E+02  0.35406026560E+02  0.10566000000E+00 0. -1.
         22    1    1    0    0    0  0.28403189413E+02  0.65617316271E+01 -0.88434347507E+01  0.30463155270E+02  0.00000000000E+00 0.  1.
</event>
<event>
 5    1  0.1285346E-004  0.9118800E+02  0.7818608E-02  0.1130116E+00
         25   -1    0    0    0    0  0.00000000000E+00  0.00000000000E+00  0.99999998245E-14  0.12500000000E+03  0.12500000000E+03 0.  0.
        -13    1    3    3    0    0 -0.43131360058E+02  0.34704869445E+02  0.26258467788E+02  0.61272020354E+02  0.10566000000E+00 0. -1.
         23    2    1    0    0    0 -0.17299087910E+02  0.22757690923E+02  0.72133206792E+01  0.95517752225E+02  0.90853938034E+02 0.  0.
         13    1    3    3    0    0  0.25832272148E+02 -0.11947178522E+02 -0.19045147109E+02  0.34245731871E+02  0.10566000000E+00 0.  1.
         22    1    1    0    0    0  0.17299087910E+02 -0.22757690923E+02 -0.72133206792E+01  0.29482247775E+02  0.00000000000E+00 0. -1.
</event>
<event>
 5    1  0.1285346E-004  0.9118800E+02  0.7818608E-02  0.1130116E+00
         25   -1    0    0    0    0  0.00000000000E+00  0.00000000000E+00  0.99999998245E-14  0.12500000000E+03  0.12500000000E+03 0.  0.
        -13    1    3    3    0    0  0.10934873851E+02  0.22808053873E+02 -0.39028600867E+02  0.46508296435E+02  0.10566000000E+00 0. -1.
         23    2    1    0    0    0 -0.14174787332E+02 -0.15878121545E+02 -0.17678630308E+02  0.97331004549E+02  0.93315331737E+02 0.  0.
         13    1    3    3    0    0 -0.25109661184E+02 -0.38686175417E+02  0.21349970559E+02  0.50822708114E+02  0.10566000000E+00 0.  1.
         22    1    1    0    0    0  0.14174787332E+02  0.15878121545E+02  0.17678630308E+02  0.27668995451E+02  0.00000000000E+00 0. -1.
</event>
<event>
 5    1  0.1285346E-004  0.9118800E+02  0.7818608E-02  0.1130116E+00
         25   -1    0    0    0    0  0.00000000000E+00  0.00000000000E+00  0.99999998245E-14  0.12500000000E+03  0.12500000000E+03 0.  0.
        -13    1    3    3    0    0  0.29470507002E+02 -0.59535041557E+01  0.23443602920E+02  0.38125695752E+02  0.10566000000E+00 0. -1.
         23    2    1    0    0    0 -0.17486951708E+02 -0.24076238841E+02 -0.31927657351E+01  0.95072545885E+02  0.90239328850E+02 0.  0.
         13    1    3    3    0    0 -0.46957458710E+02 -0.18122734685E+02 -0.26636368655E+02  0.56946850133E+02  0.10566000000E+00 0.  1.
         22    1    1    0    0    0  0.17486951708E+02  0.24076238841E+02  0.31927657351E+01  0.29927454115E+02  0.00000000000E+00 0.  1.
</event>
<event>
 5    1  0.1285346E-004  0.9118800E+02  0.7818608E-02  0.1130116E+00
         25   -1    0    0    0    0  0.00000000000E+00  0.00000000000E+00  0.99999998245E-14  0.12500000000E+03  0.12500000000E+03 0.  0.
        -13    1    3    3    0    0  0.45653230338E+02 -0.17255878701E+00 -0.12125759343E+02  0.47236558094E+02  0.10566000000E+00 0.  1.
         23    2    1    0    0    0  0.59656243736E+01  0.25208754223E+02 -0.16076880535E+02  0.94511706322E+02  0.89459077687E+02 0.  0.
         13    1    3    3    0    0 -0.39687605965E+02  0.25381313010E+02 -0.39511211915E+01  0.47275148229E+02  0.10566000000E+00 0. -1.
         22    1    1    0    0    0 -0.59656243736E+01 -0.25208754223E+02  0.16076880535E+02  0.30488293678E+02  0.00000000000E+00 0.  1.
</event>
<event>
 5    1  0.1285346E-004  0.9118800E+02  0.7818608E-02  0.1130116E+00
         25   -1    0    0    0    0  0.00000000000E+00  0.00000000000E+00  0.99999998245E-14  0.12500000000E+03  0.12500000000E+03 0.  0.
        -13    1    3    3    0    0 -0.15185991553E+02 -0.13353337209E+01  0.35549539644E+02  0.38680465206E+02  0.10566000000E+00 0.  1.
         23    2    1    0    0    0  0.29006860695E+02 -0.10646058339E+02  0.38407508408E+01  0.93863399471E+02  0.88548573493E+02 0.  0.
         13    1    3    3    0    0  0.44192852247E+02 -0.93107246181E+01 -0.31708788803E+02  0.55182934265E+02  0.10566000000E+00 0. -1.
         22    1    1    0    0    0 -0.29006860695E+02  0.10646058339E+02 -0.38407508408E+01  0.31136600529E+02  0.00000000000E+00 0. -1.
</event>
<event>
 5    1  0.1285346E-004  0.9118800E+02  0.7818608E-02  0.1130116E+00
         25   -1    0    0    0    0  0.00000000000E+00  0.00000000000E+00  0.99999998245E-14  0.12500000000E+03  0.12500000000E+03 0.  0.
        -13    1    3    3    0    0 -0.59015829452E+02 -0.87860737198E+01 -0.13145874160E+02  0.61097368101E+02  0.10566000000E+00 0.  1.
         23    2    1    0    0    0 -0.22455208439E+02 -0.10814446834E+02  0.21393451070E+00  0.10007542549E+03  0.96921908635E+02 0.  0.
         13    1    3    3    0    0  0.36560621014E+02 -0.20283731140E+01  0.13359808671E+02  0.38978057393E+02  0.10566000000E+00 0. -1.
         22    1    1    0    0    0  0.22455208439E+02  0.10814446834E+02 -0.21393451070E+00  0.24924574506E+02  0.00000000000E+00 0.  1.
</event>
<event>
 5    1  0.1285346E-004  0.9118800E+02  0.7818608E-02  0.1130116E+00
         25   -1    0    0    0    0  0.00000000000E+00  0.00000000000E+00  0.99999998245E-14  0.12500000000E+03  0.12500000000E+03 0.  0.
        -13    1    3    3    0    0  0.87647859786E+01 -0.20234240185E+02  0.15314148210E+02  0.26847350867E+02  0.10566000000E+00 0.  1.
         23    2    1    0    0    0 -0.25983035760E+02  0.25795027453E+02  0.17194796822E+02  0.84550492879E+02  0.74247041825E+02 0.  0.
         13    1    3    3    0    0 -0.34747821738E+02  0.46029267638E+02  0.18806486126E+01  0.57703142012E+02  0.10566000000E+00 0. -1.
         22    1    1    0    0    0  0.25983035760E+02 -0.25795027453E+02 -0.17194796822E+02  0.40449507121E+02  0.00000000000E+00 0. -1.
</event>
<event>
 5    1  0.1285346E-004  0.9118800E+02  0.7818608E-02  0.1130116E+00
         25   -1    0    0    0    0  0.00000000000E+00  0.00000000000E+00  0.99999998245E-14  0.12500000000E+03  0.12500000000E+03 0.  0.
        -13    1    3    3    0    0  0.32745015649E+02 -0.33889663998E+02  0.25906437342E+02  0.53776389202E+02  0.10566000000E+00 0.  1.
         23    2    1    0    0    0  0.20169458200E+01 -0.33423406815E+01  0.27587614820E+02  0.97137555687E+02  0.93055837655E+02 0.  0.
         13    1    3    3    0    0 -0.30728069829E+02  0.30547323316E+02  0.16811774772E+01  0.43361166485E+02  0.10566000000E+00 0. -1.
         22    1    1    0    0    0 -0.20169458200E+01  0.33423406815E+01 -0.27587614820E+02  0.27862444313E+02  0.00000000000E+00 0.  1.
</event>
<event>
 5    1  0.1285346E-004  0.9118800E+02  0.7818608E-02  0.1130116E+00
         25   -1    0    0    0    0  0.00000000000E+00  0.00000000000E+00  0.99999998245E-14  0.12500000000E+03  0.12500000000E+03 0.  0.
        -13    1    3    3    0    0 -0.74468051924E+01  0.15664471329E+02 -0.43965196629E+02  0.47262884468E+02  0.10566000000E+00 0.  1.
         23    2    1    0    0    0  0.15483922226E+02  0.25698561191E+02 -0.35682785742E+01  0.94785756558E+02  0.89841188436E+02 0.  0.
         13    1    3    3    0    0  0.22930727418E+02  0.10034089862E+02  0.40396918055E+02  0.47522872090E+02  0.10566000000E+00 0. -1.
         22    1    1    0    0    0 -0.15483922226E+02 -0.25698561191E+02  0.35682785742E+01  0.30214243442E+02  0.00000000000E+00 0.  1.
</event>
<event>
 5    1  0.1285346E-004  0.9118800E+02  0.7818608E-02  0.1130116E+00
         25   -1    0    0    0    0  0.00000000000E+00  0.00000000000E+00  0.99999998245E-14  0.12500000000E+03  0.12500000000E+03 0.  0.
        -13    1    3    3    0    0  0.31395107636E+02  0.83862776627E+01 -0.30236730591E+02  0.44387537410E+02  0.10566000000E+00 0. -1.
         23    2    1    0    0    0 -0.15078883014E+02 -0.12583102377E+02 -0.21079794702E+02  0.96189152684E+02  0.91773025291E+02 0.  0.
         13    1    3    3    0    0 -0.46473990649E+02 -0.20969380040E+02  0.91569358883E+01  0.51801615274E+02  0.10566000000E+00 0.  1.
         22    1    1    0    0    0  0.15078883014E+02  0.12583102377E+02  0.21079794702E+02  0.28810847316E+02  0.00000000000E+00 0.  1.
</event>
<event>
 5    1  0.1285346E-004  0.9118800E+02  0.7818608E-02  0.1130116E+00
         25   -1    0    0    0    0  0.00000000000E+00  0.00000000000E+00  0.99999998245E-14  0.12500000000E+03  0.12500000000E+03 0.  0.
        -13    1    3    3    0    0 -0.28412962036E+02  0.87240397928E+01 -0.19845082372E+02  0.35738546981E+02  0.10566000000E+00 0. -1.
         23    2    1    0    0    0  0.19331269673E+02  0.17894284981E+02  0.14184367419E+02  0.95081783121E+02  0.90252123411E+02 0.  0.
         13    1    3    3    0    0  0.47744231709E+02  0.91702451882E+01  0.34029449791E+02  0.59343236139E+02  0.10566000000E+00 0.  1.
         22    1    1    0    0    0 -0.19331269673E+02 -0.17894284981E+02 -0.14184367419E+02  0.29918216879E+02  0.00000000000E+00 0.  1.
</event>
<event>
 5    1  0.1285346E-004  0.9118800E+02  0.7818608E-02  0.1130116E+00
         25   -1    0    0    0    0  0.00000000000E+00  0.00000000000E+00  0.99999998245E-14  0.12500000000E+03  0.12500000000E+03 0.  0.
        -13    1    3    3    0    0 -0.49485806827E+02  0.13809968813E+02 -0.11841541089E+02  0.52723747737E+02  0.10566000000E+00 0.  1.
         23    2    1    0    0    0 -0.23884572949E+02 -0.16455304096E+02  0.45886475209E+01  0.95634960516E+02  0.91015054408E+02 0.  0.
         13    1    3    3    0    0  0.25601233878E+02 -0.30265272909E+02  0.16430188610E+02  0.42911212779E+02  0.10566000000E+00 0. -1.
         22    1    1    0    0    0  0.23884572949E+02  0.16455304096E+02 -0.45886475209E+01  0.29365039484E+02  0.00000000000E+00 0.  1.
</event>
<event>
 5    1  0.1285346E-004  0.9118800E+02  0.7818608E-02  0.1130116E+00
         25   -1    0    0    0    0  0.00000000000E+00  0.00000000000E+00  0.99999998245E-14  0.12500000000E+03  0.12500000000E+03 0.  0.
        -13    1    3    3    0    0  0.65505392956E+01  0.25677093191E+02  0.24439954398E+02  0.36049205467E+02  0.10566000000E+00 0. -1.
         23    2    1    0    0    0  0.18209908250E+02 -0.10081550986E+02 -0.21267330038E+02  0.95242013581E+02  0.90473771864E+02 0.  0.
         13    1    3    3    0    0  0.11659368954E+02 -0.35758644177E+02 -0.45707284437E+02  0.59192808114E+02  0.10566000000E+00 0.  1.
         22    1    1    0    0    0 -0.18209908250E+02  0.10081550986E+02  0.21267330038E+02  0.29757986419E+02  0.00000000000E+00 0.  1.
</event>
<event>
 5    1  0.1285346E-004  0.9118800E+02  0.7818608E-02  0.1130116E+00
         25   -1    0    0    0    0  0.00000000000E+00  0.00000000000E+00  0.99999998245E-14  0.12500000000E+03  0.12500000000E+03 0.  0.
        -13    1    3    3    0    0  0.12764057457E+01 -0.39890707816E+02 -0.39956998375E+01  0.40110778638E+02  0.10566000000E+00 0.  1.
         23    2    1    0    0    0  0.27784839852E+02  0.44074615628E+01  0.12372101634E+02  0.94267412379E+02  0.89117075214E+02 0.  0.
         13    1    3    3    0    0  0.26508434107E+02  0.44298169379E+02  0.16367801471E+02  0.54156633741E+02  0.10566000000E+00 0. -1.
         22    1    1    0    0    0 -0.27784839852E+02 -0.44074615628E+01 -0.12372101634E+02  0.30732587621E+02  0.00000000000E+00 0.  1.
</event>
<event>
 5    1  0.1285346E-004  0.9118800E+02  0.7818608E-02  0.1130116E+00
         25   -1    0    0    0    0  0.00000000000E+00  0.00000000000E+00  0.99999998245E-14  0.12500000000E+03  0.12500000000E+03 0.  0.
        -13    1    3    3    0    0 -0.40538355209E+01 -0.41047361813E+02  0.34991585222E+02  0.54090125667E+02  0.10566000000E+00 0. -1.
         23    2    1    0    0    0  0.19822166992E+02 -0.20173078511E+02  0.83461606122E+01  0.95512209343E+02  0.90846311624E+02 0.  0.
         13    1    3    3    0    0  0.23876002513E+02  0.20874283302E+02 -0.26645424610E+02  0.41422083676E+02  0.10566000000E+00 0.  1.
         22    1    1    0    0    0 -0.19822166992E+02  0.20173078511E+02 -0.83461606122E+01  0.29487790657E+02  0.00000000000E+00 0. -1.
</event>
<event>
 5    1  0.1285346E-004  0.9118800E+02  0.7818608E-02  0.1130116E+00
         25   -1    0    0    0    0  0.00000000000E+00  0.00000000000E+00  0.99999998245E-14  0.12500000000E+03  0.12500000000E+03 0.  0.
        -13    1    3    3    0    0  0.61902436299E+01  0.37199252195E+02  0.31004829800E+02  0.48820222398E+02  0.10566000000E+00 0.  1.
         23    2    1    0    0    0 -0.25552020296E+02  0.90194952221E+01  0.10801832467E+02  0.95829182049E+02  0.91281408361E+02 0.  0.
         13    1    3    3    0    0 -0.31742263926E+02 -0.28179756973E+02 -0.20202997332E+02  0.47008959651E+02  0.10566000000E+00 0. -1.
         22    1    1    0    0    0  0.25552020296E+02 -0.90194952221E+01 -0.10801832467E+02  0.29170817951E+02  0.00000000000E+00 0. -1.
</event>
<event>
 5    1  0.1285346E-004  0.9118800E+02  0.7818608E-02  0.1130116E+00
         25   -1    0    0    0    0  0.00000000000E+00  0.00000000000E+00  0.99999998245E-14  0.12500000000E+03  0.12500000000E+03 0.  0.
        -13    1    3    3    0    0 -0.13370776742E+02  0.10176887760E+02  0.59533481935E+02  0.61859464519E+02  0.10566000000E+00 0.  1.
         23    2    1    0    0    0 -0.10252486095E+02  0.12672256730E+02  0.39835097286E+02  0.81958920349E+02  0.69747617073E+02 0.  0.
         13    1    3    3    0    0  0.31182906469E+01  0.24953689699E+01 -0.19698384650E+02  0.20099455831E+02  0.10566000000E+00 0. -1.
         22    1    1    0    0    0  0.10252486095E+02 -0.12672256730E+02 -0.39835097286E+02  0.43041079651E+02  0.00000000000E+00 0.  1.
</event>
<event>
 5    1  0.1285346E-004  0.9118800E+02  0.7818608E-02  0.1130116E+00
         25   -1    0    0    0    0  0.00000000000E+00  0.00000000000E+00  0.99999998245E-14  0.12500000000E+03  0.12500000000E+03 0.  0.
        -13    1    3    3    0    0 -0.20106621829E+02 -0.46320640945E+02  0.29114931672E+02  0.58288664672E+02  0.10566000000E+00 0. -1.
         23    2    1    0    0    0  0.62837214890E+01 -0.22516772574E+02  0.17902446362E+02  0.95555343632E+02  0.90905642883E+02 0.  0.
         13    1    3    3    0    0  0.26390343318E+02  0.23803868371E+02 -0.11212485310E+02  0.37266678960E+02  0.10566000000E+00 0.  1.
         22    1    1    0    0    0 -0.62837214890E+01  0.22516772574E+02 -0.17902446362E+02  0.29444656368E+02  0.00000000000E+00 0. -1.
</event>
<event>
 5    1  0.1285346E-004  0.9118800E+02  0.7818608E-02  0.1130116E+00
         25   -1    0    0    0    0  0.00000000000E+00  0.00000000000E+00  0.99999998245E-14  0.12500000000E+03  0.12500000000E+03 0.  0.
        -13    1    3    3    0    0 -0.80389911065E+01  0.32500733465E+02 -0.98580460213E+01  0.34901508408E+02  0.10566000000E+00 0. -1.
         23    2    1    0    0    0  0.15696780569E+02 -0.16324347006E+02  0.18139124223E+02  0.95984468763E+02  0.91493809577E+02 0.  0.
         13    1    3    3    0    0  0.23735771675E+02 -0.48825080471E+02  0.27997170244E+02  0.61082960355E+02  0.10566000000E+00 0.  1.
         22    1    1    0    0    0 -0.15696780569E+02  0.16324347006E+02 -0.18139124223E+02  0.29015531237E+02  0.00000000000E+00 0.  1.
</event>
<event>
 5    1  0.1285346E-004  0.9118800E+02  0.7818608E-02  0.1130116E+00
         25   -1    0    0    0    0  0.00000000000E+00  0.00000000000E+00  0.99999998245E-14  0.12500000000E+03  0.12500000000E+03 0.  0.
        -13    1    3    3    0    0 -0.14135697886E+02 -0.11006479780E+02 -0.50113377887E+02  0.53219567446E+02  0.10566000000E+00 0.  1.
         23    2    1    0    0    0  0.17443895858E+02 -0.84713551294E+01 -0.22972607784E+02  0.94936832023E+02  0.90051141057E+02 0.  0.
         13    1    3    3    0    0  0.31579593744E+02  0.25351246503E+01  0.27140770103E+02  0.41717264577E+02  0.10566000000E+00 0. -1.
         22    1    1    0    0    0 -0.17443895858E+02  0.84713551294E+01  0.22972607784E+02  0.30063167977E+02  0.00000000000E+00 0.  1.
</event>
<event>
 5    1  0.1285346E-004  0.9118800E+02  0.7818608E-02  0.1130116E+00
         25   -1    0    0    0    0  0.00000000000E+00  0.00000000000E+00  0.99999998245E-14  0.12500000000E+03  0.12500000000E+03 0.  0.
        -13    1    3    3    0    0  0.10089916988E+02  0.22006963398E+01 -0.55417938434E+02  0.56372054722E+02  0.10566000000E+00 0.  1.
         23    2    1    0    0    0  0.15430374300E+02 -0.14707764900E+02 -0.21068374172E+02  0.95028493705E+02  0.90178286889E+02 0.  0.
         13    1    3    3    0    0  0.53404573119E+01 -0.16908461239E+02  0.34349564263E+02  0.38656438983E+02  0.10566000000E+00 0. -1.
         22    1    1    0    0    0 -0.15430374300E+02  0.14707764900E+02  0.21068374172E+02  0.29971506295E+02  0.00000000000E+00 0. -1.
</event>
<event>
 5    1  0.1285346E-004  0.9118800E+02  0.7818608E-02  0.1130116E+00
         25   -1    0    0    0    0  0.00000000000E+00  0.00000000000E+00  0.99999998245E-14  0.12500000000E+03  0.12500000000E+03 0.  0.
        -13    1    3    3    0    0  0.25638387836E+02 -0.45779015079E+02  0.23783070217E+01  0.52523448676E+02  0.10566000000E+00 0.  1.
         23    2    1    0    0    0 -0.38402205318E+01 -0.21322875761E+02 -0.18820461225E+02  0.96301183209E+02  0.91925490493E+02 0.  0.
         13    1    3    3    0    0 -0.29478608368E+02  0.24456139318E+02 -0.21198768247E+02  0.43777734534E+02  0.10566000000E+00 0. -1.
         22    1    1    0    0    0  0.38402205318E+01  0.21322875761E+02  0.18820461225E+02  0.28698816791E+02  0.00000000000E+00 0. -1.
</event>
<event>
 5    1  0.1285346E-004  0.9118800E+02  0.7818608E-02  0.1130116E+00
         25   -1    0    0    0    0  0.00000000000E+00  0.00000000000E+00  0.99999998245E-14  0.12500000000E+03  0.12500000000E+03 0.  0.
        -13    1    3    3    0    0 -0.28803338434E+02 -0.32473189400E+02  0.33656588514E+01  0.43537100940E+02  0.10566000000E+00 0.  1.
         23    2    1    0    0    0 -0.15296147005E+02 -0.37250149450E+02  0.30676503364E+02  0.74377933607E+02  0.54492966536E+02 0.  0.
         13    1    3    3    0    0  0.13507191429E+02 -0.47769600501E+01  0.27310844512E+02  0.30840832667E+02  0.10566000000E+00 0. -1.
         22    1    1    0    0    0  0.15296147005E+02  0.37250149450E+02 -0.30676503364E+02  0.50622066393E+02  0.00000000000E+00 0.  1.
</event>
<event>
 5    1  0.1285346E-004  0.9118800E+02  0.7818608E-02  0.1130116E+00
         25   -1    0    0    0    0  0.00000000000E+00  0.00000000000E+00  0.99999998245E-14  0.12500000000E+03  0.12500000000E+03 0.  0.
        -13    1    3    3    0    0  0.17791711572E+02  0.54713447150E+02  0.10026990445E+02  0.58400839045E+02  0.10566000000E+00 0. -1.
         23    2    1    0    0    0  0.79444154660E+01  0.20749096831E+02  0.19960379800E+02  0.95132701526E+02  0.90322618327E+02 0.  0.
         13    1    3    3    0    0 -0.98472961060E+01 -0.33964350319E+02  0.99333893546E+01  0.36731862481E+02  0.10566000000E+00 0.  1.
         22    1    1    0    0    0 -0.79444154660E+01 -0.20749096831E+02 -0.19960379800E+02  0.29867298474E+02  0.00000000000E+00 0. -1.
</event>
<event>
 5    1  0.1285346E-004  0.9118800E+02  0.7818608E-02  0.1130116E+00
         25   -1    0    0    0    0  0.00000000000E+00  0.00000000000E+00  0.99999998245E-14  0.12500000000E+03  0.12500000000E+03 0.  0.
        -13    1    3    3    0    0 -0.22716442509E+02  0.40746899274E+02  0.33520756355E+02  0.57445616293E+02  0.10566000000E+00 0. -1.
         23    2    1    0    0    0 -0.21592589655E+02  0.63650029153E+01  0.21459372803E+02  0.93899230376E+02  0.88599139916E+02 0.  0.
         13    1    3    3    0    0  0.11238528536E+01 -0.34381896359E+02 -0.12061383551E+02  0.36453614082E+02  0.10566000000E+00 0.  1.
         22    1    1    0    0    0  0.21592589655E+02 -0.63650029153E+01 -0.21459372803E+02  0.31100769624E+02  0.00000000000E+00 0. -1.
</event>
<event>
 5    1  0.1285346E-004  0.9118800E+02  0.7818608E-02  0.1130116E+00
         25   -1    0    0    0    0  0.00000000000E+00  0.00000000000E+00  0.99999998245E-14  0.12500000000E+03  0.12500000000E+03 0.  0.
        -13    1    3    3    0    0 -0.58850561904E+02  0.28495475700E+01  0.11757416357E+01  0.58931333688E+02  0.10566000000E+00 0.  1.
         23    2    1    0    0    0 -0.26232092920E+02 -0.10598922752E+02 -0.83945315103E+01  0.95488510343E+02  0.90813697126E+02 0.  0.
         13    1    3    3    0    0  0.32618468984E+02 -0.13448470322E+02 -0.95702731460E+01  0.36557176655E+02  0.10566000000E+00 0. -1.
         22    1    1    0    0    0  0.26232092920E+02  0.10598922752E+02  0.83945315103E+01  0.29511489657E+02  0.00000000000E+00 0.  1.
</event>
<event>
 5    1  0.1285346E-004  0.9118800E+02  0.7818608E-02  0.1130116E+00
         25   -1    0    0    0    0  0.00000000000E+00  0.00000000000E+00  0.99999998245E-14  0.12500000000E+03  0.12500000000E+03 0.  0.
        -13    1    3    3    0    0 -0.26630898380E+02  0.28409479373E+02 -0.73459582646E+01  0.39626727516E+02  0.10566000000E+00 0. -1.
         23    2    1    0    0    0  0.54397517437E+01 -0.61219376434E+00  0.28608868614E+02  0.95872126003E+02  0.91340196522E+02 0.  0.
         13    1    3    3    0    0  0.32070650124E+02 -0.29021673137E+02  0.35954826878E+02  0.56245398487E+02  0.10566000000E+00 0.  1.
         22    1    1    0    0    0 -0.54397517437E+01  0.61219376434E+00 -0.28608868614E+02  0.29127873997E+02  0.00000000000E+00 0.  1.
</event>
<event>
 5    1  0.1285346E-004  0.9118800E+02  0.7818608E-02  0.1130116E+00
         25   -1    0    0    0    0  0.00000000000E+00  0.00000000000E+00  0.99999998245E-14  0.12500000000E+03  0.12500000000E+03 0.  0.
        -13    1    3    3    0    0  0.43880226649E+02 -0.63578783467E+01  0.12000232039E+02  0.45933796282E+02  0.10566000000E+00 0. -1.
         23    2    1    0    0    0  0.33741409369E+01  0.18316026714E+02  0.23770899786E+02  0.94802030892E+02  0.89863828780E+02 0.  0.
         13    1    3    3    0    0 -0.40506085712E+02  0.24673905060E+02  0.11770667747E+02  0.48868234610E+02  0.10566000000E+00 0.  1.
         22    1    1    0    0    0 -0.33741409369E+01 -0.18316026714E+02 -0.23770899786E+02  0.30197969108E+02  0.00000000000E+00 0.  1.
</event>
<event>
 5    1  0.1285346E-004  0.9118800E+02  0.7818608E-02  0.1130116E+00
         25   -1    0    0    0    0  0.00000000000E+00  0.00000000000E+00  0.99999998245E-14  0.12500000000E+03  0.12500000000E+03 0.  0.
        -13    1    3    3    0    0 -0.89166861244E+01  0.47449637126E+02  0.56685621107E+01  0.48611923592E+02  0.10566000000E+00 0. -1.
         23    2    1    0    0    0  0.23826339053E+02  0.90505166328E+01 -0.87050470140E+00  0.99497763579E+02  0.96174013615E+02 0.  0.
         13    1    3    3    0    0  0.32743025178E+02 -0.38399120493E+02 -0.65390668121E+01  0.50885839988E+02  0.10566000000E+00 0.  1.
         22    1    1    0    0    0 -0.23826339053E+02 -0.90505166328E+01  0.87050470140E+00  0.25502236421E+02  0.00000000000E+00 0. -1.
</event>
<event>
 5    1  0.1285346E-004  0.9118800E+02  0.7818608E-02  0.1130116E+00
         25   -1    0    0    0    0  0.00000000000E+00  0.00000000000E+00  0.99999998245E-14  0.12500000000E+03  0.12500000000E+03 0.  0.
        -13    1    3    3    0    0 -0.34675117300E+02  0.12683549483E+02  0.20759857150E+02  0.42358222581E+02  0.10566000000E+00 0. -1.
         23    2    1    0    0    0 -0.11624093945E+02 -0.26284666283E+02 -0.69380101864E+01  0.95434154383E+02  0.90738848328E+02 0.  0.
         13    1    3    3    0    0  0.23051023355E+02 -0.38968215766E+02 -0.27697867336E+02  0.53075931803E+02  0.10566000000E+00 0.  1.
         22    1    1    0    0    0  0.11624093945E+02  0.26284666283E+02  0.69380101864E+01  0.29565845617E+02  0.00000000000E+00 0.  1.
</event>
<event>
 5    1  0.1285346E-004  0.9118800E+02  0.7818608E-02  0.1130116E+00
         25   -1    0    0    0    0  0.00000000000E+00  0.00000000000E+00  0.99999998245E-14  0.12500000000E+03  0.12500000000E+03 0.  0.
        -13    1    3    3    0    0 -0.14644281308E+02  0.37313047236E+02  0.13007426437E+02  0.42141698775E+02  0.10566000000E+00 0.  1.
         23    2    1    0    0    0 -0.35801278768E+01 -0.46626383570E+00 -0.26700732242E+02  0.98056284224E+02  0.94281870240E+02 0.  0.
         13    1    3    3    0    0  0.11064153432E+02 -0.37779311072E+02 -0.39708158679E+02  0.55914585449E+02  0.10566000000E+00 0. -1.
         22    1    1    0    0    0  0.35801278768E+01  0.46626383570E+00  0.26700732242E+02  0.26943715776E+02  0.00000000000E+00 0. -1.
</event>
<event>
 5    1  0.1285346E-004  0.9118800E+02  0.7818608E-02  0.1130116E+00
         25   -1    0    0    0    0  0.00000000000E+00  0.00000000000E+00  0.99999998245E-14  0.12500000000E+03  0.12500000000E+03 0.  0.
        -13    1    3    3    0    0  0.44812834606E+02 -0.14276118051E+01 -0.43181342621E+02  0.62248435607E+02  0.10566000000E+00 0.  1.
         23    2    1    0    0    0  0.17763085735E+02 -0.23839063950E+01 -0.22036458551E+02  0.96595498068E+02  0.92324831530E+02 0.  0.
         13    1    3    3    0    0 -0.27049748871E+02 -0.95629458989E+00  0.21144884070E+02  0.34347062461E+02  0.10566000000E+00 0. -1.
         22    1    1    0    0    0 -0.17763085735E+02  0.23839063950E+01  0.22036458551E+02  0.28404501932E+02  0.00000000000E+00 0.  1.
</event>
<event>
 5    1  0.1285346E-004  0.9118800E+02  0.7818608E-02  0.1130116E+00
         25   -1    0    0    0    0  0.00000000000E+00  0.00000000000E+00  0.99999998245E-14  0.12500000000E+03  0.12500000000E+03 0.  0.
        -13    1    3    3    0    0 -0.76973537025E+00  0.35532380263E+02 -0.93347952452E+01  0.36746320986E+02  0.10566000000E+00 0. -1.
         23    2    1    0    0    0 -0.21002687346E+02 -0.12122564889E+02  0.17533308795E+02  0.95075321680E+02  0.90243173814E+02 0.  0.
         13    1    3    3    0    0 -0.20232951976E+02 -0.47654945152E+02  0.26868104040E+02  0.58329000694E+02  0.10566000000E+00 0.  1.
         22    1    1    0    0    0  0.21002687346E+02  0.12122564889E+02 -0.17533308795E+02  0.29924678320E+02  0.00000000000E+00 0.  1.
</event>
<event>
 5    1  0.1285346E-004  0.9118800E+02  0.7818608E-02  0.1130116E+00
         25   -1    0    0    0    0  0.00000000000E+00  0.00000000000E+00  0.99999998245E-14  0.12500000000E+03  0.12500000000E+03 0.  0.
        -13    1    3    3    0    0  0.70129148565E+01  0.21504066815E+02 -0.55633084238E+00  0.22625793520E+02  0.10566000000E+00 0. -1.
         23    2    1    0    0    0  0.83468912659E+01 -0.34536946783E+02  0.22175578600E+02  0.83116499989E+02  0.71792234937E+02 0.  0.
         13    1    3    3    0    0  0.13339764094E+01 -0.56041013598E+02  0.22731909443E+02  0.60490706469E+02  0.10566000000E+00 0.  1.
         22    1    1    0    0    0 -0.83468912659E+01  0.34536946783E+02 -0.22175578600E+02  0.41883500011E+02  0.00000000000E+00 0.  1.
</event>
<event>
 5    1  0.1285346E-004  0.9118800E+02  0.7818608E-02  0.1130116E+00
         25   -1    0    0    0    0  0.00000000000E+00  0.00000000000E+00  0.99999998245E-14  0.12500000000E+03  0.12500000000E+03 0.  0.
        -13    1    3    3    0    0 -0.14734006906E+02 -0.62484101942E+01  0.53978112849E+02  0.56300811897E+02  0.10566000000E+00 0.  1.
         23    2    1    0    0    0 -0.17972067370E+02 -0.84986957305E+01  0.62948065956E+01  0.10414699962E+03  0.10203798266E+03 0.  0.
         13    1    3    3    0    0 -0.32380604639E+01 -0.22502855363E+01 -0.47683306254E+02  0.47846187726E+02  0.10566000000E+00 0. -1.
         22    1    1    0    0    0  0.17972067370E+02  0.84986957305E+01 -0.62948065956E+01  0.20853000377E+02  0.00000000000E+00 0. -1.
</event>
<event>
 5    1  0.1285346E-004  0.9118800E+02  0.7818608E-02  0.1130116E+00
         25   -1    0    0    0    0  0.00000000000E+00  0.00000000000E+00  0.99999998245E-14  0.12500000000E+03  0.12500000000E+03 0.  0.
        -13    1    3    3    0    0  0.12436110500E+02 -0.20001311975E+02 -0.20593638982E+02  0.31286074469E+02  0.10566000000E+00 0. -1.
         23    2    1    0    0    0 -0.13056755995E+02  0.22957232190E+02  0.16812365413E+02  0.93692348895E+02  0.88306779036E+02 0.  0.
         13    1    3    3    0    0 -0.25492866495E+02  0.42958544165E+02  0.37406004395E+02  0.62406274426E+02  0.10566000000E+00 0.  1.
         22    1    1    0    0    0  0.13056755995E+02 -0.22957232190E+02 -0.16812365413E+02  0.31307651105E+02  0.00000000000E+00 0.  1.
</event>
<event>
 5    1  0.1285346E-004  0.9118800E+02  0.7818608E-02  0.1130116E+00
         25   -1    0    0    0    0  0.00000000000E+00  0.00000000000E+00  0.99999998245E-14  0.12500000000E+03  0.12500000000E+03 0.  0.
        -13    1    3    3    0    0  0.68459408665E+00 -0.45669878160E+02 -0.47928739680E+01  0.45925910389E+02  0.10566000000E+00 0. -1.
         23    2    1    0    0    0 -0.15299971492E+02 -0.14970936176E+02  0.25348707555E+02  0.91822070102E+02  0.85618441504E+02 0.  0.
         13    1    3    3    0    0 -0.15984565578E+02  0.30698941984E+02  0.30141581523E+02  0.45896159713E+02  0.10566000000E+00 0.  1.
         22    1    1    0    0    0  0.15299971492E+02  0.14970936176E+02 -0.25348707555E+02  0.33177929898E+02  0.00000000000E+00 0.  1.
</event>
<event>
 5    1  0.1285346E-004  0.9118800E+02  0.7818608E-02  0.1130116E+00
         25   -1    0    0    0    0  0.00000000000E+00  0.00000000000E+00  0.99999998245E-14  0.12500000000E+03  0.12500000000E+03 0.  0.
        -13    1    3    3    0    0 -0.39468293036E+02  0.19847730479E+02  0.47403189868E+01  0.44431524265E+02  0.10566000000E+00 0. -1.
         23    2    1    0    0    0 -0.15821194214E+02 -0.24036574097E+02  0.99479381869E+01  0.94552856376E+02  0.89516557653E+02 0.  0.
         13    1    3    3    0    0  0.23647098822E+02 -0.43884304576E+02  0.52076192001E+01  0.50121332111E+02  0.10566000000E+00 0.  1.
         22    1    1    0    0    0  0.15821194214E+02  0.24036574097E+02 -0.99479381869E+01  0.30447143624E+02  0.00000000000E+00 0. -1.
</event>
<event>
 5    1  0.1285346E-004  0.9118800E+02  0.7818608E-02  0.1130116E+00
         25   -1    0    0    0    0  0.00000000000E+00  0.00000000000E+00  0.99999998245E-14  0.12500000000E+03  0.12500000000E+03 0.  0.
        -13    1    3    3    0    0 -0.35617472850E+02 -0.86851818568E+01  0.32132563853E+02  0.48749867486E+02  0.10566000000E+00 0. -1.
         23    2    1    0    0    0 -0.16147631466E+02 -0.20401305168E+02 -0.10406413100E+02  0.96977639498E+02  0.92840777003E+02 0.  0.
         13    1    3    3    0    0  0.19469841384E+02 -0.11716123311E+02 -0.42538976953E+02  0.48227772011E+02  0.10566000000E+00 0.  1.
         22    1    1    0    0    0  0.16147631466E+02  0.20401305168E+02  0.10406413100E+02  0.28022360502E+02  0.00000000000E+00 0. -1.
</event>
<event>
 5    1  0.1285346E-004  0.9118800E+02  0.7818608E-02  0.1130116E+00
         25   -1    0    0    0    0  0.00000000000E+00  0.00000000000E+00  0.99999998245E-14  0.12500000000E+03  0.12500000000E+03 0.  0.
        -13    1    3    3    0    0 -0.53123651460E+02 -0.11081694980E+02 -0.30353075878E+02  0.62179149941E+02  0.10566000000E+00 0. -1.
         23    2    1    0    0    0 -0.24564937990E+02 -0.92873189271E+01 -0.12421079127E+02  0.95948774931E+02  0.91445031209E+02 0.  0.
         13    1    3    3    0    0  0.28558713470E+02  0.17943760525E+01  0.17931996751E+02  0.33769624991E+02  0.10566000000E+00 0.  1.
         22    1    1    0    0    0  0.24564937990E+02  0.92873189271E+01  0.12421079127E+02  0.29051225069E+02  0.00000000000E+00 0. -1.
</event>
<event>
 5    1  0.1285346E-004  0.9118800E+02  0.7818608E-02  0.1130116E+00
         25   -1    0    0    0    0  0.00000000000E+00  0.00000000000E+00  0.99999998245E-14  0.12500000000E+03  0.12500000000E+03 0.  0.
        -13    1    3    3    0    0  0.23495838022E+02 -0.28038608151E+00  0.29125968065E+02  0.37422803216E+02  0.10566000000E+00 0. -1.
         23    2    1    0    0    0  0.90183842950E+01  0.54945915957E+01 -0.27176892147E+02  0.95843435407E+02  0.91300924704E+02 0.  0.
         13    1    3    3    0    0 -0.14477453727E+02  0.57749776772E+01 -0.56302860212E+02  0.58420632192E+02  0.10566000000E+00 0.  1.
         22    1    1    0    0    0 -0.90183842950E+01 -0.54945915957E+01  0.27176892147E+02  0.29156564593E+02  0.00000000000E+00 0.  1.
</event>
<event>
 5    1  0.1285346E-004  0.9118800E+02  0.7818608E-02  0.1130116E+00
         25   -1    0    0    0    0  0.00000000000E+00  0.00000000000E+00  0.99999998245E-14  0.12500000000E+03  0.12500000000E+03 0.  0.
        -13    1    3    3    0    0  0.45867316776E+01 -0.94765446697E+01  0.37934279229E+02  0.39368308460E+02  0.10566000000E+00 0.  1.
         23    2    1    0    0    0 -0.30517895417E+02 -0.10289677307E+02 -0.22289283739E+01  0.92717070743E+02  0.86915290287E+02 0.  0.
         13    1    3    3    0    0 -0.35104627094E+02 -0.81313263708E+00 -0.40163207603E+02  0.53348762283E+02  0.10566000000E+00 0. -1.
         22    1    1    0    0    0  0.30517895417E+02  0.10289677307E+02  0.22289283739E+01  0.32282929257E+02  0.00000000000E+00 0. -1.
</event>
<event>
 5    1  0.1285346E-004  0.9118800E+02  0.7818608E-02  0.1130116E+00
         25   -1    0    0    0    0  0.00000000000E+00  0.00000000000E+00  0.99999998245E-14  0.12500000000E+03  0.12500000000E+03 0.  0.
        -13    1    3    3    0    0 -0.52083240712E+02 -0.11859238662E+02 -0.21674146942E+01  0.53460399879E+02  0.10566000000E+00 0.  1.
         23    2    1    0    0    0 -0.13595540298E+02 -0.22126325570E+02  0.12842878461E+02  0.96028418642E+02  0.91553834767E+02 0.  0.
         13    1    3    3    0    0  0.38487700414E+02 -0.10267086908E+02  0.15010293155E+02  0.42568018763E+02  0.10566000000E+00 0. -1.
         22    1    1    0    0    0  0.13595540298E+02  0.22126325570E+02 -0.12842878461E+02  0.28971581358E+02  0.00000000000E+00 0.  1.
</event>
<event>
 5    1  0.1285346E-004  0.9118800E+02  0.7818608E-02  0.1130116E+00
         25   -1    0    0    0    0  0.00000000000E+00  0.00000000000E+00  0.99999998245E-14  0.12500000000E+03  0.12500000000E+03 0.  0.
        -13    1    3    3    0    0  0.19072750100E+01 -0.28844082384E+02  0.23921984486E+02  0.37521877516E+02  0.10566000000E+00 0.  1.
         23    2    1    0    0    0 -0.19997479772E+02  0.21420188938E+02  0.89665424767E+01  0.94354893126E+02  0.89239695660E+02 0.  0.
         13    1    3    3    0    0 -0.21904754782E+02  0.50264271322E+02 -0.14955442010E+02  0.56833015610E+02  0.10566000000E+00 0. -1.
         22    1    1    0    0    0  0.19997479772E+02 -0.21420188938E+02 -0.89665424767E+01  0.30645106874E+02  0.00000000000E+00 0. -1.
</event>
<event>
 5    1  0.1285346E-004  0.9118800E+02  0.7818608E-02  0.1130116E+00
         25   -1    0    0    0    0  0.00000000000E+00  0.00000000000E+00  0.99999998245E-14  0.12500000000E+03  0.12500000000E+03 0.  0.
        -13    1    3    3    0    0  0.13280808417E+02 -0.18970697217E+02 -0.34455410307E+02  0.41514499739E+02  0.10566000000E+00 0. -1.
         23    2    1    0    0    0 -0.52140690136E+01  0.26447767999E+02 -0.13632904647E+02  0.94791937551E+02  0.89849787911E+02 0.  0.
         13    1    3    3    0    0 -0.18494877430E+02  0.45418465217E+02  0.20822505660E+02  0.53277437812E+02  0.10566000000E+00 0.  1.
         22    1    1    0    0    0  0.52140690136E+01 -0.26447767999E+02  0.13632904647E+02  0.30208062449E+02  0.00000000000E+00 0.  1.
</event>
<event>
 5    1  0.1285346E-004  0.9118800E+02  0.7818608E-02  0.1130116E+00
         25   -1    0    0    0    0  0.00000000000E+00  0.00000000000E+00  0.99999998245E-14  0.12500000000E+03  0.12500000000E+03 0.  0.
        -13    1    3    3    0    0  0.17727873685E+02  0.39992791606E+02  0.31731246990E+02  0.54042428567E+02  0.10566000000E+00 0. -1.
         23    2    1    0    0    0  0.23449872314E+02  0.11161899296E+01  0.17026592273E+02  0.95999185599E+02  0.91513913694E+02 0.  0.
         13    1    3    3    0    0  0.57219986292E+01 -0.38876601677E+02 -0.14704654717E+02  0.41956757032E+02  0.10566000000E+00 0.  1.
         22    1    1    0    0    0 -0.23449872314E+02 -0.11161899296E+01 -0.17026592273E+02  0.29000814401E+02  0.00000000000E+00 0. -1.
</event>
<event>
 5    1  0.1285346E-004  0.9118800E+02  0.7818608E-02  0.1130116E+00
         25   -1    0    0    0    0  0.00000000000E+00  0.00000000000E+00  0.99999998245E-14  0.12500000000E+03  0.12500000000E+03 0.  0.
        -13    1    3    3    0    0  0.15202049978E+02 -0.47191450219E+01 -0.34981364462E+02  0.38432794290E+02  0.10566000000E+00 0.  1.
         23    2    1    0    0    0 -0.39534818115E+01 -0.25497100112E+02  0.14490504572E+02  0.95407655462E+02  0.90702336604E+02 0.  0.
         13    1    3    3    0    0 -0.19155531790E+02 -0.20777955090E+02  0.49471869034E+02  0.56974861172E+02  0.10566000000E+00 0. -1.
         22    1    1    0    0    0  0.39534818115E+01  0.25497100112E+02 -0.14490504572E+02  0.29592344538E+02  0.00000000000E+00 0. -1.
</event>
<event>
 5    1  0.1285346E-004  0.9118800E+02  0.7818608E-02  0.1130116E+00
         25   -1    0    0    0    0  0.00000000000E+00  0.00000000000E+00  0.99999998245E-14  0.12500000000E+03  0.12500000000E+03 0.  0.
        -13    1    3    3    0    0  0.18638295224E+02 -0.40352427304E+02  0.40279196170E+02  0.59984408360E+02  0.10566000000E+00 0. -1.
         23    2    1    0    0    0 -0.97051957904E+00 -0.24855940872E+02  0.13180885344E+02  0.96848704411E+02  0.92667017340E+02 0.  0.
         13    1    3    3    0    0 -0.19608814803E+02  0.15496486432E+02 -0.27098310826E+02  0.36864296051E+02  0.10566000000E+00 0.  1.
         22    1    1    0    0    0  0.97051957904E+00  0.24855940872E+02 -0.13180885344E+02  0.28151295589E+02  0.00000000000E+00 0. -1.
</event>
<event>
 5    1  0.1285346E-004  0.9118800E+02  0.7818608E-02  0.1130116E+00
         25   -1    0    0    0    0  0.00000000000E+00  0.00000000000E+00  0.99999998245E-14  0.12500000000E+03  0.12500000000E+03 0.  0.
        -13    1    3    3    0    0 -0.14930653207E+02 -0.10625426428E+02 -0.58255360950E+02  0.61069815256E+02  0.10566000000E+00 0. -1.
         23    2    1    0    0    0 -0.71159671901E+01  0.46539992432E+01 -0.26543851966E+02  0.97127562446E+02  0.93042412971E+02 0.  0.
         13    1    3    3    0    0  0.78146860169E+01  0.15279425671E+02  0.31711508984E+02  0.36057747190E+02  0.10566000000E+00 0.  1.
         22    1    1    0    0    0  0.71159671901E+01 -0.46539992432E+01  0.26543851966E+02  0.27872437554E+02  0.00000000000E+00 0. -1.
</event>
<event>
 5    1  0.1285346E-004  0.9118800E+02  0.7818608E-02  0.1130116E+00
         25   -1    0    0    0    0  0.00000000000E+00  0.00000000000E+00  0.99999998245E-14  0.12500000000E+03  0.12500000000E+03 0.  0.
        -13    1    3    3    0    0 -0.28793245468E+01 -0.58930518018E+02 -0.68423059085E+01  0.59396336401E+02  0.10566000000E+00 0.  1.
         23    2    1    0    0    0  0.40084032874E+01 -0.23913212072E+02 -0.15631621546E+02  0.96151142125E+02  0.91721238169E+02 0.  0.
         13    1    3    3    0    0  0.68877278342E+01  0.35017305945E+02 -0.87893156378E+01  0.36754805724E+02  0.10566000000E+00 0. -1.
         22    1    1    0    0    0 -0.40084032874E+01  0.23913212072E+02  0.15631621546E+02  0.28848857875E+02  0.00000000000E+00 0.  1.
</event>
<event>
 5    1  0.1285346E-004  0.9118800E+02  0.7818608E-02  0.1130116E+00
         25   -1    0    0    0    0  0.00000000000E+00  0.00000000000E+00  0.99999998245E-14  0.12500000000E+03  0.12500000000E+03 0.  0.
        -13    1    3    3    0    0 -0.50155231639E+01  0.28512829098E+02 -0.48479845214E+02  0.56466303685E+02  0.10566000000E+00 0.  1.
         23    2    1    0    0    0  0.16994781450E+02  0.13950553203E+02 -0.20307286271E+02  0.95069640715E+02  0.90235304503E+02 0.  0.
         13    1    3    3    0    0  0.22010304614E+02 -0.14562275894E+02  0.28172558943E+02  0.38603337030E+02  0.10566000000E+00 0. -1.
         22    1    1    0    0    0 -0.16994781450E+02 -0.13950553203E+02  0.20307286271E+02  0.29930359285E+02  0.00000000000E+00 0. -1.
</event>
<event>
 5    1  0.1285346E-004  0.9118800E+02  0.7818608E-02  0.1130116E+00
         25   -1    0    0    0    0  0.00000000000E+00  0.00000000000E+00  0.99999998245E-14  0.12500000000E+03  0.12500000000E+03 0.  0.
        -13    1    3    3    0    0  0.84305793418E+01  0.38399434440E+02  0.96052392600E+01  0.40470520365E+02  0.10566000000E+00 0. -1.
         23    2    1    0    0    0 -0.26766694023E+02  0.31917427574E+01 -0.12913039481E+02  0.95110374385E+02  0.90291713885E+02 0.  0.
         13    1    3    3    0    0 -0.35197273364E+02 -0.35207691682E+02 -0.22518278741E+02  0.54639854021E+02  0.10566000000E+00 0.  1.
         22    1    1    0    0    0  0.26766694023E+02 -0.31917427574E+01  0.12913039481E+02  0.29889625615E+02  0.00000000000E+00 0.  1.
</event>
<event>
 5    1  0.1285346E-004  0.9118800E+02  0.7818608E-02  0.1130116E+00
         25   -1    0    0    0    0  0.00000000000E+00  0.00000000000E+00  0.99999998245E-14  0.12500000000E+03  0.12500000000E+03 0.  0.
        -13    1    3    3    0    0 -0.29043803717E+01  0.73191041668E+01 -0.43815315732E+02  0.44517387253E+02  0.10566000000E+00 0. -1.
         23    2    1    0    0    0 -0.19459623311E+02  0.22167339008E+02  0.19902492849E+01  0.95436019376E+02  0.90741417468E+02 0.  0.
         13    1    3    3    0    0 -0.16555242939E+02  0.14848234841E+02  0.45805565017E+02  0.50918632123E+02  0.10566000000E+00 0.  1.
         22    1    1    0    0    0  0.19459623311E+02 -0.22167339008E+02 -0.19902492849E+01  0.29563980624E+02  0.00000000000E+00 0. -1.
</event>
<event>
 5    1  0.1285346E-004  0.9118800E+02  0.7818608E-02  0.1130116E+00
         25   -1    0    0    0    0  0.00000000000E+00  0.00000000000E+00  0.99999998245E-14  0.12500000000E+03  0.12500000000E+03 0.  0.
        -13    1    3    3    0    0 -0.30317555074E+02 -0.82307064242E+01 -0.13623224119E+02  0.34241817612E+02  0.10566000000E+00 0.  1.
         23    2    1    0    0    0  0.19223734297E+02 -0.11904871472E+02  0.20475058822E+02  0.94495804242E+02  0.89436855158E+02 0.  0.
         13    1    3    3    0    0  0.49541289371E+02 -0.36741650477E+01  0.34098282940E+02  0.60253986631E+02  0.10566000000E+00 0. -1.
         22    1    1    0    0    0 -0.19223734297E+02  0.11904871472E+02 -0.20475058822E+02  0.30504195758E+02  0.00000000000E+00 0. -1.
</event>
<event>
 5    1  0.1285346E-004  0.9118800E+02  0.7818608E-02  0.1130116E+00
         25   -1    0    0    0    0  0.00000000000E+00  0.00000000000E+00  0.99999998245E-14  0.12500000000E+03  0.12500000000E+03 0.  0.
        -13    1    3    3    0    0  0.92746619930E+01 -0.24847128297E+02 -0.46991956641E+02  0.53959746966E+02  0.10566000000E+00 0.  1.
         23    2    1    0    0    0  0.25692836045E+02 -0.48835636265E+01 -0.15898191912E+02  0.94394060645E+02  0.89294541609E+02 0.  0.
         13    1    3    3    0    0  0.16418174052E+02  0.19963564671E+02  0.31093764729E+02  0.40434313678E+02  0.10566000000E+00 0. -1.
         22    1    1    0    0    0 -0.25692836045E+02  0.48835636265E+01  0.15898191912E+02  0.30605939355E+02  0.00000000000E+00 0.  1.
</event>
<event>
 5    1  0.1285346E-004  0.9118800E+02  0.7818608E-02  0.1130116E+00
         25   -1    0    0    0    0  0.00000000000E+00  0.00000000000E+00  0.99999998245E-14  0.12500000000E+03  0.12500000000E+03 0.  0.
        -13    1    3    3    0    0  0.19143631242E+02 -0.14767987638E+02  0.26466238718E+02  0.35847524767E+02  0.10566000000E+00 0.  1.
         23    2    1    0    0    0  0.81638703839E+01  0.20209902467E+02 -0.20261762887E+02  0.95240497776E+02  0.90471677579E+02 0.  0.
         13    1    3    3    0    0 -0.10979760858E+02  0.34977890105E+02 -0.46728001605E+02  0.59392973008E+02  0.10566000000E+00 0. -1.
         22    1    1    0    0    0 -0.81638703839E+01 -0.20209902467E+02  0.20261762887E+02  0.29759502224E+02  0.00000000000E+00 0. -1.
</event>
<event>
 5    1  0.1285346E-004  0.9118800E+02  0.7818608E-02  0.1130116E+00
         25   -1    0    0    0    0  0.00000000000E+00  0.00000000000E+00  0.99999998245E-14  0.12500000000E+03  0.12500000000E+03 0.  0.
        -13    1    3    3    0    0 -0.37616381848E+02 -0.16708456302E+00 -0.34445777803E+00  0.37618478382E+02  0.10566000000E+00 0. -1.
         23    2    1    0    0    0  0.14210846709E+02 -0.69748998850E+01 -0.24996515130E+02  0.95412449219E+02  0.90708942804E+02 0.  0.
         13    1    3    3    0    0  0.51827228557E+02 -0.68078153220E+01 -0.24652057352E+02  0.57793970837E+02  0.10566000000E+00 0.  1.
         22    1    1    0    0    0 -0.14210846709E+02  0.69748998850E+01  0.24996515130E+02  0.29587550781E+02  0.00000000000E+00 0.  1.
</event>
<event>
 5    1  0.1285346E-004  0.9118800E+02  0.7818608E-02  0.1130116E+00
         25   -1    0    0    0    0  0.00000000000E+00  0.00000000000E+00  0.99999998245E-14  0.12500000000E+03  0.12500000000E+03 0.  0.
        -13    1    3    3    0    0 -0.42927090414E+02  0.11742468808E+02  0.16513176199E+02  0.47469114352E+02  0.10566000000E+00 0. -1.
         23    2    1    0    0    0 -0.88435080319E+01  0.21843519442E+02 -0.16697987310E+02  0.96118002906E+02  0.91676064087E+02 0.  0.
         13    1    3    3    0    0  0.34083582382E+02  0.10101050634E+02 -0.33211163509E+02  0.48648888554E+02  0.10566000000E+00 0.  1.
         22    1    1    0    0    0  0.88435080319E+01 -0.21843519442E+02  0.16697987310E+02  0.28881997094E+02  0.00000000000E+00 0.  1.
</event>
<event>
 5    1  0.1285346E-004  0.9118800E+02  0.7818608E-02  0.1130116E+00
         25   -1    0    0    0    0  0.00000000000E+00  0.00000000000E+00  0.99999998245E-14  0.12500000000E+03  0.12500000000E+03 0.  0.
        -13    1    3    3    0    0  0.25588303263E+02 -0.17611516863E+02 -0.15837220417E+02  0.34867685680E+02  0.10566000000E+00 0.  1.
         23    2    1    0    0    0 -0.22777052277E+02  0.17664334316E+02 -0.64611778878E+01  0.95460710283E+02  0.90775423826E+02 0.  0.
         13    1    3    3    0    0 -0.48365355541E+02  0.35275851179E+02  0.93760425292E+01  0.60593024603E+02  0.10566000000E+00 0. -1.
         22    1    1    0    0    0  0.22777052277E+02 -0.17664334316E+02  0.64611778878E+01  0.29539289717E+02  0.00000000000E+00 0. -1.
</event>
<event>
 5    1  0.1285346E-004  0.9118800E+02  0.7818608E-02  0.1130116E+00
         25   -1    0    0    0    0  0.00000000000E+00  0.00000000000E+00  0.99999998245E-14  0.12500000000E+03  0.12500000000E+03 0.  0.
        -13    1    3    3    0    0  0.32238931263E+02  0.30190067050E+02 -0.16934127912E+02  0.47302903607E+02  0.10566000000E+00 0.  1.
         23    2    1    0    0    0  0.15211332641E+02  0.82177320735E+01  0.23164605444E+02  0.96094728742E+02  0.91644324349E+02 0.  0.
         13    1    3    3    0    0 -0.17027598622E+02 -0.21972334976E+02  0.40098733356E+02  0.48791825134E+02  0.10566000000E+00 0. -1.
         22    1    1    0    0    0 -0.15211332641E+02 -0.82177320735E+01 -0.23164605444E+02  0.28905271258E+02  0.00000000000E+00 0.  1.
</event>
<event>
 5    1  0.1285346E-004  0.9118800E+02  0.7818608E-02  0.1130116E+00
         25   -1    0    0    0    0  0.00000000000E+00  0.00000000000E+00  0.99999998245E-14  0.12500000000E+03  0.12500000000E+03 0.  0.
        -13    1    3    3    0    0  0.22866009069E+02 -0.35811015294E+02 -0.38505367063E+02  0.57340715411E+02  0.10566000000E+00 0.  1.
         23    2    1    0    0    0  0.17602076905E+02  0.13385849216E+00 -0.20791708724E+02  0.97757639949E+02  0.93885089270E+02 0.  0.
         13    1    3    3    0    0 -0.52639321636E+01  0.35944873787E+02  0.17713658339E+02  0.40416924538E+02  0.10566000000E+00 0. -1.
         22    1    1    0    0    0 -0.17602076905E+02 -0.13385849216E+00  0.20791708724E+02  0.27242360051E+02  0.00000000000E+00 0.  1.
</event>
<event>
 5    1  0.1285346E-004  0.9118800E+02  0.7818608E-02  0.1130116E+00
         25   -1    0    0    0    0  0.00000000000E+00  0.00000000000E+00  0.99999998245E-14  0.12500000000E+03  0.12500000000E+03 0.  0.
        -13    1    3    3    0    0  0.16650916074E+02 -0.50217726176E+02  0.17038439689E+02  0.55582304913E+02  0.10566000000E+00 0.  1.
         23    2    1    0    0    0 -0.12550242877E+02 -0.21008190350E+02  0.13538763133E+02  0.97033041545E+02  0.92915339886E+02 0.  0.
         13    1    3    3    0    0 -0.29201158951E+02  0.29209535826E+02 -0.34996765560E+01  0.41450736631E+02  0.10566000000E+00 0. -1.
         22    1    1    0    0    0  0.12550242877E+02  0.21008190350E+02 -0.13538763133E+02  0.27966958455E+02  0.00000000000E+00 0.  1.
</event>
<event>
 5    1  0.1285346E-004  0.9118800E+02  0.7818608E-02  0.1130116E+00
         25   -1    0    0    0    0  0.00000000000E+00  0.00000000000E+00  0.99999998245E-14  0.12500000000E+03  0.12500000000E+03 0.  0.
        -13    1    3    3    0    0  0.26096434798E+02  0.23606708235E+02  0.70981622874E+01  0.35898407413E+02  0.10566000000E+00 0.  1.
         23    2    1    0    0    0 -0.26559631652E+02 -0.23793584937E+01  0.13757875313E+02  0.94994092024E+02  0.90130588626E+02 0.  0.
         13    1    3    3    0    0 -0.52656066450E+02 -0.25986066729E+02  0.66597130256E+01  0.59095684611E+02  0.10566000000E+00 0. -1.
         22    1    1    0    0    0  0.26559631652E+02  0.23793584937E+01 -0.13757875313E+02  0.30005907976E+02  0.00000000000E+00 0. -1.
</event>
<event>
 5    1  0.1285346E-004  0.9118800E+02  0.7818608E-02  0.1130116E+00
         25   -1    0    0    0    0  0.00000000000E+00  0.00000000000E+00  0.99999998245E-14  0.12500000000E+03  0.12500000000E+03 0.  0.
        -13    1    3    3    0    0  0.13796411697E+02  0.34559123756E+02  0.44490843605E+01  0.37476386247E+02  0.10566000000E+00 0.  1.
         23    2    1    0    0    0  0.18613985450E+02 -0.21156822608E+02  0.12851809490E+02  0.94028067475E+02  0.88780723520E+02 0.  0.
         13    1    3    3    0    0  0.48175737528E+01 -0.55715946363E+02  0.84027251299E+01  0.56551681227E+02  0.10566000000E+00 0. -1.
         22    1    1    0    0    0 -0.18613985450E+02  0.21156822608E+02 -0.12851809490E+02  0.30971932525E+02  0.00000000000E+00 0. -1.
</event>
<event>
 5    1  0.1285346E-004  0.9118800E+02  0.7818608E-02  0.1130116E+00
         25   -1    0    0    0    0  0.00000000000E+00  0.00000000000E+00  0.99999998245E-14  0.12500000000E+03  0.12500000000E+03 0.  0.
        -13    1    3    3    0    0 -0.16378024953E+02  0.32895458636E+02  0.73925835093E+01  0.37483494437E+02  0.10566000000E+00 0.  1.
         23    2    1    0    0    0 -0.14648111943E+02 -0.18064357601E+02 -0.19064123045E+02  0.94927936777E+02  0.90038792719E+02 0.  0.
         13    1    3    3    0    0  0.17299130102E+01 -0.50959816237E+02 -0.26456706554E+02  0.57444442339E+02  0.10566000000E+00 0. -1.
         22    1    1    0    0    0  0.14648111943E+02  0.18064357601E+02  0.19064123045E+02  0.30072063223E+02  0.00000000000E+00 0. -1.
</event>
<event>
 5    1  0.1285346E-004  0.9118800E+02  0.7818608E-02  0.1130116E+00
         25   -1    0    0    0    0  0.00000000000E+00  0.00000000000E+00  0.99999998245E-14  0.12500000000E+03  0.12500000000E+03 0.  0.
        -13    1    3    3    0    0 -0.25866992840E+01 -0.78299262641E+01 -0.32371089774E+02  0.33405050152E+02  0.10566000000E+00 0.  1.
         23    2    1    0    0    0  0.94613389605E+01  0.11179920692E+02  0.25552617756E+02  0.95547600509E+02  0.90894995062E+02 0.  0.
         13    1    3    3    0    0  0.12048038245E+02  0.19009846956E+02  0.57923707529E+02  0.62142550357E+02  0.10566000000E+00 0. -1.
         22    1    1    0    0    0 -0.94613389605E+01 -0.11179920692E+02 -0.25552617756E+02  0.29452399491E+02  0.00000000000E+00 0. -1.
</event>
<event>
 5    1  0.1285346E-004  0.9118800E+02  0.7818608E-02  0.1130116E+00
         25   -1    0    0    0    0  0.00000000000E+00  0.00000000000E+00  0.99999998245E-14  0.12500000000E+03  0.12500000000E+03 0.  0.
        -13    1    3    3    0    0  0.18532678890E+02 -0.15901028651E+02 -0.33143725992E+02  0.41168199325E+02  0.10566000000E+00 0. -1.
         23    2    1    0    0    0  0.47197663774E+01 -0.20251262590E+02  0.19939054613E+02  0.96191047745E+02  0.91775606434E+02 0.  0.
         13    1    3    3    0    0 -0.13812912512E+02 -0.43502339398E+01  0.53082780606E+02  0.55022848420E+02  0.10566000000E+00 0.  1.
         22    1    1    0    0    0 -0.47197663774E+01  0.20251262590E+02 -0.19939054613E+02  0.28808952255E+02  0.00000000000E+00 0.  1.
</event>
<event>
 5    1  0.1285346E-004  0.9118800E+02  0.7818608E-02  0.1130116E+00
         25   -1    0    0    0    0  0.00000000000E+00  0.00000000000E+00  0.99999998245E-14  0.12500000000E+03  0.12500000000E+03 0.  0.
        -13    1    3    3    0    0  0.25873059604E+02 -0.71858900015E+01  0.47933006765E+02  0.54942119817E+02  0.10566000000E+00 0. -1.
         23    2    1    0    0    0  0.14939437397E+02  0.17886152366E+02  0.17530358546E+02  0.95838129228E+02  0.91293659731E+02 0.  0.
         13    1    3    3    0    0 -0.10933622207E+02  0.25072042367E+02 -0.30402648219E+02  0.40896009411E+02  0.10566000000E+00 0.  1.
         22    1    1    0    0    0 -0.14939437397E+02 -0.17886152366E+02 -0.17530358546E+02  0.29161870772E+02  0.00000000000E+00 0. -1.
</event>
<event>
 5    1  0.1285346E-004  0.9118800E+02  0.7818608E-02  0.1130116E+00
         25   -1    0    0    0    0  0.00000000000E+00  0.00000000000E+00  0.99999998245E-14  0.12500000000E+03  0.12500000000E+03 0.  0.
        -13    1    3    3    0    0 -0.32663361623E+02  0.45111042803E+02  0.21021964056E+00  0.55695212825E+02  0.10566000000E+00 0.  1.
         23    2    1    0    0    0 -0.68153456168E+01  0.16561987288E+02  0.19292911275E+02  0.98675775714E+02  0.95099652620E+02 0.  0.
         13    1    3    3    0    0  0.25848016006E+02 -0.28549055515E+02  0.19082691634E+02  0.42980562889E+02  0.10566000000E+00 0. -1.
         22    1    1    0    0    0  0.68153456168E+01 -0.16561987288E+02 -0.19292911275E+02  0.26324224286E+02  0.00000000000E+00 0.  1.
</event>
<event>
 5    1  0.1285346E-004  0.9118800E+02  0.7818608E-02  0.1130116E+00
         25   -1    0    0    0    0  0.00000000000E+00  0.00000000000E+00  0.99999998245E-14  0.12500000000E+03  0.12500000000E+03 0.  0.
        -13    1    3    3    0    0 -0.26386770570E+02 -0.69142294157E+01 -0.35669452945E+02  0.44904223264E+02  0.10566000000E+00 0. -1.
         23    2    1    0    0    0  0.18725752226E+02  0.74774367476E+01 -0.23962997416E+02  0.93682415452E+02  0.88292716931E+02 0.  0.
         13    1    3    3    0    0  0.45112522797E+02  0.14391666163E+02  0.11706455529E+02  0.48778192188E+02  0.10566000000E+00 0.  1.
         22    1    1    0    0    0 -0.18725752226E+02 -0.74774367476E+01  0.23962997416E+02  0.31317584548E+02  0.00000000000E+00 0.  1.
</event>
<event>
 5    1  0.1285346E-004  0.9118800E+02  0.7818608E-02  0.1130116E+00
         25   -1    0    0    0    0  0.00000000000E+00  0.00000000000E+00  0.99999998245E-14  0.12500000000E+03  0.12500000000E+03 0.  0.
        -13    1    3    3    0    0  0.41750185357E+02  0.27341663877E+02 -0.10249748598E+02  0.50948141000E+02  0.10566000000E+00 0.  1.
         23    2    1    0    0    0  0.15805277461E+02  0.10610671251E+02  0.22212407112E+02  0.95746211019E+02  0.91167717722E+02 0.  0.
         13    1    3    3    0    0 -0.25944907896E+02 -0.16730992626E+02  0.32462155711E+02  0.44798070019E+02  0.10566000000E+00 0. -1.
         22    1    1    0    0    0 -0.15805277461E+02 -0.10610671251E+02 -0.22212407112E+02  0.29253788981E+02  0.00000000000E+00 0.  1.
</event>
<event>
 5    1  0.1285346E-004  0.9118800E+02  0.7818608E-02  0.1130116E+00
         25   -1    0    0    0    0  0.00000000000E+00  0.00000000000E+00  0.99999998245E-14  0.12500000000E+03  0.12500000000E+03 0.  0.
        -13    1    3    3    0    0 -0.17706967862E+02 -0.38184316760E+02  0.98346549137E+01  0.43223955842E+02  0.10566000000E+00 0.  1.
         23    2    1    0    0    0  0.10429650770E+01 -0.58265793073E+01 -0.27975707907E+02  0.96404947361E+02  0.92066480546E+02 0.  0.
         13    1    3    3    0    0  0.18749932939E+02  0.32357737453E+02 -0.37810362820E+02  0.53180991519E+02  0.10566000000E+00 0. -1.
         22    1    1    0    0    0 -0.10429650770E+01  0.58265793073E+01  0.27975707907E+02  0.28595052639E+02  0.00000000000E+00 0. -1.
</event>
<event>
 5    1  0.1285346E-004  0.9118800E+02  0.7818608E-02  0.1130116E+00
         25   -1    0    0    0    0  0.00000000000E+00  0.00000000000E+00  0.99999998245E-14  0.12500000000E+03  0.12500000000E+03 0.  0.
        -13    1    3    3    0    0  0.28426364803E+02 -0.29125989011E+02  0.44177293846E+02  0.60066845326E+02  0.10566000000E+00 0.  1.
         23    2    1    0    0    0  0.23508506739E+02 -0.10087770533E+02  0.14715089530E+02  0.95488191121E+02  0.90813257734E+02 0.  0.
         13    1    3    3    0    0 -0.49178580641E+01  0.19038218479E+02 -0.29462204316E+02  0.35421345795E+02  0.10566000000E+00 0. -1.
         22    1    1    0    0    0 -0.23508506739E+02  0.10087770533E+02 -0.14715089530E+02  0.29511808879E+02  0.00000000000E+00 0.  1.
</event>
<event>
 5    1  0.1285346E-004  0.9118800E+02  0.7818608E-02  0.1130116E+00
         25   -1    0    0    0    0  0.00000000000E+00  0.00000000000E+00  0.99999998245E-14  0.12500000000E+03  0.12500000000E+03 0.  0.
        -13    1    3    3    0    0  0.69692425174E+01  0.32928624211E+02  0.49127954493E+02  0.59551924490E+02  0.10566000000E+00 0.  1.
         23    2    1    0    0    0  0.15672522400E+02  0.99446880002E+01  0.23402240480E+02  0.95130456359E+02  0.90319511125E+02 0.  0.
         13    1    3    3    0    0  0.87032798828E+01 -0.22983936211E+02 -0.25725714013E+02  0.35578531869E+02  0.10566000000E+00 0. -1.
         22    1    1    0    0    0 -0.15672522400E+02 -0.99446880002E+01 -0.23402240480E+02  0.29869543641E+02  0.00000000000E+00 0.  1.
</event>
<event>
 5    1  0.1285346E-004  0.9118800E+02  0.7818608E-02  0.1130116E+00
         25   -1    0    0    0    0  0.00000000000E+00  0.00000000000E+00  0.99999998245E-14  0.12500000000E+03  0.12500000000E+03 0.  0.
        -13    1    3    3    0    0  0.19881961858E+02  0.19051901786E+02  0.52626164691E+02  0.59395216500E+02  0.10566000000E+00 0.  1.
         23    2    1    0    0    0  0.69281136307E+00  0.19502089944E+02  0.21495620099E+02  0.95967721701E+02  0.91470926667E+02 0.  0.
         13    1    3    3    0    0 -0.19189150495E+02  0.45018815851E+00 -0.31130544592E+02  0.36572505202E+02  0.10566000000E+00 0. -1.
         22    1    1    0    0    0 -0.69281136307E+00 -0.19502089944E+02 -0.21495620099E+02  0.29032278299E+02  0.00000000000E+00 0.  1.
</event>
<event>
 5    1  0.1285346E-004  0.9118800E+02  0.7818608E-02  0.1130116E+00
         25   -1    0    0    0    0  0.00000000000E+00  0.00000000000E+00  0.99999998245E-14  0.12500000000E+03  0.12500000000E+03 0.  0.
        -13    1    3    3    0    0 -0.80339803872E+01 -0.28928994872E+01 -0.36815721492E+02  0.37793150455E+02  0.10566000000E+00 0. -1.
         23    2    1    0    0    0  0.58308450123E+00  0.26616728497E+02  0.12249715644E+02  0.95693929693E+02  0.91096006627E+02 0.  0.
         13    1    3    3    0    0  0.86170648884E+01  0.29509627985E+02  0.49065437136E+02  0.57900779239E+02  0.10566000000E+00 0.  1.
         22    1    1    0    0    0 -0.58308450123E+00 -0.26616728497E+02 -0.12249715644E+02  0.29306070307E+02  0.00000000000E+00 0.  1.
</event>
<event>
 5    1  0.1285346E-004  0.9118800E+02  0.7818608E-02  0.1130116E+00
         25   -1    0    0    0    0  0.00000000000E+00  0.00000000000E+00  0.99999998245E-14  0.12500000000E+03  0.12500000000E+03 0.  0.
        -13    1    3    3    0    0 -0.22595253011E+02 -0.11966678461E+02  0.22584755430E+02  0.34114940919E+02  0.10566000000E+00 0. -1.
         23    2    1    0    0    0  0.24407856731E+02  0.86993186886E+01 -0.12427741428E+02  0.96262039515E+02  0.91872247598E+02 0.  0.
         13    1    3    3    0    0  0.47003109742E+02  0.20665997150E+02 -0.35012496858E+02  0.62147098596E+02  0.10566000000E+00 0.  1.
         22    1    1    0    0    0 -0.24407856731E+02 -0.86993186886E+01  0.12427741428E+02  0.28737960485E+02  0.00000000000E+00 0.  1.
</event>
<event>
 5    1  0.1285346E-004  0.9118800E+02  0.7818608E-02  0.1130116E+00
         25   -1    0    0    0    0  0.00000000000E+00  0.00000000000E+00  0.99999998245E-14  0.12500000000E+03  0.12500000000E+03 0.  0.
        -13    1    3    3    0    0  0.37265423036E+02 -0.14817583782E+02 -0.49829427196E+01  0.40411798096E+02  0.10566000000E+00 0. -1.
         23    2    1    0    0    0 -0.15029649847E+02  0.13842925948E+01 -0.22511561116E+02  0.97896918544E+02  0.94070344084E+02 0.  0.
         13    1    3    3    0    0 -0.52295072884E+02  0.16201876376E+02 -0.17528618396E+02  0.57485120448E+02  0.10566000000E+00 0.  1.
         22    1    1    0    0    0  0.15029649847E+02 -0.13842925948E+01  0.22511561116E+02  0.27103081456E+02  0.00000000000E+00 0.  1.
</event>
<event>
 5    1  0.1285346E-004  0.9118800E+02  0.7818608E-02  0.1130116E+00
         25   -1    0    0    0    0  0.00000000000E+00  0.00000000000E+00  0.99999998245E-14  0.12500000000E+03  0.12500000000E+03 0.  0.
        -13    1    3    3    0    0  0.26730584463E+02  0.44059821854E+02  0.64447245487E+00  0.51538515270E+02  0.10566000000E+00 0.  1.
         23    2    1    0    0    0 -0.11447349580E+02  0.26266397625E+02  0.99388320315E+01  0.94672688237E+02  0.89683733527E+02 0.  0.
         13    1    3    3    0    0 -0.38177934043E+02 -0.17793424229E+02  0.92943595766E+01  0.43134172967E+02  0.10566000000E+00 0. -1.
         22    1    1    0    0    0  0.11447349580E+02 -0.26266397625E+02 -0.99388320315E+01  0.30327311763E+02  0.00000000000E+00 0.  1.
</event>
<event>
 5    1  0.1285346E-004  0.9118800E+02  0.7818608E-02  0.1130116E+00
         25   -1    0    0    0    0  0.00000000000E+00  0.00000000000E+00  0.99999998245E-14  0.12500000000E+03  0.12500000000E+03 0.  0.
        -13    1    3    3    0    0  0.37954617097E+02 -0.44263041798E+02  0.96106332365E+01  0.59094375904E+02  0.10566000000E+00 0. -1.
         23    2    1    0    0    0  0.11726657667E+02 -0.27647030068E+02 -0.67935464717E+01  0.94209984650E+02  0.89036487815E+02 0.  0.
         13    1    3    3    0    0 -0.26227959430E+02  0.16616011730E+02 -0.16404179708E+02  0.35115608746E+02  0.10566000000E+00 0.  1.
         22    1    1    0    0    0 -0.11726657667E+02  0.27647030068E+02  0.67935464717E+01  0.30790015350E+02  0.00000000000E+00 0. -1.
</event>
<event>
 5    1  0.1285346E-004  0.9118800E+02  0.7818608E-02  0.1130116E+00
         25   -1    0    0    0    0  0.00000000000E+00  0.00000000000E+00  0.99999998245E-14  0.12500000000E+03  0.12500000000E+03 0.  0.
        -13    1    3    3    0    0 -0.38641105021E+02 -0.28035112582E+02  0.19544251352E+01  0.47780053123E+02  0.10566000000E+00 0. -1.
         23    2    1    0    0    0  0.14503866495E+02 -0.17598103483E+02 -0.21415474950E+01  0.10209494346E+03  0.99492390988E+02 0.  0.
         13    1    3    3    0    0  0.53144971516E+02  0.10437009099E+02 -0.40959726302E+01  0.54314890336E+02  0.10566000000E+00 0.  1.
         22    1    1    0    0    0 -0.14503866495E+02  0.17598103483E+02  0.21415474950E+01  0.22905056542E+02  0.00000000000E+00 0. -1.
</event>
<event>
 5    1  0.1285346E-004  0.9118800E+02  0.7818608E-02  0.1130116E+00
         25   -1    0    0    0    0  0.00000000000E+00  0.00000000000E+00  0.99999998245E-14  0.12500000000E+03  0.12500000000E+03 0.  0.
        -13    1    3    3    0    0  0.28816942626E+02  0.20877203652E+00  0.24620447781E+02  0.37902999631E+02  0.10566000000E+00 0.  1.
         23    2    1    0    0    0 -0.26851717476E+02 -0.53006635247E+01  0.11173474904E+02  0.95437214160E+02  0.90743063316E+02 0.  0.
         13    1    3    3    0    0 -0.55668660102E+02 -0.55094355612E+01 -0.13446972876E+02  0.57534214528E+02  0.10566000000E+00 0. -1.
         22    1    1    0    0    0  0.26851717476E+02  0.53006635247E+01 -0.11173474904E+02  0.29562785840E+02  0.00000000000E+00 0. -1.
</event>
<event>
 5    1  0.1285346E-004  0.9118800E+02  0.7818608E-02  0.1130116E+00
         25   -1    0    0    0    0  0.00000000000E+00  0.00000000000E+00  0.99999998245E-14  0.12500000000E+03  0.12500000000E+03 0.  0.
        -13    1    3    3    0    0  0.68612932227E+01  0.45201557828E+02 -0.35664069756E+02  0.57984439381E+02  0.10566000000E+00 0. -1.
         23    2    1    0    0    0  0.12508088115E+02  0.12700546623E+02 -0.27928859711E+02  0.91867276635E+02  0.85684416079E+02 0.  0.
         13    1    3    3    0    0  0.56467948925E+01 -0.32501011205E+02  0.77352100445E+01  0.33882837254E+02  0.10566000000E+00 0.  1.
         22    1    1    0    0    0 -0.12508088115E+02 -0.12700546623E+02  0.27928859711E+02  0.33132723365E+02  0.00000000000E+00 0. -1.
</event>
<event>
 5    1  0.1285346E-004  0.9118800E+02  0.7818608E-02  0.1130116E+00
         25   -1    0    0    0    0  0.00000000000E+00  0.00000000000E+00  0.99999998245E-14  0.12500000000E+03  0.12500000000E+03 0.  0.
        -13    1    3    3    0    0  0.21422135458E+02 -0.45129752622E+01  0.31897709739E+02  0.38687851890E+02  0.10566000000E+00 0.  1.
         23    2    1    0    0    0 -0.27215037178E+02 -0.76111226465E+01  0.35907779669E+00  0.96738429389E+02  0.92518146043E+02 0.  0.
         13    1    3    3    0    0 -0.48637172635E+02 -0.30981473843E+01 -0.31538631942E+02  0.58050577499E+02  0.10566000000E+00 0. -1.
         22    1    1    0    0    0  0.27215037178E+02  0.76111226465E+01 -0.35907779669E+00  0.28261570611E+02  0.00000000000E+00 0. -1.
</event>
<event>
 5    1  0.1285346E-004  0.9118800E+02  0.7818608E-02  0.1130116E+00
         25   -1    0    0    0    0  0.00000000000E+00  0.00000000000E+00  0.99999998245E-14  0.12500000000E+03  0.12500000000E+03 0.  0.
        -13    1    3    3    0    0 -0.16486753967E+01 -0.21361514973E+02 -0.18074601850E+02  0.28030962320E+02  0.10566000000E+00 0. -1.
         23    2    1    0    0    0 -0.35320151505E+02 -0.19571132815E+02  0.20870755741E+02  0.79545288614E+02  0.65278803248E+02 0.  0.
         13    1    3    3    0    0 -0.33671476109E+02  0.17903821585E+01  0.38945357591E+02  0.51514326294E+02  0.10566000000E+00 0.  1.
         22    1    1    0    0    0  0.35320151505E+02  0.19571132815E+02 -0.20870755741E+02  0.45454711386E+02  0.00000000000E+00 0.  1.
</event>
<event>
 5    1  0.1285346E-004  0.9118800E+02  0.7818608E-02  0.1130116E+00
         25   -1    0    0    0    0  0.00000000000E+00  0.00000000000E+00  0.99999998245E-14  0.12500000000E+03  0.12500000000E+03 0.  0.
        -13    1    3    3    0    0 -0.26936678521E+01  0.41155278870E+02  0.22094998145E+02  0.46789025769E+02  0.10566000000E+00 0.  1.
         23    2    1    0    0    0 -0.51994791348E+01 -0.81396523511E+01  0.26936125965E+02  0.96384560012E+02  0.92038796185E+02 0.  0.
         13    1    3    3    0    0 -0.25058112826E+01 -0.49294931221E+02  0.48411278200E+01  0.49595534243E+02  0.10566000000E+00 0. -1.
         22    1    1    0    0    0  0.51994791348E+01  0.81396523511E+01 -0.26936125965E+02  0.28615439988E+02  0.00000000000E+00 0.  1.
</event>
<event>
 5    1  0.1285346E-004  0.9118800E+02  0.7818608E-02  0.1130116E+00
         25   -1    0    0    0    0  0.00000000000E+00  0.00000000000E+00  0.99999998245E-14  0.12500000000E+03  0.12500000000E+03 0.  0.
        -13    1    3    3    0    0 -0.43375986937E+02 -0.15362403760E+02 -0.18744124292E+02  0.49687353034E+02  0.10566000000E+00 0. -1.
         23    2    1    0    0    0  0.82908961150E-01 -0.24431453686E+02 -0.18946155944E+02  0.94083020391E+02  0.88858061523E+02 0.  0.
         13    1    3    3    0    0  0.43458895898E+02 -0.90690499269E+01 -0.20203165199E+00  0.44395667357E+02  0.10566000000E+00 0.  1.
         22    1    1    0    0    0 -0.82908961150E-01  0.24431453686E+02  0.18946155944E+02  0.30916979609E+02  0.00000000000E+00 0.  1.
</event>
<event>
 5    1  0.1285346E-004  0.9118800E+02  0.7818608E-02  0.1130116E+00
         25   -1    0    0    0    0  0.00000000000E+00  0.00000000000E+00  0.99999998245E-14  0.12500000000E+03  0.12500000000E+03 0.  0.
        -13    1    3    3    0    0  0.48470668566E+02 -0.13051851068E+02 -0.21530599032E+02  0.54619908333E+02  0.10566000000E+00 0.  1.
         23    2    1    0    0    0  0.18106069455E+02 -0.25265302089E+02  0.21790301380E+00  0.93916037536E+02  0.88622849107E+02 0.  0.
         13    1    3    3    0    0 -0.30364599112E+02 -0.12213451021E+02  0.21748502046E+02  0.39296129203E+02  0.10566000000E+00 0. -1.
         22    1    1    0    0    0 -0.18106069455E+02  0.25265302089E+02 -0.21790301380E+00  0.31083962464E+02  0.00000000000E+00 0. -1.
</event>
<event>
 5    1  0.1285346E-004  0.9118800E+02  0.7818608E-02  0.1130116E+00
         25   -1    0    0    0    0  0.00000000000E+00  0.00000000000E+00  0.99999998245E-14  0.12500000000E+03  0.12500000000E+03 0.  0.
        -13    1    3    3    0    0 -0.31520384256E+02  0.22212942813E+01 -0.37980549853E+02  0.49406498592E+02  0.10566000000E+00 0.  1.
         23    2    1    0    0    0  0.90726213405E+01  0.17370460618E+02 -0.21874436863E+02  0.95631030864E+02  0.91009657267E+02 0.  0.
         13    1    3    3    0    0  0.40593005597E+02  0.15149166336E+02  0.16106112990E+02  0.46224532272E+02  0.10566000000E+00 0. -1.
         22    1    1    0    0    0 -0.90726213405E+01 -0.17370460618E+02  0.21874436863E+02  0.29368969136E+02  0.00000000000E+00 0.  1.
</event>
<event>
 5    1  0.1285346E-004  0.9118800E+02  0.7818608E-02  0.1130116E+00
         25   -1    0    0    0    0  0.00000000000E+00  0.00000000000E+00  0.99999998245E-14  0.12500000000E+03  0.12500000000E+03 0.  0.
        -13    1    3    3    0    0  0.28990016455E+02  0.21521217211E+02 -0.70798422742E+00  0.36112272845E+02  0.10566000000E+00 0.  1.
         23    2    1    0    0    0 -0.22673396814E+02 -0.55820678316E+01  0.15874590619E+02  0.96764472173E+02  0.92553325403E+02 0.  0.
         13    1    3    3    0    0 -0.51663413269E+02 -0.27103285043E+02  0.16582574847E+02  0.60652199328E+02  0.10566000000E+00 0. -1.
         22    1    1    0    0    0  0.22673396814E+02  0.55820678316E+01 -0.15874590619E+02  0.28235527827E+02  0.00000000000E+00 0. -1.
</event>
<event>
 5    1  0.1285346E-004  0.9118800E+02  0.7818608E-02  0.1130116E+00
         25   -1    0    0    0    0  0.00000000000E+00  0.00000000000E+00  0.99999998245E-14  0.12500000000E+03  0.12500000000E+03 0.  0.
        -13    1    3    3    0    0 -0.86619471024E+01  0.12622564300E+02  0.57533841481E+02  0.59535808861E+02  0.10566000000E+00 0.  1.
         23    2    1    0    0    0 -0.16566837849E+02  0.73966602971E+01  0.21146207709E+02  0.97137250668E+02  0.93055427928E+02 0.  0.
         13    1    3    3    0    0 -0.79048907467E+01 -0.52259040033E+01 -0.36387633772E+02  0.37601441807E+02  0.10566000000E+00 0. -1.
         22    1    1    0    0    0  0.16566837849E+02 -0.73966602971E+01 -0.21146207709E+02  0.27862749332E+02  0.00000000000E+00 0.  1.
</event>
<event>
 5    1  0.1285346E-004  0.9118800E+02  0.7818608E-02  0.1130116E+00
         25   -1    0    0    0    0  0.00000000000E+00  0.00000000000E+00  0.99999998245E-14  0.12500000000E+03  0.12500000000E+03 0.  0.
        -13    1    3    3    0    0  0.87131944903E+01  0.38579684680E+02  0.37425842789E+02  0.54451966914E+02  0.10566000000E+00 0.  1.
         23    2    1    0    0    0  0.24815753903E+02  0.12844833232E+02  0.10127265426E+02  0.95278410413E+02  0.90524044338E+02 0.  0.
         13    1    3    3    0    0  0.16102559413E+02 -0.25734851448E+02 -0.27298577363E+02  0.40826443499E+02  0.10566000000E+00 0. -1.
         22    1    1    0    0    0 -0.24815753903E+02 -0.12844833232E+02 -0.10127265426E+02  0.29721589587E+02  0.00000000000E+00 0.  1.
</event>
<event>
 5    1  0.1285346E-004  0.9118800E+02  0.7818608E-02  0.1130116E+00
         25   -1    0    0    0    0  0.00000000000E+00  0.00000000000E+00  0.99999998245E-14  0.12500000000E+03  0.12500000000E+03 0.  0.
        -13    1    3    3    0    0  0.29772395127E+02 -0.24197882747E+01  0.31602255428E+01  0.30037461218E+02  0.10566000000E+00 0.  1.
         23    2    1    0    0    0  0.35884299355E-01 -0.23109360544E+01 -0.41359924953E+02  0.83575549428E+02  0.72587101863E+02 0.  0.
         13    1    3    3    0    0 -0.29736510828E+02  0.10885222031E+00 -0.44520150495E+02  0.53538088210E+02  0.10566000000E+00 0. -1.
         22    1    1    0    0    0 -0.35884299355E-01  0.23109360544E+01  0.41359924953E+02  0.41424450572E+02  0.00000000000E+00 0. -1.
</event>
<event>
 5    1  0.1285346E-004  0.9118800E+02  0.7818608E-02  0.1130116E+00
         25   -1    0    0    0    0  0.00000000000E+00  0.00000000000E+00  0.99999998245E-14  0.12500000000E+03  0.12500000000E+03 0.  0.
        -13    1    3    3    0    0  0.21962939890E+02 -0.15241443239E+02 -0.29517421817E+02  0.39824134333E+02  0.10566000000E+00 0. -1.
         23    2    1    0    0    0 -0.20685577496E+02 -0.20448500864E+02  0.56777054596E+01  0.95364368689E+02  0.90642661988E+02 0.  0.
         13    1    3    3    0    0 -0.42648517385E+02 -0.52070576248E+01  0.35195127276E+02  0.55540234356E+02  0.10566000000E+00 0.  1.
         22    1    1    0    0    0  0.20685577496E+02  0.20448500864E+02 -0.56777054596E+01  0.29635631311E+02  0.00000000000E+00 0. -1.
</event>
<event>
 5    1  0.1285346E-004  0.9118800E+02  0.7818608E-02  0.1130116E+00
         25   -1    0    0    0    0  0.00000000000E+00  0.00000000000E+00  0.99999998245E-14  0.12500000000E+03  0.12500000000E+03 0.  0.
        -13    1    3    3    0    0 -0.20954299985E+02 -0.38689606608E+02 -0.23019612965E+02  0.49657648882E+02  0.10566000000E+00 0.  1.
         23    2    1    0    0    0 -0.32583235166E+01 -0.14742702285E+02 -0.38806441634E+02  0.83359828830E+02  0.72214660613E+02 0.  0.
         13    1    3    3    0    0  0.17695976469E+02  0.23946904323E+02 -0.15786828668E+02  0.33702179948E+02  0.10566000000E+00 0. -1.
         22    1    1    0    0    0  0.32583235166E+01  0.14742702285E+02  0.38806441634E+02  0.41640171170E+02  0.00000000000E+00 0. -1.
</event>
<event>
 5    1  0.1285346E-004  0.9118800E+02  0.7818608E-02  0.1130116E+00
         25   -1    0    0    0    0  0.00000000000E+00  0.00000000000E+00  0.99999998245E-14  0.12500000000E+03  0.12500000000E+03 0.  0.
        -13    1    3    3    0    0  0.22422895954E+02 -0.28836881968E+02 -0.33927898517E+01  0.36686158311E+02  0.10566000000E+00 0. -1.
         23    2    1    0    0    0 -0.28329038516E+02  0.78237215712E+00 -0.77774002895E+01  0.95612341286E+02  0.90983983874E+02 0.  0.
         13    1    3    3    0    0 -0.50751934469E+02  0.29619254125E+02 -0.43846104378E+01  0.58926182975E+02  0.10566000000E+00 0.  1.
         22    1    1    0    0    0  0.28329038516E+02 -0.78237215712E+00  0.77774002895E+01  0.29387658714E+02  0.00000000000E+00 0.  1.
</event>
<event>
 5    1  0.1285346E-004  0.9118800E+02  0.7818608E-02  0.1130116E+00
         25   -1    0    0    0    0  0.00000000000E+00  0.00000000000E+00  0.99999998245E-14  0.12500000000E+03  0.12500000000E+03 0.  0.
        -13    1    3    3    0    0 -0.23828033017E+01 -0.21706767512E+02 -0.48530554594E+02  0.53217359955E+02  0.10566000000E+00 0.  1.
         23    2    1    0    0    0  0.11035510808E+02  0.86602357409E+01 -0.13511374622E+01  0.11090717366E+03  0.11000815158E+03 0.  0.
         13    1    3    3    0    0  0.13418314110E+02  0.30367003253E+02  0.47179417131E+02  0.57689813702E+02  0.10566000000E+00 0. -1.
         22    1    1    0    0    0 -0.11035510808E+02 -0.86602357409E+01  0.13511374622E+01  0.14092826342E+02  0.00000000000E+00 0. -1.
</event>
<event>
 5    1  0.1285346E-004  0.9118800E+02  0.7818608E-02  0.1130116E+00
         25   -1    0    0    0    0  0.00000000000E+00  0.00000000000E+00  0.99999998245E-14  0.12500000000E+03  0.12500000000E+03 0.  0.
        -13    1    3    3    0    0  0.53547995047E+02  0.23945434417E+00  0.28233651447E+02  0.60535901332E+02  0.10566000000E+00 0.  1.
         23    2    1    0    0    0  0.27789889806E+02 -0.71101364990E+01  0.52345034999E+01  0.95841261286E+02  0.91297948069E+02 0.  0.
         13    1    3    3    0    0 -0.25758105241E+02 -0.73495908431E+01 -0.22999147947E+02  0.35305359954E+02  0.10566000000E+00 0. -1.
         22    1    1    0    0    0 -0.27789889806E+02  0.71101364990E+01 -0.52345034999E+01  0.29158738714E+02  0.00000000000E+00 0.  1.
</event>
<event>
 5    1  0.1285346E-004  0.9118800E+02  0.7818608E-02  0.1130116E+00
         25   -1    0    0    0    0  0.00000000000E+00  0.00000000000E+00  0.99999998245E-14  0.12500000000E+03  0.12500000000E+03 0.  0.
        -13    1    3    3    0    0  0.29743591586E+02 -0.19683562448E+02  0.35578784361E+02  0.50378417320E+02  0.10566000000E+00 0. -1.
         23    2    1    0    0    0 -0.71608231521E+01  0.56337813785E+01  0.27724970080E+02  0.95816257150E+02  0.91263707394E+02 0.  0.
         13    1    3    3    0    0 -0.36904414738E+02  0.25317343826E+02 -0.78538142813E+01  0.45437839829E+02  0.10566000000E+00 0.  1.
         22    1    1    0    0    0  0.71608231521E+01 -0.56337813785E+01 -0.27724970080E+02  0.29183742850E+02  0.00000000000E+00 0. -1.
</event>
<event>
 5    1  0.1285346E-004  0.9118800E+02  0.7818608E-02  0.1130116E+00
         25   -1    0    0    0    0  0.00000000000E+00  0.00000000000E+00  0.99999998245E-14  0.12500000000E+03  0.12500000000E+03 0.  0.
        -13    1    3    3    0    0 -0.18296134446E+02  0.56283904886E+02 -0.14867572025E+02  0.61021982488E+02  0.10566000000E+00 0. -1.
         23    2    1    0    0    0 -0.12038148647E+02  0.20716835622E+02 -0.14212387630E+02  0.97141495675E+02  0.93061130011E+02 0.  0.
         13    1    3    3    0    0  0.62579857992E+01 -0.35567069263E+02  0.65518439432E+00  0.36119513187E+02  0.10566000000E+00 0.  1.
         22    1    1    0    0    0  0.12038148647E+02 -0.20716835622E+02  0.14212387630E+02  0.27858504325E+02  0.00000000000E+00 0. -1.
</event>
<event>
 5    1  0.1285346E-004  0.9118800E+02  0.7818608E-02  0.1130116E+00
         25   -1    0    0    0    0  0.00000000000E+00  0.00000000000E+00  0.99999998245E-14  0.12500000000E+03  0.12500000000E+03 0.  0.
        -13    1    3    3    0    0 -0.17861667192E+02  0.18715887982E+02  0.20378897696E+02  0.32933785892E+02  0.10566000000E+00 0.  1.
         23    2    1    0    0    0  0.61485701017E+01 -0.20972903784E+02 -0.20701966462E+02  0.94896195875E+02  0.89994716337E+02 0.  0.
         13    1    3    3    0    0  0.24010237294E+02 -0.39688791766E+02 -0.41080864158E+02  0.61962409982E+02  0.10566000000E+00 0. -1.
         22    1    1    0    0    0 -0.61485701017E+01  0.20972903784E+02  0.20701966462E+02  0.30103804125E+02  0.00000000000E+00 0. -1.
</event>
<event>
 5    1  0.1285346E-004  0.9118800E+02  0.7818608E-02  0.1130116E+00
         25   -1    0    0    0    0  0.00000000000E+00  0.00000000000E+00  0.99999998245E-14  0.12500000000E+03  0.12500000000E+03 0.  0.
        -13    1    3    3    0    0 -0.52297750078E+01  0.40962808343E+01  0.32601567491E+02  0.33271661068E+02  0.10566000000E+00 0. -1.
         23    2    1    0    0    0  0.17437390304E+02 -0.41609533316E+01 -0.24141575128E+02  0.94930218443E+02  0.90041960278E+02 0.  0.
         13    1    3    3    0    0  0.22667165311E+02 -0.82572341659E+01 -0.56743142619E+02  0.61658557375E+02  0.10566000000E+00 0.  1.
         22    1    1    0    0    0 -0.17437390304E+02  0.41609533316E+01  0.24141575128E+02  0.30069781557E+02  0.00000000000E+00 0.  1.
</event>
<event>
 5    1  0.1285346E-004  0.9118800E+02  0.7818608E-02  0.1130116E+00
         25   -1    0    0    0    0  0.00000000000E+00  0.00000000000E+00  0.99999998245E-14  0.12500000000E+03  0.12500000000E+03 0.  0.
        -13    1    3    3    0    0  0.14245586711E+02  0.33571364814E+02 -0.35475369153E+02  0.50877168325E+02  0.10566000000E+00 0.  1.
         23    2    1    0    0    0 -0.41569394579E-01 -0.74578288017E+01 -0.29307455788E+02  0.94758506928E+02  0.89803266823E+02 0.  0.
         13    1    3    3    0    0 -0.14287156106E+02 -0.41029193615E+02  0.61679133653E+01  0.43881338603E+02  0.10566000000E+00 0. -1.
         22    1    1    0    0    0  0.41569394579E-01  0.74578288017E+01  0.29307455788E+02  0.30241493072E+02  0.00000000000E+00 0.  1.
</event>
<event>
 5    1  0.1285346E-004  0.9118800E+02  0.7818608E-02  0.1130116E+00
         25   -1    0    0    0    0  0.00000000000E+00  0.00000000000E+00  0.99999998245E-14  0.12500000000E+03  0.12500000000E+03 0.  0.
        -13    1    3    3    0    0 -0.28430509877E+02 -0.32821136334E+02 -0.14026451654E+02  0.45631933908E+02  0.10566000000E+00 0. -1.
         23    2    1    0    0    0 -0.14258543643E+02  0.15312604660E+02 -0.19866693308E+02  0.96147488301E+02  0.91716258511E+02 0.  0.
         13    1    3    3    0    0  0.14171966233E+02  0.48133740995E+02 -0.58402416541E+01  0.50515554393E+02  0.10566000000E+00 0.  1.
         22    1    1    0    0    0  0.14258543643E+02 -0.15312604660E+02  0.19866693308E+02  0.28852511699E+02  0.00000000000E+00 0.  1.
</event>
<event>
 5    1  0.1285346E-004  0.9118800E+02  0.7818608E-02  0.1130116E+00
         25   -1    0    0    0    0  0.00000000000E+00  0.00000000000E+00  0.99999998245E-14  0.12500000000E+03  0.12500000000E+03 0.  0.
        -13    1    3    3    0    0  0.15044209955E+02  0.49297196343E+01 -0.35809316575E+02  0.39152888865E+02  0.10566000000E+00 0.  1.
         23    2    1    0    0    0 -0.29089194323E+02 -0.28594138048E+01 -0.12537978189E+01  0.95743727465E+02  0.91164312459E+02 0.  0.
         13    1    3    3    0    0 -0.44133404278E+02 -0.77891334391E+01  0.34555518756E+02  0.56590838600E+02  0.10566000000E+00 0. -1.
         22    1    1    0    0    0  0.29089194323E+02  0.28594138048E+01  0.12537978189E+01  0.29256272535E+02  0.00000000000E+00 0. -1.
</event>
<event>
 5    1  0.1285346E-004  0.9118800E+02  0.7818608E-02  0.1130116E+00
         25   -1    0    0    0    0  0.00000000000E+00  0.00000000000E+00  0.99999998245E-14  0.12500000000E+03  0.12500000000E+03 0.  0.
        -13    1    3    3    0    0  0.12674448194E+01 -0.31466858012E+02 -0.63154449031E+00  0.31498882234E+02  0.10566000000E+00 0.  1.
         23    2    1    0    0    0 -0.24754622741E+01  0.27441613653E+02 -0.16836331009E+02  0.92710185582E+02  0.86905387609E+02 0.  0.
         13    1    3    3    0    0 -0.37429070935E+01  0.58908471665E+02 -0.16204786518E+02  0.61211303348E+02  0.10566000000E+00 0. -1.
         22    1    1    0    0    0  0.24754622741E+01 -0.27441613653E+02  0.16836331009E+02  0.32289814418E+02  0.00000000000E+00 0. -1.
</event>
<event>
 5    1  0.1285346E-004  0.9118800E+02  0.7818608E-02  0.1130116E+00
         25   -1    0    0    0    0  0.00000000000E+00  0.00000000000E+00  0.99999998245E-14  0.12500000000E+03  0.12500000000E+03 0.  0.
        -13    1    3    3    0    0 -0.54493113204E+00 -0.25965827935E+02  0.25201152939E+02  0.36188816557E+02  0.10566000000E+00 0.  1.
         23    2    1    0    0    0  0.19307963465E+02  0.19240512027E+02 -0.90492850087E+01  0.96279200648E+02  0.91895593812E+02 0.  0.
         13    1    3    3    0    0  0.19852894597E+02  0.45206339962E+02 -0.34250437947E+02  0.60090384092E+02  0.10566000000E+00 0. -1.
         22    1    1    0    0    0 -0.19307963465E+02 -0.19240512027E+02  0.90492850087E+01  0.28720799352E+02  0.00000000000E+00 0. -1.
</event>
<event>
 5    1  0.1285346E-004  0.9118800E+02  0.7818608E-02  0.1130116E+00
         25   -1    0    0    0    0  0.00000000000E+00  0.00000000000E+00  0.99999998245E-14  0.12500000000E+03  0.12500000000E+03 0.  0.
        -13    1    3    3    0    0 -0.19833516134E+02  0.13325995983E+01 -0.54284120252E+02  0.57809350969E+02  0.10566000000E+00 0.  1.
         23    2    1    0    0    0 -0.10584854218E+02  0.17360737055E+02 -0.21839310810E+02  0.95160599426E+02  0.90361218765E+02 0.  0.
         13    1    3    3    0    0  0.92486619153E+01  0.16028137457E+02  0.32444809442E+02  0.37351248457E+02  0.10566000000E+00 0. -1.
         22    1    1    0    0    0  0.10584854218E+02 -0.17360737055E+02  0.21839310810E+02  0.29839400574E+02  0.00000000000E+00 0.  1.
</event>
<event>
 5    1  0.1285346E-004  0.9118800E+02  0.7818608E-02  0.1130116E+00
         25   -1    0    0    0    0  0.00000000000E+00  0.00000000000E+00  0.99999998245E-14  0.12500000000E+03  0.12500000000E+03 0.  0.
        -13    1    3    3    0    0  0.54831090915E+02  0.44195126702E+01 -0.21224450537E+01  0.55049946051E+02  0.10566000000E+00 0.  1.
         23    2    1    0    0    0  0.18987381586E+02  0.21835705504E+02  0.52885155623E+01  0.95584237368E+02  0.90945364599E+02 0.  0.
         13    1    3    3    0    0 -0.35843709329E+02  0.17416192834E+02  0.74109606160E+01  0.40534291317E+02  0.10566000000E+00 0. -1.
         22    1    1    0    0    0 -0.18987381586E+02 -0.21835705504E+02 -0.52885155623E+01  0.29415762632E+02  0.00000000000E+00 0.  1.
</event>
<event>
 5    1  0.1285346E-004  0.9118800E+02  0.7818608E-02  0.1130116E+00
         25   -1    0    0    0    0  0.00000000000E+00  0.00000000000E+00  0.99999998245E-14  0.12500000000E+03  0.12500000000E+03 0.  0.
        -13    1    3    3    0    0 -0.67033079549E+00  0.72024847355E+01 -0.57250280764E+02  0.57705553817E+02  0.10566000000E+00 0. -1.
         23    2    1    0    0    0  0.53442422574E+01  0.19123230748E+02 -0.22185521751E+02  0.95226584763E+02  0.90452452652E+02 0.  0.
         13    1    3    3    0    0  0.60145730529E+01  0.11920746012E+02  0.35064759014E+02  0.37521030946E+02  0.10566000000E+00 0.  1.
         22    1    1    0    0    0 -0.53442422574E+01 -0.19123230748E+02  0.22185521751E+02  0.29773415237E+02  0.00000000000E+00 0. -1.
</event>
<event>
 5    1  0.1285346E-004  0.9118800E+02  0.7818608E-02  0.1130116E+00
         25   -1    0    0    0    0  0.00000000000E+00  0.00000000000E+00  0.99999998245E-14  0.12500000000E+03  0.12500000000E+03 0.  0.
        -13    1    3    3    0    0  0.17477561031E+02  0.26502617864E+02  0.86357931190E+01  0.32900486016E+02  0.10566000000E+00 0.  1.
         23    2    1    0    0    0 -0.19597840703E+02 -0.19160261899E+02 -0.11787999763E+02  0.95164652932E+02  0.90366825954E+02 0.  0.
         13    1    3    3    0    0 -0.37075401734E+02 -0.45662879763E+02 -0.20423792882E+02  0.62264166916E+02  0.10566000000E+00 0. -1.
         22    1    1    0    0    0  0.19597840703E+02  0.19160261899E+02  0.11787999763E+02  0.29835347068E+02  0.00000000000E+00 0. -1.
</event>
<event>
 5    1  0.1285346E-004  0.9118800E+02  0.7818608E-02  0.1130116E+00
         25   -1    0    0    0    0  0.00000000000E+00  0.00000000000E+00  0.99999998245E-14  0.12500000000E+03  0.12500000000E+03 0.  0.
        -13    1    3    3    0    0  0.12336896365E+02  0.40295671754E+02  0.27170082217E+02  0.50141446985E+02  0.10566000000E+00 0.  1.
         23    2    1    0    0    0  0.27468806204E+01  0.23019960081E+02 -0.15464447724E+02  0.97132221857E+02  0.93048672554E+02 0.  0.
         13    1    3    3    0    0 -0.95900157449E+01 -0.17275711673E+02 -0.42634529941E+02  0.46990774872E+02  0.10566000000E+00 0. -1.
         22    1    1    0    0    0 -0.27468806204E+01 -0.23019960081E+02  0.15464447724E+02  0.27867778143E+02  0.00000000000E+00 0.  1.
</event>
<event>
 5    1  0.1285346E-004  0.9118800E+02  0.7818608E-02  0.1130116E+00
         25   -1    0    0    0    0  0.00000000000E+00  0.00000000000E+00  0.99999998245E-14  0.12500000000E+03  0.12500000000E+03 0.  0.
        -13    1    3    3    0    0 -0.62105510123E+01 -0.24714415311E+02 -0.22530196546E+02  0.34014617277E+02  0.10566000000E+00 0.  1.
         23    2    1    0    0    0 -0.42667986501E+01  0.19568054254E+02  0.20887882448E+02  0.96061825366E+02  0.91599434177E+02 0.  0.
         13    1    3    3    0    0  0.19437523622E+01  0.44282469565E+02  0.43418078994E+02  0.62047208089E+02  0.10566000000E+00 0. -1.
         22    1    1    0    0    0  0.42667986501E+01 -0.19568054254E+02 -0.20887882448E+02  0.28938174634E+02  0.00000000000E+00 0. -1.
</event>
<event>
 5    1  0.1285346E-004  0.9118800E+02  0.7818608E-02  0.1130116E+00
         25   -1    0    0    0    0  0.00000000000E+00  0.00000000000E+00  0.99999998245E-14  0.12500000000E+03  0.12500000000E+03 0.  0.
        -13    1    3    3    0    0 -0.15987508488E+02 -0.25918559684E+02 -0.23765464755E+02  0.38628754094E+02  0.10566000000E+00 0.  1.
         23    2    1    0    0    0 -0.85990056653E+01 -0.26662349685E+01  0.27855846348E+02  0.95725439660E+02  0.91139233676E+02 0.  0.
         13    1    3    3    0    0  0.73885028223E+01  0.23252324716E+02  0.51621311103E+02  0.57096685567E+02  0.10566000000E+00 0. -1.
         22    1    1    0    0    0  0.85990056653E+01  0.26662349685E+01 -0.27855846348E+02  0.29274560340E+02  0.00000000000E+00 0. -1.
</event>
<event>
 5    1  0.1285346E-004  0.9118800E+02  0.7818608E-02  0.1130116E+00
         25   -1    0    0    0    0  0.00000000000E+00  0.00000000000E+00  0.99999998245E-14  0.12500000000E+03  0.12500000000E+03 0.  0.
        -13    1    3    3    0    0 -0.11714900121E+02  0.44696782611E+02 -0.20961472319E+01  0.46254148548E+02  0.10566000000E+00 0.  1.
         23    2    1    0    0    0 -0.28955025087E+02  0.47595616901E+01 -0.15555289114E+02  0.91788346553E+02  0.85569192110E+02 0.  0.
         13    1    3    3    0    0 -0.17240124966E+02 -0.39937220921E+02 -0.13459141882E+02  0.45534198005E+02  0.10566000000E+00 0. -1.
         22    1    1    0    0    0  0.28955025087E+02 -0.47595616901E+01  0.15555289114E+02  0.33211653447E+02  0.00000000000E+00 0. -1.
</event>
<event>
 5    1  0.1285346E-004  0.9118800E+02  0.7818608E-02  0.1130116E+00
         25   -1    0    0    0    0  0.00000000000E+00  0.00000000000E+00  0.99999998245E-14  0.12500000000E+03  0.12500000000E+03 0.  0.
        -13    1    3    3    0    0  0.18875549798E+02 -0.39441465520E+02 -0.39243913485E+02  0.58753821086E+02  0.10566000000E+00 0.  1.
         23    2    1    0    0    0 -0.54933937016E+01 -0.17638110835E+02 -0.23674835452E+02  0.94970378593E+02  0.90097695021E+02 0.  0.
         13    1    3    3    0    0 -0.24368943499E+02  0.21803354686E+02  0.15569078032E+02  0.36216557507E+02  0.10566000000E+00 0. -1.
         22    1    1    0    0    0  0.54933937016E+01  0.17638110835E+02  0.23674835452E+02  0.30029621407E+02  0.00000000000E+00 0.  1.
</event>
<event>
 5    1  0.1285346E-004  0.9118800E+02  0.7818608E-02  0.1130116E+00
         25   -1    0    0    0    0  0.00000000000E+00  0.00000000000E+00  0.99999998245E-14  0.12500000000E+03  0.12500000000E+03 0.  0.
        -13    1    3    3    0    0 -0.37387852789E+02  0.92826739820E+00  0.27701811890E+02  0.46541538034E+02  0.10566000000E+00 0.  1.
         23    2    1    0    0    0 -0.12063345498E+02  0.22606997914E+02 -0.10556842002E+02  0.97286328782E+02  0.93255467376E+02 0.  0.
         13    1    3    3    0    0  0.25324507291E+02  0.21678730516E+02 -0.38258653893E+02  0.50744790748E+02  0.10566000000E+00 0. -1.
         22    1    1    0    0    0  0.12063345498E+02 -0.22606997914E+02  0.10556842002E+02  0.27713671218E+02  0.00000000000E+00 0. -1.
</event>
<event>
 5    1  0.1285346E-004  0.9118800E+02  0.7818608E-02  0.1130116E+00
         25   -1    0    0    0    0  0.00000000000E+00  0.00000000000E+00  0.99999998245E-14  0.12500000000E+03  0.12500000000E+03 0.  0.
        -13    1    3    3    0    0  0.28801016644E+02 -0.24197586819E+02  0.28959832942E+02  0.47473201447E+02  0.10566000000E+00 0.  1.
         23    2    1    0    0    0  0.28657921013E+02  0.11766091761E+01 -0.10558032653E+02  0.94436412197E+02  0.89353808252E+02 0.  0.
         13    1    3    3    0    0 -0.14309563136E+00  0.25374195995E+02 -0.39517865595E+02  0.46963210750E+02  0.10566000000E+00 0. -1.
         22    1    1    0    0    0 -0.28657921013E+02 -0.11766091761E+01  0.10558032653E+02  0.30563587803E+02  0.00000000000E+00 0. -1.
</event>
<event>
 5    1  0.1285346E-004  0.9118800E+02  0.7818608E-02  0.1130116E+00
         25   -1    0    0    0    0  0.00000000000E+00  0.00000000000E+00  0.99999998245E-14  0.12500000000E+03  0.12500000000E+03 0.  0.
        -13    1    3    3    0    0  0.31748549357E+02 -0.20692214419E+02  0.41165892235E+02  0.55953373191E+02  0.10566000000E+00 0.  1.
         23    2    1    0    0    0  0.11812437263E+02 -0.26194865519E+02  0.77730195505E+01  0.95232156837E+02  0.90460152605E+02 0.  0.
         13    1    3    3    0    0 -0.19936112094E+02 -0.55026510999E+01 -0.33392872685E+02  0.39278783647E+02  0.10566000000E+00 0. -1.
         22    1    1    0    0    0 -0.11812437263E+02  0.26194865519E+02 -0.77730195505E+01  0.29767843163E+02  0.00000000000E+00 0.  1.
</event>
<event>
 5    1  0.1285346E-004  0.9118800E+02  0.7818608E-02  0.1130116E+00
         25   -1    0    0    0    0  0.00000000000E+00  0.00000000000E+00  0.99999998245E-14  0.12500000000E+03  0.12500000000E+03 0.  0.
        -13    1    3    3    0    0  0.25421324413E+02  0.40378627376E+02  0.25356845962E+02  0.54033860540E+02  0.10566000000E+00 0.  1.
         23    2    1    0    0    0 -0.39574882723E+01  0.29430613257E+02 -0.14283767952E+01  0.95270166997E+02  0.90512660712E+02 0.  0.
         13    1    3    3    0    0 -0.29378812686E+02 -0.10948014119E+02 -0.26785222757E+02  0.41236306456E+02  0.10566000000E+00 0. -1.
         22    1    1    0    0    0  0.39574882723E+01 -0.29430613257E+02  0.14283767952E+01  0.29729833003E+02  0.00000000000E+00 0.  1.
</event>
<event>
 5    1  0.1285346E-004  0.9118800E+02  0.7818608E-02  0.1130116E+00
         25   -1    0    0    0    0  0.00000000000E+00  0.00000000000E+00  0.99999998245E-14  0.12500000000E+03  0.12500000000E+03 0.  0.
        -13    1    3    3    0    0 -0.69869063694E+01  0.42127152682E+02  0.27689553184E+02  0.50894364848E+02  0.10566000000E+00 0.  1.
         23    2    1    0    0    0 -0.47585341919E+01  0.25149623668E+02 -0.13901679894E+02  0.95872625896E+02  0.91340880629E+02 0.  0.
         13    1    3    3    0    0  0.22283721776E+01 -0.16977529014E+02 -0.41591233078E+02  0.44978261048E+02  0.10566000000E+00 0. -1.
         22    1    1    0    0    0  0.47585341919E+01 -0.25149623668E+02  0.13901679894E+02  0.29127374104E+02  0.00000000000E+00 0.  1.
</event>
<event>
 5    1  0.1285346E-004  0.9118800E+02  0.7818608E-02  0.1130116E+00
         25   -1    0    0    0    0  0.00000000000E+00  0.00000000000E+00  0.99999998245E-14  0.12500000000E+03  0.12500000000E+03 0.  0.
        -13    1    3    3    0    0  0.50814638049E+02 -0.28288795324E+02 -0.17758810358E+02  0.60809291151E+02  0.10566000000E+00 0.  1.
         23    2    1    0    0    0  0.28248847544E+02 -0.53973110535E+01 -0.33140667417E+01  0.96049846416E+02  0.91583085797E+02 0.  0.
         13    1    3    3    0    0 -0.22565790505E+02  0.22891484270E+02  0.14444743616E+02  0.35240555265E+02  0.10566000000E+00 0. -1.
         22    1    1    0    0    0 -0.28248847544E+02  0.53973110535E+01  0.33140667417E+01  0.28950153584E+02  0.00000000000E+00 0.  1.
</event>
<event>
 5    1  0.1285346E-004  0.9118800E+02  0.7818608E-02  0.1130116E+00
         25   -1    0    0    0    0  0.00000000000E+00  0.00000000000E+00  0.99999998245E-14  0.12500000000E+03  0.12500000000E+03 0.  0.
        -13    1    3    3    0    0  0.32111058142E+02  0.23976202840E+02  0.10934171072E+02  0.41539687273E+02  0.10566000000E+00 0.  1.
         23    2    1    0    0    0  0.10513074016E+02 -0.11797173904E+02 -0.24174985979E+02  0.96118726059E+02  0.91677050098E+02 0.  0.
         13    1    3    3    0    0 -0.21597984126E+02 -0.35773376744E+02 -0.35109157051E+02  0.54579038786E+02  0.10566000000E+00 0. -1.
         22    1    1    0    0    0 -0.10513074016E+02  0.11797173904E+02  0.24174985979E+02  0.28881273941E+02  0.00000000000E+00 0. -1.
</event>
<event>
 5    1  0.1285346E-004  0.9118800E+02  0.7818608E-02  0.1130116E+00
         25   -1    0    0    0    0  0.00000000000E+00  0.00000000000E+00  0.99999998245E-14  0.12500000000E+03  0.12500000000E+03 0.  0.
        -13    1    3    3    0    0  0.39068894297E+02  0.17062036013E+02 -0.44540278320E+02  0.61655000863E+02  0.10566000000E+00 0.  1.
         23    2    1    0    0    0  0.20379386301E+02  0.22552176388E+01 -0.26165489893E+02  0.91757884334E+02  0.85524681137E+02 0.  0.
         13    1    3    3    0    0 -0.18689507996E+02 -0.14806818374E+02  0.18374788427E+02  0.30102883471E+02  0.10566000000E+00 0. -1.
         22    1    1    0    0    0 -0.20379386301E+02 -0.22552176388E+01  0.26165489893E+02  0.33242115666E+02  0.00000000000E+00 0.  1.
</event>
<event>
 5    1  0.1285346E-004  0.9118800E+02  0.7818608E-02  0.1130116E+00
         25   -1    0    0    0    0  0.00000000000E+00  0.00000000000E+00  0.99999998245E-14  0.12500000000E+03  0.12500000000E+03 0.  0.
        -13    1    3    3    0    0  0.39386211058E+02 -0.43673149989E+02 -0.57908806318E+01  0.59094526937E+02  0.10566000000E+00 0.  1.
         23    2    1    0    0    0  0.30259085165E+02 -0.12138742355E+02 -0.19854876515E+00  0.92396308145E+02  0.86452744527E+02 0.  0.
         13    1    3    3    0    0 -0.91271258930E+01  0.31534407634E+02  0.55923318667E+01  0.33301781208E+02  0.10566000000E+00 0. -1.
         22    1    1    0    0    0 -0.30259085165E+02  0.12138742355E+02  0.19854876515E+00  0.32603691855E+02  0.00000000000E+00 0.  1.
</event>
<event>
 5    1  0.1285346E-004  0.9118800E+02  0.7818608E-02  0.1130116E+00
         25   -1    0    0    0    0  0.00000000000E+00  0.00000000000E+00  0.99999998245E-14  0.12500000000E+03  0.12500000000E+03 0.  0.
        -13    1    3    3    0    0 -0.20513502304E+02 -0.25783416916E+02 -0.45535019676E+01  0.33261598111E+02  0.10566000000E+00 0. -1.
         23    2    1    0    0    0  0.20512067470E+02  0.16532772863E+02  0.14147902641E+02  0.95096143400E+02  0.90272010335E+02 0.  0.
         13    1    3    3    0    0  0.41025569774E+02  0.42316189779E+02  0.18701404608E+02  0.61834545289E+02  0.10566000000E+00 0.  1.
         22    1    1    0    0    0 -0.20512067470E+02 -0.16532772863E+02 -0.14147902641E+02  0.29903856600E+02  0.00000000000E+00 0.  1.
</event>
<event>
 5    1  0.1285346E-004  0.9118800E+02  0.7818608E-02  0.1130116E+00
         25   -1    0    0    0    0  0.00000000000E+00  0.00000000000E+00  0.99999998245E-14  0.12500000000E+03  0.12500000000E+03 0.  0.
        -13    1    3    3    0    0 -0.20618454566E+02 -0.24484447627E+02  0.22343390114E+02  0.39036484090E+02  0.10566000000E+00 0.  1.
         23    2    1    0    0    0  0.23738111282E+02  0.14933987788E+01 -0.93698267208E+01  0.99435927165E+02  0.96093609523E+02 0.  0.
         13    1    3    3    0    0  0.44356565848E+02  0.25977846406E+02 -0.31713216835E+02  0.60399443075E+02  0.10566000000E+00 0. -1.
         22    1    1    0    0    0 -0.23738111282E+02 -0.14933987788E+01  0.93698267208E+01  0.25564072835E+02  0.00000000000E+00 0. -1.
</event>
<event>
 5    1  0.1285346E-004  0.9118800E+02  0.7818608E-02  0.1130116E+00
         25   -1    0    0    0    0  0.00000000000E+00  0.00000000000E+00  0.99999998245E-14  0.12500000000E+03  0.12500000000E+03 0.  0.
        -13    1    3    3    0    0  0.69164827485E+01 -0.59852069835E+01 -0.58837601068E+02  0.59544394361E+02  0.10566000000E+00 0.  1.
         23    2    1    0    0    0 -0.51786999096E+01 -0.13407746337E+02 -0.26664968569E+02  0.94707968979E+02  0.89732893884E+02 0.  0.
         13    1    3    3    0    0 -0.12095182658E+02 -0.74225393531E+01  0.32172632499E+02  0.35163574618E+02  0.10566000000E+00 0. -1.
         22    1    1    0    0    0  0.51786999096E+01  0.13407746337E+02  0.26664968569E+02  0.30292031021E+02  0.00000000000E+00 0.  1.
</event>
<event>
 5    1  0.1285346E-004  0.9118800E+02  0.7818608E-02  0.1130116E+00
         25   -1    0    0    0    0  0.00000000000E+00  0.00000000000E+00  0.99999998245E-14  0.12500000000E+03  0.12500000000E+03 0.  0.
        -13    1    3    3    0    0  0.28899039486E+02  0.82319505968E+01  0.50129716253E+02  0.58445864777E+02  0.10566000000E+00 0.  1.
         23    2    1    0    0    0  0.10078498322E+02 -0.53123315837E+01  0.39381697508E+02  0.84003474612E+02  0.73320315418E+02 0.  0.
         13    1    3    3    0    0 -0.18820541164E+02 -0.13544282181E+02 -0.10748018745E+02  0.25557609835E+02  0.10566000000E+00 0. -1.
         22    1    1    0    0    0 -0.10078498322E+02  0.53123315837E+01 -0.39381697508E+02  0.40996525388E+02  0.00000000000E+00 0.  1.
</event>
<event>
 5    1  0.1285346E-004  0.9118800E+02  0.7818608E-02  0.1130116E+00
         25   -1    0    0    0    0  0.00000000000E+00  0.00000000000E+00  0.99999998245E-14  0.12500000000E+03  0.12500000000E+03 0.  0.
        -13    1    3    3    0    0  0.54208583424E+02  0.14457726187E+02 -0.33225659368E+01  0.56201841355E+02  0.10566000000E+00 0.  1.
         23    2    1    0    0    0  0.26371214985E+02 -0.16036062797E+01  0.16394479981E+02  0.93906728915E+02  0.88609718591E+02 0.  0.
         13    1    3    3    0    0 -0.27837368438E+02 -0.16061332466E+02  0.19717045918E+02  0.37704887560E+02  0.10566000000E+00 0. -1.
         22    1    1    0    0    0 -0.26371214985E+02  0.16036062797E+01 -0.16394479981E+02  0.31093271085E+02  0.00000000000E+00 0.  1.
</event>
<event>
 5    1  0.1285346E-004  0.9118800E+02  0.7818608E-02  0.1130116E+00
         25   -1    0    0    0    0  0.00000000000E+00  0.00000000000E+00  0.99999998245E-14  0.12500000000E+03  0.12500000000E+03 0.  0.
        -13    1    3    3    0    0  0.58213979090E+01  0.41606509412E+02  0.81760698809E+00  0.42019875586E+02  0.10566000000E+00 0. -1.
         23    2    1    0    0    0  0.13836382616E+02 -0.87268227632E+01  0.22311293190E+02  0.97334195778E+02  0.93319606432E+02 0.  0.
         13    1    3    3    0    0  0.80149847072E+01 -0.50333332175E+02  0.21493686202E+02  0.55314320192E+02  0.10566000000E+00 0.  1.
         22    1    1    0    0    0 -0.13836382616E+02  0.87268227632E+01 -0.22311293190E+02  0.27665804222E+02  0.00000000000E+00 0.  1.
</event>
<event>
 5    1  0.1285346E-004  0.9118800E+02  0.7818608E-02  0.1130116E+00
         25   -1    0    0    0    0  0.00000000000E+00  0.00000000000E+00  0.99999998245E-14  0.12500000000E+03  0.12500000000E+03 0.  0.
        -13    1    3    3    0    0 -0.17745271500E+02  0.33309921335E+02 -0.38013633920E+02  0.53567649265E+02  0.10566000000E+00 0. -1.
         23    2    1    0    0    0  0.12069602070E+02  0.23014160512E+02 -0.63775624885E+01  0.98241820288E+02  0.94527536052E+02 0.  0.
         13    1    3    3    0    0  0.29814873570E+02 -0.10295760823E+02  0.31636071432E+02  0.44674171023E+02  0.10566000000E+00 0.  1.
         22    1    1    0    0    0 -0.12069602070E+02 -0.23014160512E+02  0.63775624885E+01  0.26758179712E+02  0.00000000000E+00 0. -1.
</event>
<event>
 5    1  0.1285346E-004  0.9118800E+02  0.7818608E-02  0.1130116E+00
         25   -1    0    0    0    0  0.00000000000E+00  0.00000000000E+00  0.99999998245E-14  0.12500000000E+03  0.12500000000E+03 0.  0.
        -13    1    3    3    0    0 -0.20441439458E+02  0.25793271498E+02  0.22713512465E+02  0.39988249702E+02  0.10566000000E+00 0. -1.
         23    2    1    0    0    0  0.89612599839E+01  0.17746353777E+02 -0.22788822395E+02  0.94758179965E+02  0.89802811712E+02 0.  0.
         13    1    3    3    0    0  0.29402699442E+02 -0.80469177215E+01 -0.45502334860E+02  0.54769930263E+02  0.10566000000E+00 0.  1.
         22    1    1    0    0    0 -0.89612599839E+01 -0.17746353777E+02  0.22788822395E+02  0.30241820035E+02  0.00000000000E+00 0.  1.
</event>
<event>
 5    1  0.1285346E-004  0.9118800E+02  0.7818608E-02  0.1130116E+00
         25   -1    0    0    0    0  0.00000000000E+00  0.00000000000E+00  0.99999998245E-14  0.12500000000E+03  0.12500000000E+03 0.  0.
        -13    1    3    3    0    0  0.43386863472E+02 -0.32464136484E+02  0.27788795097E+02  0.60898016196E+02  0.10566000000E+00 0.  1.
         23    2    1    0    0    0  0.25491290122E+02 -0.66347381310E+01  0.12911857759E+02  0.95665009068E+02  0.91056313713E+02 0.  0.
         13    1    3    3    0    0 -0.17895573350E+02  0.25829398353E+02 -0.14876937339E+02  0.34766992872E+02  0.10566000000E+00 0. -1.
         22    1    1    0    0    0 -0.25491290122E+02  0.66347381310E+01 -0.12911857759E+02  0.29334990932E+02  0.00000000000E+00 0.  1.
</event>
<event>
 5    1  0.1285346E-004  0.9118800E+02  0.7818608E-02  0.1130116E+00
         25   -1    0    0    0    0  0.00000000000E+00  0.00000000000E+00  0.99999998245E-14  0.12500000000E+03  0.12500000000E+03 0.  0.
        -13    1    3    3    0    0  0.37134909108E+02 -0.36245788761E+02 -0.17960448040E+02  0.54912180208E+02  0.10566000000E+00 0.  1.
         23    2    1    0    0    0  0.26197104313E+02 -0.86765187994E+01  0.99744909385E+01  0.95656163810E+02  0.91044170338E+02 0.  0.
         13    1    3    3    0    0 -0.10937804795E+02  0.27569269962E+02  0.27934938979E+02  0.40743983602E+02  0.10566000000E+00 0. -1.
         22    1    1    0    0    0 -0.26197104313E+02  0.86765187994E+01 -0.99744909385E+01  0.29343836190E+02  0.00000000000E+00 0.  1.
</event>
<event>
 5    1  0.1285346E-004  0.9118800E+02  0.7818608E-02  0.1130116E+00
         25   -1    0    0    0    0  0.00000000000E+00  0.00000000000E+00  0.99999998245E-14  0.12500000000E+03  0.12500000000E+03 0.  0.
        -13    1    3    3    0    0  0.23291431850E+02 -0.30892782542E+02  0.19138980152E+02  0.43164412843E+02  0.10566000000E+00 0.  1.
         23    2    1    0    0    0  0.16069565168E+00 -0.17782559276E+02 -0.24776917745E+02  0.94501788734E+02  0.89445218897E+02 0.  0.
         13    1    3    3    0    0 -0.23130736199E+02  0.13110223266E+02 -0.43915897897E+02  0.51337375891E+02  0.10566000000E+00 0. -1.
         22    1    1    0    0    0 -0.16069565168E+00  0.17782559276E+02  0.24776917745E+02  0.30498211266E+02  0.00000000000E+00 0. -1.
</event>
<event>
 5    1  0.1285346E-004  0.9118800E+02  0.7818608E-02  0.1130116E+00
         25   -1    0    0    0    0  0.00000000000E+00  0.00000000000E+00  0.99999998245E-14  0.12500000000E+03  0.12500000000E+03 0.  0.
        -13    1    3    3    0    0  0.17523395994E+02 -0.43085802907E+02  0.39058999048E+02  0.60737734482E+02  0.10566000000E+00 0.  1.
         23    2    1    0    0    0 -0.28977136605E+01 -0.19725862099E+02  0.16866265574E+02  0.98885305010E+02  0.95374662528E+02 0.  0.
         13    1    3    3    0    0 -0.20421109655E+02  0.23359940808E+02 -0.22192733474E+02  0.38147570528E+02  0.10566000000E+00 0. -1.
         22    1    1    0    0    0  0.28977136605E+01  0.19725862099E+02 -0.16866265574E+02  0.26114694990E+02  0.00000000000E+00 0.  1.
</event>
<event>
 5    1  0.1285346E-004  0.9118800E+02  0.7818608E-02  0.1130116E+00
         25   -1    0    0    0    0  0.00000000000E+00  0.00000000000E+00  0.99999998245E-14  0.12500000000E+03  0.12500000000E+03 0.  0.
        -13    1    3    3    0    0  0.12068437451E+02 -0.50540368249E+02 -0.19257785739E+02  0.55415245925E+02  0.10566000000E+00 0. -1.
         23    2    1    0    0    0  0.20152291185E+02 -0.78171236860E+01 -0.14078679181E+02  0.99204041592E+02  0.95791494392E+02 0.  0.
         13    1    3    3    0    0  0.80838537333E+01  0.42723244563E+02  0.51791065580E+01  0.43788795667E+02  0.10566000000E+00 0.  1.
         22    1    1    0    0    0 -0.20152291185E+02  0.78171236860E+01  0.14078679181E+02  0.25795958408E+02  0.00000000000E+00 0. -1.
</event>
<event>
 5    1  0.1285346E-004  0.9118800E+02  0.7818608E-02  0.1130116E+00
         25   -1    0    0    0    0  0.00000000000E+00  0.00000000000E+00  0.99999998245E-14  0.12500000000E+03  0.12500000000E+03 0.  0.
        -13    1    3    3    0    0  0.47177095452E+02  0.39415088640E+02  0.41562746839E+01  0.61615852920E+02  0.10566000000E+00 0.  1.
         23    2    1    0    0    0  0.17461370153E+02  0.21557543148E+02  0.69607265452E+01  0.96397922658E+02  0.92056942512E+02 0.  0.
         13    1    3    3    0    0 -0.29715725299E+02 -0.17857545492E+02  0.28044518613E+01  0.34782069738E+02  0.10566000000E+00 0. -1.
         22    1    1    0    0    0 -0.17461370153E+02 -0.21557543148E+02 -0.69607265452E+01  0.28602077342E+02  0.00000000000E+00 0.  1.
</event>
<event>
 5    1  0.1285346E-004  0.9118800E+02  0.7818608E-02  0.1130116E+00
         25   -1    0    0    0    0  0.00000000000E+00  0.00000000000E+00  0.99999998245E-14  0.12500000000E+03  0.12500000000E+03 0.  0.
        -13    1    3    3    0    0  0.74231516321E+01 -0.13679004774E+02  0.32673357874E+02  0.36190852857E+02  0.10566000000E+00 0.  1.
         23    2    1    0    0    0 -0.29457920651E+02  0.80135428361E+01 -0.60249461749E+01  0.93882706830E+02  0.88575824622E+02 0.  0.
         13    1    3    3    0    0 -0.36881072283E+02  0.21692547610E+02 -0.38698304049E+02  0.57691853973E+02  0.10566000000E+00 0. -1.
         22    1    1    0    0    0  0.29457920651E+02 -0.80135428361E+01  0.60249461749E+01  0.31117293170E+02  0.00000000000E+00 0. -1.
</event>
<event>
 5    1  0.1285346E-004  0.9118800E+02  0.7818608E-02  0.1130116E+00
         25   -1    0    0    0    0  0.00000000000E+00  0.00000000000E+00  0.99999998245E-14  0.12500000000E+03  0.12500000000E+03 0.  0.
        -13    1    3    3    0    0 -0.18346203777E+02 -0.10245571129E+01 -0.55530417046E+02  0.58491634373E+02  0.10566000000E+00 0. -1.
         23    2    1    0    0    0 -0.17380543119E+02  0.11557957968E+02 -0.20425453368E+02  0.95796082167E+02  0.91236070398E+02 0.  0.
         13    1    3    3    0    0  0.96566065778E+00  0.12582515081E+02  0.35104963678E+02  0.37304447793E+02  0.10566000000E+00 0.  1.
         22    1    1    0    0    0  0.17380543119E+02 -0.11557957968E+02  0.20425453368E+02  0.29203917833E+02  0.00000000000E+00 0. -1.
</event>
<event>
 5    1  0.1285346E-004  0.9118800E+02  0.7818608E-02  0.1130116E+00
         25   -1    0    0    0    0  0.00000000000E+00  0.00000000000E+00  0.99999998245E-14  0.12500000000E+03  0.12500000000E+03 0.  0.
        -13    1    3    3    0    0 -0.37105402817E+02 -0.41969515747E+02 -0.38202817253E+01  0.56150306204E+02  0.10566000000E+00 0.  1.
         23    2    1    0    0    0 -0.68801380242E+01 -0.26202908871E+02  0.13877928643E+02  0.94561116381E+02  0.89528091096E+02 0.  0.
         13    1    3    3    0    0  0.30225264793E+02  0.15766606875E+02  0.17698210369E+02  0.38410810177E+02  0.10566000000E+00 0. -1.
         22    1    1    0    0    0  0.68801380242E+01  0.26202908871E+02 -0.13877928643E+02  0.30438883619E+02  0.00000000000E+00 0.  1.
</event>
<event>
 5    1  0.1285346E-004  0.9118800E+02  0.7818608E-02  0.1130116E+00
         25   -1    0    0    0    0  0.00000000000E+00  0.00000000000E+00  0.99999998245E-14  0.12500000000E+03  0.12500000000E+03 0.  0.
        -13    1    3    3    0    0  0.55627541799E+01  0.41455846319E+01  0.43098505913E+02  0.43653436085E+02  0.10566000000E+00 0. -1.
         23    2    1    0    0    0 -0.27582528843E+02 -0.57648705522E+01  0.29247950886E+01  0.96670085490E+02  0.92425761411E+02 0.  0.
         13    1    3    3    0    0 -0.33145283023E+02 -0.99104551841E+01 -0.40173710825E+02  0.53016649405E+02  0.10566000000E+00 0.  1.
         22    1    1    0    0    0  0.27582528843E+02  0.57648705522E+01 -0.29247950886E+01  0.28329914510E+02  0.00000000000E+00 0.  1.
</event>
<event>
 5    1  0.1285346E-004  0.9118800E+02  0.7818608E-02  0.1130116E+00
         25   -1    0    0    0    0  0.00000000000E+00  0.00000000000E+00  0.99999998245E-14  0.12500000000E+03  0.12500000000E+03 0.  0.
        -13    1    3    3    0    0 -0.36590440498E+01 -0.29910054089E+02 -0.40306407222E+02  0.50325118640E+02  0.10566000000E+00 0.  1.
         23    2    1    0    0    0 -0.25989063148E+02 -0.10436134653E+01 -0.12890640741E+02  0.95970891314E+02  0.91475258013E+02 0.  0.
         13    1    3    3    0    0 -0.22330019098E+02  0.28866440624E+02  0.27415766481E+02  0.45645772674E+02  0.10566000000E+00 0. -1.
         22    1    1    0    0    0  0.25989063148E+02  0.10436134653E+01  0.12890640741E+02  0.29029108686E+02  0.00000000000E+00 0.  1.
</event>
<event>
 5    1  0.1285346E-004  0.9118800E+02  0.7818608E-02  0.1130116E+00
         25   -1    0    0    0    0  0.00000000000E+00  0.00000000000E+00  0.99999998245E-14  0.12500000000E+03  0.12500000000E+03 0.  0.
        -13    1    3    3    0    0  0.26712719165E+02  0.65678044048E+01 -0.17399083498E+02  0.32549111978E+02  0.10566000000E+00 0.  1.
         23    2    1    0    0    0  0.77709484359E+01 -0.28766740992E+02  0.21379007770E+02  0.88326099197E+02  0.80352503378E+02 0.  0.
         13    1    3    3    0    0 -0.18941770729E+02 -0.35334545397E+02  0.38778091269E+02  0.55776987219E+02  0.10566000000E+00 0. -1.
         22    1    1    0    0    0 -0.77709484359E+01  0.28766740992E+02 -0.21379007770E+02  0.36673900803E+02  0.00000000000E+00 0. -1.
</event>
<event>
 5    1  0.1285346E-004  0.9118800E+02  0.7818608E-02  0.1130116E+00
         25   -1    0    0    0    0  0.00000000000E+00  0.00000000000E+00  0.99999998245E-14  0.12500000000E+03  0.12500000000E+03 0.  0.
        -13    1    3    3    0    0  0.10087743821E+02  0.43592761914E+02 -0.72062882717E+01  0.45321443285E+02  0.10566000000E+00 0.  1.
         23    2    1    0    0    0 -0.27628664175E+02  0.12888656771E+02 -0.57374341794E+01  0.93977770737E+02  0.88709879293E+02 0.  0.
         13    1    3    3    0    0 -0.37716407996E+02 -0.30704105143E+02  0.14688540923E+01  0.48656327452E+02  0.10566000000E+00 0. -1.
         22    1    1    0    0    0  0.27628664175E+02 -0.12888656771E+02  0.57374341794E+01  0.31022229263E+02  0.00000000000E+00 0. -1.
</event>
<event>
 5    1  0.1285346E-004  0.9118800E+02  0.7818608E-02  0.1130116E+00
         25   -1    0    0    0    0  0.00000000000E+00  0.00000000000E+00  0.99999998245E-14  0.12500000000E+03  0.12500000000E+03 0.  0.
        -13    1    3    3    0    0  0.65663237481E+00  0.56528248326E+02  0.21456335354E+01  0.56572863920E+02  0.10566000000E+00 0.  1.
         23    2    1    0    0    0  0.19095341035E+02  0.22032575294E+02 -0.11125071491E+01  0.95822884044E+02  0.91272783518E+02 0.  0.
         13    1    3    3    0    0  0.18438708661E+02 -0.34495673032E+02 -0.32581406845E+01  0.39250020124E+02  0.10566000000E+00 0. -1.
         22    1    1    0    0    0 -0.19095341035E+02 -0.22032575294E+02  0.11125071491E+01  0.29177115956E+02  0.00000000000E+00 0.  1.
</event>
<event>
 5    1  0.1285346E-004  0.9118800E+02  0.7818608E-02  0.1130116E+00
         25   -1    0    0    0    0  0.00000000000E+00  0.00000000000E+00  0.99999998245E-14  0.12500000000E+03  0.12500000000E+03 0.  0.
        -13    1    3    3    0    0  0.69244938264E+01 -0.22120279153E+02 -0.29651726453E+02  0.37636304418E+02  0.10566000000E+00 0.  1.
         23    2    1    0    0    0 -0.27877430788E+01  0.26337037061E+02 -0.27076604309E+02  0.87124499561E+02  0.78460976862E+02 0.  0.
         13    1    3    3    0    0 -0.97122369052E+01  0.48457316214E+02  0.25751221439E+01  0.49488195142E+02  0.10566000000E+00 0. -1.
         22    1    1    0    0    0  0.27877430788E+01 -0.26337037061E+02  0.27076604309E+02  0.37875500439E+02  0.00000000000E+00 0. -1.
</event>
<event>
 5    1  0.1285346E-004  0.9118800E+02  0.7818608E-02  0.1130116E+00
         25   -1    0    0    0    0  0.00000000000E+00  0.00000000000E+00  0.99999998245E-14  0.12500000000E+03  0.12500000000E+03 0.  0.
        -13    1    3    3    0    0  0.82619588472E+01  0.70442838148E+01 -0.58977079580E+02  0.59968233076E+02  0.10566000000E+00 0.  1.
         23    2    1    0    0    0  0.15881327766E+02  0.48850716653E+01 -0.24139406245E+02  0.95694856584E+02  0.91097278478E+02 0.  0.
         13    1    3    3    0    0  0.76193689185E+01 -0.21592121495E+01  0.34837673335E+02  0.35726623508E+02  0.10566000000E+00 0. -1.
         22    1    1    0    0    0 -0.15881327766E+02 -0.48850716653E+01  0.24139406245E+02  0.29305143416E+02  0.00000000000E+00 0.  1.
</event>
<event>
 5    1  0.1285346E-004  0.9118800E+02  0.7818608E-02  0.1130116E+00
         25   -1    0    0    0    0  0.00000000000E+00  0.00000000000E+00  0.99999998245E-14  0.12500000000E+03  0.12500000000E+03 0.  0.
        -13    1    3    3    0    0 -0.40210881078E+02  0.30357610135E+02  0.21039734273E+02  0.54600192605E+02  0.10566000000E+00 0.  1.
         23    2    1    0    0    0 -0.30013309070E+02  0.44964739335E+01 -0.67527871063E+01  0.93909533087E+02  0.88613674293E+02 0.  0.
         13    1    3    3    0    0  0.10197572008E+02 -0.25861136202E+02 -0.27792521379E+02  0.39309340482E+02  0.10566000000E+00 0. -1.
         22    1    1    0    0    0  0.30013309070E+02 -0.44964739335E+01  0.67527871063E+01  0.31090466913E+02  0.00000000000E+00 0.  1.
</event>
<event>
 5    1  0.1285346E-004  0.9118800E+02  0.7818608E-02  0.1130116E+00
         25   -1    0    0    0    0  0.00000000000E+00  0.00000000000E+00  0.99999998245E-14  0.12500000000E+03  0.12500000000E+03 0.  0.
        -13    1    3    3    0    0 -0.35540786654E+02  0.55844825397E+01 -0.14704238817E+02  0.38865920348E+02  0.10566000000E+00 0.  1.
         23    2    1    0    0    0  0.19607666596E+02 -0.67797857875E+01 -0.20690232521E+02  0.95699627879E+02  0.91103825220E+02 0.  0.
         13    1    3    3    0    0  0.55148453250E+02 -0.12364268327E+02 -0.59859937037E+01  0.56833707531E+02  0.10566000000E+00 0. -1.
         22    1    1    0    0    0 -0.19607666596E+02  0.67797857875E+01  0.20690232521E+02  0.29300372121E+02  0.00000000000E+00 0. -1.
</event>
<event>
 5    1  0.1285346E-004  0.9118800E+02  0.7818608E-02  0.1130116E+00
         25   -1    0    0    0    0  0.00000000000E+00  0.00000000000E+00  0.99999998245E-14  0.12500000000E+03  0.12500000000E+03 0.  0.
        -13    1    3    3    0    0  0.38940096333E+01 -0.41566273066E+02 -0.38799783732E+02  0.56994322079E+02  0.10566000000E+00 0. -1.
         23    2    1    0    0    0 -0.13944350280E+02 -0.99725453805E+01 -0.22352888454E+02  0.96830012631E+02  0.92641800273E+02 0.  0.
         13    1    3    3    0    0 -0.17838359914E+02  0.31593727685E+02  0.16446895278E+02  0.39835690552E+02  0.10566000000E+00 0.  1.
         22    1    1    0    0    0  0.13944350280E+02  0.99725453805E+01  0.22352888454E+02  0.28169987369E+02  0.00000000000E+00 0.  1.
</event>
<event>
 5    1  0.1285346E-004  0.9118800E+02  0.7818608E-02  0.1130116E+00
         25   -1    0    0    0    0  0.00000000000E+00  0.00000000000E+00  0.99999998245E-14  0.12500000000E+03  0.12500000000E+03 0.  0.
        -13    1    3    3    0    0  0.28951063803E+02 -0.17458870867E+02 -0.45360068480E+01  0.34111036183E+02  0.10566000000E+00 0.  1.
         23    2    1    0    0    0  0.62416921213E+01  0.33912290110E+02 -0.40592720099E+01  0.90279979403E+02  0.83336635705E+02 0.  0.
         13    1    3    3    0    0 -0.22709371682E+02  0.51371160977E+02  0.47673483809E+00  0.56168943220E+02  0.10566000000E+00 0. -1.
         22    1    1    0    0    0 -0.62416921213E+01 -0.33912290110E+02  0.40592720099E+01  0.34720020597E+02  0.00000000000E+00 0. -1.
</event>
<event>
 5    1  0.1285346E-004  0.9118800E+02  0.7818608E-02  0.1130116E+00
         25   -1    0    0    0    0  0.00000000000E+00  0.00000000000E+00  0.99999998245E-14  0.12500000000E+03  0.12500000000E+03 0.  0.
        -13    1    3    3    0    0  0.60442037160E+02  0.17879207857E+01 -0.24171128057E+01  0.60516858107E+02  0.10566000000E+00 0. -1.
         23    2    1    0    0    0  0.27044081478E+02 -0.10008352114E+02 -0.34881947384E+01  0.95953193677E+02  0.91451071176E+02 0.  0.
         13    1    3    3    0    0 -0.33397955682E+02 -0.11796272900E+02 -0.10710819327E+01  0.35436335570E+02  0.10566000000E+00 0.  1.
         22    1    1    0    0    0 -0.27044081478E+02  0.10008352114E+02  0.34881947384E+01  0.29046806323E+02  0.00000000000E+00 0. -1.
</event>
<event>
 5    1  0.1285346E-004  0.9118800E+02  0.7818608E-02  0.1130116E+00
         25   -1    0    0    0    0  0.00000000000E+00  0.00000000000E+00  0.99999998245E-14  0.12500000000E+03  0.12500000000E+03 0.  0.
        -13    1    3    3    0    0 -0.82712121403E+01 -0.33111063244E+02 -0.17492211240E+02  0.38350281323E+02  0.10566000000E+00 0. -1.
         23    2    1    0    0    0  0.28108109884E+02  0.20942242798E+00  0.10408029774E+02  0.95026064944E+02  0.90174920216E+02 0.  0.
         13    1    3    3    0    0  0.36379322024E+02  0.33320485672E+02  0.27900241014E+02  0.56675783621E+02  0.10566000000E+00 0.  1.
         22    1    1    0    0    0 -0.28108109884E+02 -0.20942242798E+00 -0.10408029774E+02  0.29973935056E+02  0.00000000000E+00 0.  1.
</event>
<event>
 4    1  0.1285346E-004  0.9118800E+02  0.7818608E-02  0.1130116E+00
         25   -1    0    0    0    0  0.00000000000E+00  0.00000000000E+00  0.99999998245E-14  0.12500000000E+03  0.12500000000E+03 0.  0.
        -13    1    1    0    0    0  0.26807690509E+02 -0.11968570028E+02  0.14554581059E+02  0.32768062695E+02  0.10566000000E+00 0.  1.
         13    1    1    0    0    0  0.10851963191E+02  0.36021568827E+02  0.12917870570E+02  0.39776891155E+02  0.10566000000E+00 0. -1.
         22    1    1    0    0    0 -0.37659653700E+02 -0.24052998799E+02 -0.27472451629E+02  0.52455046150E+02  0.00000000000E+00 0.  1.
</event>
<event>
 5    1  0.1285346E-004  0.9118800E+02  0.7818608E-02  0.1130116E+00
         25   -1    0    0    0    0  0.00000000000E+00  0.00000000000E+00  0.99999998245E-14  0.12500000000E+03  0.12500000000E+03 0.  0.
        -13    1    3    3    0    0  0.27734236483E+02  0.33711188716E+02  0.32923171074E+02  0.54677037918E+02  0.10566000000E+00 0.  1.
         23    2    1    0    0    0  0.31555777145E+01  0.27812690521E+02 -0.10109588538E+01  0.96990618312E+02  0.92858249919E+02 0.  0.
         13    1    3    3    0    0 -0.24578658768E+02 -0.58984981953E+01 -0.33934129928E+02  0.42313580394E+02  0.10566000000E+00 0. -1.
         22    1    1    0    0    0 -0.31555777145E+01 -0.27812690521E+02  0.10109588538E+01  0.28009381688E+02  0.00000000000E+00 0.  1.
</event>
<event>
 5    1  0.1285346E-004  0.9118800E+02  0.7818608E-02  0.1130116E+00
         25   -1    0    0    0    0  0.00000000000E+00  0.00000000000E+00  0.99999998245E-14  0.12500000000E+03  0.12500000000E+03 0.  0.
        -13    1    3    3    0    0  0.15309405360E+02 -0.28006882595E+02  0.14247283697E+02  0.34953678232E+02  0.10566000000E+00 0. -1.
         23    2    1    0    0    0  0.10603926039E+02  0.23753682421E+02 -0.15381250241E+02  0.94779749588E+02  0.89832830284E+02 0.  0.
         13    1    3    3    0    0 -0.47054793215E+01  0.51760565016E+02 -0.29628533938E+02  0.59826071355E+02  0.10566000000E+00 0.  1.
         22    1    1    0    0    0 -0.10603926039E+02 -0.23753682421E+02  0.15381250241E+02  0.30220250412E+02  0.00000000000E+00 0.  1.
</event>
<event>
 5    1  0.1285346E-004  0.9118800E+02  0.7818608E-02  0.1130116E+00
         25   -1    0    0    0    0  0.00000000000E+00  0.00000000000E+00  0.99999998245E-14  0.12500000000E+03  0.12500000000E+03 0.  0.
        -13    1    3    3    0    0 -0.77862328979E+01 -0.13216720662E+02 -0.52226648079E+02  0.54432904217E+02  0.10566000000E+00 0. -1.
         23    2    1    0    0    0 -0.12825784172E+02  0.14421277291E+02 -0.23062705192E+02  0.94927382071E+02  0.90038022623E+02 0.  0.
         13    1    3    3    0    0 -0.50395512744E+01  0.27637997953E+02  0.29163942888E+02  0.40494477854E+02  0.10566000000E+00 0.  1.
         22    1    1    0    0    0  0.12825784172E+02 -0.14421277291E+02  0.23062705192E+02  0.30072617929E+02  0.00000000000E+00 0. -1.
</event>
<event>
 5    1  0.1285346E-004  0.9118800E+02  0.7818608E-02  0.1130116E+00
         25   -1    0    0    0    0  0.00000000000E+00  0.00000000000E+00  0.99999998245E-14  0.12500000000E+03  0.12500000000E+03 0.  0.
        -13    1    3    3    0    0 -0.21390950963E+02 -0.35091572621E+02  0.13924513447E+02  0.43392332167E+02  0.10566000000E+00 0.  1.
         23    2    1    0    0    0 -0.23863888756E+02  0.14741419894E+02  0.14780704318E+02  0.93294103590E+02  0.87741243993E+02 0.  0.
         13    1    3    3    0    0 -0.24729377936E+01  0.49832992515E+02  0.85619087066E+00  0.49901771423E+02  0.10566000000E+00 0. -1.
         22    1    1    0    0    0  0.23863888756E+02 -0.14741419894E+02 -0.14780704318E+02  0.31705896410E+02  0.00000000000E+00 0. -1.
</event>
<event>
 5    1  0.1285346E-004  0.9118800E+02  0.7818608E-02  0.1130116E+00
         25   -1    0    0    0    0  0.00000000000E+00  0.00000000000E+00  0.99999998245E-14  0.12500000000E+03  0.12500000000E+03 0.  0.
        -13    1    3    3    0    0 -0.39796489380E+02 -0.52525522418E+01 -0.10908113696E+02  0.41597451611E+02  0.10566000000E+00 0. -1.
         23    2    1    0    0    0  0.91784280041E+01 -0.27424692874E+02 -0.42993744419E+01  0.95762319852E+02  0.91189801858E+02 0.  0.
         13    1    3    3    0    0  0.48974917385E+02 -0.22172140632E+02  0.66087392543E+01  0.54164868241E+02  0.10566000000E+00 0.  1.
         22    1    1    0    0    0 -0.91784280041E+01  0.27424692874E+02  0.42993744419E+01  0.29237680148E+02  0.00000000000E+00 0.  1.
</event>
<event>
 5    1  0.1285346E-004  0.9118800E+02  0.7818608E-02  0.1130116E+00
         25   -1    0    0    0    0  0.00000000000E+00  0.00000000000E+00  0.99999998245E-14  0.12500000000E+03  0.12500000000E+03 0.  0.
        -13    1    3    3    0    0  0.14864702075E+02 -0.66725260142E+01 -0.57272326273E+02  0.59545045906E+02  0.10566000000E+00 0.  1.
         23    2    1    0    0    0 -0.52527395195E+01 -0.88138722773E+01 -0.28426936035E+02  0.94778049214E+02  0.89830464228E+02 0.  0.
         13    1    3    3    0    0 -0.20117441595E+02 -0.21413462631E+01  0.28845390238E+02  0.35233003308E+02  0.10566000000E+00 0. -1.
         22    1    1    0    0    0  0.52527395195E+01  0.88138722773E+01  0.28426936035E+02  0.30221950786E+02  0.00000000000E+00 0.  1.
</event>
<event>
 5    1  0.1285346E-004  0.9118800E+02  0.7818608E-02  0.1130116E+00
         25   -1    0    0    0    0  0.00000000000E+00  0.00000000000E+00  0.99999998245E-14  0.12500000000E+03  0.12500000000E+03 0.  0.
        -13    1    3    3    0    0 -0.30499365481E+02 -0.16840013825E+02  0.16121659398E+02  0.38389014394E+02  0.10566000000E+00 0.  1.
         23    2    1    0    0    0  0.13612480932E+02 -0.84361518246E+01 -0.22339055680E+02  0.97513608760E+02  0.93559618372E+02 0.  0.
         13    1    3    3    0    0  0.44111846413E+02  0.84038620004E+01 -0.38460715078E+02  0.59124594365E+02  0.10566000000E+00 0. -1.
         22    1    1    0    0    0 -0.13612480932E+02  0.84361518246E+01  0.22339055680E+02  0.27486391240E+02  0.00000000000E+00 0. -1.
</event>
<event>
 5    1  0.1285346E-004  0.9118800E+02  0.7818608E-02  0.1130116E+00
         25   -1    0    0    0    0  0.00000000000E+00  0.00000000000E+00  0.99999998245E-14  0.12500000000E+03  0.12500000000E+03 0.  0.
        -13    1    3    3    0    0  0.51652367597E+02  0.17280109095E+02  0.13874228743E+02  0.56205645943E+02  0.10566000000E+00 0.  1.
         23    2    1    0    0    0  0.17646801606E+02 -0.67709560741E+01  0.19034144733E+02  0.98175494063E+02  0.94439787779E+02 0.  0.
         13    1    3    3    0    0 -0.34005565991E+02 -0.24051065169E+02  0.51599159896E+01  0.41969848119E+02  0.10566000000E+00 0. -1.
         22    1    1    0    0    0 -0.17646801606E+02  0.67709560741E+01 -0.19034144733E+02  0.26824505937E+02  0.00000000000E+00 0.  1.
</event>
<event>
 5    1  0.1285346E-004  0.9118800E+02  0.7818608E-02  0.1130116E+00
         25   -1    0    0    0    0  0.00000000000E+00  0.00000000000E+00  0.99999998245E-14  0.12500000000E+03  0.12500000000E+03 0.  0.
        -13    1    3    3    0    0 -0.12017854245E+02 -0.15718841020E+02  0.29764377686E+02  0.35741294419E+02  0.10566000000E+00 0. -1.
         23    2    1    0    0    0  0.25795101925E+02  0.16320490022E+02 -0.16682090484E+01  0.94429939494E+02  0.89344752916E+02 0.  0.
         13    1    3    3    0    0  0.37812956170E+02  0.32039331043E+02 -0.31432586734E+02  0.58688645076E+02  0.10566000000E+00 0.  1.
         22    1    1    0    0    0 -0.25795101925E+02 -0.16320490022E+02  0.16682090484E+01  0.30570060506E+02  0.00000000000E+00 0.  1.
</event>
<event>
 5    1  0.1285346E-004  0.9118800E+02  0.7818608E-02  0.1130116E+00
         25   -1    0    0    0    0  0.00000000000E+00  0.00000000000E+00  0.99999998245E-14  0.12500000000E+03  0.12500000000E+03 0.  0.
        -13    1    3    3    0    0 -0.43936521152E+02 -0.15672249306E+02 -0.49169092217E+00  0.46650725753E+02  0.10566000000E+00 0.  1.
         23    2    1    0    0    0 -0.52918242569E+01 -0.12466113336E+02  0.27412500660E+02  0.94424640998E+02  0.89337339615E+02 0.  0.
         13    1    3    3    0    0  0.38644696895E+02  0.32061359703E+01  0.27904191582E+02  0.47773915245E+02  0.10566000000E+00 0. -1.
         22    1    1    0    0    0  0.52918242569E+01  0.12466113336E+02 -0.27412500660E+02  0.30575359002E+02  0.00000000000E+00 0. -1.
</event>
<event>
 5    1  0.1285346E-004  0.9118800E+02  0.7818608E-02  0.1130116E+00
         25   -1    0    0    0    0  0.00000000000E+00  0.00000000000E+00  0.99999998245E-14  0.12500000000E+03  0.12500000000E+03 0.  0.
        -13    1    3    3    0    0 -0.11064299886E+02  0.16235572503E+02 -0.48898353304E+02  0.52697937971E+02  0.10566000000E+00 0. -1.
         23    2    1    0    0    0 -0.20274544204E+02  0.27984566842E+02 -0.20397614915E+02  0.84872007050E+02  0.74786374177E+02 0.  0.
         13    1    3    3    0    0 -0.92102443178E+01  0.11748994338E+02  0.28500738389E+02  0.32174069079E+02  0.10566000000E+00 0.  1.
         22    1    1    0    0    0  0.20274544204E+02 -0.27984566842E+02  0.20397614915E+02  0.40127992950E+02  0.00000000000E+00 0. -1.
</event>
<event>
 5    1  0.1285346E-004  0.9118800E+02  0.7818608E-02  0.1130116E+00
         25   -1    0    0    0    0  0.00000000000E+00  0.00000000000E+00  0.99999998245E-14  0.12500000000E+03  0.12500000000E+03 0.  0.
        -13    1    3    3    0    0  0.19407749039E+02 -0.58061989969E+01  0.36673215196E+02  0.41896402547E+02  0.10566000000E+00 0.  1.
         23    2    1    0    0    0  0.51426201765E+01  0.28795166444E+02 -0.19574019631E+01  0.95683800123E+02  0.91082105985E+02 0.  0.
         13    1    3    3    0    0 -0.14265128863E+02  0.34601365441E+02 -0.38630617159E+02  0.53787397575E+02  0.10566000000E+00 0. -1.
         22    1    1    0    0    0 -0.51426201765E+01 -0.28795166444E+02  0.19574019631E+01  0.29316199877E+02  0.00000000000E+00 0. -1.
</event>
<event>
 5    1  0.1285346E-004  0.9118800E+02  0.7818608E-02  0.1130116E+00
         25   -1    0    0    0    0  0.00000000000E+00  0.00000000000E+00  0.99999998245E-14  0.12500000000E+03  0.12500000000E+03 0.  0.
        -13    1    3    3    0    0 -0.29413039143E+02  0.38584335251E+02  0.29884346730E+02  0.56982130022E+02  0.10566000000E+00 0.  1.
         23    2    1    0    0    0 -0.24026317712E+02  0.10304488528E+02 -0.51817149301E+00  0.98852056901E+02  0.95331076912E+02 0.  0.
         13    1    3    3    0    0  0.53867214308E+01 -0.28279846723E+02 -0.30402518223E+02  0.41869926878E+02  0.10566000000E+00 0. -1.
         22    1    1    0    0    0  0.24026317712E+02 -0.10304488528E+02  0.51817149301E+00  0.26147943099E+02  0.00000000000E+00 0.  1.
</event>
<event>
 5    1  0.1285346E-004  0.9118800E+02  0.7818608E-02  0.1130116E+00
         25   -1    0    0    0    0  0.00000000000E+00  0.00000000000E+00  0.99999998245E-14  0.12500000000E+03  0.12500000000E+03 0.  0.
        -13    1    3    3    0    0  0.27471337299E+02  0.59588986240E+01  0.21695200503E+02  0.35508812071E+02  0.10566000000E+00 0. -1.
         23    2    1    0    0    0 -0.27801072777E+02  0.13723600982E+02  0.74194989041E+01  0.93120761687E+02  0.87493945057E+02 0.  0.
         13    1    3    3    0    0 -0.55272410076E+02  0.77647023578E+01 -0.14275701598E+02  0.57611949615E+02  0.10566000000E+00 0.  1.
         22    1    1    0    0    0  0.27801072777E+02 -0.13723600982E+02 -0.74194989041E+01  0.31879238313E+02  0.00000000000E+00 0.  1.
</event>
<event>
 5    1  0.1285346E-004  0.9118800E+02  0.7818608E-02  0.1130116E+00
         25   -1    0    0    0    0  0.00000000000E+00  0.00000000000E+00  0.99999998245E-14  0.12500000000E+03  0.12500000000E+03 0.  0.
        -13    1    3    3    0    0 -0.50280112984E+02  0.40950257493E+00  0.18528136993E+02  0.53586943172E+02  0.10566000000E+00 0.  1.
         23    2    1    0    0    0 -0.24250776049E+02  0.16274904405E+02 -0.87691088418E+01  0.94506231419E+02  0.89451427349E+02 0.  0.
         13    1    3    3    0    0  0.26029336934E+02  0.15865401830E+02 -0.27297245835E+02  0.40919288247E+02  0.10566000000E+00 0. -1.
         22    1    1    0    0    0  0.24250776049E+02 -0.16274904405E+02  0.87691088418E+01  0.30493768581E+02  0.00000000000E+00 0.  1.
</event>
<event>
 5    1  0.1285346E-004  0.9118800E+02  0.7818608E-02  0.1130116E+00
         25   -1    0    0    0    0  0.00000000000E+00  0.00000000000E+00  0.99999998245E-14  0.12500000000E+03  0.12500000000E+03 0.  0.
        -13    1    3    3    0    0  0.14807923915E+02 -0.17139688165E+02 -0.56781105201E+02  0.61132222215E+02  0.10566000000E+00 0.  1.
         23    2    1    0    0    0  0.10374407859E+02 -0.14969371762E+02 -0.21214339768E+02  0.97040052912E+02  0.92924771875E+02 0.  0.
         13    1    3    3    0    0 -0.44335160561E+01  0.21703164036E+01  0.35566765433E+02  0.35907830697E+02  0.10566000000E+00 0. -1.
         22    1    1    0    0    0 -0.10374407859E+02  0.14969371762E+02  0.21214339768E+02  0.27959947088E+02  0.00000000000E+00 0.  1.
</event>
<event>
 5    1  0.1285346E-004  0.9118800E+02  0.7818608E-02  0.1130116E+00
         25   -1    0    0    0    0  0.00000000000E+00  0.00000000000E+00  0.99999998245E-14  0.12500000000E+03  0.12500000000E+03 0.  0.
        -13    1    3    3    0    0  0.30281532510E+01  0.43764377166E+02 -0.32572167203E+02  0.54639250189E+02  0.10566000000E+00 0.  1.
         23    2    1    0    0    0  0.14326153656E+02  0.25167079562E+02  0.25210832566E+01  0.95931521660E+02  0.91421443955E+02 0.  0.
         13    1    3    3    0    0  0.11298000405E+02 -0.18597297604E+02  0.35093250460E+02  0.41292271471E+02  0.10566000000E+00 0. -1.
         22    1    1    0    0    0 -0.14326153656E+02 -0.25167079562E+02 -0.25210832566E+01  0.29068478340E+02  0.00000000000E+00 0.  1.
</event>
<event>
 5    1  0.1285346E-004  0.9118800E+02  0.7818608E-02  0.1130116E+00
         25   -1    0    0    0    0  0.00000000000E+00  0.00000000000E+00  0.99999998245E-14  0.12500000000E+03  0.12500000000E+03 0.  0.
        -13    1    3    3    0    0  0.13822285866E+02 -0.15427070769E+02 -0.38716957125E+02  0.43909725940E+02  0.10566000000E+00 0.  1.
         23    2    1    0    0    0  0.72393990380E+01  0.26296788717E+02 -0.66961830099E+01  0.96914970854E+02  0.92756362118E+02 0.  0.
         13    1    3    3    0    0 -0.65828868280E+01  0.41723859486E+02  0.32020774115E+02  0.53005244914E+02  0.10566000000E+00 0. -1.
         22    1    1    0    0    0 -0.72393990380E+01 -0.26296788717E+02  0.66961830099E+01  0.28085029146E+02  0.00000000000E+00 0.  1.
</event>
<event>
 5    1  0.1285346E-004  0.9118800E+02  0.7818608E-02  0.1130116E+00
         25   -1    0    0    0    0  0.00000000000E+00  0.00000000000E+00  0.99999998245E-14  0.12500000000E+03  0.12500000000E+03 0.  0.
        -13    1    3    3    0    0 -0.11543250779E+02  0.43273565982E+02 -0.16046643026E+02  0.47574720890E+02  0.10566000000E+00 0. -1.
         23    2    1    0    0    0  0.24444622090E+02  0.16550647221E+02  0.82096448803E+00  0.95468026561E+02  0.90785497962E+02 0.  0.
         13    1    3    3    0    0  0.35987872869E+02 -0.26722918761E+02  0.16867607515E+02  0.47893305670E+02  0.10566000000E+00 0.  1.
         22    1    1    0    0    0 -0.24444622090E+02 -0.16550647221E+02 -0.82096448803E+00  0.29531973439E+02  0.00000000000E+00 0. -1.
</event>
<event>
 5    1  0.1285346E-004  0.9118800E+02  0.7818608E-02  0.1130116E+00
         25   -1    0    0    0    0  0.00000000000E+00  0.00000000000E+00  0.99999998245E-14  0.12500000000E+03  0.12500000000E+03 0.  0.
        -13    1    3    3    0    0 -0.89465152870E+01  0.35588787775E+02 -0.41817600613E+02  0.55635643576E+02  0.10566000000E+00 0. -1.
         23    2    1    0    0    0 -0.19794208487E+02  0.38050248915E+02 -0.26441725390E+02  0.74613523901E+02  0.55030727556E+02 0.  0.
         13    1    3    3    0    0 -0.10847693200E+02  0.24614611394E+01  0.15375875224E+02  0.18977880325E+02  0.10566000000E+00 0.  1.
         22    1    1    0    0    0  0.19794208487E+02 -0.38050248915E+02  0.26441725390E+02  0.50386476099E+02  0.00000000000E+00 0. -1.
</event>
<event>
 5    1  0.1285346E-004  0.9118800E+02  0.7818608E-02  0.1130116E+00
         25   -1    0    0    0    0  0.00000000000E+00  0.00000000000E+00  0.99999998245E-14  0.12500000000E+03  0.12500000000E+03 0.  0.
        -13    1    3    3    0    0 -0.26752232261E+02 -0.19797361029E+02 -0.32193613201E+02  0.46303966673E+02  0.10566000000E+00 0. -1.
         23    2    1    0    0    0 -0.29367209591E+02  0.46106638357E+01  0.87231514412E+01  0.94019609569E+02  0.88768814301E+02 0.  0.
         13    1    3    3    0    0 -0.26149773302E+01  0.24408024865E+02  0.40916764642E+02  0.47715642897E+02  0.10566000000E+00 0.  1.
         22    1    1    0    0    0  0.29367209591E+02 -0.46106638357E+01 -0.87231514412E+01  0.30980390431E+02  0.00000000000E+00 0.  1.
</event>
<event>
 5    1  0.1285346E-004  0.9118800E+02  0.7818608E-02  0.1130116E+00
         25   -1    0    0    0    0  0.00000000000E+00  0.00000000000E+00  0.99999998245E-14  0.12500000000E+03  0.12500000000E+03 0.  0.
        -13    1    3    3    0    0 -0.12843694394E+02  0.54072585367E+02  0.20218057891E+02  0.59140392312E+02  0.10566000000E+00 0.  1.
         23    2    1    0    0    0  0.80675756132E+01  0.25569198474E+02  0.12920991804E+02  0.95237242801E+02  0.90467180239E+02 0.  0.
         13    1    3    3    0    0  0.20911270008E+02 -0.28503386893E+02 -0.72970660869E+01  0.36096850489E+02  0.10566000000E+00 0. -1.
         22    1    1    0    0    0 -0.80675756132E+01 -0.25569198474E+02 -0.12920991804E+02  0.29762757199E+02  0.00000000000E+00 0.  1.
</event>
<event>
 5    1  0.1285346E-004  0.9118800E+02  0.7818608E-02  0.1130116E+00
         25   -1    0    0    0    0  0.00000000000E+00  0.00000000000E+00  0.99999998245E-14  0.12500000000E+03  0.12500000000E+03 0.  0.
        -13    1    3    3    0    0 -0.21128479501E+02  0.26449461208E+00 -0.41073181635E+02  0.46189825905E+02  0.10566000000E+00 0.  1.
         23    2    1    0    0    0 -0.16751128199E+02 -0.23607967602E+02  0.23731180951E+01  0.95955755825E+02  0.91454573184E+02 0.  0.
         13    1    3    3    0    0  0.43773513028E+01 -0.23872462214E+02  0.43446299730E+02  0.49765929920E+02  0.10566000000E+00 0. -1.
         22    1    1    0    0    0  0.16751128199E+02  0.23607967602E+02 -0.23731180951E+01  0.29044244175E+02  0.00000000000E+00 0.  1.
</event>
<event>
 5    1  0.1285346E-004  0.9118800E+02  0.7818608E-02  0.1130116E+00
         25   -1    0    0    0    0  0.00000000000E+00  0.00000000000E+00  0.99999998245E-14  0.12500000000E+03  0.12500000000E+03 0.  0.
        -13    1    3    3    0    0  0.26806064119E+01 -0.45178080717E+02 -0.41451464259E+02  0.61371652099E+02  0.10566000000E+00 0.  1.
         23    2    1    0    0    0  0.53592759184E+01 -0.27030943755E+02 -0.34156693987E+02  0.81112946069E+02  0.68214635652E+02 0.  0.
         13    1    3    3    0    0  0.26786695064E+01  0.18147136962E+02  0.72947702725E+01  0.19741293970E+02  0.10566000000E+00 0. -1.
         22    1    1    0    0    0 -0.53592759184E+01  0.27030943755E+02  0.34156693987E+02  0.43887053931E+02  0.00000000000E+00 0.  1.
</event>
<event>
 5    1  0.1285346E-004  0.9118800E+02  0.7818608E-02  0.1130116E+00
         25   -1    0    0    0    0  0.00000000000E+00  0.00000000000E+00  0.99999998245E-14  0.12500000000E+03  0.12500000000E+03 0.  0.
        -13    1    3    3    0    0 -0.11746345410E+02  0.23113726270E+02  0.26295296158E+02  0.36927966863E+02  0.10566000000E+00 0. -1.
         23    2    1    0    0    0  0.23856675426E+02 -0.17025120936E+02  0.26150495382E+01  0.95574939433E+02  0.90932584140E+02 0.  0.
         13    1    3    3    0    0  0.35603020836E+02 -0.40138847206E+02 -0.23680246620E+02  0.58646972570E+02  0.10566000000E+00 0.  1.
         22    1    1    0    0    0 -0.23856675426E+02  0.17025120936E+02 -0.26150495382E+01  0.29425060567E+02  0.00000000000E+00 0.  1.
</event>
<event>
 5    1  0.1285346E-004  0.9118800E+02  0.7818608E-02  0.1130116E+00
         25   -1    0    0    0    0  0.00000000000E+00  0.00000000000E+00  0.99999998245E-14  0.12500000000E+03  0.12500000000E+03 0.  0.
        -13    1    3    3    0    0  0.14021990178E+01 -0.30651531509E+02 -0.20018212000E+02  0.36636355190E+02  0.10566000000E+00 0. -1.
         23    2    1    0    0    0  0.11405826551E+02  0.18305659887E+02 -0.30452634014E+02  0.87683073792E+02  0.79345878582E+02 0.  0.
         13    1    3    3    0    0  0.10003627533E+02  0.48957191396E+02 -0.10434422014E+02  0.51046718602E+02  0.10566000000E+00 0.  1.
         22    1    1    0    0    0 -0.11405826551E+02 -0.18305659887E+02  0.30452634014E+02  0.37316926208E+02  0.00000000000E+00 0.  1.
</event>
<event>
 5    1  0.1285346E-004  0.9118800E+02  0.7818608E-02  0.1130116E+00
         25   -1    0    0    0    0  0.00000000000E+00  0.00000000000E+00  0.99999998245E-14  0.12500000000E+03  0.12500000000E+03 0.  0.
        -13    1    3    3    0    0  0.32759084710E+02 -0.25465516910E+02  0.16902439227E+02  0.44803502077E+02  0.10566000000E+00 0. -1.
         23    2    1    0    0    0 -0.63025928971E+01  0.67449599266E+01  0.27031038031E+02  0.96436138590E+02  0.92108819597E+02 0.  0.
         13    1    3    3    0    0 -0.39061677607E+02  0.32210476837E+02  0.10128598804E+02  0.51632636513E+02  0.10566000000E+00 0.  1.
         22    1    1    0    0    0  0.63025928971E+01 -0.67449599266E+01 -0.27031038031E+02  0.28563861410E+02  0.00000000000E+00 0.  1.
</event>
<event>
 5    1  0.1285346E-004  0.9118800E+02  0.7818608E-02  0.1130116E+00
         25   -1    0    0    0    0  0.00000000000E+00  0.00000000000E+00  0.99999998245E-14  0.12500000000E+03  0.12500000000E+03 0.  0.
        -13    1    3    3    0    0 -0.34695877106E+02 -0.16622305725E+01 -0.18397272083E+02  0.39306967356E+02  0.10566000000E+00 0. -1.
         23    2    1    0    0    0  0.23845049874E+02  0.21584404333E+01  0.83024328899E+00  0.10104306838E+03  0.98161943215E+02 0.  0.
         13    1    3    3    0    0  0.58540926980E+02  0.38206710059E+01  0.19227515372E+02  0.61736101027E+02  0.10566000000E+00 0.  1.
         22    1    1    0    0    0 -0.23845049874E+02 -0.21584404333E+01 -0.83024328899E+00  0.23956931617E+02  0.00000000000E+00 0.  1.
</event>
<event>
 5    1  0.1285346E-004  0.9118800E+02  0.7818608E-02  0.1130116E+00
         25   -1    0    0    0    0  0.00000000000E+00  0.00000000000E+00  0.99999998245E-14  0.12500000000E+03  0.12500000000E+03 0.  0.
        -13    1    3    3    0    0  0.13034127764E+02  0.52618813379E+02 -0.27430420347E+02  0.60754153211E+02  0.10566000000E+00 0. -1.
         23    2    1    0    0    0  0.12958345816E+02  0.18696625186E+02 -0.18080819444E+02  0.95941463365E+02  0.91435036180E+02 0.  0.
         13    1    3    3    0    0 -0.75781947954E-01 -0.33922188194E+02  0.93496009028E+01  0.35187310153E+02  0.10566000000E+00 0.  1.
         22    1    1    0    0    0 -0.12958345816E+02 -0.18696625186E+02  0.18080819444E+02  0.29058536635E+02  0.00000000000E+00 0. -1.
</event>
<event>
 5    1  0.1285346E-004  0.9118800E+02  0.7818608E-02  0.1130116E+00
         25   -1    0    0    0    0  0.00000000000E+00  0.00000000000E+00  0.99999998245E-14  0.12500000000E+03  0.12500000000E+03 0.  0.
        -13    1    3    3    0    0  0.25226225185E+02  0.48967859245E+00  0.30427168797E+02  0.39527534546E+02  0.10566000000E+00 0. -1.
         23    2    1    0    0    0  0.15722508309E+02  0.57313328570E+00 -0.24834922452E+02  0.95601035350E+02  0.90968449681E+02 0.  0.
         13    1    3    3    0    0 -0.95037168758E+01  0.83454693246E-01 -0.55262091249E+02  0.56073500804E+02  0.10566000000E+00 0.  1.
         22    1    1    0    0    0 -0.15722508309E+02 -0.57313328570E+00  0.24834922452E+02  0.29398964650E+02  0.00000000000E+00 0.  1.
</event>
<event>
 5    1  0.1285346E-004  0.9118800E+02  0.7818608E-02  0.1130116E+00
         25   -1    0    0    0    0  0.00000000000E+00  0.00000000000E+00  0.99999998245E-14  0.12500000000E+03  0.12500000000E+03 0.  0.
        -13    1    3    3    0    0 -0.17524948187E+02 -0.38676434379E+02  0.30012503360E+02  0.51997614438E+02  0.10566000000E+00 0.  1.
         23    2    1    0    0    0 -0.25287581579E+02 -0.11002219952E+02  0.34224872637E+02  0.81047155576E+02  0.68093971054E+02 0.  0.
         13    1    3    3    0    0 -0.77626333920E+01  0.27674214428E+02  0.42123692771E+01  0.29049541138E+02  0.10566000000E+00 0. -1.
         22    1    1    0    0    0  0.25287581579E+02  0.11002219952E+02 -0.34224872637E+02  0.43952844424E+02  0.00000000000E+00 0.  1.
</event>
<event>
 5    1  0.1285346E-004  0.9118800E+02  0.7818608E-02  0.1130116E+00
         25   -1    0    0    0    0  0.00000000000E+00  0.00000000000E+00  0.99999998245E-14  0.12500000000E+03  0.12500000000E+03 0.  0.
        -13    1    3    3    0    0  0.27873152114E+02  0.25714655086E+01  0.17436825600E+02  0.32978464104E+02  0.10566000000E+00 0.  1.
         23    2    1    0    0    0 -0.28889071665E+02  0.23208404197E+01 -0.76307728731E+01  0.95030124182E+02  0.90180546935E+02 0.  0.
         13    1    3    3    0    0 -0.56762223778E+02 -0.25062508892E+00 -0.25067598473E+02  0.62051660078E+02  0.10566000000E+00 0. -1.
         22    1    1    0    0    0  0.28889071665E+02 -0.23208404197E+01  0.76307728731E+01  0.29969875818E+02  0.00000000000E+00 0. -1.
</event>
<event>
 5    1  0.1285346E-004  0.9118800E+02  0.7818608E-02  0.1130116E+00
         25   -1    0    0    0    0  0.00000000000E+00  0.00000000000E+00  0.99999998245E-14  0.12500000000E+03  0.12500000000E+03 0.  0.
        -13    1    3    3    0    0 -0.41784568077E+02  0.26579284160E+02 -0.22610590470E+02  0.54439493396E+02  0.10566000000E+00 0. -1.
         23    2    1    0    0    0 -0.34351648844E+02 -0.41109575677E+00  0.34668573077E+00  0.90644142144E+02  0.83881079726E+02 0.  0.
         13    1    3    3    0    0  0.74329192332E+01 -0.26990379917E+02  0.22957276200E+02  0.36204648748E+02  0.10566000000E+00 0.  1.
         22    1    1    0    0    0  0.34351648844E+02  0.41109575677E+00 -0.34668573077E+00  0.34355857856E+02  0.00000000000E+00 0. -1.
</event>
<event>
 5    1  0.1285346E-004  0.9118800E+02  0.7818608E-02  0.1130116E+00
         25   -1    0    0    0    0  0.00000000000E+00  0.00000000000E+00  0.99999998245E-14  0.12500000000E+03  0.12500000000E+03 0.  0.
        -13    1    3    3    0    0 -0.65074104680E+01  0.72795731660E+01  0.33238104517E+02  0.34642767390E+02  0.10566000000E+00 0. -1.
         23    2    1    0    0    0  0.69198086459E+01 -0.25898533071E+02 -0.14667419133E+02  0.94442661259E+02  0.89362549845E+02 0.  0.
         13    1    3    3    0    0  0.13427219114E+02 -0.33178106237E+02 -0.47905523650E+02  0.59799893869E+02  0.10566000000E+00 0.  1.
         22    1    1    0    0    0 -0.69198086459E+01  0.25898533071E+02  0.14667419133E+02  0.30557338741E+02  0.00000000000E+00 0.  1.
</event>
<event>
 5    1  0.1285346E-004  0.9118800E+02  0.7818608E-02  0.1130116E+00
         25   -1    0    0    0    0  0.00000000000E+00  0.00000000000E+00  0.99999998245E-14  0.12500000000E+03  0.12500000000E+03 0.  0.
        -13    1    3    3    0    0 -0.31394378980E+02 -0.18502972110E+02 -0.16218647878E+02  0.39887626044E+02  0.10566000000E+00 0. -1.
         23    2    1    0    0    0 -0.15548259761E+02  0.24889176728E+02 -0.24440774867E+02  0.86808757864E+02  0.77956330507E+02 0.  0.
         13    1    3    3    0    0  0.15846119219E+02  0.43392148837E+02 -0.82221269888E+01  0.46921131820E+02  0.10566000000E+00 0.  1.
         22    1    1    0    0    0  0.15548259761E+02 -0.24889176728E+02  0.24440774867E+02  0.38191242136E+02  0.00000000000E+00 0.  1.
</event>
<event>
 5    1  0.1285346E-004  0.9118800E+02  0.7818608E-02  0.1130116E+00
         25   -1    0    0    0    0  0.00000000000E+00  0.00000000000E+00  0.99999998245E-14  0.12500000000E+03  0.12500000000E+03 0.  0.
        -13    1    3    3    0    0  0.39942526291E+02 -0.72266418059E+01 -0.11715144979E+02  0.42247905797E+02  0.10566000000E+00 0. -1.
         23    2    1    0    0    0 -0.86198460553E+00 -0.23571589153E+02  0.18019745206E+02  0.95317108463E+02  0.90577464724E+02 0.  0.
         13    1    3    3    0    0 -0.40804510896E+02 -0.16344947347E+02  0.29734890186E+02  0.53069202667E+02  0.10566000000E+00 0.  1.
         22    1    1    0    0    0  0.86198460553E+00  0.23571589153E+02 -0.18019745206E+02  0.29682891537E+02  0.00000000000E+00 0.  1.
</event>
<event>
 5    1  0.1285346E-004  0.9118800E+02  0.7818608E-02  0.1130116E+00
         25   -1    0    0    0    0  0.00000000000E+00  0.00000000000E+00  0.99999998245E-14  0.12500000000E+03  0.12500000000E+03 0.  0.
        -13    1    3    3    0    0 -0.30645487062E+02  0.19193466952E+02  0.59294901298E+01  0.36642940222E+02  0.10566000000E+00 0.  1.
         23    2    1    0    0    0  0.25858508354E+02  0.14906875561E+02 -0.60095403490E+01  0.94553457199E+02  0.89517396632E+02 0.  0.
         13    1    3    3    0    0  0.56503995416E+02 -0.42865913909E+01 -0.11939030479E+02  0.57910516977E+02  0.10566000000E+00 0. -1.
         22    1    1    0    0    0 -0.25858508354E+02 -0.14906875561E+02  0.60095403490E+01  0.30446542801E+02  0.00000000000E+00 0. -1.
</event>
<event>
 5    1  0.1285346E-004  0.9118800E+02  0.7818608E-02  0.1130116E+00
         25   -1    0    0    0    0  0.00000000000E+00  0.00000000000E+00  0.99999998245E-14  0.12500000000E+03  0.12500000000E+03 0.  0.
        -13    1    3    3    0    0 -0.61673220843E+01 -0.17112560763E+02  0.39997572244E+02  0.43939646642E+02  0.10566000000E+00 0.  1.
         23    2    1    0    0    0  0.18210175723E+02  0.19319111201E+02  0.12803094885E+02  0.95525302443E+02  0.90864325291E+02 0.  0.
         13    1    3    3    0    0  0.24377497807E+02  0.36431671965E+02 -0.27194477359E+02  0.51585655800E+02  0.10566000000E+00 0. -1.
         22    1    1    0    0    0 -0.18210175723E+02 -0.19319111201E+02 -0.12803094885E+02  0.29474697557E+02  0.00000000000E+00 0. -1.
</event>
<event>
 5    1  0.1285346E-004  0.9118800E+02  0.7818608E-02  0.1130116E+00
         25   -1    0    0    0    0  0.00000000000E+00  0.00000000000E+00  0.99999998245E-14  0.12500000000E+03  0.12500000000E+03 0.  0.
        -13    1    3    3    0    0  0.40096894162E+02  0.10769448062E+02  0.20526226325E+02  0.46314998264E+02  0.10566000000E+00 0. -1.
         23    2    1    0    0    0 -0.10955848987E+02 -0.47607926878E+01  0.22294367969E+02  0.99707024351E+02  0.96445612071E+02 0.  0.
         13    1    3    3    0    0 -0.51052743149E+02 -0.15530240750E+02  0.17681416436E+01  0.53392026087E+02  0.10566000000E+00 0.  1.
         22    1    1    0    0    0  0.10955848987E+02  0.47607926878E+01 -0.22294367969E+02  0.25292975649E+02  0.00000000000E+00 0.  1.
</event>
<event>
 5    1  0.1285346E-004  0.9118800E+02  0.7818608E-02  0.1130116E+00
         25   -1    0    0    0    0  0.00000000000E+00  0.00000000000E+00  0.99999998245E-14  0.12500000000E+03  0.12500000000E+03 0.  0.
        -13    1    3    3    0    0  0.18818928887E+02  0.49811452123E+02 -0.55056400195E+01  0.53531823088E+02  0.10566000000E+00 0. -1.
         23    2    1    0    0    0  0.77909160540E+00  0.26046815132E+02  0.19493661423E+02  0.92457006930E+02  0.86540462979E+02 0.  0.
         13    1    3    3    0    0 -0.18039837282E+02 -0.23764636991E+02  0.24999301443E+02  0.38925183842E+02  0.10566000000E+00 0.  1.
         22    1    1    0    0    0 -0.77909160540E+00 -0.26046815132E+02 -0.19493661423E+02  0.32542993070E+02  0.00000000000E+00 0. -1.
</event>
<event>
 5    1  0.1285346E-004  0.9118800E+02  0.7818608E-02  0.1130116E+00
         25   -1    0    0    0    0  0.00000000000E+00  0.00000000000E+00  0.99999998245E-14  0.12500000000E+03  0.12500000000E+03 0.  0.
        -13    1    3    3    0    0  0.24160162083E+02 -0.48476568041E+02  0.19082713828E+02  0.57426929328E+02  0.10566000000E+00 0. -1.
         23    2    1    0    0    0  0.15659500316E+02 -0.10908471947E+02  0.21783007737E+02  0.96039438258E+02  0.91568878799E+02 0.  0.
         13    1    3    3    0    0 -0.85006617668E+01  0.37568096095E+02  0.27002939084E+01  0.38612508930E+02  0.10566000000E+00 0.  1.
         22    1    1    0    0    0 -0.15659500316E+02  0.10908471947E+02 -0.21783007737E+02  0.28960561742E+02  0.00000000000E+00 0. -1.
</event>
<event>
 5    1  0.1285346E-004  0.9118800E+02  0.7818608E-02  0.1130116E+00
         25   -1    0    0    0    0  0.00000000000E+00  0.00000000000E+00  0.99999998245E-14  0.12500000000E+03  0.12500000000E+03 0.  0.
        -13    1    3    3    0    0 -0.22506081480E+02 -0.14536030755E+02 -0.27637981887E+02  0.38492714902E+02  0.10566000000E+00 0.  1.
         23    2    1    0    0    0  0.17607337994E+02 -0.17049704924E+02  0.14335278727E+02  0.96606144936E+02  0.92339245361E+02 0.  0.
         13    1    3    3    0    0  0.40113419474E+02 -0.25136741692E+01  0.41973260614E+02  0.58113430034E+02  0.10566000000E+00 0. -1.
         22    1    1    0    0    0 -0.17607337994E+02  0.17049704924E+02 -0.14335278727E+02  0.28393855064E+02  0.00000000000E+00 0. -1.
</event>
<event>
 5    1  0.1285346E-004  0.9118800E+02  0.7818608E-02  0.1130116E+00
         25   -1    0    0    0    0  0.00000000000E+00  0.00000000000E+00  0.99999998245E-14  0.12500000000E+03  0.12500000000E+03 0.  0.
        -13    1    3    3    0    0 -0.25886618054E+02  0.18677562428E+02 -0.11904716460E+02  0.34069073521E+02  0.10566000000E+00 0.  1.
         23    2    1    0    0    0  0.21465221051E+02 -0.19535252190E+02 -0.71889872054E+01  0.95099108209E+02  0.90276115624E+02 0.  0.
         13    1    3    3    0    0  0.47351839105E+02 -0.38212814617E+02  0.47157292550E+01  0.61030034688E+02  0.10566000000E+00 0. -1.
         22    1    1    0    0    0 -0.21465221051E+02  0.19535252190E+02  0.71889872054E+01  0.29900891791E+02  0.00000000000E+00 0. -1.
</event>
<event>
 5    1  0.1285346E-004  0.9118800E+02  0.7818608E-02  0.1130116E+00
         25   -1    0    0    0    0  0.00000000000E+00  0.00000000000E+00  0.99999998245E-14  0.12500000000E+03  0.12500000000E+03 0.  0.
        -13    1    3    3    0    0 -0.24560645479E+02  0.25376557839E+01  0.23808969003E+02  0.34300775097E+02  0.10566000000E+00 0.  1.
         23    2    1    0    0    0  0.26417151800E+02  0.18270715736E+01 -0.11306698518E+02  0.96206849232E+02  0.91797125816E+02 0.  0.
         13    1    3    3    0    0  0.50977797279E+02 -0.71058421033E+00 -0.35115667521E+02  0.61906074135E+02  0.10566000000E+00 0. -1.
         22    1    1    0    0    0 -0.26417151800E+02 -0.18270715736E+01  0.11306698518E+02  0.28793150768E+02  0.00000000000E+00 0. -1.
</event>
<event>
 5    1  0.1285346E-004  0.9118800E+02  0.7818608E-02  0.1130116E+00
         25   -1    0    0    0    0  0.00000000000E+00  0.00000000000E+00  0.99999998245E-14  0.12500000000E+03  0.12500000000E+03 0.  0.
        -13    1    3    3    0    0  0.46645160825E+02 -0.34106244237E+02  0.14057943595E+02  0.59469688637E+02  0.10566000000E+00 0.  1.
         23    2    1    0    0    0  0.18122117961E+02 -0.22566780347E+02 -0.49510667752E+01  0.95637033582E+02  0.91017901511E+02 0.  0.
         13    1    3    3    0    0 -0.28523042864E+02  0.11539463890E+02 -0.19009010370E+02  0.36167344945E+02  0.10566000000E+00 0. -1.
         22    1    1    0    0    0 -0.18122117961E+02  0.22566780347E+02  0.49510667752E+01  0.29362966418E+02  0.00000000000E+00 0.  1.
</event>
<event>
 5    1  0.1285346E-004  0.9118800E+02  0.7818608E-02  0.1130116E+00
         25   -1    0    0    0    0  0.00000000000E+00  0.00000000000E+00  0.99999998245E-14  0.12500000000E+03  0.12500000000E+03 0.  0.
        -13    1    3    3    0    0 -0.55237432277E+02  0.51850633776E+01  0.22122926345E+00  0.55480797698E+02  0.10566000000E+00 0. -1.
         23    2    1    0    0    0 -0.20718978870E+02 -0.15861754584E+02 -0.97891897571E+01  0.97130669545E+02  0.93046587182E+02 0.  0.
         13    1    3    3    0    0  0.34518453406E+02 -0.21046817962E+02 -0.10010419021E+02  0.41649871847E+02  0.10566000000E+00 0.  1.
         22    1    1    0    0    0  0.20718978870E+02  0.15861754584E+02  0.97891897571E+01  0.27869330455E+02  0.00000000000E+00 0. -1.
</event>
<event>
 5    1  0.1285346E-004  0.9118800E+02  0.7818608E-02  0.1130116E+00
         25   -1    0    0    0    0  0.00000000000E+00  0.00000000000E+00  0.99999998245E-14  0.12500000000E+03  0.12500000000E+03 0.  0.
        -13    1    3    3    0    0  0.13059661396E+02 -0.27239071487E+02 -0.38334533200E+02  0.48806448047E+02  0.10566000000E+00 0.  1.
         23    2    1    0    0    0  0.26709130489E+02  0.65163652865E+01 -0.75432185770E+01  0.96491390519E+02  0.92183770967E+02 0.  0.
         13    1    3    3    0    0  0.13649469093E+02  0.33755436774E+02  0.30791314623E+02  0.47684942472E+02  0.10566000000E+00 0. -1.
         22    1    1    0    0    0 -0.26709130489E+02 -0.65163652865E+01  0.75432185770E+01  0.28508609481E+02  0.00000000000E+00 0. -1.
</event>
<event>
 5    1  0.1285346E-004  0.9118800E+02  0.7818608E-02  0.1130116E+00
         25   -1    0    0    0    0  0.00000000000E+00  0.00000000000E+00  0.99999998245E-14  0.12500000000E+03  0.12500000000E+03 0.  0.
        -13    1    3    3    0    0 -0.31280227824E+02 -0.26817557332E+02 -0.43491251523E+02  0.59909382880E+02  0.10566000000E+00 0. -1.
         23    2    1    0    0    0 -0.24439066732E+02 -0.10473468504E+02 -0.12474223758E+02  0.95630495686E+02  0.91008922209E+02 0.  0.
         13    1    3    3    0    0  0.68411610913E+01  0.16344088828E+02  0.31017027765E+02  0.35721112806E+02  0.10566000000E+00 0.  1.
         22    1    1    0    0    0  0.24439066732E+02  0.10473468504E+02  0.12474223758E+02  0.29369504314E+02  0.00000000000E+00 0. -1.
</event>
<event>
 5    1  0.1285346E-004  0.9118800E+02  0.7818608E-02  0.1130116E+00
         25   -1    0    0    0    0  0.00000000000E+00  0.00000000000E+00  0.99999998245E-14  0.12500000000E+03  0.12500000000E+03 0.  0.
        -13    1    3    3    0    0  0.42031454414E+02  0.12654327076E+02  0.14945325315E+02  0.46369699877E+02  0.10566000000E+00 0. -1.
         23    2    1    0    0    0  0.10531246679E+02  0.94992504121E+01 -0.24343759996E+02  0.96826225568E+02  0.92636690312E+02 0.  0.
         13    1    3    3    0    0 -0.31500207735E+02 -0.31550766638E+01 -0.39289085311E+02  0.50456525690E+02  0.10566000000E+00 0.  1.
         22    1    1    0    0    0 -0.10531246679E+02 -0.94992504121E+01  0.24343759996E+02  0.28173774432E+02  0.00000000000E+00 0.  1.
</event>
<event>
 5    1  0.1285346E-004  0.9118800E+02  0.7818608E-02  0.1130116E+00
         25   -1    0    0    0    0  0.00000000000E+00  0.00000000000E+00  0.99999998245E-14  0.12500000000E+03  0.12500000000E+03 0.  0.
        -13    1    3    3    0    0  0.28115606429E+02 -0.54418416466E+02  0.35187005728E+01  0.61353433427E+02  0.10566000000E+00 0.  1.
         23    2    1    0    0    0  0.19432564063E+02 -0.23923168588E+02 -0.39446072143E+01  0.93927464419E+02  0.88638964936E+02 0.  0.
         13    1    3    3    0    0 -0.86830423666E+01  0.30495247878E+02 -0.74633077870E+01  0.32574030992E+02  0.10566000000E+00 0. -1.
         22    1    1    0    0    0 -0.19432564063E+02  0.23923168588E+02  0.39446072143E+01  0.31072535581E+02  0.00000000000E+00 0.  1.
</event>
<event>
 5    1  0.1285346E-004  0.9118800E+02  0.7818608E-02  0.1130116E+00
         25   -1    0    0    0    0  0.00000000000E+00  0.00000000000E+00  0.99999998245E-14  0.12500000000E+03  0.12500000000E+03 0.  0.
        -13    1    3    3    0    0 -0.89973671622E+01 -0.39819661774E+02 -0.51734777581E+01  0.41150141139E+02  0.10566000000E+00 0.  1.
         23    2    1    0    0    0  0.11797096530E+01  0.94017530039E+01 -0.27325860043E+02  0.96077909801E+02  0.91621380966E+02 0.  0.
         13    1    3    3    0    0  0.10177076815E+02  0.49221414777E+02 -0.22152382285E+02  0.54927768662E+02  0.10566000000E+00 0. -1.
         22    1    1    0    0    0 -0.11797096530E+01 -0.94017530039E+01  0.27325860043E+02  0.28922090199E+02  0.00000000000E+00 0. -1.
</event>
<event>
 5    1  0.1285346E-004  0.9118800E+02  0.7818608E-02  0.1130116E+00
         25   -1    0    0    0    0  0.00000000000E+00  0.00000000000E+00  0.99999998245E-14  0.12500000000E+03  0.12500000000E+03 0.  0.
        -13    1    3    3    0    0  0.54440269780E+02  0.13083063148E+02  0.18664449284E+02  0.59019338747E+02  0.10566000000E+00 0.  1.
         23    2    1    0    0    0  0.29042972555E+02 -0.22546444295E+01 -0.29405715196E+01  0.95721601185E+02  0.91133968948E+02 0.  0.
         13    1    3    3    0    0 -0.25397297225E+02 -0.15337707577E+02 -0.21605020803E+02  0.36702262437E+02  0.10566000000E+00 0. -1.
         22    1    1    0    0    0 -0.29042972555E+02  0.22546444295E+01  0.29405715196E+01  0.29278398815E+02  0.00000000000E+00 0.  1.
</event>
<event>
 5    1  0.1285346E-004  0.9118800E+02  0.7818608E-02  0.1130116E+00
         25   -1    0    0    0    0  0.00000000000E+00  0.00000000000E+00  0.99999998245E-14  0.12500000000E+03  0.12500000000E+03 0.  0.
        -13    1    3    3    0    0 -0.26440478133E+02 -0.57985645816E+01 -0.27400991847E+02  0.38516850252E+02  0.10566000000E+00 0. -1.
         23    2    1    0    0    0 -0.12434373085E+02 -0.69604757714E+01  0.26873802807E+02  0.94581861755E+02  0.89557051307E+02 0.  0.
         13    1    3    3    0    0  0.14006105048E+02 -0.11619111898E+01  0.54274794653E+02  0.56065011504E+02  0.10566000000E+00 0.  1.
         22    1    1    0    0    0  0.12434373085E+02  0.69604757714E+01 -0.26873802807E+02  0.30418138245E+02  0.00000000000E+00 0.  1.
</event>
<event>
 5    1  0.1285346E-004  0.9118800E+02  0.7818608E-02  0.1130116E+00
         25   -1    0    0    0    0  0.00000000000E+00  0.00000000000E+00  0.99999998245E-14  0.12500000000E+03  0.12500000000E+03 0.  0.
        -13    1    3    3    0    0  0.22330461595E+02  0.14988670025E+02 -0.24439709821E+02  0.36340340180E+02  0.10566000000E+00 0.  1.
         23    2    1    0    0    0 -0.89795302978E+01  0.19641912168E+02  0.23050198799E+02  0.93412845290E+02  0.87910245834E+02 0.  0.
         13    1    3    3    0    0 -0.31309991893E+02  0.46532421423E+01  0.47489908620E+02  0.57072505111E+02  0.10566000000E+00 0. -1.
         22    1    1    0    0    0  0.89795302978E+01 -0.19641912168E+02 -0.23050198799E+02  0.31587154710E+02  0.00000000000E+00 0. -1.
</event>
<event>
 5    1  0.1285346E-004  0.9118800E+02  0.7818608E-02  0.1130116E+00
         25   -1    0    0    0    0  0.00000000000E+00  0.00000000000E+00  0.99999998245E-14  0.12500000000E+03  0.12500000000E+03 0.  0.
        -13    1    3    3    0    0  0.23741610699E+02  0.47164713898E+02 -0.24481943440E+02  0.58202672055E+02  0.10566000000E+00 0. -1.
         23    2    1    0    0    0  0.51670718866E+00  0.31119314866E+02 -0.22681131968E+02  0.86488800442E+02  0.77441591607E+02 0.  0.
         13    1    3    3    0    0 -0.23224903511E+02 -0.16045399032E+02  0.18008114726E+01  0.28286128388E+02  0.10566000000E+00 0.  1.
         22    1    1    0    0    0 -0.51670718866E+00 -0.31119314866E+02  0.22681131968E+02  0.38511199558E+02  0.00000000000E+00 0. -1.
</event>
<event>
 5    1  0.1285346E-004  0.9118800E+02  0.7818608E-02  0.1130116E+00
         25   -1    0    0    0    0  0.00000000000E+00  0.00000000000E+00  0.99999998245E-14  0.12500000000E+03  0.12500000000E+03 0.  0.
        -13    1    3    3    0    0  0.46251474002E+02  0.14902151162E+02 -0.34036871082E+02  0.59327840966E+02  0.10566000000E+00 0.  1.
         23    2    1    0    0    0  0.22752493265E+02  0.16855443499E+02 -0.58342783846E+01  0.96089435675E+02  0.91637104486E+02 0.  0.
         13    1    3    3    0    0 -0.23498980736E+02  0.19532923369E+01  0.28202592698E+02  0.36761594709E+02  0.10566000000E+00 0. -1.
         22    1    1    0    0    0 -0.22752493265E+02 -0.16855443499E+02  0.58342783846E+01  0.28910564325E+02  0.00000000000E+00 0.  1.
</event>
<event>
 5    1  0.1285346E-004  0.9118800E+02  0.7818608E-02  0.1130116E+00
         25   -1    0    0    0    0  0.00000000000E+00  0.00000000000E+00  0.99999998245E-14  0.12500000000E+03  0.12500000000E+03 0.  0.
        -13    1    3    3    0    0 -0.42204219430E+02  0.11891424827E+01 -0.38716408216E+02  0.57285090789E+02  0.10566000000E+00 0.  1.
         23    2    1    0    0    0 -0.19329631676E+02 -0.17448942326E+02 -0.17576644284E+02  0.93582828368E+02  0.88151614234E+02 0.  0.
         13    1    3    3    0    0  0.22874587754E+02 -0.18638084809E+02  0.21139763932E+02  0.36297737579E+02  0.10566000000E+00 0. -1.
         22    1    1    0    0    0  0.19329631676E+02  0.17448942326E+02  0.17576644284E+02  0.31417171632E+02  0.00000000000E+00 0.  1.
</event>
<event>
 5    1  0.1285346E-004  0.9118800E+02  0.7818608E-02  0.1130116E+00
         25   -1    0    0    0    0  0.00000000000E+00  0.00000000000E+00  0.99999998245E-14  0.12500000000E+03  0.12500000000E+03 0.  0.
        -13    1    3    3    0    0 -0.23046817984E+02  0.24748439146E+02 -0.42437376012E+01  0.34083156137E+02  0.10566000000E+00 0. -1.
         23    2    1    0    0    0  0.18224929814E+02 -0.21190817213E+02 -0.79238814067E+01  0.95948550855E+02  0.91444724909E+02 0.  0.
         13    1    3    3    0    0  0.41271747799E+02 -0.45939256359E+02 -0.36801438055E+01  0.61865394718E+02  0.10566000000E+00 0.  1.
         22    1    1    0    0    0 -0.18224929814E+02  0.21190817213E+02  0.79238814067E+01  0.29051449145E+02  0.00000000000E+00 0.  1.
</event>
<event>
 5    1  0.1285346E-004  0.9118800E+02  0.7818608E-02  0.1130116E+00
         25   -1    0    0    0    0  0.00000000000E+00  0.00000000000E+00  0.99999998245E-14  0.12500000000E+03  0.12500000000E+03 0.  0.
        -13    1    3    3    0    0  0.51296698591E+02  0.75531540111E+01  0.27091261298E+01  0.51920631258E+02  0.10566000000E+00 0. -1.
         23    2    1    0    0    0  0.22201591859E+02  0.96333880789E+01  0.26170383513E+02  0.89354497898E+02  0.81936710176E+02 0.  0.
         13    1    3    3    0    0 -0.29095106732E+02  0.20802340678E+01  0.23461257383E+02  0.37433866639E+02  0.10566000000E+00 0.  1.
         22    1    1    0    0    0 -0.22201591859E+02 -0.96333880789E+01 -0.26170383513E+02  0.35645502102E+02  0.00000000000E+00 0. -1.
</event>
<event>
 5    1  0.1285346E-004  0.9118800E+02  0.7818608E-02  0.1130116E+00
         25   -1    0    0    0    0  0.00000000000E+00  0.00000000000E+00  0.99999998245E-14  0.12500000000E+03  0.12500000000E+03 0.  0.
        -13    1    3    3    0    0  0.27327620007E+02  0.72737745697E+01  0.17792606060E+02  0.33410995289E+02  0.10566000000E+00 0.  1.
         23    2    1    0    0    0  0.52852116260E+01 -0.57576924930E+01 -0.33425197963E+02  0.90673212448E+02  0.83924389256E+02 0.  0.
         13    1    3    3    0    0 -0.22042408381E+02 -0.13031467063E+02 -0.51217804023E+02  0.57262217159E+02  0.10566000000E+00 0. -1.
         22    1    1    0    0    0 -0.52852116260E+01  0.57576924930E+01  0.33425197963E+02  0.34326787552E+02  0.00000000000E+00 0. -1.
</event>
<event>
 5    1  0.1285346E-004  0.9118800E+02  0.7818608E-02  0.1130116E+00
         25   -1    0    0    0    0  0.00000000000E+00  0.00000000000E+00  0.99999998245E-14  0.12500000000E+03  0.12500000000E+03 0.  0.
        -13    1    3    3    0    0  0.10390407678E+02 -0.91470653458E+01 -0.31752666412E+02  0.34639173842E+02  0.10566000000E+00 0.  1.
         23    2    1    0    0    0 -0.17163564909E+02 -0.31464517297E+01  0.22942161200E+02  0.96175862903E+02  0.91754922079E+02 0.  0.
         13    1    3    3    0    0 -0.27553972587E+02  0.60006136161E+01  0.54694827612E+02  0.61536689061E+02  0.10566000000E+00 0. -1.
         22    1    1    0    0    0  0.17163564909E+02  0.31464517297E+01 -0.22942161200E+02  0.28824137097E+02  0.00000000000E+00 0. -1.
</event>
<event>
 5    1  0.1285346E-004  0.9118800E+02  0.7818608E-02  0.1130116E+00
         25   -1    0    0    0    0  0.00000000000E+00  0.00000000000E+00  0.99999998245E-14  0.12500000000E+03  0.12500000000E+03 0.  0.
        -13    1    3    3    0    0  0.20077724089E+02 -0.28076236804E+02 -0.42946772071E+02  0.55098334576E+02  0.10566000000E+00 0.  1.
         23    2    1    0    0    0 -0.12398705698E+02 -0.13360034555E+02 -0.21920737227E+02  0.96491454845E+02  0.92183858193E+02 0.  0.
         13    1    3    3    0    0 -0.32476429786E+02  0.14716202249E+02  0.21026034844E+02  0.41393120269E+02  0.10566000000E+00 0. -1.
         22    1    1    0    0    0  0.12398705698E+02  0.13360034555E+02  0.21920737227E+02  0.28508545155E+02  0.00000000000E+00 0.  1.
</event>
<event>
 5    1  0.1285346E-004  0.9118800E+02  0.7818608E-02  0.1130116E+00
         25   -1    0    0    0    0  0.00000000000E+00  0.00000000000E+00  0.99999998245E-14  0.12500000000E+03  0.12500000000E+03 0.  0.
        -13    1    3    3    0    0  0.82931920202E+01 -0.27218298129E+02 -0.24424681668E+02  0.37499186998E+02  0.10566000000E+00 0.  1.
         23    2    1    0    0    0 -0.59226112806E+01 -0.75922809161E+01  0.28073617961E+02  0.95320915120E+02  0.90582717888E+02 0.  0.
         13    1    3    3    0    0 -0.14215803301E+02  0.19626017213E+02  0.52498299628E+02  0.57821728122E+02  0.10566000000E+00 0. -1.
         22    1    1    0    0    0  0.59226112806E+01  0.75922809161E+01 -0.28073617961E+02  0.29679084880E+02  0.00000000000E+00 0. -1.
</event>
<event>
 5    1  0.1285346E-004  0.9118800E+02  0.7818608E-02  0.1130116E+00
         25   -1    0    0    0    0  0.00000000000E+00  0.00000000000E+00  0.99999998245E-14  0.12500000000E+03  0.12500000000E+03 0.  0.
        -13    1    3    3    0    0  0.33086862468E+02 -0.57245781438E+00 -0.70419820529E+01  0.33832955106E+02  0.10566000000E+00 0.  1.
         23    2    1    0    0    0 -0.27747647002E+02  0.30124715344E+01  0.66847861783E+01  0.96299943116E+02  0.91923804202E+02 0.  0.
         13    1    3    3    0    0 -0.60834509470E+02  0.35849293487E+01  0.13726768231E+02  0.62466988010E+02  0.10566000000E+00 0. -1.
         22    1    1    0    0    0  0.27747647002E+02 -0.30124715344E+01 -0.66847861783E+01  0.28700056884E+02  0.00000000000E+00 0. -1.
</event>
<event>
 5    1  0.1285346E-004  0.9118800E+02  0.7818608E-02  0.1130116E+00
         25   -1    0    0    0    0  0.00000000000E+00  0.00000000000E+00  0.99999998245E-14  0.12500000000E+03  0.12500000000E+03 0.  0.
        -13    1    3    3    0    0 -0.30348836018E+02 -0.42338922596E+02  0.25015628634E+02  0.57787793298E+02  0.10566000000E+00 0. -1.
         23    2    1    0    0    0 -0.28373994114E+02 -0.10830605664E+02  0.82747669118E+01  0.93522113659E+02  0.88065477997E+02 0.  0.
         13    1    3    3    0    0  0.19748419044E+01  0.31508316932E+02 -0.16740861722E+02  0.35734320361E+02  0.10566000000E+00 0.  1.
         22    1    1    0    0    0  0.28373994114E+02  0.10830605664E+02 -0.82747669118E+01  0.31477886341E+02  0.00000000000E+00 0. -1.
</event>
<event>
 5    1  0.1285346E-004  0.9118800E+02  0.7818608E-02  0.1130116E+00
         25   -1    0    0    0    0  0.00000000000E+00  0.00000000000E+00  0.99999998245E-14  0.12500000000E+03  0.12500000000E+03 0.  0.
        -13    1    3    3    0    0  0.11310762057E+02  0.87250017641E+00 -0.20900227303E+02  0.23780775013E+02  0.10566000000E+00 0.  1.
         23    2    1    0    0    0 -0.11235015895E+02 -0.29259559465E+02  0.26256206787E+02  0.84113134174E+02  0.73507030571E+02 0.  0.
         13    1    3    3    0    0 -0.22545777952E+02 -0.30132059642E+02  0.47156434090E+02  0.60332359160E+02  0.10566000000E+00 0. -1.
         22    1    1    0    0    0  0.11235015895E+02  0.29259559465E+02 -0.26256206787E+02  0.40886865826E+02  0.00000000000E+00 0. -1.
</event>
<event>
 5    1  0.1285346E-004  0.9118800E+02  0.7818608E-02  0.1130116E+00
         25   -1    0    0    0    0  0.00000000000E+00  0.00000000000E+00  0.99999998245E-14  0.12500000000E+03  0.12500000000E+03 0.  0.
        -13    1    3    3    0    0  0.57536088166E+02  0.45118432102E+01  0.17482295195E+02  0.60302570259E+02  0.10566000000E+00 0.  1.
         23    2    1    0    0    0  0.33795774565E+02  0.23207575643E+01 -0.19621950156E+01  0.91067854424E+02  0.84510139073E+02 0.  0.
         13    1    3    3    0    0 -0.23740313601E+02 -0.21910856458E+01 -0.19444490210E+02  0.30765284165E+02  0.10566000000E+00 0. -1.
         22    1    1    0    0    0 -0.33795774565E+02 -0.23207575643E+01  0.19621950156E+01  0.33932145576E+02  0.00000000000E+00 0.  1.
</event>
<event>
 5    1  0.1285346E-004  0.9118800E+02  0.7818608E-02  0.1130116E+00
         25   -1    0    0    0    0  0.00000000000E+00  0.00000000000E+00  0.99999998245E-14  0.12500000000E+03  0.12500000000E+03 0.  0.
        -13    1    3    3    0    0 -0.10832172216E+02 -0.37393567755E+02  0.25469390398E+02  0.46522208413E+02  0.10566000000E+00 0. -1.
         23    2    1    0    0    0 -0.79171142250E+01 -0.21355774138E+02 -0.19914921932E+02  0.94745183818E+02  0.89784720050E+02 0.  0.
         13    1    3    3    0    0  0.29150579911E+01  0.16037793617E+02 -0.45384312330E+02  0.48222975405E+02  0.10566000000E+00 0.  1.
         22    1    1    0    0    0  0.79171142250E+01  0.21355774138E+02  0.19914921932E+02  0.30254816182E+02  0.00000000000E+00 0.  1.
</event>
<event>
 5    1  0.1285346E-004  0.9118800E+02  0.7818608E-02  0.1130116E+00
         25   -1    0    0    0    0  0.00000000000E+00  0.00000000000E+00  0.99999998245E-14  0.12500000000E+03  0.12500000000E+03 0.  0.
        -13    1    3    3    0    0  0.54256065674E+02  0.57787943988E+01 -0.44426429921E+01  0.54743614860E+02  0.10566000000E+00 0.  1.
         23    2    1    0    0    0  0.21706625721E+02 -0.19215482181E+02 -0.11654007733E+00  0.96009899324E+02  0.91528546536E+02 0.  0.
         13    1    3    3    0    0 -0.32549439953E+02 -0.24994276580E+02  0.43261029148E+01  0.41266284464E+02  0.10566000000E+00 0. -1.
         22    1    1    0    0    0 -0.21706625721E+02  0.19215482181E+02  0.11654007733E+00  0.28990100676E+02  0.00000000000E+00 0.  1.
</event>
<event>
 5    1  0.1285346E-004  0.9118800E+02  0.7818608E-02  0.1130116E+00
         25   -1    0    0    0    0  0.00000000000E+00  0.00000000000E+00  0.99999998245E-14  0.12500000000E+03  0.12500000000E+03 0.  0.
        -13    1    3    3    0    0  0.21833560010E+02  0.63447981379E+01  0.27079460077E+02  0.35359144903E+02  0.10566000000E+00 0.  1.
         23    2    1    0    0    0 -0.59026817071E+01  0.31393818450E+02  0.39000071839E+02  0.74587510559E+02  0.54971607577E+02 0.  0.
         13    1    3    3    0    0 -0.27736241718E+02  0.25049020312E+02  0.11920611762E+02  0.39228365656E+02  0.10566000000E+00 0. -1.
         22    1    1    0    0    0  0.59026817071E+01 -0.31393818450E+02 -0.39000071839E+02  0.50412489441E+02  0.00000000000E+00 0. -1.
</event>
<event>
 5    1  0.1285346E-004  0.9118800E+02  0.7818608E-02  0.1130116E+00
         25   -1    0    0    0    0  0.00000000000E+00  0.00000000000E+00  0.99999998245E-14  0.12500000000E+03  0.12500000000E+03 0.  0.
        -13    1    3    3    0    0 -0.93659877590E+01 -0.72392469078E+01  0.55370426884E+02  0.56621760480E+02  0.10566000000E+00 0. -1.
         23    2    1    0    0    0  0.13992610850E+01 -0.20621184107E+02  0.18647033387E+02  0.97162920058E+02  0.93089902860E+02 0.  0.
         13    1    3    3    0    0  0.10765248844E+02 -0.13381937199E+02 -0.36723393497E+02  0.40541159577E+02  0.10566000000E+00 0.  1.
         22    1    1    0    0    0 -0.13992610850E+01  0.20621184107E+02 -0.18647033387E+02  0.27837079942E+02  0.00000000000E+00 0. -1.
</event>
<event>
 5    1  0.1285346E-004  0.9118800E+02  0.7818608E-02  0.1130116E+00
         25   -1    0    0    0    0  0.00000000000E+00  0.00000000000E+00  0.99999998245E-14  0.12500000000E+03  0.12500000000E+03 0.  0.
        -13    1    3    3    0    0  0.31473420723E+02 -0.10519442076E+02  0.38692644176E+02  0.50974177296E+02  0.10566000000E+00 0. -1.
         23    2    1    0    0    0  0.31242625271E+02 -0.29599398390E+02  0.20534967096E+02  0.77314458245E+02  0.60857329560E+02 0.  0.
         13    1    3    3    0    0 -0.23079545160E+00 -0.19079956314E+02 -0.18157677081E+02  0.26340280949E+02  0.10566000000E+00 0.  1.
         22    1    1    0    0    0 -0.31242625271E+02  0.29599398390E+02 -0.20534967096E+02  0.47685541755E+02  0.00000000000E+00 0. -1.
</event>
<event>
 5    1  0.1285346E-004  0.9118800E+02  0.7818608E-02  0.1130116E+00
         25   -1    0    0    0    0  0.00000000000E+00  0.00000000000E+00  0.99999998245E-14  0.12500000000E+03  0.12500000000E+03 0.  0.
        -13    1    3    3    0    0 -0.17654012468E+02 -0.28982536085E+02  0.37217371532E+02  0.50366610586E+02  0.10566000000E+00 0.  1.
         23    2    1    0    0    0  0.18102169194E+02 -0.20065243437E+02  0.99775876627E+01  0.96192799871E+02  0.91777992830E+02 0.  0.
         13    1    3    3    0    0  0.35756181661E+02  0.89172926485E+01 -0.27239783869E+02  0.45826189286E+02  0.10566000000E+00 0. -1.
         22    1    1    0    0    0 -0.18102169194E+02  0.20065243437E+02 -0.99775876627E+01  0.28807200129E+02  0.00000000000E+00 0.  1.
</event>
<event>
 5    1  0.1285346E-004  0.9118800E+02  0.7818608E-02  0.1130116E+00
         25   -1    0    0    0    0  0.00000000000E+00  0.00000000000E+00  0.99999998245E-14  0.12500000000E+03  0.12500000000E+03 0.  0.
        -13    1    3    3    0    0  0.24682789121E+02 -0.35819427555E+01  0.38234668129E+02  0.45650535634E+02  0.10566000000E+00 0.  1.
         23    2    1    0    0    0 -0.59688743210E+00 -0.29376764020E+02  0.41243047913E+01  0.95329131646E+02  0.90594055608E+02 0.  0.
         13    1    3    3    0    0 -0.25279676553E+02 -0.25794821264E+02 -0.34110363338E+02  0.49678596012E+02  0.10566000000E+00 0. -1.
         22    1    1    0    0    0  0.59688743210E+00  0.29376764020E+02 -0.41243047913E+01  0.29670868354E+02  0.00000000000E+00 0. -1.
</event>
<event>
 5    1  0.1285346E-004  0.9118800E+02  0.7818608E-02  0.1130116E+00
         25   -1    0    0    0    0  0.00000000000E+00  0.00000000000E+00  0.99999998245E-14  0.12500000000E+03  0.12500000000E+03 0.  0.
        -13    1    3    3    0    0 -0.23331193347E+02  0.47740700516E+02 -0.23751626043E+02  0.58203693804E+02  0.10566000000E+00 0. -1.
         23    2    1    0    0    0 -0.74128963828E+01  0.28518908719E+02  0.36971071045E+01  0.95302394234E+02  0.90557156307E+02 0.  0.
         13    1    3    3    0    0  0.15918296964E+02 -0.19221791797E+02  0.27448733147E+02  0.37098700429E+02  0.10566000000E+00 0.  1.
         22    1    1    0    0    0  0.74128963828E+01 -0.28518908719E+02 -0.36971071045E+01  0.29697605766E+02  0.00000000000E+00 0. -1.
</event>
<event>
 5    1  0.1285346E-004  0.9118800E+02  0.7818608E-02  0.1130116E+00
         25   -1    0    0    0    0  0.00000000000E+00  0.00000000000E+00  0.99999998245E-14  0.12500000000E+03  0.12500000000E+03 0.  0.
        -13    1    3    3    0    0  0.49574388796E+02 -0.63327077898E+01 -0.17015695185E+02  0.52794585509E+02  0.10566000000E+00 0.  1.
         23    2    1    0    0    0  0.10833446780E+02  0.99353435091E+01 -0.25411467022E+02  0.95643275456E+02  0.91026473423E+02 0.  0.
         13    1    3    3    0    0 -0.38740942016E+02  0.16268051299E+02 -0.83957718367E+01  0.42848689946E+02  0.10566000000E+00 0. -1.
         22    1    1    0    0    0 -0.10833446780E+02 -0.99353435091E+01  0.25411467022E+02  0.29356724544E+02  0.00000000000E+00 0.  1.
</event>
<event>
 5    1  0.1285346E-004  0.9118800E+02  0.7818608E-02  0.1130116E+00
         25   -1    0    0    0    0  0.00000000000E+00  0.00000000000E+00  0.99999998245E-14  0.12500000000E+03  0.12500000000E+03 0.  0.
        -13    1    3    3    0    0 -0.10543316506E+02  0.11380302131E+02 -0.34419661530E+02  0.37754431043E+02  0.10566000000E+00 0.  1.
         23    2    1    0    0    0  0.15796576593E+01 -0.26965336846E+02  0.86075317131E+01  0.96650144414E+02  0.92398788431E+02 0.  0.
         13    1    3    3    0    0  0.12122974165E+02 -0.38345638977E+02  0.43027193243E+02  0.58895713371E+02  0.10566000000E+00 0. -1.
         22    1    1    0    0    0 -0.15796576593E+01  0.26965336846E+02 -0.86075317131E+01  0.28349855586E+02  0.00000000000E+00 0. -1.
</event>
<event>
 5    1  0.1285346E-004  0.9118800E+02  0.7818608E-02  0.1130116E+00
         25   -1    0    0    0    0  0.00000000000E+00  0.00000000000E+00  0.99999998245E-14  0.12500000000E+03  0.12500000000E+03 0.  0.
        -13    1    3    3    0    0 -0.20346717470E+02 -0.29395443950E+02 -0.32134061567E+02  0.48069638169E+02  0.10566000000E+00 0. -1.
         23    2    1    0    0    0 -0.84506110162E+01 -0.41586549096E+02 -0.22053148708E+01  0.82506267451E+02  0.70721756643E+02 0.  0.
         13    1    3    3    0    0  0.11896106454E+02 -0.12191105146E+02  0.29928746697E+02  0.34436629282E+02  0.10566000000E+00 0.  1.
         22    1    1    0    0    0  0.84506110162E+01  0.41586549096E+02  0.22053148708E+01  0.42493732549E+02  0.00000000000E+00 0. -1.
</event>
<event>
 5    1  0.1285346E-004  0.9118800E+02  0.7818608E-02  0.1130116E+00
         25   -1    0    0    0    0  0.00000000000E+00  0.00000000000E+00  0.99999998245E-14  0.12500000000E+03  0.12500000000E+03 0.  0.
        -13    1    3    3    0    0 -0.38294550981E+02 -0.83281984237E+00  0.47313919743E+02  0.60875154120E+02  0.10566000000E+00 0. -1.
         23    2    1    0    0    0 -0.15590546652E+02  0.95229533345E+01  0.18349798438E+02  0.99106624635E+02  0.95664288837E+02 0.  0.
         13    1    3    3    0    0  0.22704004329E+02  0.10355773177E+02 -0.28964121305E+02  0.38231470514E+02  0.10566000000E+00 0.  1.
         22    1    1    0    0    0  0.15590546652E+02 -0.95229533345E+01 -0.18349798438E+02  0.25893375365E+02  0.00000000000E+00 0. -1.
</event>
<event>
 5    1  0.1285346E-004  0.9118800E+02  0.7818608E-02  0.1130116E+00
         25   -1    0    0    0    0  0.00000000000E+00  0.00000000000E+00  0.99999998245E-14  0.12500000000E+03  0.12500000000E+03 0.  0.
        -13    1    3    3    0    0 -0.33003798805E+02  0.13892366048E+02 -0.20915001530E+02  0.41469229834E+02  0.10566000000E+00 0. -1.
         23    2    1    0    0    0  0.14282525728E+01 -0.26316118450E+02 -0.14842275490E+02  0.94753163184E+02  0.89795828388E+02 0.  0.
         13    1    3    3    0    0  0.34432051377E+02 -0.40208484498E+02  0.60727260403E+01  0.53283933350E+02  0.10566000000E+00 0.  1.
         22    1    1    0    0    0 -0.14282525728E+01  0.26316118450E+02  0.14842275490E+02  0.30246836816E+02  0.00000000000E+00 0. -1.
</event>
<event>
 5    1  0.1285346E-004  0.9118800E+02  0.7818608E-02  0.1130116E+00
         25   -1    0    0    0    0  0.00000000000E+00  0.00000000000E+00  0.99999998245E-14  0.12500000000E+03  0.12500000000E+03 0.  0.
        -13    1    3    3    0    0  0.26670132595E+02 -0.74309681382E+01  0.54180445157E+02  0.60844449718E+02  0.10566000000E+00 0.  1.
         23    2    1    0    0    0  0.52719835766E+01  0.30350960904E+01  0.28443548057E+02  0.95913215283E+02  0.91396410327E+02 0.  0.
         13    1    3    3    0    0 -0.21398149019E+02  0.10466064229E+02 -0.25736897100E+02  0.35068765564E+02  0.10566000000E+00 0. -1.
         22    1    1    0    0    0 -0.52719835766E+01 -0.30350960904E+01 -0.28443548057E+02  0.29086784717E+02  0.00000000000E+00 0.  1.
</event>
<event>
 5    1  0.1285346E-004  0.9118800E+02  0.7818608E-02  0.1130116E+00
         25   -1    0    0    0    0  0.00000000000E+00  0.00000000000E+00  0.99999998245E-14  0.12500000000E+03  0.12500000000E+03 0.  0.
        -13    1    3    3    0    0  0.18283641756E+02  0.29476845842E+02 -0.86165829914E+01  0.35741190007E+02  0.10566000000E+00 0.  1.
         23    2    1    0    0    0  0.43887497431E+01 -0.23404887994E+02  0.16619673937E+02  0.95961000911E+02  0.91461741880E+02 0.  0.
         13    1    3    3    0    0 -0.13894892013E+02 -0.52881733835E+02  0.25236256928E+02  0.60219810904E+02  0.10566000000E+00 0. -1.
         22    1    1    0    0    0 -0.43887497431E+01  0.23404887994E+02 -0.16619673937E+02  0.29038999089E+02  0.00000000000E+00 0. -1.
</event>
<event>
 5    1  0.1285346E-004  0.9118800E+02  0.7818608E-02  0.1130116E+00
         25   -1    0    0    0    0  0.00000000000E+00  0.00000000000E+00  0.99999998245E-14  0.12500000000E+03  0.12500000000E+03 0.  0.
        -13    1    3    3    0    0  0.30864499122E+02  0.19272664988E+02  0.94380324290E+01  0.37591761624E+02  0.10566000000E+00 0. -1.
         23    2    1    0    0    0 -0.34678939072E+01 -0.22835362312E+02 -0.15305973667E+02  0.97291645845E+02  0.93262594116E+02 0.  0.
         13    1    3    3    0    0 -0.34332393029E+02 -0.42108027301E+02 -0.24744006096E+02  0.59699884221E+02  0.10566000000E+00 0.  1.
         22    1    1    0    0    0  0.34678939072E+01  0.22835362312E+02  0.15305973667E+02  0.27708354155E+02  0.00000000000E+00 0.  1.
</event>
<event>
 5    1  0.1285346E-004  0.9118800E+02  0.7818608E-02  0.1130116E+00
         25   -1    0    0    0    0  0.00000000000E+00  0.00000000000E+00  0.99999998245E-14  0.12500000000E+03  0.12500000000E+03 0.  0.
        -13    1    3    3    0    0  0.70044052284E+01 -0.60639845487E+02  0.98710438018E-01  0.61043209787E+02  0.10566000000E+00 0.  1.
         23    2    1    0    0    0  0.34003422926E+01 -0.27810927195E+02  0.95563995902E+01  0.95397047913E+02  0.90687716799E+02 0.  0.
         13    1    3    3    0    0 -0.36040629357E+01  0.32828918292E+02  0.94576891522E+01  0.34353838126E+02  0.10566000000E+00 0. -1.
         22    1    1    0    0    0 -0.34003422926E+01  0.27810927195E+02 -0.95563995902E+01  0.29602952087E+02  0.00000000000E+00 0.  1.
</event>
<event>
 5    1  0.1285346E-004  0.9118800E+02  0.7818608E-02  0.1130116E+00
         25   -1    0    0    0    0  0.00000000000E+00  0.00000000000E+00  0.99999998245E-14  0.12500000000E+03  0.12500000000E+03 0.  0.
        -13    1    3    3    0    0  0.33684914736E+02  0.16679951591E+02  0.29286610687E+02  0.47650928589E+02  0.10566000000E+00 0.  1.
         23    2    1    0    0    0  0.51674774123E+01 -0.10236318203E+02  0.35805575774E+02  0.87403134577E+02  0.78903635178E+02 0.  0.
         13    1    3    3    0    0 -0.28517437323E+02 -0.26916269793E+02  0.65189650867E+01  0.39752205988E+02  0.10566000000E+00 0. -1.
         22    1    1    0    0    0 -0.51674774123E+01  0.10236318203E+02 -0.35805575774E+02  0.37596865423E+02  0.00000000000E+00 0.  1.
</event>
<event>
 5    1  0.1285346E-004  0.9118800E+02  0.7818608E-02  0.1130116E+00
         25   -1    0    0    0    0  0.00000000000E+00  0.00000000000E+00  0.99999998245E-14  0.12500000000E+03  0.12500000000E+03 0.  0.
        -13    1    3    3    0    0  0.22634993232E+02 -0.17228450271E+02  0.18679999841E+01  0.28507244787E+02  0.10566000000E+00 0.  1.
         23    2    1    0    0    0 -0.10673267805E+02 -0.49986710137E+01 -0.39948515630E+02  0.83349198584E+02  0.72196257839E+02 0.  0.
         13    1    3    3    0    0 -0.33308261038E+02  0.12229779257E+02 -0.41816515615E+02  0.54841953797E+02  0.10566000000E+00 0. -1.
         22    1    1    0    0    0  0.10673267805E+02  0.49986710137E+01  0.39948515630E+02  0.41650801416E+02  0.00000000000E+00 0. -1.
</event>
<event>
 5    1  0.1285346E-004  0.9118800E+02  0.7818608E-02  0.1130116E+00
         25   -1    0    0    0    0  0.00000000000E+00  0.00000000000E+00  0.99999998245E-14  0.12500000000E+03  0.12500000000E+03 0.  0.
        -13    1    3    3    0    0 -0.53515937570E+02  0.73649859396E+01 -0.14774124200E+01  0.54040656023E+02  0.10566000000E+00 0. -1.
         23    2    1    0    0    0 -0.23006564727E+02  0.26257406407E+02  0.15616705132E+01  0.90054439100E+02  0.82997649214E+02 0.  0.
         13    1    3    3    0    0  0.30509372843E+02  0.18892420468E+02  0.30390829332E+01  0.36013783077E+02  0.10566000000E+00 0.  1.
         22    1    1    0    0    0  0.23006564727E+02 -0.26257406407E+02 -0.15616705132E+01  0.34945560900E+02  0.00000000000E+00 0. -1.
</event>
<event>
 5    1  0.1285346E-004  0.9118800E+02  0.7818608E-02  0.1130116E+00
         25   -1    0    0    0    0  0.00000000000E+00  0.00000000000E+00  0.99999998245E-14  0.12500000000E+03  0.12500000000E+03 0.  0.
        -13    1    3    3    0    0  0.68505490779E+01 -0.22108219797E+02 -0.30347603772E+02  0.38166629717E+02  0.10566000000E+00 0. -1.
         23    2    1    0    0    0  0.27717853252E+02  0.10983139510E+02  0.92033189495E+01  0.93797278611E+02  0.88455184432E+02 0.  0.
         13    1    3    3    0    0  0.20867304174E+02  0.33091359307E+02  0.39550922721E+02  0.55630648894E+02  0.10566000000E+00 0.  1.
         22    1    1    0    0    0 -0.27717853252E+02 -0.10983139510E+02 -0.92033189495E+01  0.31202721389E+02  0.00000000000E+00 0.  1.
</event>
<event>
 5    1  0.1285346E-004  0.9118800E+02  0.7818608E-02  0.1130116E+00
         25   -1    0    0    0    0  0.00000000000E+00  0.00000000000E+00  0.99999998245E-14  0.12500000000E+03  0.12500000000E+03 0.  0.
        -13    1    3    3    0    0  0.14495192386E+02  0.51304263008E+02  0.29543463387E+02  0.60951336311E+02  0.10566000000E+00 0. -1.
         23    2    1    0    0    0 -0.21111269236E+01  0.26996492612E+02  0.10823371020E+02  0.95838161401E+02  0.91293703783E+02 0.  0.
         13    1    3    3    0    0 -0.16606319310E+02 -0.24307770397E+02 -0.18720092367E+02  0.34886825091E+02  0.10566000000E+00 0.  1.
         22    1    1    0    0    0  0.21111269236E+01 -0.26996492612E+02 -0.10823371020E+02  0.29161838599E+02  0.00000000000E+00 0. -1.
</event>
<event>
 5    1  0.1285346E-004  0.9118800E+02  0.7818608E-02  0.1130116E+00
         25   -1    0    0    0    0  0.00000000000E+00  0.00000000000E+00  0.99999998245E-14  0.12500000000E+03  0.12500000000E+03 0.  0.
        -13    1    3    3    0    0 -0.26637017704E+02  0.38359579845E+02 -0.21227765681E+02  0.51299291203E+02  0.10566000000E+00 0. -1.
         23    2    1    0    0    0 -0.21315944198E+02  0.14016245569E+02  0.15102239572E+02  0.95353714280E+02  0.90627967924E+02 0.  0.
         13    1    3    3    0    0  0.53210735058E+01 -0.24343334276E+02  0.36330005253E+02  0.44054423077E+02  0.10566000000E+00 0.  1.
         22    1    1    0    0    0  0.21315944198E+02 -0.14016245569E+02 -0.15102239572E+02  0.29646285720E+02  0.00000000000E+00 0.  1.
</event>
<event>
 5    1  0.1285346E-004  0.9118800E+02  0.7818608E-02  0.1130116E+00
         25   -1    0    0    0    0  0.00000000000E+00  0.00000000000E+00  0.99999998245E-14  0.12500000000E+03  0.12500000000E+03 0.  0.
        -13    1    3    3    0    0  0.29099408315E+02  0.38711275118E+02  0.12800909209E+02  0.50092043541E+02  0.10566000000E+00 0.  1.
         23    2    1    0    0    0 -0.95551417621E-01  0.82072434376E+01  0.28653829672E+02  0.95193793770E+02  0.90407126061E+02 0.  0.
         13    1    3    3    0    0 -0.29194959732E+02 -0.30504031680E+02  0.15852920463E+02  0.45101750229E+02  0.10566000000E+00 0. -1.
         22    1    1    0    0    0  0.95551417621E-01 -0.82072434376E+01 -0.28653829672E+02  0.29806206230E+02  0.00000000000E+00 0.  1.
</event>
<event>
 5    1  0.1285346E-004  0.9118800E+02  0.7818608E-02  0.1130116E+00
         25   -1    0    0    0    0  0.00000000000E+00  0.00000000000E+00  0.99999998245E-14  0.12500000000E+03  0.12500000000E+03 0.  0.
        -13    1    3    3    0    0  0.11856220988E+02 -0.25220727608E+02 -0.15113571080E+02  0.31703095622E+02  0.10566000000E+00 0.  1.
         23    2    1    0    0    0 -0.47154069993E+01  0.22612307752E+02  0.20916425453E+02  0.93838350834E+02  0.88513206407E+02 0.  0.
         13    1    3    3    0    0 -0.16571627987E+02  0.47833035360E+02  0.36029996534E+02  0.62135255211E+02  0.10566000000E+00 0. -1.
         22    1    1    0    0    0  0.47154069993E+01 -0.22612307752E+02 -0.20916425453E+02  0.31161649166E+02  0.00000000000E+00 0. -1.
</event>
<event>
 5    1  0.1285346E-004  0.9118800E+02  0.7818608E-02  0.1130116E+00
         25   -1    0    0    0    0  0.00000000000E+00  0.00000000000E+00  0.99999998245E-14  0.12500000000E+03  0.12500000000E+03 0.  0.
        -13    1    3    3    0    0  0.13420153085E+02 -0.31219775105E+02 -0.45736948966E+02  0.56979421998E+02  0.10566000000E+00 0. -1.
         23    2    1    0    0    0 -0.95484443116E+01 -0.22724652973E+02 -0.15529646044E+02  0.95866642010E+02  0.91332691313E+02 0.  0.
         13    1    3    3    0    0 -0.22968597397E+02  0.84951221318E+01  0.30207302922E+02  0.38887220012E+02  0.10566000000E+00 0.  1.
         22    1    1    0    0    0  0.95484443116E+01  0.22724652973E+02  0.15529646044E+02  0.29133357990E+02  0.00000000000E+00 0. -1.
</event>
<event>
 5    1  0.1285346E-004  0.9118800E+02  0.7818608E-02  0.1130116E+00
         25   -1    0    0    0    0  0.00000000000E+00  0.00000000000E+00  0.99999998245E-14  0.12500000000E+03  0.12500000000E+03 0.  0.
        -13    1    3    3    0    0  0.32821781158E+02  0.49437888501E+01  0.41191858443E+02  0.52900763063E+02  0.10566000000E+00 0. -1.
         23    2    1    0    0    0  0.81039901471E+01 -0.21397598215E+02  0.18663349045E+02  0.95472852097E+02  0.90792141864E+02 0.  0.
         13    1    3    3    0    0 -0.24717791011E+02 -0.26341387065E+02 -0.22528509398E+02  0.42572089034E+02  0.10566000000E+00 0.  1.
         22    1    1    0    0    0 -0.81039901471E+01  0.21397598215E+02 -0.18663349045E+02  0.29527147903E+02  0.00000000000E+00 0. -1.
</event>
<event>
 5    1  0.1285346E-004  0.9118800E+02  0.7818608E-02  0.1130116E+00
         25   -1    0    0    0    0  0.00000000000E+00  0.00000000000E+00  0.99999998245E-14  0.12500000000E+03  0.12500000000E+03 0.  0.
        -13    1    3    3    0    0  0.26655705271E+02 -0.44077443195E+01  0.19544397664E+02  0.33345906459E+02  0.10566000000E+00 0.  1.
         23    2    1    0    0    0 -0.21589557026E+02 -0.10867850115E+02 -0.18036742195E+02  0.94841365951E+02  0.89918526944E+02 0.  0.
         13    1    3    3    0    0 -0.48245262297E+02 -0.64601057957E+01 -0.37581139859E+02  0.61495459492E+02  0.10566000000E+00 0. -1.
         22    1    1    0    0    0  0.21589557026E+02  0.10867850115E+02  0.18036742195E+02  0.30158634049E+02  0.00000000000E+00 0. -1.
</event>
<event>
 5    1  0.1285346E-004  0.9118800E+02  0.7818608E-02  0.1130116E+00
         25   -1    0    0    0    0  0.00000000000E+00  0.00000000000E+00  0.99999998245E-14  0.12500000000E+03  0.12500000000E+03 0.  0.
        -13    1    3    3    0    0  0.19497800317E+02  0.32181851390E+02  0.21446978328E+02  0.43310735615E+02  0.10566000000E+00 0.  1.
         23    2    1    0    0    0  0.20319211366E+02  0.39838421784E+00 -0.20624536869E+02  0.96044852244E+02  0.91576269093E+02 0.  0.
         13    1    3    3    0    0  0.82141104842E+00 -0.31783467172E+02 -0.42071515198E+02  0.52734116629E+02  0.10566000000E+00 0. -1.
         22    1    1    0    0    0 -0.20319211366E+02 -0.39838421784E+00  0.20624536869E+02  0.28955147756E+02  0.00000000000E+00 0. -1.
</event>
<event>
 5    1  0.1285346E-004  0.9118800E+02  0.7818608E-02  0.1130116E+00
         25   -1    0    0    0    0  0.00000000000E+00  0.00000000000E+00  0.99999998245E-14  0.12500000000E+03  0.12500000000E+03 0.  0.
        -13    1    3    3    0    0  0.17538826460E+02 -0.71164433961E+01 -0.24585870386E+02  0.31027896913E+02  0.10566000000E+00 0. -1.
         23    2    1    0    0    0  0.94548245234E+00  0.10876789731E+02  0.31198734909E+02  0.91946111396E+02  0.85799346436E+02 0.  0.
         13    1    3    3    0    0 -0.16593344007E+02  0.17993233127E+02  0.55784605295E+02  0.60918214482E+02  0.10566000000E+00 0.  1.
         22    1    1    0    0    0 -0.94548245234E+00 -0.10876789731E+02 -0.31198734909E+02  0.33053888604E+02  0.00000000000E+00 0.  1.
</event>
<event>
 5    1  0.1285346E-004  0.9118800E+02  0.7818608E-02  0.1130116E+00
         25   -1    0    0    0    0  0.00000000000E+00  0.00000000000E+00  0.99999998245E-14  0.12500000000E+03  0.12500000000E+03 0.  0.
        -13    1    3    3    0    0  0.23006947789E+02  0.47191665960E+02  0.14787655603E+02  0.54544100551E+02  0.10566000000E+00 0.  1.
         23    2    1    0    0    0 -0.95715141033E+01  0.23190190520E+02  0.16375928649E+02  0.95040529749E+02  0.90194969024E+02 0.  0.
         13    1    3    3    0    0 -0.32578461892E+02 -0.24001475439E+02  0.15882730460E+01  0.40496429198E+02  0.10566000000E+00 0. -1.
         22    1    1    0    0    0  0.95715141033E+01 -0.23190190520E+02 -0.16375928649E+02  0.29959470251E+02  0.00000000000E+00 0.  1.
</event>
<event>
 5    1  0.1285346E-004  0.9118800E+02  0.7818608E-02  0.1130116E+00
         25   -1    0    0    0    0  0.00000000000E+00  0.00000000000E+00  0.99999998245E-14  0.12500000000E+03  0.12500000000E+03 0.  0.
        -13    1    3    3    0    0  0.17725485449E+02 -0.52188521783E+02 -0.17288816732E+02  0.57764599785E+02  0.10566000000E+00 0.  1.
         23    2    1    0    0    0 -0.42019695634E+01 -0.22036807552E+02 -0.19727167374E+02  0.95126289687E+02  0.90313744367E+02 0.  0.
         13    1    3    3    0    0 -0.21927455012E+02  0.30151714231E+02 -0.24383506418E+01  0.37361689901E+02  0.10566000000E+00 0. -1.
         22    1    1    0    0    0  0.42019695634E+01  0.22036807552E+02  0.19727167374E+02  0.29873710313E+02  0.00000000000E+00 0.  1.
</event>
<event>
 5    1  0.1285346E-004  0.9118800E+02  0.7818608E-02  0.1130116E+00
         25   -1    0    0    0    0  0.00000000000E+00  0.00000000000E+00  0.99999998245E-14  0.12500000000E+03  0.12500000000E+03 0.  0.
        -13    1    3    3    0    0 -0.23758778493E+02 -0.14325784110E+02 -0.18399008306E+02  0.33290273603E+02  0.10566000000E+00 0. -1.
         23    2    1    0    0    0  0.28334463253E+02  0.89761442667E+00  0.10490490313E+02  0.94772563680E+02  0.89822830728E+02 0.  0.
         13    1    3    3    0    0  0.52093241746E+02  0.15223398537E+02  0.28889498619E+02  0.61482290077E+02  0.10566000000E+00 0.  1.
         22    1    1    0    0    0 -0.28334463253E+02 -0.89761442667E+00 -0.10490490313E+02  0.30227436320E+02  0.00000000000E+00 0.  1.
</event>
<event>
 5    1  0.1285346E-004  0.9118800E+02  0.7818608E-02  0.1130116E+00
         25   -1    0    0    0    0  0.00000000000E+00  0.00000000000E+00  0.99999998245E-14  0.12500000000E+03  0.12500000000E+03 0.  0.
        -13    1    3    3    0    0 -0.71243664615E+00 -0.39041340774E+02 -0.48397601791E+02  0.62185793221E+02  0.10566000000E+00 0. -1.
         23    2    1    0    0    0  0.16053612902E+01 -0.20453710383E+02 -0.19043783111E+02  0.97007195058E+02  0.92880561823E+02 0.  0.
         13    1    3    3    0    0  0.23177979363E+01  0.18587630391E+02  0.29353818680E+02  0.34821401837E+02  0.10566000000E+00 0.  1.
         22    1    1    0    0    0 -0.16053612902E+01  0.20453710383E+02  0.19043783111E+02  0.27992804942E+02  0.00000000000E+00 0. -1.
</event>
<event>
 5    1  0.1285346E-004  0.9118800E+02  0.7818608E-02  0.1130116E+00
         25   -1    0    0    0    0  0.00000000000E+00  0.00000000000E+00  0.99999998245E-14  0.12500000000E+03  0.12500000000E+03 0.  0.
        -13    1    3    3    0    0 -0.31846639326E+02 -0.29709659991E+02 -0.27940723134E+02  0.51745217232E+02  0.10566000000E+00 0.  1.
         23    2    1    0    0    0  0.90450232777E+01 -0.15320558407E+02 -0.23790158807E+02  0.95293037650E+02  0.90544240085E+02 0.  0.
         13    1    3    3    0    0  0.40891662603E+02  0.14389101584E+02  0.41505643271E+01  0.43547820418E+02  0.10566000000E+00 0. -1.
         22    1    1    0    0    0 -0.90450232777E+01  0.15320558407E+02  0.23790158807E+02  0.29706962350E+02  0.00000000000E+00 0.  1.
</event>
<event>
 5    1  0.1285346E-004  0.9118800E+02  0.7818608E-02  0.1130116E+00
         25   -1    0    0    0    0  0.00000000000E+00  0.00000000000E+00  0.99999998245E-14  0.12500000000E+03  0.12500000000E+03 0.  0.
        -13    1    3    3    0    0 -0.37466590098E+01 -0.13242079854E+02 -0.39294735982E+02  0.41635052210E+02  0.10566000000E+00 0.  1.
         23    2    1    0    0    0 -0.20940423640E+02  0.78314881907E+01  0.11949670554E+02  0.99649888050E+02  0.96371531131E+02 0.  0.
         13    1    3    3    0    0 -0.17193764630E+02  0.21073568045E+02  0.51244406536E+02  0.58014835840E+02  0.10566000000E+00 0. -1.
         22    1    1    0    0    0  0.20940423640E+02 -0.78314881907E+01 -0.11949670554E+02  0.25350111950E+02  0.00000000000E+00 0. -1.
</event>
<event>
 5    1  0.1285346E-004  0.9118800E+02  0.7818608E-02  0.1130116E+00
         25   -1    0    0    0    0  0.00000000000E+00  0.00000000000E+00  0.99999998245E-14  0.12500000000E+03  0.12500000000E+03 0.  0.
        -13    1    3    3    0    0 -0.21321389050E+02 -0.28356527162E+01 -0.54785770037E+02  0.58856896961E+02  0.10566000000E+00 0. -1.
         23    2    1    0    0    0 -0.18308604859E+02 -0.11045477466E+02 -0.16882277484E+02  0.97756305732E+02  0.93883312857E+02 0.  0.
         13    1    3    3    0    0  0.30127841908E+01 -0.82098247496E+01  0.37903492553E+02  0.38899408771E+02  0.10566000000E+00 0.  1.
         22    1    1    0    0    0  0.18308604859E+02  0.11045477466E+02  0.16882277484E+02  0.27243694268E+02  0.00000000000E+00 0. -1.
</event>
<event>
 5    1  0.1285346E-004  0.9118800E+02  0.7818608E-02  0.1130116E+00
         25   -1    0    0    0    0  0.00000000000E+00  0.00000000000E+00  0.99999998245E-14  0.12500000000E+03  0.12500000000E+03 0.  0.
        -13    1    3    3    0    0  0.20362253916E+02  0.25494761206E+02  0.26699993796E+02  0.42160468050E+02  0.10566000000E+00 0.  1.
         23    2    1    0    0    0 -0.12033648788E+02 -0.36694045828E+01 -0.16978548934E+02  0.10386840382E+03  0.10169612065E+03 0.  0.
         13    1    3    3    0    0 -0.32395902703E+02 -0.29164165789E+02 -0.43678542730E+02  0.61707935771E+02  0.10566000000E+00 0. -1.
         22    1    1    0    0    0  0.12033648788E+02  0.36694045828E+01  0.16978548934E+02  0.21131596178E+02  0.00000000000E+00 0. -1.
</event>
<event>
 5    1  0.1285346E-004  0.9118800E+02  0.7818608E-02  0.1130116E+00
         25   -1    0    0    0    0  0.00000000000E+00  0.00000000000E+00  0.99999998245E-14  0.12500000000E+03  0.12500000000E+03 0.  0.
        -13    1    3    3    0    0  0.28754122113E+02  0.32540980204E+02 -0.40459425257E+02  0.59352263540E+02  0.10566000000E+00 0. -1.
         23    2    1    0    0    0  0.21005595083E+02  0.34576732918E+01 -0.20348431558E+02  0.95550905001E+02  0.90899539330E+02 0.  0.
         13    1    3    3    0    0 -0.77485270301E+01 -0.29083306912E+02  0.20110993699E+02  0.36198641462E+02  0.10566000000E+00 0.  1.
         22    1    1    0    0    0 -0.21005595083E+02 -0.34576732918E+01  0.20348431558E+02  0.29449094999E+02  0.00000000000E+00 0. -1.
</event>
<event>
 5    1  0.1285346E-004  0.9118800E+02  0.7818608E-02  0.1130116E+00
         25   -1    0    0    0    0  0.00000000000E+00  0.00000000000E+00  0.99999998245E-14  0.12500000000E+03  0.12500000000E+03 0.  0.
        -13    1    3    3    0    0  0.26653332571E+02  0.59443045734E+01 -0.31406779295E+02  0.41618888064E+02  0.10566000000E+00 0.  1.
         23    2    1    0    0    0  0.12946317151E+02  0.10138255307E+02  0.22349212037E+02  0.97253313222E+02  0.93211202683E+02 0.  0.
         13    1    3    3    0    0 -0.13707015420E+02  0.41939507339E+01  0.53755991332E+02  0.55634425158E+02  0.10566000000E+00 0. -1.
         22    1    1    0    0    0 -0.12946317151E+02 -0.10138255307E+02 -0.22349212037E+02  0.27746686778E+02  0.00000000000E+00 0. -1.
</event>
<event>
 5    1  0.1285346E-004  0.9118800E+02  0.7818608E-02  0.1130116E+00
         25   -1    0    0    0    0  0.00000000000E+00  0.00000000000E+00  0.99999998245E-14  0.12500000000E+03  0.12500000000E+03 0.  0.
        -13    1    3    3    0    0 -0.17600079526E+02 -0.18825958344E+02 -0.30343718970E+02  0.39811203848E+02  0.10566000000E+00 0. -1.
         23    2    1    0    0    0 -0.14119867067E+02  0.18561224556E+02  0.13907567102E+02  0.97846544866E+02  0.94003384069E+02 0.  0.
         13    1    3    3    0    0  0.34802124587E+01  0.37387182900E+02  0.44251286072E+02  0.58035341018E+02  0.10566000000E+00 0.  1.
         22    1    1    0    0    0  0.14119867067E+02 -0.18561224556E+02 -0.13907567102E+02  0.27153455134E+02  0.00000000000E+00 0.  1.
</event>
<event>
 5    1  0.1285346E-004  0.9118800E+02  0.7818608E-02  0.1130116E+00
         25   -1    0    0    0    0  0.00000000000E+00  0.00000000000E+00  0.99999998245E-14  0.12500000000E+03  0.12500000000E+03 0.  0.
        -13    1    3    3    0    0  0.13020345693E+02  0.10645832636E+02  0.58075547956E+02  0.60461918501E+02  0.10566000000E+00 0.  1.
         23    2    1    0    0    0  0.11683024885E+01 -0.20190339931E+01  0.37729493907E+02  0.87198463795E+02  0.78578724530E+02 0.  0.
         13    1    3    3    0    0 -0.11852043204E+02 -0.12664866629E+02 -0.20346054049E+02  0.26736545294E+02  0.10566000000E+00 0. -1.
         22    1    1    0    0    0 -0.11683024885E+01  0.20190339931E+01 -0.37729493907E+02  0.37801536205E+02  0.00000000000E+00 0.  1.
</event>
<event>
 5    1  0.1285346E-004  0.9118800E+02  0.7818608E-02  0.1130116E+00
         25   -1    0    0    0    0  0.00000000000E+00  0.00000000000E+00  0.99999998245E-14  0.12500000000E+03  0.12500000000E+03 0.  0.
        -13    1    3    3    0    0 -0.45680485152E+02  0.10082956156E+00  0.76467548086E+01  0.46316313686E+02  0.10566000000E+00 0. -1.
         23    2    1    0    0    0 -0.33200595436E+01 -0.15275017292E+02  0.25746250546E+02  0.94879934166E+02  0.89972126470E+02 0.  0.
         13    1    3    3    0    0  0.42360425608E+02 -0.15375846853E+02  0.18099495737E+02  0.48563620480E+02  0.10566000000E+00 0.  1.
         22    1    1    0    0    0  0.33200595436E+01  0.15275017292E+02 -0.25746250546E+02  0.30120065834E+02  0.00000000000E+00 0. -1.
</event>
<event>
 5    1  0.1285346E-004  0.9118800E+02  0.7818608E-02  0.1130116E+00
         25   -1    0    0    0    0  0.00000000000E+00  0.00000000000E+00  0.99999998245E-14  0.12500000000E+03  0.12500000000E+03 0.  0.
        -13    1    3    3    0    0  0.33041216784E+02 -0.14257002058E+02 -0.72517418389E+01  0.36709440720E+02  0.10566000000E+00 0. -1.
         23    2    1    0    0    0 -0.12895388327E+02  0.10165294203E+02  0.22885360576E+02  0.96833282495E+02  0.92646212139E+02 0.  0.
         13    1    3    3    0    0 -0.45936605111E+02  0.24422296261E+02  0.30137102415E+02  0.60123841775E+02  0.10566000000E+00 0.  1.
         22    1    1    0    0    0  0.12895388327E+02 -0.10165294203E+02 -0.22885360576E+02  0.28166717505E+02  0.00000000000E+00 0.  1.
</event>
<event>
 5    1  0.1285346E-004  0.9118800E+02  0.7818608E-02  0.1130116E+00
         25   -1    0    0    0    0  0.00000000000E+00  0.00000000000E+00  0.99999998245E-14  0.12500000000E+03  0.12500000000E+03 0.  0.
        -13    1    3    3    0    0  0.17422615625E+02  0.23196405972E+02 -0.16192963673E+02  0.33224148172E+02  0.10566000000E+00 0. -1.
         23    2    1    0    0    0 -0.18194552418E+02 -0.11977837055E+02  0.20340894026E+02  0.95196270569E+02  0.90410550503E+02 0.  0.
         13    1    3    3    0    0 -0.35617168044E+02 -0.35174243027E+02  0.36533857699E+02  0.61972122397E+02  0.10566000000E+00 0.  1.
         22    1    1    0    0    0  0.18194552418E+02  0.11977837055E+02 -0.20340894026E+02  0.29803729431E+02  0.00000000000E+00 0.  1.
</event>
<event>
 5    1  0.1285346E-004  0.9118800E+02  0.7818608E-02  0.1130116E+00
         25   -1    0    0    0    0  0.00000000000E+00  0.00000000000E+00  0.99999998245E-14  0.12500000000E+03  0.12500000000E+03 0.  0.
        -13    1    3    3    0    0 -0.22541877608E+02 -0.17460552504E+02 -0.25221091402E+02  0.38067331866E+02  0.10566000000E+00 0. -1.
         23    2    1    0    0    0  0.18129246687E+01  0.29715480105E+02 -0.53709877465E+01  0.94748653532E+02  0.89789550522E+02 0.  0.
         13    1    3    3    0    0  0.24354802277E+02  0.47176032609E+02  0.19850103655E+02  0.56681321666E+02  0.10566000000E+00 0.  1.
         22    1    1    0    0    0 -0.18129246687E+01 -0.29715480105E+02  0.53709877465E+01  0.30251346468E+02  0.00000000000E+00 0.  1.
</event>
<event>
 5    1  0.1285346E-004  0.9118800E+02  0.7818608E-02  0.1130116E+00
         25   -1    0    0    0    0  0.00000000000E+00  0.00000000000E+00  0.99999998245E-14  0.12500000000E+03  0.12500000000E+03 0.  0.
        -13    1    3    3    0    0  0.16512862019E+01  0.19920503283E+02 -0.32021487646E+02  0.37748377876E+02  0.10566000000E+00 0.  1.
         23    2    1    0    0    0 -0.22095186513E+02 -0.18992079934E+02  0.36555629409E+01  0.95635744387E+02  0.91016130971E+02 0.  0.
         13    1    3    3    0    0 -0.23746472715E+02 -0.38912583217E+02  0.35677050587E+02  0.57887366512E+02  0.10566000000E+00 0. -1.
         22    1    1    0    0    0  0.22095186513E+02  0.18992079934E+02 -0.36555629409E+01  0.29364255613E+02  0.00000000000E+00 0. -1.
</event>
<event>
 5    1  0.1285346E-004  0.9118800E+02  0.7818608E-02  0.1130116E+00
         25   -1    0    0    0    0  0.00000000000E+00  0.00000000000E+00  0.99999998245E-14  0.12500000000E+03  0.12500000000E+03 0.  0.
        -13    1    3    3    0    0 -0.15775924388E+01 -0.40636138540E+01  0.50473068596E+02  0.50661065652E+02  0.10566000000E+00 0. -1.
         23    2    1    0    0    0  0.24615665640E+02 -0.78636415412E+01  0.14353646048E+02  0.95439976183E+02  0.90746867967E+02 0.  0.
         13    1    3    3    0    0  0.26193258079E+02 -0.38000276871E+01 -0.36119422548E+02  0.44778910532E+02  0.10566000000E+00 0.  1.
         22    1    1    0    0    0 -0.24615665640E+02  0.78636415412E+01 -0.14353646048E+02  0.29560023817E+02  0.00000000000E+00 0. -1.
</event>
<event>
 5    1  0.1285346E-004  0.9118800E+02  0.7818608E-02  0.1130116E+00
         25   -1    0    0    0    0  0.00000000000E+00  0.00000000000E+00  0.99999998245E-14  0.12500000000E+03  0.12500000000E+03 0.  0.
        -13    1    3    3    0    0 -0.13449671113E+02  0.31307387354E+02  0.12474958244E+02  0.36286111712E+02  0.10566000000E+00 0. -1.
         23    2    1    0    0    0  0.30810114228E+02  0.22232819194E+01 -0.80389388632E+01  0.93080873143E+02  0.87436938909E+02 0.  0.
         13    1    3    3    0    0  0.44259785341E+02 -0.29084105435E+02 -0.20513897107E+02  0.56794761431E+02  0.10566000000E+00 0.  1.
         22    1    1    0    0    0 -0.30810114228E+02 -0.22232819194E+01  0.80389388632E+01  0.31919126857E+02  0.00000000000E+00 0.  1.
</event>
<event>
 5    1  0.1285346E-004  0.9118800E+02  0.7818608E-02  0.1130116E+00
         25   -1    0    0    0    0  0.00000000000E+00  0.00000000000E+00  0.99999998245E-14  0.12500000000E+03  0.12500000000E+03 0.  0.
        -13    1    3    3    0    0 -0.28860457966E+02 -0.45704941147E+02 -0.27609866507E+02  0.60697475827E+02  0.10566000000E+00 0.  1.
         23    2    1    0    0    0 -0.18565902012E+02 -0.24537405095E+02 -0.41126896532E+01  0.93956624177E+02  0.88680076929E+02 0.  0.
         13    1    3    3    0    0  0.10294555954E+02  0.21167536052E+02  0.23497176853E+02  0.33259148349E+02  0.10566000000E+00 0. -1.
         22    1    1    0    0    0  0.18565902012E+02  0.24537405095E+02  0.41126896532E+01  0.31043375823E+02  0.00000000000E+00 0.  1.
</event>
<event>
 5    1  0.1285346E-004  0.9118800E+02  0.7818608E-02  0.1130116E+00
         25   -1    0    0    0    0  0.00000000000E+00  0.00000000000E+00  0.99999998245E-14  0.12500000000E+03  0.12500000000E+03 0.  0.
        -13    1    3    3    0    0 -0.91548794307E+01 -0.49606633803E+02  0.87600591581E+01  0.51199411473E+02  0.10566000000E+00 0. -1.
         23    2    1    0    0    0 -0.15500762891E+02 -0.16571161810E+02 -0.19459245319E+02  0.95107872569E+02  0.90288250301E+02 0.  0.
         13    1    3    3    0    0 -0.63458834598E+01  0.33035471993E+02 -0.28219304477E+02  0.43908461097E+02  0.10566000000E+00 0.  1.
         22    1    1    0    0    0  0.15500762891E+02  0.16571161810E+02  0.19459245319E+02  0.29892127431E+02  0.00000000000E+00 0. -1.
</event>
<event>
 5    1  0.1285346E-004  0.9118800E+02  0.7818608E-02  0.1130116E+00
         25   -1    0    0    0    0  0.00000000000E+00  0.00000000000E+00  0.99999998245E-14  0.12500000000E+03  0.12500000000E+03 0.  0.
        -13    1    3    3    0    0 -0.35571939850E+01 -0.32232758794E+02 -0.38569273247E+02  0.50390518665E+02  0.10566000000E+00 0. -1.
         23    2    1    0    0    0 -0.24528081663E+02  0.10247764585E+01 -0.14896585432E+02  0.96284408166E+02  0.91902677009E+02 0.  0.
         13    1    3    3    0    0 -0.20970887678E+02  0.33257535252E+02  0.23672687816E+02  0.45893889501E+02  0.10566000000E+00 0.  1.
         22    1    1    0    0    0  0.24528081663E+02 -0.10247764585E+01  0.14896585432E+02  0.28715591834E+02  0.00000000000E+00 0.  1.
</event>
<event>
 5    1  0.1285346E-004  0.9118800E+02  0.7818608E-02  0.1130116E+00
         25   -1    0    0    0    0  0.00000000000E+00  0.00000000000E+00  0.99999998245E-14  0.12500000000E+03  0.12500000000E+03 0.  0.
        -13    1    3    3    0    0 -0.20456270587E+02 -0.39181509136E+01  0.34309159502E+02  0.40136523301E+02  0.10566000000E+00 0.  1.
         23    2    1    0    0    0 -0.12785533098E+02 -0.15398526198E+02 -0.20316841397E+02  0.96480559087E+02  0.92169082515E+02 0.  0.
         13    1    3    3    0    0  0.76707374897E+01 -0.11480375284E+02 -0.54626000899E+02  0.56344035785E+02  0.10566000000E+00 0. -1.
         22    1    1    0    0    0  0.12785533098E+02  0.15398526198E+02  0.20316841397E+02  0.28519440913E+02  0.00000000000E+00 0. -1.
</event>
<event>
 5    1  0.1285346E-004  0.9118800E+02  0.7818608E-02  0.1130116E+00
         25   -1    0    0    0    0  0.00000000000E+00  0.00000000000E+00  0.99999998245E-14  0.12500000000E+03  0.12500000000E+03 0.  0.
        -13    1    3    3    0    0 -0.32750387392E+02 -0.84913501447E+01 -0.47742516916E+02  0.58515382483E+02  0.10566000000E+00 0. -1.
         23    2    1    0    0    0 -0.24740305453E+01  0.12768765563E+01 -0.29860571700E+02  0.95009918587E+02  0.90152535443E+02 0.  0.
         13    1    3    3    0    0  0.30276356846E+02  0.97682267010E+01  0.17881945216E+02  0.36494536105E+02  0.10566000000E+00 0.  1.
         22    1    1    0    0    0  0.24740305453E+01 -0.12768765563E+01  0.29860571700E+02  0.29990081413E+02  0.00000000000E+00 0. -1.
</event>
<event>
 5    1  0.1285346E-004  0.9118800E+02  0.7818608E-02  0.1130116E+00
         25   -1    0    0    0    0  0.00000000000E+00  0.00000000000E+00  0.99999998245E-14  0.12500000000E+03  0.12500000000E+03 0.  0.
        -13    1    3    3    0    0  0.12833407311E+02  0.41607971325E+02  0.40922758082E+02  0.59754522123E+02  0.10566000000E+00 0.  1.
         23    2    1    0    0    0 -0.57136210016E+01  0.24228175362E+02  0.15660807458E+02  0.95590633524E+02  0.90954155380E+02 0.  0.
         13    1    3    3    0    0 -0.18547028312E+02 -0.17379795964E+02 -0.25261950624E+02  0.35836111401E+02  0.10566000000E+00 0. -1.
         22    1    1    0    0    0  0.57136210016E+01 -0.24228175362E+02 -0.15660807458E+02  0.29409366476E+02  0.00000000000E+00 0.  1.
</event>
<event>
 5    1  0.1285346E-004  0.9118800E+02  0.7818608E-02  0.1130116E+00
         25   -1    0    0    0    0  0.00000000000E+00  0.00000000000E+00  0.99999998245E-14  0.12500000000E+03  0.12500000000E+03 0.  0.
        -13    1    3    3    0    0 -0.33980334810E+02  0.45975732476E+01 -0.28340441179E+02  0.44485869710E+02  0.10566000000E+00 0. -1.
         23    2    1    0    0    0 -0.94945351896E+01 -0.22987563165E+02  0.10458267829E+02  0.98019458406E+02  0.94233033494E+02 0.  0.
         13    1    3    3    0    0  0.24485799621E+02 -0.27585136412E+02  0.38798709008E+02  0.53533588696E+02  0.10566000000E+00 0.  1.
         22    1    1    0    0    0  0.94945351896E+01  0.22987563165E+02 -0.10458267829E+02  0.26980541594E+02  0.00000000000E+00 0.  1.
</event>
<event>
 5    1  0.1285346E-004  0.9118800E+02  0.7818608E-02  0.1130116E+00
         25   -1    0    0    0    0  0.00000000000E+00  0.00000000000E+00  0.99999998245E-14  0.12500000000E+03  0.12500000000E+03 0.  0.
        -13    1    3    3    0    0 -0.26143558601E+02 -0.42191700437E+01  0.30214771941E+02  0.40177489464E+02  0.10566000000E+00 0.  1.
         23    2    1    0    0    0 -0.15124576155E+02  0.92699796489E+01 -0.22875615742E+02  0.96052130957E+02  0.91586203870E+02 0.  0.
         13    1    3    3    0    0  0.11018982446E+02  0.13489149693E+02 -0.53090387683E+02  0.55874641493E+02  0.10566000000E+00 0. -1.
         22    1    1    0    0    0  0.15124576155E+02 -0.92699796489E+01  0.22875615742E+02  0.28947869043E+02  0.00000000000E+00 0. -1.
</event>
<event>
 5    1  0.1285346E-004  0.9118800E+02  0.7818608E-02  0.1130116E+00
         25   -1    0    0    0    0  0.00000000000E+00  0.00000000000E+00  0.99999998245E-14  0.12500000000E+03  0.12500000000E+03 0.  0.
        -13    1    3    3    0    0 -0.49416972742E+02  0.23456311161E+02  0.20703240444E+02  0.58488212976E+02  0.10566000000E+00 0.  1.
         23    2    1    0    0    0 -0.28851565555E+02 -0.33901033251E+01  0.61440622413E+01  0.95307321839E+02  0.90563957841E+02 0.  0.
         13    1    3    3    0    0  0.20565407186E+02 -0.26846414486E+02 -0.14559178202E+02  0.36819108863E+02  0.10566000000E+00 0. -1.
         22    1    1    0    0    0  0.28851565555E+02  0.33901033251E+01 -0.61440622413E+01  0.29692678161E+02  0.00000000000E+00 0.  1.
</event>
<event>
 5    1  0.1285346E-004  0.9118800E+02  0.7818608E-02  0.1130116E+00
         25   -1    0    0    0    0  0.00000000000E+00  0.00000000000E+00  0.99999998245E-14  0.12500000000E+03  0.12500000000E+03 0.  0.
        -13    1    3    3    0    0 -0.77402060043E+01 -0.24801631830E+02  0.47349707717E+02  0.54009607621E+02  0.10566000000E+00 0. -1.
         23    2    1    0    0    0 -0.26164889443E+02 -0.14975357374E+02  0.36871517585E+02  0.77372575368E+02  0.60976584376E+02 0.  0.
         13    1    3    3    0    0 -0.18424683438E+02  0.98262744563E+01 -0.10478190132E+02  0.23362967748E+02  0.10566000000E+00 0.  1.
         22    1    1    0    0    0  0.26164889443E+02  0.14975357374E+02 -0.36871517585E+02  0.47627424632E+02  0.00000000000E+00 0. -1.
</event>
<event>
 5    1  0.1285346E-004  0.9118800E+02  0.7818608E-02  0.1130116E+00
         25   -1    0    0    0    0  0.00000000000E+00  0.00000000000E+00  0.99999998245E-14  0.12500000000E+03  0.12500000000E+03 0.  0.
        -13    1    3    3    0    0 -0.20164839843E+02  0.17614488539E+02 -0.30377135184E+02  0.40492869476E+02  0.10566000000E+00 0.  1.
         23    2    1    0    0    0  0.21477197674E+02 -0.14786115945E+02 -0.10975432674E+02  0.96709376694E+02  0.92478885015E+02 0.  0.
         13    1    3    3    0    0  0.41642037517E+02 -0.32400604483E+02  0.19401702511E+02  0.56216507218E+02  0.10566000000E+00 0. -1.
         22    1    1    0    0    0 -0.21477197674E+02  0.14786115945E+02  0.10975432674E+02  0.28290623306E+02  0.00000000000E+00 0. -1.
</event>
<event>
 5    1  0.1285346E-004  0.9118800E+02  0.7818608E-02  0.1130116E+00
         25   -1    0    0    0    0  0.00000000000E+00  0.00000000000E+00  0.99999998245E-14  0.12500000000E+03  0.12500000000E+03 0.  0.
        -13    1    3    3    0    0 -0.29375171813E+02  0.13729432885E+02  0.16940359603E+02  0.36583944483E+02  0.10566000000E+00 0.  1.
         23    2    1    0    0    0  0.22481393523E+01 -0.23167919289E+02 -0.17272779676E+02  0.96014563442E+02  0.91534916073E+02 0.  0.
         13    1    3    3    0    0  0.31623311165E+02 -0.36897352174E+02 -0.34213139280E+02  0.59430618959E+02  0.10566000000E+00 0. -1.
         22    1    1    0    0    0 -0.22481393523E+01  0.23167919289E+02  0.17272779676E+02  0.28985436558E+02  0.00000000000E+00 0. -1.
</event>
<event>
 4    1  0.1285346E-004  0.9118800E+02  0.7818608E-02  0.1130116E+00
         25   -1    0    0    0    0  0.00000000000E+00  0.00000000000E+00  0.99999998245E-14  0.12500000000E+03  0.12500000000E+03 0.  0.
        -13    1    1    0    0    0 -0.68346928429E+01  0.86061793348E+01  0.32880155170E+01  0.11471772273E+02  0.10566000000E+00 0.  1.
         13    1    1    0    0    0  0.51571798364E+02 -0.26436422626E+02 -0.21822340016E+02  0.61925443201E+02  0.10566000000E+00 0. -1.
         22    1    1    0    0    0 -0.44737105521E+02  0.17830243291E+02  0.18534324499E+02  0.51602784527E+02  0.00000000000E+00 0. -1.
</event>
<event>
 5    1  0.1285346E-004  0.9118800E+02  0.7818608E-02  0.1130116E+00
         25   -1    0    0    0    0  0.00000000000E+00  0.00000000000E+00  0.99999998245E-14  0.12500000000E+03  0.12500000000E+03 0.  0.
        -13    1    3    3    0    0 -0.25444538773E+02  0.16635938926E+01 -0.34345009462E+02  0.42775962139E+02  0.10566000000E+00 0. -1.
         23    2    1    0    0    0  0.13441721447E+01 -0.28532073377E+02  0.98464956568E+00  0.96419315181E+02  0.92085985878E+02 0.  0.
         13    1    3    3    0    0  0.26788710917E+02 -0.30195667270E+02  0.35329659027E+02  0.53643353041E+02  0.10566000000E+00 0.  1.
         22    1    1    0    0    0 -0.13441721447E+01  0.28532073377E+02 -0.98464956568E+00  0.28580684819E+02  0.00000000000E+00 0. -1.
</event>
<event>
 5    1  0.1285346E-004  0.9118800E+02  0.7818608E-02  0.1130116E+00
         25   -1    0    0    0    0  0.00000000000E+00  0.00000000000E+00  0.99999998245E-14  0.12500000000E+03  0.12500000000E+03 0.  0.
        -13    1    3    3    0    0  0.17105613854E+02 -0.22591477798E+02 -0.26203958204E+02  0.38595796196E+02  0.10566000000E+00 0. -1.
         23    2    1    0    0    0 -0.23240461660E+02 -0.13507178031E+02  0.12605908622E+02  0.95310408411E+02  0.90568217951E+02 0.  0.
         13    1    3    3    0    0 -0.40346075514E+02  0.90842997670E+01  0.38809866826E+02  0.56714612215E+02  0.10566000000E+00 0.  1.
         22    1    1    0    0    0  0.23240461660E+02  0.13507178031E+02 -0.12605908622E+02  0.29689591589E+02  0.00000000000E+00 0.  1.
</event>
<event>
 5    1  0.1285346E-004  0.9118800E+02  0.7818608E-02  0.1130116E+00
         25   -1    0    0    0    0  0.00000000000E+00  0.00000000000E+00  0.99999998245E-14  0.12500000000E+03  0.12500000000E+03 0.  0.
        -13    1    3    3    0    0  0.30003935165E+02  0.11830851823E+02  0.16681956619E+02  0.36311210678E+02  0.10566000000E+00 0.  1.
         23    2    1    0    0    0 -0.24375597762E+02  0.19552154133E+02  0.12325278088E+02  0.91408796130E+02  0.85012934501E+02 0.  0.
         13    1    3    3    0    0 -0.54379532927E+02  0.77213023097E+01 -0.43566785314E+01  0.55097585452E+02  0.10566000000E+00 0. -1.
         22    1    1    0    0    0  0.24375597762E+02 -0.19552154133E+02 -0.12325278088E+02  0.33591203870E+02  0.00000000000E+00 0. -1.
</event>
<event>
 5    1  0.1285346E-004  0.9118800E+02  0.7818608E-02  0.1130116E+00
         25   -1    0    0    0    0  0.00000000000E+00  0.00000000000E+00  0.99999998245E-14  0.12500000000E+03  0.12500000000E+03 0.  0.
        -13    1    3    3    0    0  0.25286895137E+02 -0.52346719589E+02  0.12440633749E+02  0.59450707729E+02  0.10566000000E+00 0.  1.
         23    2    1    0    0    0 -0.62906344542E+00 -0.26268661137E+02  0.11733196819E+02  0.96223165804E+02  0.91819341377E+02 0.  0.
         13    1    3    3    0    0 -0.25915958582E+02  0.26078058452E+02 -0.70743692963E+00  0.36772458075E+02  0.10566000000E+00 0. -1.
         22    1    1    0    0    0  0.62906344542E+00  0.26268661137E+02 -0.11733196819E+02  0.28776834196E+02  0.00000000000E+00 0.  1.
</event>
<event>
 5    1  0.1285346E-004  0.9118800E+02  0.7818608E-02  0.1130116E+00
         25   -1    0    0    0    0  0.00000000000E+00  0.00000000000E+00  0.99999998245E-14  0.12500000000E+03  0.12500000000E+03 0.  0.
        -13    1    3    3    0    0 -0.21365556109E+02  0.17268216390E+02  0.54973566054E+02  0.61455532004E+02  0.10566000000E+00 0. -1.
         23    2    1    0    0    0 -0.63194701719E+01  0.15106504548E+02  0.24174792645E+02  0.95801322250E+02  0.91243249408E+02 0.  0.
         13    1    3    3    0    0  0.15046085937E+02 -0.21617118411E+01 -0.30798773409E+02  0.34345790247E+02  0.10566000000E+00 0.  1.
         22    1    1    0    0    0  0.63194701719E+01 -0.15106504548E+02 -0.24174792645E+02  0.29198677750E+02  0.00000000000E+00 0. -1.
</event>
<event>
 5    1  0.1285346E-004  0.9118800E+02  0.7818608E-02  0.1130116E+00
         25   -1    0    0    0    0  0.00000000000E+00  0.00000000000E+00  0.99999998245E-14  0.12500000000E+03  0.12500000000E+03 0.  0.
        -13    1    3    3    0    0 -0.28942736729E+02 -0.21914665055E+02  0.42515317518E+02  0.55906152985E+02  0.10566000000E+00 0. -1.
         23    2    1    0    0    0 -0.87661381758E+01 -0.27235399183E+02  0.97094167479E+01  0.94786014484E+02  0.89841547299E+02 0.  0.
         13    1    3    3    0    0  0.20176598553E+02 -0.53207341282E+01 -0.32805900770E+02  0.38879861499E+02  0.10566000000E+00 0.  1.
         22    1    1    0    0    0  0.87661381758E+01  0.27235399183E+02 -0.97094167479E+01  0.30213985516E+02  0.00000000000E+00 0. -1.
</event>
<event>
 5    1  0.1285346E-004  0.9118800E+02  0.7818608E-02  0.1130116E+00
         25   -1    0    0    0    0  0.00000000000E+00  0.00000000000E+00  0.99999998245E-14  0.12500000000E+03  0.12500000000E+03 0.  0.
        -13    1    3    3    0    0  0.29508731806E+02  0.25476513233E+02 -0.79084160713E+01  0.39779042071E+02  0.10566000000E+00 0.  1.
         23    2    1    0    0    0 -0.23897952937E+02  0.12806933057E+02  0.76457304866E+01  0.96829325823E+02  0.92640873570E+02 0.  0.
         13    1    3    3    0    0 -0.53406684743E+02 -0.12669580175E+02  0.15554146558E+02  0.57050283752E+02  0.10566000000E+00 0. -1.
         22    1    1    0    0    0  0.23897952937E+02 -0.12806933057E+02 -0.76457304866E+01  0.28170674177E+02  0.00000000000E+00 0. -1.
</event>
<event>
 5    1  0.1285346E-004  0.9118800E+02  0.7818608E-02  0.1130116E+00
         25   -1    0    0    0    0  0.00000000000E+00  0.00000000000E+00  0.99999998245E-14  0.12500000000E+03  0.12500000000E+03 0.  0.
        -13    1    3    3    0    0 -0.12397350786E+01 -0.28280137722E+02 -0.20388453675E+02  0.34885574955E+02  0.10566000000E+00 0. -1.
         23    2    1    0    0    0  0.22183663841E+02  0.16394932488E+02  0.12092001170E+02  0.94881480033E+02  0.89974274147E+02 0.  0.
         13    1    3    3    0    0  0.23423398919E+02  0.44675070210E+02  0.32480454845E+02  0.59995905079E+02  0.10566000000E+00 0.  1.
         22    1    1    0    0    0 -0.22183663841E+02 -0.16394932488E+02 -0.12092001170E+02  0.30118519967E+02  0.00000000000E+00 0.  1.
</event>
<event>
 5    1  0.1285346E-004  0.9118800E+02  0.7818608E-02  0.1130116E+00
         25   -1    0    0    0    0  0.00000000000E+00  0.00000000000E+00  0.99999998245E-14  0.12500000000E+03  0.12500000000E+03 0.  0.
        -13    1    3    3    0    0 -0.30087729823E+02 -0.43907227220E+02  0.83457166994E+01  0.53877437201E+02  0.10566000000E+00 0. -1.
         23    2    1    0    0    0  0.72141027267E+01 -0.29575594569E+02  0.78280746925E+00  0.94547219178E+02  0.89508685582E+02 0.  0.
         13    1    3    3    0    0  0.37301832550E+02  0.14331632651E+02 -0.75629092302E+01  0.40669781977E+02  0.10566000000E+00 0.  1.
         22    1    1    0    0    0 -0.72141027267E+01  0.29575594569E+02 -0.78280746925E+00  0.30452780822E+02  0.00000000000E+00 0. -1.
</event>
<event>
 5    1  0.1285346E-004  0.9118800E+02  0.7818608E-02  0.1130116E+00
         25   -1    0    0    0    0  0.00000000000E+00  0.00000000000E+00  0.99999998245E-14  0.12500000000E+03  0.12500000000E+03 0.  0.
        -13    1    3    3    0    0 -0.37291349917E+02  0.37321818685E+02  0.68831840700E+01  0.53206694274E+02  0.10566000000E+00 0. -1.
         23    2    1    0    0    0 -0.29147753829E+02 -0.20042228599E+01 -0.55773141383E+01  0.95255842665E+02  0.90492876329E+02 0.  0.
         13    1    3    3    0    0  0.81435960884E+01 -0.39326041545E+02 -0.12460498208E+02  0.42049148392E+02  0.10566000000E+00 0.  1.
         22    1    1    0    0    0  0.29147753829E+02  0.20042228599E+01  0.55773141383E+01  0.29744157335E+02  0.00000000000E+00 0. -1.
</event>
<event>
 5    1  0.1285346E-004  0.9118800E+02  0.7818608E-02  0.1130116E+00
         25   -1    0    0    0    0  0.00000000000E+00  0.00000000000E+00  0.99999998245E-14  0.12500000000E+03  0.12500000000E+03 0.  0.
        -13    1    3    3    0    0 -0.41758320336E+01  0.31299112015E+02 -0.16546256770E+02  0.35649148142E+02  0.10566000000E+00 0.  1.
         23    2    1    0    0    0  0.26043536979E+02 -0.15580270150E+02  0.24060876172E+01  0.94556611655E+02  0.89521801332E+02 0.  0.
         13    1    3    3    0    0  0.30219369012E+02 -0.46879382165E+02  0.18952344388E+02  0.58907463513E+02  0.10566000000E+00 0. -1.
         22    1    1    0    0    0 -0.26043536979E+02  0.15580270150E+02 -0.24060876172E+01  0.30443388345E+02  0.00000000000E+00 0. -1.
</event>
<event>
 5    1  0.1285346E-004  0.9118800E+02  0.7818608E-02  0.1130116E+00
         25   -1    0    0    0    0  0.00000000000E+00  0.00000000000E+00  0.99999998245E-14  0.12500000000E+03  0.12500000000E+03 0.  0.
        -13    1    3    3    0    0  0.41837863624E+02 -0.11229845125E+01 -0.92424133103E+01  0.42861419653E+02  0.10566000000E+00 0.  1.
         23    2    1    0    0    0 -0.11026414623E+02 -0.19869767006E+02 -0.12534760783E+02  0.99047934799E+02  0.95587570844E+02 0.  0.
         13    1    3    3    0    0 -0.52864278246E+02 -0.18746782493E+02 -0.32923474731E+01  0.56186515146E+02  0.10566000000E+00 0. -1.
         22    1    1    0    0    0  0.11026414623E+02  0.19869767006E+02  0.12534760783E+02  0.25952065201E+02  0.00000000000E+00 0. -1.
</event>
<event>
 5    1  0.1285346E-004  0.9118800E+02  0.7818608E-02  0.1130116E+00
         25   -1    0    0    0    0  0.00000000000E+00  0.00000000000E+00  0.99999998245E-14  0.12500000000E+03  0.12500000000E+03 0.  0.
        -13    1    3    3    0    0  0.26978974265E+02 -0.29667887121E+02  0.19900235648E+02  0.44766942284E+02  0.10566000000E+00 0.  1.
         23    2    1    0    0    0  0.11383041656E+02 -0.92284357243E+01 -0.24719221060E+02  0.96263654493E+02  0.91874444887E+02 0.  0.
         13    1    3    3    0    0 -0.15595932608E+02  0.20439451397E+02 -0.44619456708E+02  0.51496712209E+02  0.10566000000E+00 0. -1.
         22    1    1    0    0    0 -0.11383041656E+02  0.92284357243E+01  0.24719221060E+02  0.28736345507E+02  0.00000000000E+00 0. -1.
</event>
<event>
 5    1  0.1285346E-004  0.9118800E+02  0.7818608E-02  0.1130116E+00
         25   -1    0    0    0    0  0.00000000000E+00  0.00000000000E+00  0.99999998245E-14  0.12500000000E+03  0.12500000000E+03 0.  0.
        -13    1    3    3    0    0 -0.10062273528E+02 -0.58051485958E+02 -0.18076998505E+02  0.61628024547E+02  0.10566000000E+00 0.  1.
         23    2    1    0    0    0 -0.11405707705E+02 -0.25560238758E+02 -0.11115856430E+02  0.94883920611E+02  0.89977664744E+02 0.  0.
         13    1    3    3    0    0 -0.13434341761E+01  0.32491247200E+02  0.69611420758E+01  0.33255896064E+02  0.10566000000E+00 0. -1.
         22    1    1    0    0    0  0.11405707705E+02  0.25560238758E+02  0.11115856430E+02  0.30116079389E+02  0.00000000000E+00 0.  1.
</event>
<event>
 5    1  0.1285346E-004  0.9118800E+02  0.7818608E-02  0.1130116E+00
         25   -1    0    0    0    0  0.00000000000E+00  0.00000000000E+00  0.99999998245E-14  0.12500000000E+03  0.12500000000E+03 0.  0.
        -13    1    3    3    0    0 -0.43672589138E+02 -0.16427702152E+02 -0.35748330592E+01  0.46796955408E+02  0.10566000000E+00 0.  1.
         23    2    1    0    0    0 -0.86685488418E+01  0.38011845150E+01  0.26288443587E+02  0.97059437927E+02  0.92950844438E+02 0.  0.
         13    1    3    3    0    0  0.35004040297E+02  0.20228886667E+02  0.29863276646E+02  0.50262482519E+02  0.10566000000E+00 0. -1.
         22    1    1    0    0    0  0.86685488418E+01 -0.38011845150E+01 -0.26288443587E+02  0.27940562073E+02  0.00000000000E+00 0. -1.
</event>
<event>
 5    1  0.1285346E-004  0.9118800E+02  0.7818608E-02  0.1130116E+00
         25   -1    0    0    0    0  0.00000000000E+00  0.00000000000E+00  0.99999998245E-14  0.12500000000E+03  0.12500000000E+03 0.  0.
        -13    1    3    3    0    0  0.16712164514E+02  0.46469784935E+01  0.49861879057E+02  0.52793077188E+02  0.10566000000E+00 0. -1.
         23    2    1    0    0    0  0.19685204307E+02  0.19937185725E+02  0.10579258540E+02  0.95051388104E+02  0.90210016218E+02 0.  0.
         13    1    3    3    0    0  0.29730397924E+01  0.15290207231E+02 -0.39282620517E+02  0.42258310916E+02  0.10566000000E+00 0.  1.
         22    1    1    0    0    0 -0.19685204307E+02 -0.19937185725E+02 -0.10579258540E+02  0.29948611896E+02  0.00000000000E+00 0.  1.
</event>
<event>
 5    1  0.1285346E-004  0.9118800E+02  0.7818608E-02  0.1130116E+00
         25   -1    0    0    0    0  0.00000000000E+00  0.00000000000E+00  0.99999998245E-14  0.12500000000E+03  0.12500000000E+03 0.  0.
        -13    1    3    3    0    0 -0.57590376528E+00 -0.44844991149E+02 -0.16126414967E+02  0.47660018045E+02  0.10566000000E+00 0. -1.
         23    2    1    0    0    0  0.24010152993E+02 -0.36511777825E+01 -0.16507811137E+02  0.95634605835E+02  0.91014567289E+02 0.  0.
         13    1    3    3    0    0  0.24586056758E+02  0.41193813367E+02 -0.38139617060E+00  0.47974587790E+02  0.10566000000E+00 0.  1.
         22    1    1    0    0    0 -0.24010152993E+02  0.36511777825E+01  0.16507811137E+02  0.29365394165E+02  0.00000000000E+00 0.  1.
</event>
<event>
 5    1  0.1285346E-004  0.9118800E+02  0.7818608E-02  0.1130116E+00
         25   -1    0    0    0    0  0.00000000000E+00  0.00000000000E+00  0.99999998245E-14  0.12500000000E+03  0.12500000000E+03 0.  0.
        -13    1    3    3    0    0  0.46867175276E+01 -0.35259048171E+02 -0.37465745831E+01  0.35766098253E+02  0.10566000000E+00 0. -1.
         23    2    1    0    0    0 -0.15732927046E+02  0.18613002869E+02  0.15036858409E+02  0.96363031235E+02  0.92009552813E+02 0.  0.
         13    1    3    3    0    0 -0.20419644573E+02  0.53872051041E+02  0.18783432992E+02  0.60596932982E+02  0.10566000000E+00 0.  1.
         22    1    1    0    0    0  0.15732927046E+02 -0.18613002869E+02 -0.15036858409E+02  0.28636968765E+02  0.00000000000E+00 0.  1.
</event>
<event>
 5    1  0.1285346E-004  0.9118800E+02  0.7818608E-02  0.1130116E+00
         25   -1    0    0    0    0  0.00000000000E+00  0.00000000000E+00  0.99999998245E-14  0.12500000000E+03  0.12500000000E+03 0.  0.
        -13    1    3    3    0    0  0.33925680697E+02  0.31930229437E+02 -0.71049040685E+01  0.47127297701E+02  0.10566000000E+00 0. -1.
         23    2    1    0    0    0  0.25186545637E+02 -0.13643035923E+02  0.67808464696E+01  0.95564062965E+02  0.90917631630E+02 0.  0.
         13    1    3    3    0    0 -0.87391350605E+01 -0.45573265360E+02  0.13885750538E+02  0.48436765264E+02  0.10566000000E+00 0.  1.
         22    1    1    0    0    0 -0.25186545637E+02  0.13643035923E+02 -0.67808464696E+01  0.29435937035E+02  0.00000000000E+00 0.  1.
</event>
<event>
 5    1  0.1285346E-004  0.9118800E+02  0.7818608E-02  0.1130116E+00
         25   -1    0    0    0    0  0.00000000000E+00  0.00000000000E+00  0.99999998245E-14  0.12500000000E+03  0.12500000000E+03 0.  0.
        -13    1    3    3    0    0  0.12646201633E+02  0.12600246334E+00  0.31357990276E+02  0.33812379546E+02  0.10566000000E+00 0. -1.
         23    2    1    0    0    0 -0.17380858271E+02  0.62157334169E+01 -0.22574126064E+02  0.95839740335E+02  0.91295865645E+02 0.  0.
         13    1    3    3    0    0 -0.30027059905E+02  0.60897309536E+01 -0.53932116340E+02  0.62027360790E+02  0.10566000000E+00 0.  1.
         22    1    1    0    0    0  0.17380858271E+02 -0.62157334169E+01  0.22574126064E+02  0.29160259665E+02  0.00000000000E+00 0.  1.
</event>
<event>
 5    1  0.1285346E-004  0.9118800E+02  0.7818608E-02  0.1130116E+00
         25   -1    0    0    0    0  0.00000000000E+00  0.00000000000E+00  0.99999998245E-14  0.12500000000E+03  0.12500000000E+03 0.  0.
        -13    1    3    3    0    0 -0.32460308604E+02  0.53712468814E+01 -0.24420976965E+01  0.32992376891E+02  0.10566000000E+00 0.  1.
         23    2    1    0    0    0  0.23759493311E+02 -0.85888889755E+01  0.17511843380E+02  0.94260006591E+02  0.89106686885E+02 0.  0.
         13    1    3    3    0    0  0.56219801915E+02 -0.13960135857E+02  0.19953941077E+02  0.61267629700E+02  0.10566000000E+00 0. -1.
         22    1    1    0    0    0 -0.23759493311E+02  0.85888889755E+01 -0.17511843380E+02  0.30739993409E+02  0.00000000000E+00 0. -1.
</event>
<event>
 5    1  0.1285346E-004  0.9118800E+02  0.7818608E-02  0.1130116E+00
         25   -1    0    0    0    0  0.00000000000E+00  0.00000000000E+00  0.99999998245E-14  0.12500000000E+03  0.12500000000E+03 0.  0.
        -13    1    3    3    0    0 -0.36756379459E+02  0.33130962271E+02 -0.16706061141E+02  0.52228303963E+02  0.10566000000E+00 0.  1.
         23    2    1    0    0    0 -0.48952727858E+01  0.27032875990E+02  0.11501914658E+02  0.95216881950E+02  0.90439042938E+02 0.  0.
         13    1    3    3    0    0  0.31861106673E+02 -0.60980862804E+01  0.28207975799E+02  0.42988577988E+02  0.10566000000E+00 0. -1.
         22    1    1    0    0    0  0.48952727858E+01 -0.27032875990E+02 -0.11501914658E+02  0.29783118050E+02  0.00000000000E+00 0.  1.
</event>
<event>
 5    1  0.1285346E-004  0.9118800E+02  0.7818608E-02  0.1130116E+00
         25   -1    0    0    0    0  0.00000000000E+00  0.00000000000E+00  0.99999998245E-14  0.12500000000E+03  0.12500000000E+03 0.  0.
        -13    1    3    3    0    0  0.36731920559E+01 -0.77692437565E+01  0.31894330512E+02  0.33031999202E+02  0.10566000000E+00 0. -1.
         23    2    1    0    0    0 -0.25414538721E+01  0.13283560379E+02 -0.26408246137E+02  0.95330024804E+02  0.90595287962E+02 0.  0.
         13    1    3    3    0    0 -0.62146459280E+01  0.21052804136E+02 -0.58302576649E+02  0.62298025602E+02  0.10566000000E+00 0.  1.
         22    1    1    0    0    0  0.25414538721E+01 -0.13283560379E+02  0.26408246137E+02  0.29669975196E+02  0.00000000000E+00 0.  1.
</event>
<event>
 5    1  0.1285346E-004  0.9118800E+02  0.7818608E-02  0.1130116E+00
         25   -1    0    0    0    0  0.00000000000E+00  0.00000000000E+00  0.99999998245E-14  0.12500000000E+03  0.12500000000E+03 0.  0.
        -13    1    3    3    0    0  0.94431128261E+01  0.40961945679E+02  0.11797661535E+02  0.43660615610E+02  0.10566000000E+00 0. -1.
         23    2    1    0    0    0  0.29432085451E+02 -0.12649788307E+01 -0.81105329332E+01  0.94444663806E+02  0.89365350956E+02 0.  0.
         13    1    3    3    0    0  0.19988972625E+02 -0.42226924510E+02 -0.19908194468E+02  0.50784048196E+02  0.10566000000E+00 0.  1.
         22    1    1    0    0    0 -0.29432085451E+02  0.12649788307E+01  0.81105329332E+01  0.30555336194E+02  0.00000000000E+00 0.  1.
</event>
<event>
 5    1  0.1285346E-004  0.9118800E+02  0.7818608E-02  0.1130116E+00
         25   -1    0    0    0    0  0.00000000000E+00  0.00000000000E+00  0.99999998245E-14  0.12500000000E+03  0.12500000000E+03 0.  0.
        -13    1    3    3    0    0  0.30181158946E+02  0.23689241940E+02  0.46942862418E+02  0.60627766205E+02  0.10566000000E+00 0.  1.
         23    2    1    0    0    0  0.95190819704E+00  0.84891168283E+01  0.20223940057E+02  0.10304598020E+03  0.10068016215E+03 0.  0.
         13    1    3    3    0    0 -0.29229250749E+02 -0.15200125112E+02 -0.26718922361E+02  0.42418214000E+02  0.10566000000E+00 0. -1.
         22    1    1    0    0    0 -0.95190819704E+00 -0.84891168283E+01 -0.20223940057E+02  0.21954019795E+02  0.00000000000E+00 0.  1.
</event>
<event>
 5    1  0.1285346E-004  0.9118800E+02  0.7818608E-02  0.1130116E+00
         25   -1    0    0    0    0  0.00000000000E+00  0.00000000000E+00  0.99999998245E-14  0.12500000000E+03  0.12500000000E+03 0.  0.
        -13    1    3    3    0    0 -0.52764007942E+02 -0.26805073826E+01 -0.21926309008E+01  0.52877636560E+02  0.10566000000E+00 0. -1.
         23    2    1    0    0    0 -0.16225829469E+02 -0.14836989138E+02 -0.19976633289E+02  0.95293440687E+02  0.90544796492E+02 0.  0.
         13    1    3    3    0    0  0.36538178473E+02 -0.12156481756E+02 -0.17784002388E+02  0.42415804127E+02  0.10566000000E+00 0.  1.
         22    1    1    0    0    0  0.16225829469E+02  0.14836989138E+02  0.19976633289E+02  0.29706559313E+02  0.00000000000E+00 0.  1.
</event>
<event>
 5    1  0.1285346E-004  0.9118800E+02  0.7818608E-02  0.1130116E+00
         25   -1    0    0    0    0  0.00000000000E+00  0.00000000000E+00  0.99999998245E-14  0.12500000000E+03  0.12500000000E+03 0.  0.
        -13    1    3    3    0    0 -0.21488869137E+02 -0.34088480913E+02 -0.38356881359E+01  0.40478632576E+02  0.10566000000E+00 0.  1.
         23    2    1    0    0    0 -0.20918664611E+02  0.17557079337E+02  0.12934359593E+02  0.94781806440E+02  0.89835692294E+02 0.  0.
         13    1    3    3    0    0  0.57020452576E+00  0.51645560250E+02  0.16770047729E+02  0.54303173863E+02  0.10566000000E+00 0. -1.
         22    1    1    0    0    0  0.20918664611E+02 -0.17557079337E+02 -0.12934359593E+02  0.30218193560E+02  0.00000000000E+00 0. -1.
</event>
<event>
 5    1  0.1285346E-004  0.9118800E+02  0.7818608E-02  0.1130116E+00
         25   -1    0    0    0    0  0.00000000000E+00  0.00000000000E+00  0.99999998245E-14  0.12500000000E+03  0.12500000000E+03 0.  0.
        -13    1    3    3    0    0  0.33609337131E+02  0.83513718342E+01  0.13344593731E+02  0.37113640347E+02  0.10566000000E+00 0.  1.
         23    2    1    0    0    0 -0.11851112781E+02 -0.26505755172E+02  0.91712218945E+01  0.94551432835E+02  0.89514569812E+02 0.  0.
         13    1    3    3    0    0 -0.45460449912E+02 -0.34857127006E+02 -0.41733718368E+01  0.57437792488E+02  0.10566000000E+00 0. -1.
         22    1    1    0    0    0  0.11851112781E+02  0.26505755172E+02 -0.91712218945E+01  0.30448567165E+02  0.00000000000E+00 0. -1.
</event>
<event>
 5    1  0.1285346E-004  0.9118800E+02  0.7818608E-02  0.1130116E+00
         25   -1    0    0    0    0  0.00000000000E+00  0.00000000000E+00  0.99999998245E-14  0.12500000000E+03  0.12500000000E+03 0.  0.
        -13    1    3    3    0    0 -0.86662605642E+01 -0.64756122484E+00 -0.42923064971E+02  0.43794110086E+02  0.10566000000E+00 0.  1.
         23    2    1    0    0    0  0.11358258892E+02 -0.27729897407E+02 -0.48213325989E+01  0.94648682017E+02  0.89650267731E+02 0.  0.
         13    1    3    3    0    0  0.20024519456E+02 -0.27082336182E+02  0.38101732372E+02  0.50854571931E+02  0.10566000000E+00 0. -1.
         22    1    1    0    0    0 -0.11358258892E+02  0.27729897407E+02  0.48213325989E+01  0.30351317983E+02  0.00000000000E+00 0. -1.
</event>
<event>
 5    1  0.1285346E-004  0.9118800E+02  0.7818608E-02  0.1130116E+00
         25   -1    0    0    0    0  0.00000000000E+00  0.00000000000E+00  0.99999998245E-14  0.12500000000E+03  0.12500000000E+03 0.  0.
        -13    1    3    3    0    0  0.34182630485E+02  0.39490134166E+02  0.27802489523E+02  0.59168509454E+02  0.10566000000E+00 0.  1.
         23    2    1    0    0    0  0.46530086117E+01  0.22973990229E+02  0.20671848573E+02  0.93746519560E+02  0.88383425426E+02 0.  0.
         13    1    3    3    0    0 -0.29529621873E+02 -0.16516143937E+02 -0.71306409498E+01  0.34578010106E+02  0.10566000000E+00 0. -1.
         22    1    1    0    0    0 -0.46530086117E+01 -0.22973990229E+02 -0.20671848573E+02  0.31253480440E+02  0.00000000000E+00 0.  1.
</event>
<event>
 5    1  0.1285346E-004  0.9118800E+02  0.7818608E-02  0.1130116E+00
         25   -1    0    0    0    0  0.00000000000E+00  0.00000000000E+00  0.99999998245E-14  0.12500000000E+03  0.12500000000E+03 0.  0.
        -13    1    3    3    0    0  0.29098945903E+02  0.19066470274E+02  0.48826280203E+02  0.59952445688E+02  0.10566000000E+00 0.  1.
         23    2    1    0    0    0  0.24325883749E+01  0.14883316080E+02  0.24169672999E+02  0.96511341263E+02  0.92210819950E+02 0.  0.
         13    1    3    3    0    0 -0.26666357528E+02 -0.41831541933E+01 -0.24656607205E+02  0.36558895576E+02  0.10566000000E+00 0. -1.
         22    1    1    0    0    0 -0.24325883749E+01 -0.14883316080E+02 -0.24169672999E+02  0.28488658737E+02  0.00000000000E+00 0.  1.
</event>
<event>
 5    1  0.1285346E-004  0.9118800E+02  0.7818608E-02  0.1130116E+00
         25   -1    0    0    0    0  0.00000000000E+00  0.00000000000E+00  0.99999998245E-14  0.12500000000E+03  0.12500000000E+03 0.  0.
        -13    1    3    3    0    0 -0.15103100453E+02  0.82786465627E+01  0.51341994765E+02  0.54153958514E+02  0.10566000000E+00 0. -1.
         23    2    1    0    0    0  0.16119432911E+02  0.28635106342E+01  0.23641594853E+02  0.96243073569E+02  0.91846439193E+02 0.  0.
         13    1    3    3    0    0  0.31222533365E+02 -0.54151359284E+01 -0.27700399912E+02  0.42089115056E+02  0.10566000000E+00 0.  1.
         22    1    1    0    0    0 -0.16119432911E+02 -0.28635106342E+01 -0.23641594853E+02  0.28756926431E+02  0.00000000000E+00 0. -1.
</event>
<event>
 5    1  0.1285346E-004  0.9118800E+02  0.7818608E-02  0.1130116E+00
         25   -1    0    0    0    0  0.00000000000E+00  0.00000000000E+00  0.99999998245E-14  0.12500000000E+03  0.12500000000E+03 0.  0.
        -13    1    3    3    0    0  0.38149043911E+02  0.28435561656E+02 -0.16350055122E+02  0.50311690336E+02  0.10566000000E+00 0.  1.
         23    2    1    0    0    0  0.18999939356E+02 -0.13170895396E+02 -0.17302974324E+02  0.96123312144E+02  0.91683302930E+02 0.  0.
         13    1    3    3    0    0 -0.19149104555E+02 -0.41606457052E+02 -0.95291920221E+00  0.45811621808E+02  0.10566000000E+00 0. -1.
         22    1    1    0    0    0 -0.18999939356E+02  0.13170895396E+02  0.17302974324E+02  0.28876687856E+02  0.00000000000E+00 0.  1.
</event>
<event>
 5    1  0.1285346E-004  0.9118800E+02  0.7818608E-02  0.1130116E+00
         25   -1    0    0    0    0  0.00000000000E+00  0.00000000000E+00  0.99999998245E-14  0.12500000000E+03  0.12500000000E+03 0.  0.
        -13    1    3    3    0    0 -0.23026646037E+02  0.51553773503E+02  0.13908853546E+02  0.58150540506E+02  0.10566000000E+00 0.  1.
         23    2    1    0    0    0  0.36390290836E+01  0.27091267528E+02  0.13893161408E+02  0.94337331446E+02  0.89215093238E+02 0.  0.
         13    1    3    3    0    0  0.26665675121E+02 -0.24462505975E+02 -0.15692137095E-01  0.36186790940E+02  0.10566000000E+00 0. -1.
         22    1    1    0    0    0 -0.36390290836E+01 -0.27091267528E+02 -0.13893161408E+02  0.30662668554E+02  0.00000000000E+00 0.  1.
</event>
<event>
 5    1  0.1285346E-004  0.9118800E+02  0.7818608E-02  0.1130116E+00
         25   -1    0    0    0    0  0.00000000000E+00  0.00000000000E+00  0.99999998245E-14  0.12500000000E+03  0.12500000000E+03 0.  0.
        -13    1    3    3    0    0 -0.39572948992E+02  0.73414146065E+01  0.46526573853E+01  0.40516330598E+02  0.10566000000E+00 0. -1.
         23    2    1    0    0    0  0.99028797657E+01  0.37482208975E+01  0.27795900673E+02  0.95255617643E+02  0.90492565501E+02 0.  0.
         13    1    3    3    0    0  0.49475828758E+02 -0.35931937090E+01  0.23143243288E+02  0.54739287045E+02  0.10566000000E+00 0.  1.
         22    1    1    0    0    0 -0.99028797657E+01 -0.37482208975E+01 -0.27795900673E+02  0.29744382357E+02  0.00000000000E+00 0. -1.
</event>
<event>
 5    1  0.1285346E-004  0.9118800E+02  0.7818608E-02  0.1130116E+00
         25   -1    0    0    0    0  0.00000000000E+00  0.00000000000E+00  0.99999998245E-14  0.12500000000E+03  0.12500000000E+03 0.  0.
        -13    1    3    3    0    0 -0.25371487032E+02  0.54335303327E+02  0.15029424270E+02  0.61821778523E+02  0.10566000000E+00 0.  1.
         23    2    1    0    0    0 -0.96218184295E+01  0.26743057931E+02  0.97658203279E+00  0.96561922536E+02  0.92279361907E+02 0.  0.
         13    1    3    3    0    0  0.15749668602E+02 -0.27592245396E+02 -0.14052842237E+02  0.34740144013E+02  0.10566000000E+00 0. -1.
         22    1    1    0    0    0  0.96218184295E+01 -0.26743057931E+02 -0.97658203279E+00  0.28438077464E+02  0.00000000000E+00 0.  1.
</event>
<event>
 5    1  0.1285346E-004  0.9118800E+02  0.7818608E-02  0.1130116E+00
         25   -1    0    0    0    0  0.00000000000E+00  0.00000000000E+00  0.99999998245E-14  0.12500000000E+03  0.12500000000E+03 0.  0.
        -13    1    3    3    0    0 -0.36601183781E+01 -0.31321971278E+02  0.18518388753E+02  0.36570537832E+02  0.10566000000E+00 0. -1.
         23    2    1    0    0    0 -0.17595146710E+02  0.23789789442E+02  0.74978208879E+01  0.94475246315E+02  0.89408118081E+02 0.  0.
         13    1    3    3    0    0 -0.13935028332E+02  0.55111760721E+02 -0.11020567865E+02  0.57904708483E+02  0.10566000000E+00 0.  1.
         22    1    1    0    0    0  0.17595146710E+02 -0.23789789442E+02 -0.74978208879E+01  0.30524753685E+02  0.00000000000E+00 0.  1.
</event>
<event>
 5    1  0.1285346E-004  0.9118800E+02  0.7818608E-02  0.1130116E+00
         25   -1    0    0    0    0  0.00000000000E+00  0.00000000000E+00  0.99999998245E-14  0.12500000000E+03  0.12500000000E+03 0.  0.
        -13    1    3    3    0    0  0.13702063210E+02  0.15956776901E+02  0.34126077500E+02  0.40086975377E+02  0.10566000000E+00 0.  1.
         23    2    1    0    0    0 -0.15467490077E+02  0.21853565863E+02 -0.12540462884E+02  0.95435074843E+02  0.90740116325E+02 0.  0.
         13    1    3    3    0    0 -0.29169553287E+02  0.58967889617E+01 -0.46666540384E+02  0.55348099466E+02  0.10566000000E+00 0. -1.
         22    1    1    0    0    0  0.15467490077E+02 -0.21853565863E+02  0.12540462884E+02  0.29564925157E+02  0.00000000000E+00 0. -1.
</event>
<event>
 5    1  0.1285346E-004  0.9118800E+02  0.7818608E-02  0.1130116E+00
         25   -1    0    0    0    0  0.00000000000E+00  0.00000000000E+00  0.99999998245E-14  0.12500000000E+03  0.12500000000E+03 0.  0.
        -13    1    3    3    0    0 -0.16991626503E+02  0.36985466651E+02  0.43089107619E+02  0.59273286344E+02  0.10566000000E+00 0. -1.
         23    2    1    0    0    0  0.52420280102E+01  0.22311575194E+02  0.18152558548E+02  0.95763026368E+02  0.91190770323E+02 0.  0.
         13    1    3    3    0    0  0.22233654513E+02 -0.14673891457E+02 -0.24936549070E+02  0.36489740025E+02  0.10566000000E+00 0.  1.
         22    1    1    0    0    0 -0.52420280102E+01 -0.22311575194E+02 -0.18152558548E+02  0.29236973632E+02  0.00000000000E+00 0. -1.
</event>
<event>
 5    1  0.1285346E-004  0.9118800E+02  0.7818608E-02  0.1130116E+00
         25   -1    0    0    0    0  0.00000000000E+00  0.00000000000E+00  0.99999998245E-14  0.12500000000E+03  0.12500000000E+03 0.  0.
        -13    1    3    3    0    0 -0.29452831860E+02  0.31188314871E+02  0.31567630402E+02  0.53260742975E+02  0.10566000000E+00 0.  1.
         23    2    1    0    0    0  0.70451492015E+01  0.26379320595E+02  0.10027661551E+02  0.95912946549E+02  0.91396042787E+02 0.  0.
         13    1    3    3    0    0  0.36497981061E+02 -0.48089942766E+01 -0.21539968851E+02  0.42652203573E+02  0.10566000000E+00 0. -1.
         22    1    1    0    0    0 -0.70451492015E+01 -0.26379320595E+02 -0.10027661551E+02  0.29087053451E+02  0.00000000000E+00 0. -1.
</event>
<event>
 5    1  0.1285346E-004  0.9118800E+02  0.7818608E-02  0.1130116E+00
         25   -1    0    0    0    0  0.00000000000E+00  0.00000000000E+00  0.99999998245E-14  0.12500000000E+03  0.12500000000E+03 0.  0.
        -13    1    3    3    0    0  0.22297427918E+02 -0.31557059709E+02  0.28648503120E+02  0.48101675691E+02  0.10566000000E+00 0. -1.
         23    2    1    0    0    0  0.32105694466E+01  0.15133738405E+02  0.20687589844E+02  0.99167575262E+02  0.95743897015E+02 0.  0.
         13    1    3    3    0    0 -0.19086858471E+02  0.46690798114E+02 -0.79609132759E+01  0.51065899571E+02  0.10566000000E+00 0.  1.
         22    1    1    0    0    0 -0.32105694466E+01 -0.15133738405E+02 -0.20687589844E+02  0.25832424738E+02  0.00000000000E+00 0. -1.
</event>
<event>
 5    1  0.1285346E-004  0.9118800E+02  0.7818608E-02  0.1130116E+00
         25   -1    0    0    0    0  0.00000000000E+00  0.00000000000E+00  0.99999998245E-14  0.12500000000E+03  0.12500000000E+03 0.  0.
        -13    1    3    3    0    0 -0.19130472731E+02 -0.25605152257E+02 -0.20857111204E+02  0.38165810103E+02  0.10566000000E+00 0. -1.
         23    2    1    0    0    0  0.26242366806E+01  0.27120332976E+02 -0.61914711670E+01  0.97058393137E+02  0.92949439397E+02 0.  0.
         13    1    3    3    0    0  0.21754709411E+02  0.52725485233E+02  0.14665640037E+02  0.58892583034E+02  0.10566000000E+00 0.  1.
         22    1    1    0    0    0 -0.26242366806E+01 -0.27120332976E+02  0.61914711670E+01  0.27941606863E+02  0.00000000000E+00 0.  1.
</event>
<event>
 5    1  0.1285346E-004  0.9118800E+02  0.7818608E-02  0.1130116E+00
         25   -1    0    0    0    0  0.00000000000E+00  0.00000000000E+00  0.99999998245E-14  0.12500000000E+03  0.12500000000E+03 0.  0.
        -13    1    3    3    0    0 -0.30458033736E+02  0.39687571174E+02 -0.16222137657E+02  0.52592433286E+02  0.10566000000E+00 0.  1.
         23    2    1    0    0    0 -0.18567015724E+02  0.14645591733E+02  0.17010417129E+02  0.95869573965E+02  0.91336703965E+02 0.  0.
         13    1    3    3    0    0  0.11891018012E+02 -0.25041979441E+02  0.33232554786E+02  0.43277140678E+02  0.10566000000E+00 0. -1.
         22    1    1    0    0    0  0.18567015724E+02 -0.14645591733E+02 -0.17010417129E+02  0.29130426035E+02  0.00000000000E+00 0.  1.
</event>
<event>
 5    1  0.1285346E-004  0.9118800E+02  0.7818608E-02  0.1130116E+00
         25   -1    0    0    0    0  0.00000000000E+00  0.00000000000E+00  0.99999998245E-14  0.12500000000E+03  0.12500000000E+03 0.  0.
        -13    1    3    3    0    0 -0.46665049860E+02 -0.12337802559E+02 -0.18764197230E+02  0.51787590330E+02  0.10566000000E+00 0.  1.
         23    2    1    0    0    0 -0.14351758093E+02  0.19865787692E+02 -0.11292363982E+02  0.98015931269E+02  0.94228354635E+02 0.  0.
         13    1    3    3    0    0  0.32313291767E+02  0.32203590251E+02  0.74718332482E+01  0.46228340939E+02  0.10566000000E+00 0. -1.
         22    1    1    0    0    0  0.14351758093E+02 -0.19865787692E+02  0.11292363982E+02  0.26984068731E+02  0.00000000000E+00 0.  1.
</event>
<event>
 5    1  0.1285346E-004  0.9118800E+02  0.7818608E-02  0.1130116E+00
         25   -1    0    0    0    0  0.00000000000E+00  0.00000000000E+00  0.99999998245E-14  0.12500000000E+03  0.12500000000E+03 0.  0.
        -13    1    3    3    0    0  0.25959124893E+02 -0.33593017173E+02 -0.25084262907E+02  0.49311239870E+02  0.10566000000E+00 0. -1.
         23    2    1    0    0    0  0.28786486718E+02  0.54680146602E+01 -0.22556699444E+00  0.95697920170E+02  0.91101482110E+02 0.  0.
         13    1    3    3    0    0  0.28273618253E+01  0.39061031833E+02  0.24858695912E+02  0.46386680300E+02  0.10566000000E+00 0.  1.
         22    1    1    0    0    0 -0.28786486718E+02 -0.54680146602E+01  0.22556699444E+00  0.29302079830E+02  0.00000000000E+00 0. -1.
</event>
<event>
 5    1  0.1285346E-004  0.9118800E+02  0.7818608E-02  0.1130116E+00
         25   -1    0    0    0    0  0.00000000000E+00  0.00000000000E+00  0.99999998245E-14  0.12500000000E+03  0.12500000000E+03 0.  0.
        -13    1    3    3    0    0 -0.93564718405E+01  0.33383461573E+02 -0.10802897564E+02  0.36314085858E+02  0.10566000000E+00 0. -1.
         23    2    1    0    0    0  0.31888289187E+02 -0.35602613028E+00 -0.14984313205E+02  0.89764799076E+02  0.82560279609E+02 0.  0.
         13    1    3    3    0    0  0.41244761028E+02 -0.33739487703E+02 -0.41814156409E+01  0.53450713218E+02  0.10566000000E+00 0.  1.
         22    1    1    0    0    0 -0.31888289187E+02  0.35602613028E+00  0.14984313205E+02  0.35235200924E+02  0.00000000000E+00 0.  1.
</event>
<event>
 5    1  0.1285346E-004  0.9118800E+02  0.7818608E-02  0.1130116E+00
         25   -1    0    0    0    0  0.00000000000E+00  0.00000000000E+00  0.99999998245E-14  0.12500000000E+03  0.12500000000E+03 0.  0.
        -13    1    3    3    0    0 -0.14940001394E+02 -0.57104924412E+02  0.13195506113E+02  0.60483953073E+02  0.10566000000E+00 0.  1.
         23    2    1    0    0    0 -0.11941499583E+02 -0.19711480382E+02  0.14052085494E+02  0.98007353263E+02  0.94216974669E+02 0.  0.
         13    1    3    3    0    0  0.29985018113E+01  0.37393444030E+02  0.85657938133E+00  0.37523400190E+02  0.10566000000E+00 0. -1.
         22    1    1    0    0    0  0.11941499583E+02  0.19711480382E+02 -0.14052085494E+02  0.26992646737E+02  0.00000000000E+00 0.  1.
</event>
<event>
 5    1  0.1285346E-004  0.9118800E+02  0.7818608E-02  0.1130116E+00
         25   -1    0    0    0    0  0.00000000000E+00  0.00000000000E+00  0.99999998245E-14  0.12500000000E+03  0.12500000000E+03 0.  0.
        -13    1    3    3    0    0  0.12951386025E+01  0.18341865725E+02 -0.92822458148E+01  0.20597880320E+02  0.10566000000E+00 0. -1.
         23    2    1    0    0    0 -0.15693188052E+02 -0.26450662830E+02  0.29612826756E+02  0.82305349002E+02  0.70365739181E+02 0.  0.
         13    1    3    3    0    0 -0.16988326654E+02 -0.44792528555E+02  0.38895072570E+02  0.61707468682E+02  0.10566000000E+00 0.  1.
         22    1    1    0    0    0  0.15693188052E+02  0.26450662830E+02 -0.29612826756E+02  0.42694650998E+02  0.00000000000E+00 0.  1.
</event>
<event>
 5    1  0.1285346E-004  0.9118800E+02  0.7818608E-02  0.1130116E+00
         25   -1    0    0    0    0  0.00000000000E+00  0.00000000000E+00  0.99999998245E-14  0.12500000000E+03  0.12500000000E+03 0.  0.
        -13    1    3    3    0    0  0.40081497273E+01 -0.14793029188E+02  0.33887046100E+02  0.37191961957E+02  0.10566000000E+00 0.  1.
         23    2    1    0    0    0  0.21807243706E+02  0.85827830682E+01 -0.17066018642E+02  0.96009156005E+02  0.91527531384E+02 0.  0.
         13    1    3    3    0    0  0.17799093979E+02  0.23375812256E+02 -0.50953064742E+02  0.58817194048E+02  0.10566000000E+00 0. -1.
         22    1    1    0    0    0 -0.21807243706E+02 -0.85827830682E+01  0.17066018642E+02  0.28990843995E+02  0.00000000000E+00 0. -1.
</event>
<event>
 5    1  0.1285346E-004  0.9118800E+02  0.7818608E-02  0.1130116E+00
         25   -1    0    0    0    0  0.00000000000E+00  0.00000000000E+00  0.99999998245E-14  0.12500000000E+03  0.12500000000E+03 0.  0.
        -13    1    3    3    0    0 -0.39179516371E+02  0.73300659638E+01 -0.87828313229E+01  0.40815605596E+02  0.10566000000E+00 0. -1.
         23    2    1    0    0    0 -0.13930490051E+01 -0.14580082467E+01  0.29565887265E+02  0.95365424529E+02  0.90644118024E+02 0.  0.
         13    1    3    3    0    0  0.37786467366E+02 -0.87880742105E+01  0.38348718588E+02  0.54549818933E+02  0.10566000000E+00 0.  1.
         22    1    1    0    0    0  0.13930490051E+01  0.14580082467E+01 -0.29565887265E+02  0.29634575471E+02  0.00000000000E+00 0.  1.
</event>
<event>
 5    1  0.1285346E-004  0.9118800E+02  0.7818608E-02  0.1130116E+00
         25   -1    0    0    0    0  0.00000000000E+00  0.00000000000E+00  0.99999998245E-14  0.12500000000E+03  0.12500000000E+03 0.  0.
        -13    1    3    3    0    0  0.18877348325E+02  0.22653827911E+02 -0.30442887982E+02  0.42383142775E+02  0.10566000000E+00 0.  1.
         23    2    1    0    0    0 -0.22886995350E+01 -0.24293377203E+02 -0.15828749552E+02  0.95914683535E+02  0.91398418388E+02 0.  0.
         13    1    3    3    0    0 -0.21166047860E+02 -0.46947205114E+02  0.14614138429E+02  0.53531540760E+02  0.10566000000E+00 0. -1.
         22    1    1    0    0    0  0.22886995350E+01  0.24293377203E+02  0.15828749552E+02  0.29085316465E+02  0.00000000000E+00 0.  1.
</event>
<event>
 5    1  0.1285346E-004  0.9118800E+02  0.7818608E-02  0.1130116E+00
         25   -1    0    0    0    0  0.00000000000E+00  0.00000000000E+00  0.99999998245E-14  0.12500000000E+03  0.12500000000E+03 0.  0.
        -13    1    3    3    0    0 -0.12686312790E+02 -0.19688053453E+02  0.43061477211E+02  0.49019016357E+02  0.10566000000E+00 0. -1.
         23    2    1    0    0    0 -0.85357404371E+01 -0.30650536264E+02  0.48535577748E+00  0.93179412194E+02  0.87577697210E+02 0.  0.
         13    1    3    3    0    0  0.41505723528E+01 -0.10962482810E+02 -0.42576121433E+02  0.44160395838E+02  0.10566000000E+00 0.  1.
         22    1    1    0    0    0  0.85357404371E+01  0.30650536264E+02 -0.48535577748E+00  0.31820587806E+02  0.00000000000E+00 0. -1.
</event>
<event>
 5    1  0.1285346E-004  0.9118800E+02  0.7818608E-02  0.1130116E+00
         25   -1    0    0    0    0  0.00000000000E+00  0.00000000000E+00  0.99999998245E-14  0.12500000000E+03  0.12500000000E+03 0.  0.
        -13    1    3    3    0    0  0.60521383717E+02  0.91612734520E+01  0.11137139143E+02  0.62215864943E+02  0.10566000000E+00 0.  1.
         23    2    1    0    0    0  0.28039710018E+02  0.57663696068E+01  0.12185593429E+01  0.96347578755E+02  0.91988557379E+02 0.  0.
         13    1    3    3    0    0 -0.32481673699E+02 -0.33949038452E+01 -0.99185798001E+01  0.34131713812E+02  0.10566000000E+00 0. -1.
         22    1    1    0    0    0 -0.28039710018E+02 -0.57663696068E+01 -0.12185593429E+01  0.28652421245E+02  0.00000000000E+00 0.  1.
</event>
<event>
 5    1  0.1285346E-004  0.9118800E+02  0.7818608E-02  0.1130116E+00
         25   -1    0    0    0    0  0.00000000000E+00  0.00000000000E+00  0.99999998245E-14  0.12500000000E+03  0.12500000000E+03 0.  0.
        -13    1    3    3    0    0  0.31902616987E+02  0.29410459718E+02 -0.26892796365E+02  0.51048856714E+02  0.10566000000E+00 0.  1.
         23    2    1    0    0    0 -0.38511130369E+01  0.29259427817E+02 -0.50901972884E+00  0.95483830044E+02  0.90807254727E+02 0.  0.
         13    1    3    3    0    0 -0.35753730024E+02 -0.15103190125E+00  0.26383776636E+02  0.44434973330E+02  0.10566000000E+00 0. -1.
         22    1    1    0    0    0  0.38511130369E+01 -0.29259427817E+02  0.50901972884E+00  0.29516169956E+02  0.00000000000E+00 0. -1.
</event>
<event>
 5    1  0.1285346E-004  0.9118800E+02  0.7818608E-02  0.1130116E+00
         25   -1    0    0    0    0  0.00000000000E+00  0.00000000000E+00  0.99999998245E-14  0.12500000000E+03  0.12500000000E+03 0.  0.
        -13    1    3    3    0    0  0.35408630271E+02  0.24306269438E+02 -0.18109214236E+01  0.42986700643E+02  0.10566000000E+00 0.  1.
         23    2    1    0    0    0  0.13458309134E+02 -0.21891821269E+02  0.12952488749E+02  0.96222493367E+02  0.91818425938E+02 0.  0.
         13    1    3    3    0    0 -0.21950321137E+02 -0.46198090707E+02  0.14763410173E+02  0.53235792724E+02  0.10566000000E+00 0. -1.
         22    1    1    0    0    0 -0.13458309134E+02  0.21891821269E+02 -0.12952488749E+02  0.28777506633E+02  0.00000000000E+00 0.  1.
</event>
<event>
 5    1  0.1285346E-004  0.9118800E+02  0.7818608E-02  0.1130116E+00
         25   -1    0    0    0    0  0.00000000000E+00  0.00000000000E+00  0.99999998245E-14  0.12500000000E+03  0.12500000000E+03 0.  0.
        -13    1    3    3    0    0  0.32102538220E+02  0.46200976456E+02  0.23298092685E+02  0.60892655324E+02  0.10566000000E+00 0. -1.
         23    2    1    0    0    0  0.40116470471E+01  0.22710173559E+02  0.78153653889E+01  0.10064994392E+03  0.97660053139E+02 0.  0.
         13    1    3    3    0    0 -0.28090891173E+02 -0.23490802897E+02 -0.15482727296E+02  0.39757288592E+02  0.10566000000E+00 0.  1.
         22    1    1    0    0    0 -0.40116470471E+01 -0.22710173559E+02 -0.78153653889E+01  0.24350056083E+02  0.00000000000E+00 0. -1.
</event>
<event>
 5    1  0.1285346E-004  0.9118800E+02  0.7818608E-02  0.1130116E+00
         25   -1    0    0    0    0  0.00000000000E+00  0.00000000000E+00  0.99999998245E-14  0.12500000000E+03  0.12500000000E+03 0.  0.
        -13    1    3    3    0    0 -0.32576194268E+02 -0.29589139117E+02 -0.31884563338E+02  0.54344844558E+02  0.10566000000E+00 0. -1.
         23    2    1    0    0    0  0.45314543453E+01 -0.17367816653E+02 -0.25323456097E+02  0.93960467747E+02  0.88685494511E+02 0.  0.
         13    1    3    3    0    0  0.37107648614E+02  0.12221322464E+02  0.65611072409E+01  0.39615623189E+02  0.10566000000E+00 0.  1.
         22    1    1    0    0    0 -0.45314543453E+01  0.17367816653E+02  0.25323456097E+02  0.31039532253E+02  0.00000000000E+00 0. -1.
</event>
<event>
 5    1  0.1285346E-004  0.9118800E+02  0.7818608E-02  0.1130116E+00
         25   -1    0    0    0    0  0.00000000000E+00  0.00000000000E+00  0.99999998245E-14  0.12500000000E+03  0.12500000000E+03 0.  0.
        -13    1    3    3    0    0  0.11553913116E+02 -0.22974222699E+02  0.95592749230E+01  0.27435355255E+02  0.10566000000E+00 0.  1.
         23    2    1    0    0    0 -0.27417028350E+02 -0.21911437985E+02  0.36141702850E+02  0.74621162746E+02  0.55048076139E+02 0.  0.
         13    1    3    3    0    0 -0.38970941466E+02  0.10627847136E+01  0.26582427927E+02  0.47185807491E+02  0.10566000000E+00 0. -1.
         22    1    1    0    0    0  0.27417028350E+02  0.21911437985E+02 -0.36141702850E+02  0.50378837254E+02  0.00000000000E+00 0. -1.
</event>
<event>
 5    1  0.1285346E-004  0.9118800E+02  0.7818608E-02  0.1130116E+00
         25   -1    0    0    0    0  0.00000000000E+00  0.00000000000E+00  0.99999998245E-14  0.12500000000E+03  0.12500000000E+03 0.  0.
        -13    1    3    3    0    0  0.28609012736E+02 -0.20901419128E+02 -0.42444727589E+02  0.55289338895E+02  0.10566000000E+00 0. -1.
         23    2    1    0    0    0  0.23676299303E+02  0.87411944724E+01 -0.20055496148E+02  0.92763397275E+02  0.86981890752E+02 0.  0.
         13    1    3    3    0    0 -0.49327134327E+01  0.29642613601E+02  0.22389231441E+02  0.37474058380E+02  0.10566000000E+00 0.  1.
         22    1    1    0    0    0 -0.23676299303E+02 -0.87411944724E+01  0.20055496148E+02  0.32236602725E+02  0.00000000000E+00 0. -1.
</event>
<event>
 5    1  0.1285346E-004  0.9118800E+02  0.7818608E-02  0.1130116E+00
         25   -1    0    0    0    0  0.00000000000E+00  0.00000000000E+00  0.99999998245E-14  0.12500000000E+03  0.12500000000E+03 0.  0.
        -13    1    3    3    0    0  0.35680156924E+02 -0.76061513581E+01  0.88830425778E+01  0.37547925989E+02  0.10566000000E+00 0.  1.
         23    2    1    0    0    0 -0.10179201056E+02 -0.19340200787E+02 -0.21937175154E+02  0.94033903146E+02  0.88788939551E+02 0.  0.
         13    1    3    3    0    0 -0.45859357980E+02 -0.11734049429E+02 -0.30820217732E+02  0.56485977157E+02  0.10566000000E+00 0. -1.
         22    1    1    0    0    0  0.10179201056E+02  0.19340200787E+02  0.21937175154E+02  0.30966096854E+02  0.00000000000E+00 0. -1.
</event>
<event>
 5    1  0.1285346E-004  0.9118800E+02  0.7818608E-02  0.1130116E+00
         25   -1    0    0    0    0  0.00000000000E+00  0.00000000000E+00  0.99999998245E-14  0.12500000000E+03  0.12500000000E+03 0.  0.
        -13    1    3    3    0    0 -0.18585866578E+02 -0.40730142702E+02  0.39151256990E+02  0.59474457113E+02  0.10566000000E+00 0.  1.
         23    2    1    0    0    0 -0.19376447933E+02 -0.10226906572E+02  0.18557737391E+02  0.96287181093E+02  0.91906448485E+02 0.  0.
         13    1    3    3    0    0 -0.79058135491E+00  0.30503236129E+02 -0.20593519599E+02  0.36812723979E+02  0.10566000000E+00 0. -1.
         22    1    1    0    0    0  0.19376447933E+02  0.10226906572E+02 -0.18557737391E+02  0.28712818907E+02  0.00000000000E+00 0.  1.
</event>
<event>
 5    1  0.1285346E-004  0.9118800E+02  0.7818608E-02  0.1130116E+00
         25   -1    0    0    0    0  0.00000000000E+00  0.00000000000E+00  0.99999998245E-14  0.12500000000E+03  0.12500000000E+03 0.  0.
        -13    1    3    3    0    0 -0.47349217039E+02  0.11700325518E+02 -0.29840355890E+02  0.57177827653E+02  0.10566000000E+00 0.  1.
         23    2    1    0    0    0 -0.28781248885E+02  0.24697179338E+01  0.29374373677E+01  0.95964016594E+02  0.91465863296E+02 0.  0.
         13    1    3    3    0    0  0.18567968154E+02 -0.92306075841E+01  0.32777793258E+02  0.38786188942E+02  0.10566000000E+00 0. -1.
         22    1    1    0    0    0  0.28781248885E+02 -0.24697179338E+01 -0.29374373677E+01  0.29035983406E+02  0.00000000000E+00 0.  1.
</event>
<event>
 5    1  0.1285346E-004  0.9118800E+02  0.7818608E-02  0.1130116E+00
         25   -1    0    0    0    0  0.00000000000E+00  0.00000000000E+00  0.99999998245E-14  0.12500000000E+03  0.12500000000E+03 0.  0.
        -13    1    3    3    0    0  0.26783948837E+01 -0.38164820629E+02 -0.26662396775E+01  0.38351627486E+02  0.10566000000E+00 0.  1.
         23    2    1    0    0    0 -0.30567219853E+01  0.13218914471E+02  0.24676605857E+02  0.96839422489E+02  0.92654495964E+02 0.  0.
         13    1    3    3    0    0 -0.57351168691E+01  0.51383735100E+02  0.27342845535E+02  0.58487795003E+02  0.10566000000E+00 0. -1.
         22    1    1    0    0    0  0.30567219853E+01 -0.13218914471E+02 -0.24676605857E+02  0.28160577511E+02  0.00000000000E+00 0. -1.
</event>
<event>
 5    1  0.1285346E-004  0.9118800E+02  0.7818608E-02  0.1130116E+00
         25   -1    0    0    0    0  0.00000000000E+00  0.00000000000E+00  0.99999998245E-14  0.12500000000E+03  0.12500000000E+03 0.  0.
        -13    1    3    3    0    0 -0.26934028179E+02 -0.18840830666E+02  0.45026323658E+02  0.55747643540E+02  0.10566000000E+00 0.  1.
         23    2    1    0    0    0 -0.17383752667E+01 -0.24830424958E+02  0.13052463415E+02  0.96894150905E+02  0.92728300568E+02 0.  0.
         13    1    3    3    0    0  0.25195652913E+02 -0.59895942914E+01 -0.31973860242E+02  0.41146507365E+02  0.10566000000E+00 0. -1.
         22    1    1    0    0    0  0.17383752667E+01  0.24830424958E+02 -0.13052463415E+02  0.28105849095E+02  0.00000000000E+00 0.  1.
</event>
<event>
 5    1  0.1285346E-004  0.9118800E+02  0.7818608E-02  0.1130116E+00
         25   -1    0    0    0    0  0.00000000000E+00  0.00000000000E+00  0.99999998245E-14  0.12500000000E+03  0.12500000000E+03 0.  0.
        -13    1    3    3    0    0  0.15772877934E+02 -0.25957212414E+02  0.42536384953E+02  0.52267731570E+02  0.10566000000E+00 0.  1.
         23    2    1    0    0    0  0.19189818172E+02  0.10426088068E+02  0.21090954249E+02  0.94639157044E+02  0.89636986010E+02 0.  0.
         13    1    3    3    0    0  0.34169402374E+01  0.36383300482E+02 -0.21445430703E+02  0.42371425473E+02  0.10566000000E+00 0. -1.
         22    1    1    0    0    0 -0.19189818172E+02 -0.10426088068E+02 -0.21090954249E+02  0.30360842956E+02  0.00000000000E+00 0.  1.
</event>
<event>
 5    1  0.1285346E-004  0.9118800E+02  0.7818608E-02  0.1130116E+00
         25   -1    0    0    0    0  0.00000000000E+00  0.00000000000E+00  0.99999998245E-14  0.12500000000E+03  0.12500000000E+03 0.  0.
        -13    1    3    3    0    0 -0.16980498175E+02 -0.37041340812E+02 -0.31285977248E+01  0.40868050298E+02  0.10566000000E+00 0.  1.
         23    2    1    0    0    0  0.12099607554E+01  0.76589648363E+01  0.26426844792E+02  0.97459087287E+02  0.93486746771E+02 0.  0.
         13    1    3    3    0    0  0.18190458930E+02  0.44700305648E+02  0.29555442517E+02  0.56591036989E+02  0.10566000000E+00 0. -1.
         22    1    1    0    0    0 -0.12099607554E+01 -0.76589648363E+01 -0.26426844792E+02  0.27540912713E+02  0.00000000000E+00 0. -1.
</event>
<event>
 5    1  0.1285346E-004  0.9118800E+02  0.7818608E-02  0.1130116E+00
         25   -1    0    0    0    0  0.00000000000E+00  0.00000000000E+00  0.99999998245E-14  0.12500000000E+03  0.12500000000E+03 0.  0.
        -13    1    3    3    0    0 -0.16161706978E+01 -0.36808032122E+01 -0.45112347277E+02  0.45291228300E+02  0.10566000000E+00 0. -1.
         23    2    1    0    0    0 -0.23491932893E+02  0.49299136793E+01  0.48525718440E+01  0.10051076944E+03  0.97481753985E+02 0.  0.
         13    1    3    3    0    0 -0.21875762195E+02  0.86107168916E+01  0.49964919121E+02  0.55219541141E+02  0.10566000000E+00 0.  1.
         22    1    1    0    0    0  0.23491932893E+02 -0.49299136793E+01 -0.48525718440E+01  0.24489230560E+02  0.00000000000E+00 0.  1.
</event>
<event>
 5    1  0.1285346E-004  0.9118800E+02  0.7818608E-02  0.1130116E+00
         25   -1    0    0    0    0  0.00000000000E+00  0.00000000000E+00  0.99999998245E-14  0.12500000000E+03  0.12500000000E+03 0.  0.
        -13    1    3    3    0    0 -0.29999520481E+01  0.16065846642E+02 -0.35644770122E+02  0.39213160312E+02  0.10566000000E+00 0.  1.
         23    2    1    0    0    0  0.37741704763E-01  0.17357062831E+02  0.22013959912E+02  0.96966386506E+02  0.92825624837E+02 0.  0.
         13    1    3    3    0    0  0.30376937529E+01  0.12912161895E+01  0.57658730034E+02  0.57753226193E+02  0.10566000000E+00 0. -1.
         22    1    1    0    0    0 -0.37741704763E-01 -0.17357062831E+02 -0.22013959912E+02  0.28033613494E+02  0.00000000000E+00 0. -1.
</event>
<event>
 5    1  0.1285346E-004  0.9118800E+02  0.7818608E-02  0.1130116E+00
         25   -1    0    0    0    0  0.00000000000E+00  0.00000000000E+00  0.99999998245E-14  0.12500000000E+03  0.12500000000E+03 0.  0.
        -13    1    3    3    0    0  0.36613862787E+00 -0.32236829277E+02 -0.35502165962E+02  0.47955835634E+02  0.10566000000E+00 0. -1.
         23    2    1    0    0    0  0.12668494025E+01 -0.29538776281E+02  0.10183012353E+02  0.93729599424E+02  0.88359492168E+02 0.  0.
         13    1    3    3    0    0  0.90071077464E+00  0.26980529961E+01  0.45685178315E+02  0.45773763791E+02  0.10566000000E+00 0.  1.
         22    1    1    0    0    0 -0.12668494025E+01  0.29538776281E+02 -0.10183012353E+02  0.31270400576E+02  0.00000000000E+00 0. -1.
</event>
<event>
 5    1  0.1285346E-004  0.9118800E+02  0.7818608E-02  0.1130116E+00
         25   -1    0    0    0    0  0.00000000000E+00  0.00000000000E+00  0.99999998245E-14  0.12500000000E+03  0.12500000000E+03 0.  0.
        -13    1    3    3    0    0  0.21235990046E+02 -0.21204290363E+02 -0.51677182228E+02  0.59758945189E+02  0.10566000000E+00 0. -1.
         23    2    1    0    0    0 -0.22891923205E+01 -0.11163954977E+02 -0.28615536113E+02  0.94198649392E+02  0.89020572611E+02 0.  0.
         13    1    3    3    0    0 -0.23525182366E+02  0.10040335386E+02  0.23061646115E+02  0.34439704203E+02  0.10566000000E+00 0.  1.
         22    1    1    0    0    0  0.22891923205E+01  0.11163954977E+02  0.28615536113E+02  0.30801350608E+02  0.00000000000E+00 0. -1.
</event>
<event>
 5    1  0.1285346E-004  0.9118800E+02  0.7818608E-02  0.1130116E+00
         25   -1    0    0    0    0  0.00000000000E+00  0.00000000000E+00  0.99999998245E-14  0.12500000000E+03  0.12500000000E+03 0.  0.
        -13    1    3    3    0    0  0.27713040491E+02 -0.33589000913E+02  0.29033037621E+02  0.52337004434E+02  0.10566000000E+00 0.  1.
         23    2    1    0    0    0  0.29241867175E+02 -0.85316898484E+00  0.57535616295E+00  0.95740031990E+02  0.91159245267E+02 0.  0.
         13    1    3    3    0    0  0.15288266844E+01  0.32735831928E+02 -0.28457681458E+02  0.43403027557E+02  0.10566000000E+00 0. -1.
         22    1    1    0    0    0 -0.29241867175E+02  0.85316898484E+00 -0.57535616295E+00  0.29259968010E+02  0.00000000000E+00 0. -1.
</event>
<event>
 5    1  0.1285346E-004  0.9118800E+02  0.7818608E-02  0.1130116E+00
         25   -1    0    0    0    0  0.00000000000E+00  0.00000000000E+00  0.99999998245E-14  0.12500000000E+03  0.12500000000E+03 0.  0.
        -13    1    3    3    0    0  0.18236786742E+02 -0.12886759772E+02 -0.44498569042E+02  0.49787375699E+02  0.10566000000E+00 0.  1.
         23    2    1    0    0    0 -0.20335981510E+02 -0.66055434413E+01 -0.18495600072E+02  0.96728590942E+02  0.92504852497E+02 0.  0.
         13    1    3    3    0    0 -0.38572768252E+02  0.62812163311E+01  0.26002968970E+02  0.46941215243E+02  0.10566000000E+00 0. -1.
         22    1    1    0    0    0  0.20335981510E+02  0.66055434413E+01  0.18495600072E+02  0.28271409058E+02  0.00000000000E+00 0.  1.
</event>
<event>
 5    1  0.1285346E-004  0.9118800E+02  0.7818608E-02  0.1130116E+00
         25   -1    0    0    0    0  0.00000000000E+00  0.00000000000E+00  0.99999998245E-14  0.12500000000E+03  0.12500000000E+03 0.  0.
        -13    1    3    3    0    0 -0.13374262220E+02  0.19667141025E+02  0.40452922045E+02  0.46926723645E+02  0.10566000000E+00 0.  1.
         23    2    1    0    0    0 -0.10120186885E+02 -0.20704944472E+02  0.26765196298E+02  0.89680194776E+02  0.82432085344E+02 0.  0.
         13    1    3    3    0    0  0.32540753348E+01 -0.40372085497E+02 -0.13687725747E+02  0.42753471132E+02  0.10566000000E+00 0. -1.
         22    1    1    0    0    0  0.10120186885E+02  0.20704944472E+02 -0.26765196298E+02  0.35319805224E+02  0.00000000000E+00 0. -1.
</event>
<event>
 5    1  0.1285346E-004  0.9118800E+02  0.7818608E-02  0.1130116E+00
         25   -1    0    0    0    0  0.00000000000E+00  0.00000000000E+00  0.99999998245E-14  0.12500000000E+03  0.12500000000E+03 0.  0.
        -13    1    3    3    0    0 -0.65757860842E+01  0.36522789445E+02 -0.15863506572E+01  0.37144081412E+02  0.10566000000E+00 0.  1.
         23    2    1    0    0    0 -0.99671853213E+01 -0.19055572133E+02 -0.19839516032E+02  0.95741394275E+02  0.91161113249E+02 0.  0.
         13    1    3    3    0    0 -0.33913992371E+01 -0.55578361579E+02 -0.18253165375E+02  0.58597312863E+02  0.10566000000E+00 0. -1.
         22    1    1    0    0    0  0.99671853213E+01  0.19055572133E+02  0.19839516032E+02  0.29258605725E+02  0.00000000000E+00 0. -1.
</event>
<event>
 5    1  0.1285346E-004  0.9118800E+02  0.7818608E-02  0.1130116E+00
         25   -1    0    0    0    0  0.00000000000E+00  0.00000000000E+00  0.99999998245E-14  0.12500000000E+03  0.12500000000E+03 0.  0.
        -13    1    3    3    0    0  0.89449014608E+01 -0.24129108069E+02  0.22906313070E+02  0.34451929712E+02  0.10566000000E+00 0.  1.
         23    2    1    0    0    0 -0.25913432765E+02  0.56930197919E+01 -0.15492757447E+02  0.94276360806E+02  0.89129625835E+02 0.  0.
         13    1    3    3    0    0 -0.34858334225E+02  0.29822127861E+02 -0.38399070518E+02  0.59824431094E+02  0.10566000000E+00 0. -1.
         22    1    1    0    0    0  0.25913432765E+02 -0.56930197919E+01  0.15492757447E+02  0.30723639194E+02  0.00000000000E+00 0. -1.
</event>
<event>
 5    1  0.1285346E-004  0.9118800E+02  0.7818608E-02  0.1130116E+00
         25   -1    0    0    0    0  0.00000000000E+00  0.00000000000E+00  0.99999998245E-14  0.12500000000E+03  0.12500000000E+03 0.  0.
        -13    1    3    3    0    0 -0.13217475437E+01  0.32048711760E+02 -0.43131861386E+02  0.53751609954E+02  0.10566000000E+00 0.  1.
         23    2    1    0    0    0  0.12802562129E+02  0.33337311963E+02 -0.13104106040E+02  0.86960552566E+02  0.78199348728E+02 0.  0.
         13    1    3    3    0    0  0.14124309673E+02  0.12886002032E+01  0.30027755346E+02  0.33208942612E+02  0.10566000000E+00 0. -1.
         22    1    1    0    0    0 -0.12802562129E+02 -0.33337311963E+02  0.13104106040E+02  0.38039447434E+02  0.00000000000E+00 0.  1.
</event>
<event>
 5    1  0.1285346E-004  0.9118800E+02  0.7818608E-02  0.1130116E+00
         25   -1    0    0    0    0  0.00000000000E+00  0.00000000000E+00  0.99999998245E-14  0.12500000000E+03  0.12500000000E+03 0.  0.
        -13    1    3    3    0    0 -0.22324196029E+02 -0.25384872487E+02 -0.51038517958E+01  0.34188038065E+02  0.10566000000E+00 0. -1.
         23    2    1    0    0    0  0.78996124654E+01  0.22903633884E+02  0.17116982436E+02  0.95335687941E+02  0.90603101411E+02 0.  0.
         13    1    3    3    0    0  0.30223808495E+02  0.48288506371E+02  0.22220834232E+02  0.61147649877E+02  0.10566000000E+00 0.  1.
         22    1    1    0    0    0 -0.78996124654E+01 -0.22903633884E+02 -0.17116982436E+02  0.29664312059E+02  0.00000000000E+00 0.  1.
</event>
<event>
 5    1  0.1285346E-004  0.9118800E+02  0.7818608E-02  0.1130116E+00
         25   -1    0    0    0    0  0.00000000000E+00  0.00000000000E+00  0.99999998245E-14  0.12500000000E+03  0.12500000000E+03 0.  0.
        -13    1    3    3    0    0  0.15343609314E+02  0.11658890017E+01  0.35801721803E+02  0.38968706574E+02  0.10566000000E+00 0.  1.
         23    2    1    0    0    0 -0.25741947747E+02 -0.86813507526E+01 -0.46238723624E+01  0.97442897098E+02  0.93465096558E+02 0.  0.
         13    1    3    3    0    0 -0.41085557061E+02 -0.98472397544E+01 -0.40425594165E+02  0.58474190524E+02  0.10566000000E+00 0. -1.
         22    1    1    0    0    0  0.25741947747E+02  0.86813507526E+01  0.46238723624E+01  0.27557102902E+02  0.00000000000E+00 0. -1.
</event>
<event>
 5    1  0.1285346E-004  0.9118800E+02  0.7818608E-02  0.1130116E+00
         25   -1    0    0    0    0  0.00000000000E+00  0.00000000000E+00  0.99999998245E-14  0.12500000000E+03  0.12500000000E+03 0.  0.
        -13    1    3    3    0    0 -0.50908613574E+02 -0.20563932933E+02 -0.23937174733E+02  0.59896258413E+02  0.10566000000E+00 0. -1.
         23    2    1    0    0    0 -0.33181467765E+02 -0.19680968274E+01 -0.20824055488E+02  0.85775970437E+02  0.76282321736E+02 0.  0.
         13    1    3    3    0    0  0.17727145809E+02  0.18595836105E+02  0.31131192450E+01  0.25879712024E+02  0.10566000000E+00 0.  1.
         22    1    1    0    0    0  0.33181467765E+02  0.19680968274E+01  0.20824055488E+02  0.39224029563E+02  0.00000000000E+00 0. -1.
</event>
<event>
 5    1  0.1285346E-004  0.9118800E+02  0.7818608E-02  0.1130116E+00
         25   -1    0    0    0    0  0.00000000000E+00  0.00000000000E+00  0.99999998245E-14  0.12500000000E+03  0.12500000000E+03 0.  0.
        -13    1    3    3    0    0 -0.43726739534E+01 -0.31754707375E+02  0.14222336316E+02  0.35068044318E+02  0.10566000000E+00 0.  1.
         23    2    1    0    0    0 -0.13778347033E+02  0.26083151207E+02 -0.53867972620E+00  0.95496376499E+02  0.90824523807E+02 0.  0.
         13    1    3    3    0    0 -0.94056730794E+01  0.57837858582E+02 -0.14761016042E+02  0.60428332180E+02  0.10566000000E+00 0. -1.
         22    1    1    0    0    0  0.13778347033E+02 -0.26083151207E+02  0.53867972620E+00  0.29503623501E+02  0.00000000000E+00 0. -1.
</event>
<event>
 5    1  0.1285346E-004  0.9118800E+02  0.7818608E-02  0.1130116E+00
         25   -1    0    0    0    0  0.00000000000E+00  0.00000000000E+00  0.99999998245E-14  0.12500000000E+03  0.12500000000E+03 0.  0.
        -13    1    3    3    0    0  0.14771925494E+02 -0.44438386496E+02  0.39142667638E+02  0.61033921479E+02  0.10566000000E+00 0.  1.
         23    2    1    0    0    0  0.10368646300E+02 -0.14084978736E+02  0.24172736527E+02  0.95163501491E+02  0.90365233208E+02 0.  0.
         13    1    3    3    0    0 -0.44032791935E+01  0.30353407760E+02 -0.14969931111E+02  0.34129580012E+02  0.10566000000E+00 0. -1.
         22    1    1    0    0    0 -0.10368646300E+02  0.14084978736E+02 -0.24172736527E+02  0.29836498509E+02  0.00000000000E+00 0.  1.
</event>
<event>
 5    1  0.1285346E-004  0.9118800E+02  0.7818608E-02  0.1130116E+00
         25   -1    0    0    0    0  0.00000000000E+00  0.00000000000E+00  0.99999998245E-14  0.12500000000E+03  0.12500000000E+03 0.  0.
        -13    1    3    3    0    0  0.44704109873E+02  0.26103852715E+00 -0.31417041018E+02  0.54640344170E+02  0.10566000000E+00 0. -1.
         23    2    1    0    0    0  0.16397417878E+02  0.21729588790E+02 -0.10820611195E+02  0.95706042113E+02  0.91112625515E+02 0.  0.
         13    1    3    3    0    0 -0.28306691995E+02  0.21468550263E+02  0.20596429822E+02  0.41065697943E+02  0.10566000000E+00 0.  1.
         22    1    1    0    0    0 -0.16397417878E+02 -0.21729588790E+02  0.10820611195E+02  0.29293957887E+02  0.00000000000E+00 0.  1.
</event>
<event>
 5    1  0.1285346E-004  0.9118800E+02  0.7818608E-02  0.1130116E+00
         25   -1    0    0    0    0  0.00000000000E+00  0.00000000000E+00  0.99999998245E-14  0.12500000000E+03  0.12500000000E+03 0.  0.
        -13    1    3    3    0    0  0.17079068822E+02 -0.16423037327E+02 -0.25567908042E+02  0.34858855870E+02  0.10566000000E+00 0.  1.
         23    2    1    0    0    0 -0.23102596827E+02  0.38797092906E+01  0.16398039431E+02  0.96404933616E+02  0.92066461885E+02 0.  0.
         13    1    3    3    0    0 -0.40181665649E+02  0.20302746617E+02  0.41965947474E+02  0.61546077746E+02  0.10566000000E+00 0. -1.
         22    1    1    0    0    0  0.23102596827E+02 -0.38797092906E+01 -0.16398039431E+02  0.28595066384E+02  0.00000000000E+00 0. -1.
</event>
<event>
 5    1  0.1285346E-004  0.9118800E+02  0.7818608E-02  0.1130116E+00
         25   -1    0    0    0    0  0.00000000000E+00  0.00000000000E+00  0.99999998245E-14  0.12500000000E+03  0.12500000000E+03 0.  0.
        -13    1    3    3    0    0  0.13393892917E+02 -0.37937548264E+01  0.33172332951E+02  0.35975043858E+02  0.10566000000E+00 0.  1.
         23    2    1    0    0    0 -0.12564560154E+02  0.23044689805E+02 -0.13288775651E+02  0.95580321919E+02  0.90939982845E+02 0.  0.
         13    1    3    3    0    0 -0.25958453071E+02  0.26838444631E+02 -0.46461108603E+02  0.59605278061E+02  0.10566000000E+00 0. -1.
         22    1    1    0    0    0  0.12564560154E+02 -0.23044689805E+02  0.13288775651E+02  0.29419678081E+02  0.00000000000E+00 0. -1.
</event>
<event>
 5    1  0.1285346E-004  0.9118800E+02  0.7818608E-02  0.1130116E+00
         25   -1    0    0    0    0  0.00000000000E+00  0.00000000000E+00  0.99999998245E-14  0.12500000000E+03  0.12500000000E+03 0.  0.
        -13    1    3    3    0    0  0.16279015818E+02 -0.25022948202E+02  0.27014553166E+02  0.40261042455E+02  0.10566000000E+00 0.  1.
         23    2    1    0    0    0 -0.16239562609E+02  0.18114204224E+02  0.17298418151E+02  0.95148985630E+02  0.90345151544E+02 0.  0.
         13    1    3    3    0    0 -0.32518578427E+02  0.43137152426E+02 -0.97161350148E+01  0.54887943175E+02  0.10566000000E+00 0. -1.
         22    1    1    0    0    0  0.16239562609E+02 -0.18114204224E+02 -0.17298418151E+02  0.29851014370E+02  0.00000000000E+00 0. -1.
</event>
<event>
 5    1  0.1285346E-004  0.9118800E+02  0.7818608E-02  0.1130116E+00
         25   -1    0    0    0    0  0.00000000000E+00  0.00000000000E+00  0.99999998245E-14  0.12500000000E+03  0.12500000000E+03 0.  0.
        -13    1    3    3    0    0  0.25285282560E+02  0.25409515524E+01  0.14344626094E+01  0.25453306189E+02  0.10566000000E+00 0. -1.
         23    2    1    0    0    0 -0.35900940357E+02 -0.49216149623E+01  0.92895140784E+01  0.87591513207E+02  0.79201504416E+02 0.  0.
         13    1    3    3    0    0 -0.61186222917E+02 -0.74625665147E+01  0.78550514690E+01  0.62138207018E+02  0.10566000000E+00 0.  1.
         22    1    1    0    0    0  0.35900940357E+02  0.49216149623E+01 -0.92895140784E+01  0.37408486793E+02  0.00000000000E+00 0.  1.
</event>
<event>
 5    1  0.1285346E-004  0.9118800E+02  0.7818608E-02  0.1130116E+00
         25   -1    0    0    0    0  0.00000000000E+00  0.00000000000E+00  0.99999998245E-14  0.12500000000E+03  0.12500000000E+03 0.  0.
        -13    1    3    3    0    0  0.10265310774E+02  0.21057462810E+02 -0.42642971149E+02  0.48654162183E+02  0.10566000000E+00 0. -1.
         23    2    1    0    0    0 -0.15355703236E+02  0.19883856815E+02  0.16347183421E+01  0.99823866703E+02  0.96596928915E+02 0.  0.
         13    1    3    3    0    0 -0.25621014010E+02 -0.11736059945E+01  0.44277689491E+02  0.51169704520E+02  0.10566000000E+00 0.  1.
         22    1    1    0    0    0  0.15355703236E+02 -0.19883856815E+02 -0.16347183421E+01  0.25176133297E+02  0.00000000000E+00 0. -1.
</event>
<event>
 5    1  0.1285346E-004  0.9118800E+02  0.7818608E-02  0.1130116E+00
         25   -1    0    0    0    0  0.00000000000E+00  0.00000000000E+00  0.99999998245E-14  0.12500000000E+03  0.12500000000E+03 0.  0.
        -13    1    3    3    0    0 -0.40278979726E+01 -0.30675174721E+01 -0.37856087878E+02  0.38193300184E+02  0.10566000000E+00 0. -1.
         23    2    1    0    0    0  0.41411030071E+01 -0.28103724317E+02  0.11672501296E+02  0.94288188898E+02  0.89146212621E+02 0.  0.
         13    1    3    3    0    0  0.81690009797E+01 -0.25036206845E+02  0.49528589174E+02  0.56094888714E+02  0.10566000000E+00 0.  1.
         22    1    1    0    0    0 -0.41411030071E+01  0.28103724317E+02 -0.11672501296E+02  0.30711811102E+02  0.00000000000E+00 0.  1.
</event>
<event>
 5    1  0.1285346E-004  0.9118800E+02  0.7818608E-02  0.1130116E+00
         25   -1    0    0    0    0  0.00000000000E+00  0.00000000000E+00  0.99999998245E-14  0.12500000000E+03  0.12500000000E+03 0.  0.
        -13    1    3    3    0    0 -0.37588032126E+02 -0.13073909212E+02  0.74841063609E+01  0.40494570911E+02  0.10566000000E+00 0. -1.
         23    2    1    0    0    0  0.17033952704E+02 -0.21868704947E+02  0.90435287126E+01  0.95842132925E+02  0.91299141460E+02 0.  0.
         13    1    3    3    0    0  0.54621984830E+02 -0.87947957352E+01  0.15594223517E+01  0.55347562014E+02  0.10566000000E+00 0.  1.
         22    1    1    0    0    0 -0.17033952704E+02  0.21868704947E+02 -0.90435287126E+01  0.29157867075E+02  0.00000000000E+00 0.  1.
</event>
<event>
 5    1  0.1285346E-004  0.9118800E+02  0.7818608E-02  0.1130116E+00
         25   -1    0    0    0    0  0.00000000000E+00  0.00000000000E+00  0.99999998245E-14  0.12500000000E+03  0.12500000000E+03 0.  0.
        -13    1    3    3    0    0 -0.86848642699E+01 -0.17281423135E+02 -0.13367897130E+02  0.23511407671E+02  0.10566000000E+00 0.  1.
         23    2    1    0    0    0  0.87524508887E+01  0.39842702073E+02 -0.33756212857E+01  0.84067847307E+02  0.73429979073E+02 0.  0.
         13    1    3    3    0    0  0.17437315159E+02  0.57124125208E+02  0.99922758443E+01  0.60556439636E+02  0.10566000000E+00 0. -1.
         22    1    1    0    0    0 -0.87524508887E+01 -0.39842702073E+02  0.33756212857E+01  0.40932152693E+02  0.00000000000E+00 0. -1.
</event>
<event>
 5    1  0.1285346E-004  0.9118800E+02  0.7818608E-02  0.1130116E+00
         25   -1    0    0    0    0  0.00000000000E+00  0.00000000000E+00  0.99999998245E-14  0.12500000000E+03  0.12500000000E+03 0.  0.
        -13    1    3    3    0    0 -0.41154997986E+02  0.94856162674E+01 -0.43956385486E+02  0.60958065621E+02  0.10566000000E+00 0.  1.
         23    2    1    0    0    0 -0.96290562707E+01  0.69527419604E+01 -0.23626843956E+02  0.98555962851E+02  0.94942038701E+02 0.  0.
         13    1    3    3    0    0  0.31525941715E+02 -0.25328743070E+01  0.20329541531E+02  0.37597897230E+02  0.10566000000E+00 0. -1.
         22    1    1    0    0    0  0.96290562707E+01 -0.69527419604E+01  0.23626843956E+02  0.26444037149E+02  0.00000000000E+00 0.  1.
</event>
<event>
 5    1  0.1285346E-004  0.9118800E+02  0.7818608E-02  0.1130116E+00
         25   -1    0    0    0    0  0.00000000000E+00  0.00000000000E+00  0.99999998245E-14  0.12500000000E+03  0.12500000000E+03 0.  0.
        -13    1    3    3    0    0  0.32039873543E+02 -0.34440744606E+02 -0.12213545149E+02  0.48599385128E+02  0.10566000000E+00 0.  1.
         23    2    1    0    0    0  0.20694465348E+02  0.99001921197E+01 -0.19433028488E+02  0.94934782618E+02  0.90048296233E+02 0.  0.
         13    1    3    3    0    0 -0.11345408195E+02  0.44340936726E+02 -0.72194833381E+01  0.46335397490E+02  0.10566000000E+00 0. -1.
         22    1    1    0    0    0 -0.20694465348E+02 -0.99001921197E+01  0.19433028488E+02  0.30065217382E+02  0.00000000000E+00 0. -1.
</event>
<event>
 5    1  0.1285346E-004  0.9118800E+02  0.7818608E-02  0.1130116E+00
         25   -1    0    0    0    0  0.00000000000E+00  0.00000000000E+00  0.99999998245E-14  0.12500000000E+03  0.12500000000E+03 0.  0.
        -13    1    3    3    0    0  0.16316099024E+01 -0.54480889733E+01 -0.41189868381E+02  0.41580767737E+02  0.10566000000E+00 0. -1.
         23    2    1    0    0    0 -0.99883156065E+01 -0.19584107405E+02  0.13466546526E+02  0.99219162410E+02  0.95811223781E+02 0.  0.
         13    1    3    3    0    0 -0.11619925509E+02 -0.14136018432E+02  0.54656414907E+02  0.57638394673E+02  0.10566000000E+00 0.  1.
         22    1    1    0    0    0  0.99883156065E+01  0.19584107405E+02 -0.13466546526E+02  0.25780837590E+02  0.00000000000E+00 0.  1.
</event>
<event>
 5    1  0.1285346E-004  0.9118800E+02  0.7818608E-02  0.1130116E+00
         25   -1    0    0    0    0  0.00000000000E+00  0.00000000000E+00  0.99999998245E-14  0.12500000000E+03  0.12500000000E+03 0.  0.
        -13    1    3    3    0    0  0.22531646468E+01  0.20143412596E+02  0.29998025600E+02  0.36203957324E+02  0.10566000000E+00 0. -1.
         23    2    1    0    0    0 -0.25239767258E+02 -0.12595837186E+02 -0.10314927115E+02  0.94965042250E+02  0.90090291167E+02 0.  0.
         13    1    3    3    0    0 -0.27492931905E+02 -0.32739249782E+02 -0.40312952715E+02  0.58761084926E+02  0.10566000000E+00 0.  1.
         22    1    1    0    0    0  0.25239767258E+02  0.12595837186E+02  0.10314927115E+02  0.30034957750E+02  0.00000000000E+00 0.  1.
</event>
<event>
 5    1  0.1285346E-004  0.9118800E+02  0.7818608E-02  0.1130116E+00
         25   -1    0    0    0    0  0.00000000000E+00  0.00000000000E+00  0.99999998245E-14  0.12500000000E+03  0.12500000000E+03 0.  0.
        -13    1    3    3    0    0 -0.10242367737E+02  0.37298066766E+02 -0.16342093661E+02  0.41989606698E+02  0.10566000000E+00 0. -1.
         23    2    1    0    0    0 -0.23293345553E+02 -0.14801129787E+02 -0.72807616529E+01  0.96457700158E+02  0.92138075949E+02 0.  0.
         13    1    3    3    0    0 -0.13050977815E+02 -0.52099196553E+02  0.90613320086E+01  0.54468093460E+02  0.10566000000E+00 0.  1.
         22    1    1    0    0    0  0.23293345553E+02  0.14801129787E+02  0.72807616529E+01  0.28542299842E+02  0.00000000000E+00 0.  1.
</event>
<event>
 5    1  0.1285346E-004  0.9118800E+02  0.7818608E-02  0.1130116E+00
         25   -1    0    0    0    0  0.00000000000E+00  0.00000000000E+00  0.99999998245E-14  0.12500000000E+03  0.12500000000E+03 0.  0.
        -13    1    3    3    0    0 -0.12684334964E+02 -0.51172877842E+02 -0.18834891631E+02  0.55984998767E+02  0.10566000000E+00 0.  1.
         23    2    1    0    0    0 -0.53427700711E+01 -0.11400134358E+02 -0.25106946950E+02  0.96913223030E+02  0.92754006692E+02 0.  0.
         13    1    3    3    0    0  0.73415648925E+01  0.39772743485E+02 -0.62720553191E+01  0.40928224263E+02  0.10566000000E+00 0. -1.
         22    1    1    0    0    0  0.53427700711E+01  0.11400134358E+02  0.25106946950E+02  0.28086776970E+02  0.00000000000E+00 0.  1.
</event>
<event>
 5    1  0.1285346E-004  0.9118800E+02  0.7818608E-02  0.1130116E+00
         25   -1    0    0    0    0  0.00000000000E+00  0.00000000000E+00  0.99999998245E-14  0.12500000000E+03  0.12500000000E+03 0.  0.
        -13    1    3    3    0    0 -0.23989603664E+02  0.47072889527E+02 -0.61062902989E+01  0.53185110300E+02  0.10566000000E+00 0.  1.
         23    2    1    0    0    0  0.24832870547E+01  0.20145778718E+02  0.17904635253E+02  0.97933506354E+02  0.94118949147E+02 0.  0.
         13    1    3    3    0    0  0.26472890718E+02 -0.26927110809E+02  0.24010925552E+02  0.44748396054E+02  0.10566000000E+00 0. -1.
         22    1    1    0    0    0 -0.24832870547E+01 -0.20145778718E+02 -0.17904635253E+02  0.27066493646E+02  0.00000000000E+00 0.  1.
</event>
<event>
 5    1  0.1285346E-004  0.9118800E+02  0.7818608E-02  0.1130116E+00
         25   -1    0    0    0    0  0.00000000000E+00  0.00000000000E+00  0.99999998245E-14  0.12500000000E+03  0.12500000000E+03 0.  0.
        -13    1    3    3    0    0  0.96892491482E+01 -0.33817955569E+02 -0.10268937088E+02  0.36646935764E+02  0.10566000000E+00 0. -1.
         23    2    1    0    0    0  0.83830626003E+01  0.19931496320E+02 -0.24558680901E+02  0.92278919766E+02  0.86282848478E+02 0.  0.
         13    1    3    3    0    0 -0.13061865479E+01  0.53749451889E+02 -0.14289743813E+02  0.55631984002E+02  0.10566000000E+00 0.  1.
         22    1    1    0    0    0 -0.83830626003E+01 -0.19931496320E+02  0.24558680901E+02  0.32721080234E+02  0.00000000000E+00 0.  1.
</event>
<event>
 5    1  0.1285346E-004  0.9118800E+02  0.7818608E-02  0.1130116E+00
         25   -1    0    0    0    0  0.00000000000E+00  0.00000000000E+00  0.99999998245E-14  0.12500000000E+03  0.12500000000E+03 0.  0.
        -13    1    3    3    0    0  0.24495649945E+02 -0.14901880430E+02  0.18806244134E+02  0.34289778201E+02  0.10566000000E+00 0.  1.
         23    2    1    0    0    0 -0.13661791471E+02  0.25043770626E+02 -0.75400524677E+01  0.95492587633E+02  0.90819309116E+02 0.  0.
         13    1    3    3    0    0 -0.38157441416E+02  0.39945651056E+02 -0.26346296602E+02  0.61202809432E+02  0.10566000000E+00 0. -1.
         22    1    1    0    0    0  0.13661791471E+02 -0.25043770626E+02  0.75400524677E+01  0.29507412367E+02  0.00000000000E+00 0. -1.
</event>
<event>
 5    1  0.1285346E-004  0.9118800E+02  0.7818608E-02  0.1130116E+00
         25   -1    0    0    0    0  0.00000000000E+00  0.00000000000E+00  0.99999998245E-14  0.12500000000E+03  0.12500000000E+03 0.  0.
        -13    1    3    3    0    0  0.43157768093E+02  0.73420353848E-02 -0.95640108580E+01  0.44204914528E+02  0.10566000000E+00 0.  1.
         23    2    1    0    0    0 -0.15353725486E+01 -0.26229733027E+02 -0.12058734973E+02  0.96090324238E+02  0.91638316546E+02 0.  0.
         13    1    3    3    0    0 -0.44693140642E+02 -0.26237075063E+02 -0.24947241152E+01  0.51885409709E+02  0.10566000000E+00 0. -1.
         22    1    1    0    0    0  0.15353725486E+01  0.26229733027E+02  0.12058734973E+02  0.28909675762E+02  0.00000000000E+00 0.  1.
</event>
<event>
 5    1  0.1285346E-004  0.9118800E+02  0.7818608E-02  0.1130116E+00
         25   -1    0    0    0    0  0.00000000000E+00  0.00000000000E+00  0.99999998245E-14  0.12500000000E+03  0.12500000000E+03 0.  0.
        -13    1    3    3    0    0 -0.10272786538E+02 -0.40393906446E+02 -0.20749005366E+02  0.46558889688E+02  0.10566000000E+00 0. -1.
         23    2    1    0    0    0 -0.25132441284E+02  0.62844239946E-01  0.82981526317E+01  0.98532984842E+02  0.94911781199E+02 0.  0.
         13    1    3    3    0    0 -0.14859654746E+02  0.40456750686E+02  0.29047157998E+02  0.51974095154E+02  0.10566000000E+00 0.  1.
         22    1    1    0    0    0  0.25132441284E+02 -0.62844239946E-01 -0.82981526317E+01  0.26467015158E+02  0.00000000000E+00 0. -1.
</event>
<event>
 5    1  0.1285346E-004  0.9118800E+02  0.7818608E-02  0.1130116E+00
         25   -1    0    0    0    0  0.00000000000E+00  0.00000000000E+00  0.99999998245E-14  0.12500000000E+03  0.12500000000E+03 0.  0.
        -13    1    3    3    0    0 -0.40234683548E+02 -0.37001381342E+01 -0.19040436789E+02  0.44666208476E+02  0.10566000000E+00 0. -1.
         23    2    1    0    0    0 -0.96925318954E+00 -0.28292055281E+02  0.40004227521E+01  0.96410085241E+02  0.92073456056E+02 0.  0.
         13    1    3    3    0    0  0.39265430359E+02 -0.24591917146E+02  0.23040859541E+02  0.51743876765E+02  0.10566000000E+00 0.  1.
         22    1    1    0    0    0  0.96925318954E+00  0.28292055281E+02 -0.40004227521E+01  0.28589914759E+02  0.00000000000E+00 0.  1.
</event>
<event>
 5    1  0.1285346E-004  0.9118800E+02  0.7818608E-02  0.1130116E+00
         25   -1    0    0    0    0  0.00000000000E+00  0.00000000000E+00  0.99999998245E-14  0.12500000000E+03  0.12500000000E+03 0.  0.
        -13    1    3    3    0    0  0.44743130512E+02 -0.37586884843E+02  0.76712165821E+00  0.58440750165E+02  0.10566000000E+00 0.  1.
         23    2    1    0    0    0  0.22196651559E+02 -0.14700363527E+02 -0.15228081548E+02  0.94329387097E+02  0.89203961651E+02 0.  0.
         13    1    3    3    0    0 -0.22546478953E+02  0.22886521316E+02 -0.15995203206E+02  0.35888636931E+02  0.10566000000E+00 0. -1.
         22    1    1    0    0    0 -0.22196651559E+02  0.14700363527E+02  0.15228081548E+02  0.30670612903E+02  0.00000000000E+00 0.  1.
</event>
<event>
 5    1  0.1285346E-004  0.9118800E+02  0.7818608E-02  0.1130116E+00
         25   -1    0    0    0    0  0.00000000000E+00  0.00000000000E+00  0.99999998245E-14  0.12500000000E+03  0.12500000000E+03 0.  0.
        -13    1    3    3    0    0  0.34384997366E+02  0.25679103306E+02 -0.22109043875E+02  0.48275929567E+02  0.10566000000E+00 0. -1.
         23    2    1    0    0    0 -0.94272351288E+01  0.27965413434E+02 -0.10715316938E+02  0.93603262466E+02  0.88180585258E+02 0.  0.
         13    1    3    3    0    0 -0.43812232495E+02  0.22863101286E+01  0.11393726937E+02  0.45327332899E+02  0.10566000000E+00 0.  1.
         22    1    1    0    0    0  0.94272351288E+01 -0.27965413434E+02  0.10715316938E+02  0.31396737534E+02  0.00000000000E+00 0.  1.
</event>
<event>
 5    1  0.1285346E-004  0.9118800E+02  0.7818608E-02  0.1130116E+00
         25   -1    0    0    0    0  0.00000000000E+00  0.00000000000E+00  0.99999998245E-14  0.12500000000E+03  0.12500000000E+03 0.  0.
        -13    1    3    3    0    0  0.14923239481E+01 -0.34107689552E+02 -0.27985334827E+01  0.34254991914E+02  0.10566000000E+00 0. -1.
         23    2    1    0    0    0 -0.11538123660E+02  0.24683382966E+02  0.10282647478E+02  0.95877319296E+02  0.91347303321E+02 0.  0.
         13    1    3    3    0    0 -0.13030447608E+02  0.58791072518E+02  0.13081180960E+02  0.61622327382E+02  0.10566000000E+00 0.  1.
         22    1    1    0    0    0  0.11538123660E+02 -0.24683382966E+02 -0.10282647478E+02  0.29122680704E+02  0.00000000000E+00 0.  1.
</event>
<event>
 5    1  0.1285346E-004  0.9118800E+02  0.7818608E-02  0.1130116E+00
         25   -1    0    0    0    0  0.00000000000E+00  0.00000000000E+00  0.99999998245E-14  0.12500000000E+03  0.12500000000E+03 0.  0.
        -13    1    3    3    0    0 -0.91106319373E+01  0.26462748834E+02 -0.48491043484E+02  0.55988151893E+02  0.10566000000E+00 0.  1.
         23    2    1    0    0    0  0.81660429880E+01  0.20809757027E+02 -0.45355193338E+02  0.74434954678E+02  0.54623609086E+02 0.  0.
         13    1    3    3    0    0  0.17276674925E+02 -0.56529918074E+01  0.31358501454E+01  0.18446802786E+02  0.10566000000E+00 0. -1.
         22    1    1    0    0    0 -0.81660429880E+01 -0.20809757027E+02  0.45355193338E+02  0.50565045322E+02  0.00000000000E+00 0.  1.
</event>
<event>
 5    1  0.1285346E-004  0.9118800E+02  0.7818608E-02  0.1130116E+00
         25   -1    0    0    0    0  0.00000000000E+00  0.00000000000E+00  0.99999998245E-14  0.12500000000E+03  0.12500000000E+03 0.  0.
        -13    1    3    3    0    0 -0.27296661824E+02  0.25399032644E+02 -0.10973903710E+02  0.38867162652E+02  0.10566000000E+00 0.  1.
         23    2    1    0    0    0  0.26217828010E+02  0.84148508484E+01  0.44858497597E+01  0.97101844713E+02  0.93007855465E+02 0.  0.
         13    1    3    3    0    0  0.53514489833E+02 -0.16984181795E+02  0.15459753470E+02  0.58234682061E+02  0.10566000000E+00 0. -1.
         22    1    1    0    0    0 -0.26217828010E+02 -0.84148508484E+01 -0.44858497597E+01  0.27898155287E+02  0.00000000000E+00 0. -1.
</event>
<event>
 5    1  0.1285346E-004  0.9118800E+02  0.7818608E-02  0.1130116E+00
         25   -1    0    0    0    0  0.00000000000E+00  0.00000000000E+00  0.99999998245E-14  0.12500000000E+03  0.12500000000E+03 0.  0.
        -13    1    3    3    0    0  0.94148791648E+01 -0.24704739771E+02 -0.24820051861E+02  0.36263070130E+02  0.10566000000E+00 0.  1.
         23    2    1    0    0    0  0.23280010583E+02  0.12471794445E+02  0.16746987059E+02  0.93727550064E+02  0.88356592940E+02 0.  0.
         13    1    3    3    0    0  0.13865131418E+02  0.37176534216E+02  0.41567038920E+02  0.57464479935E+02  0.10566000000E+00 0. -1.
         22    1    1    0    0    0 -0.23280010583E+02 -0.12471794445E+02 -0.16746987059E+02  0.31272449936E+02  0.00000000000E+00 0. -1.
</event>
<event>
 5    1  0.1285346E-004  0.9118800E+02  0.7818608E-02  0.1130116E+00
         25   -1    0    0    0    0  0.00000000000E+00  0.00000000000E+00  0.99999998245E-14  0.12500000000E+03  0.12500000000E+03 0.  0.
        -13    1    3    3    0    0 -0.32815548845E+02 -0.15862477115E+02 -0.46374327733E+02  0.58983623684E+02  0.10566000000E+00 0.  1.
         23    2    1    0    0    0 -0.20950220856E+02 -0.14419661165E+02 -0.93284326661E+01  0.97910185715E+02  0.94087971754E+02 0.  0.
         13    1    3    3    0    0  0.11865327989E+02  0.14428159507E+01  0.37045895067E+02  0.38926562030E+02  0.10566000000E+00 0. -1.
         22    1    1    0    0    0  0.20950220856E+02  0.14419661165E+02  0.93284326661E+01  0.27089814285E+02  0.00000000000E+00 0.  1.
</event>
<event>
 5    1  0.1285346E-004  0.9118800E+02  0.7818608E-02  0.1130116E+00
         25   -1    0    0    0    0  0.00000000000E+00  0.00000000000E+00  0.99999998245E-14  0.12500000000E+03  0.12500000000E+03 0.  0.
        -13    1    3    3    0    0  0.32755144016E+02  0.21287572997E+02  0.10937048576E+02  0.40567110067E+02  0.10566000000E+00 0. -1.
         23    2    1    0    0    0 -0.14725365390E+02 -0.61935437859E+01  0.23248917405E+02  0.96791693936E+02  0.92590083076E+02 0.  0.
         13    1    3    3    0    0 -0.47480509406E+02 -0.27481116783E+02  0.12311868830E+02  0.56224583869E+02  0.10566000000E+00 0.  1.
         22    1    1    0    0    0  0.14725365390E+02  0.61935437859E+01 -0.23248917405E+02  0.28208306064E+02  0.00000000000E+00 0.  1.
</event>
<event>
 5    1  0.1285346E-004  0.9118800E+02  0.7818608E-02  0.1130116E+00
         25   -1    0    0    0    0  0.00000000000E+00  0.00000000000E+00  0.99999998245E-14  0.12500000000E+03  0.12500000000E+03 0.  0.
        -13    1    3    3    0    0 -0.12300510134E+02 -0.33906596735E+02 -0.19568831241E+02  0.41035474554E+02  0.10566000000E+00 0.  1.
         23    2    1    0    0    0 -0.22656604688E+01  0.16741876228E+02 -0.26948851859E+02  0.93193330047E+02  0.87597559965E+02 0.  0.
         13    1    3    3    0    0  0.10034849665E+02  0.50648472963E+02 -0.73800206176E+01  0.52157855493E+02  0.10566000000E+00 0. -1.
         22    1    1    0    0    0  0.22656604688E+01 -0.16741876228E+02  0.26948851859E+02  0.31806669953E+02  0.00000000000E+00 0. -1.
</event>
<event>
 5    1  0.1285346E-004  0.9118800E+02  0.7818608E-02  0.1130116E+00
         25   -1    0    0    0    0  0.00000000000E+00  0.00000000000E+00  0.99999998245E-14  0.12500000000E+03  0.12500000000E+03 0.  0.
        -13    1    3    3    0    0  0.32765077698E+02  0.86018321514E+01  0.17919632879E+02  0.38323181489E+02  0.10566000000E+00 0.  1.
         23    2    1    0    0    0 -0.22222770407E+02  0.18520334692E+02  0.59749203077E+01  0.95460975061E+02  0.90775788431E+02 0.  0.
         13    1    3    3    0    0 -0.54987848105E+02  0.99185025408E+01 -0.11944712571E+02  0.57137793572E+02  0.10566000000E+00 0. -1.
         22    1    1    0    0    0  0.22222770407E+02 -0.18520334692E+02 -0.59749203077E+01  0.29539024939E+02  0.00000000000E+00 0. -1.
</event>
<event>
 5    1  0.1285346E-004  0.9118800E+02  0.7818608E-02  0.1130116E+00
         25   -1    0    0    0    0  0.00000000000E+00  0.00000000000E+00  0.99999998245E-14  0.12500000000E+03  0.12500000000E+03 0.  0.
        -13    1    3    3    0    0  0.35117432377E+02 -0.14644558208E+02  0.48621170345E+02  0.61739181332E+02  0.10566000000E+00 0.  1.
         23    2    1    0    0    0  0.94103956849E+01 -0.10464146686E+02  0.13199789081E+02  0.10570522494E+03  0.10392933289E+03 0.  0.
         13    1    3    3    0    0 -0.25707036692E+02  0.41804115222E+01 -0.35421381263E+02  0.43966043609E+02  0.10566000000E+00 0. -1.
         22    1    1    0    0    0 -0.94103956849E+01  0.10464146686E+02 -0.13199789081E+02  0.19294775059E+02  0.00000000000E+00 0.  1.
</event>
<event>
 5    1  0.1285346E-004  0.9118800E+02  0.7818608E-02  0.1130116E+00
         25   -1    0    0    0    0  0.00000000000E+00  0.00000000000E+00  0.99999998245E-14  0.12500000000E+03  0.12500000000E+03 0.  0.
        -13    1    3    3    0    0 -0.51868298821E+02  0.22212816916E+01 -0.27468659054E+02  0.58734937722E+02  0.10566000000E+00 0.  1.
         23    2    1    0    0    0 -0.18515029139E+02 -0.90772095511E+01 -0.22800389173E+02  0.94258175336E+02  0.89104117940E+02 0.  0.
         13    1    3    3    0    0  0.33353269682E+02 -0.11298491243E+02  0.46682698810E+01  0.35523237614E+02  0.10566000000E+00 0. -1.
         22    1    1    0    0    0  0.18515029139E+02  0.90772095511E+01  0.22800389173E+02  0.30741824664E+02  0.00000000000E+00 0.  1.
</event>
<event>
 5    1  0.1285346E-004  0.9118800E+02  0.7818608E-02  0.1130116E+00
         25   -1    0    0    0    0  0.00000000000E+00  0.00000000000E+00  0.99999998245E-14  0.12500000000E+03  0.12500000000E+03 0.  0.
        -13    1    3    3    0    0 -0.10501846022E+02 -0.37180956853E+02  0.17977685698E+02  0.42613620703E+02  0.10566000000E+00 0.  1.
         23    2    1    0    0    0  0.20530059535E+02  0.45623995264E+01  0.21725245261E+02  0.94762852059E+02  0.89809314744E+02 0.  0.
         13    1    3    3    0    0  0.31031905557E+02  0.41743356379E+02  0.37475595623E+01  0.52149231356E+02  0.10566000000E+00 0. -1.
         22    1    1    0    0    0 -0.20530059535E+02 -0.45623995264E+01 -0.21725245261E+02  0.30237147941E+02  0.00000000000E+00 0. -1.
</event>
<event>
 5    1  0.1285346E-004  0.9118800E+02  0.7818608E-02  0.1130116E+00
         25   -1    0    0    0    0  0.00000000000E+00  0.00000000000E+00  0.99999998245E-14  0.12500000000E+03  0.12500000000E+03 0.  0.
        -13    1    3    3    0    0 -0.21614709548E+02  0.25973282333E+02 -0.30307928659E+02  0.45391505457E+02  0.10566000000E+00 0. -1.
         23    2    1    0    0    0  0.23119629592E+02  0.14947175807E+02 -0.11957936302E+02  0.94984544353E+02  0.90117346212E+02 0.  0.
         13    1    3    3    0    0  0.44734339140E+02 -0.11026106526E+02  0.18349992357E+02  0.49593038896E+02  0.10566000000E+00 0.  1.
         22    1    1    0    0    0 -0.23119629592E+02 -0.14947175807E+02  0.11957936302E+02  0.30015455647E+02  0.00000000000E+00 0. -1.
</event>
<event>
 5    1  0.1285346E-004  0.9118800E+02  0.7818608E-02  0.1130116E+00
         25   -1    0    0    0    0  0.00000000000E+00  0.00000000000E+00  0.99999998245E-14  0.12500000000E+03  0.12500000000E+03 0.  0.
        -13    1    3    3    0    0 -0.39816781429E+02 -0.10606588241E+02  0.21859432217E+01  0.41263365220E+02  0.10566000000E+00 0.  1.
         23    2    1    0    0    0  0.13424479645E+02 -0.22018311425E+02 -0.10473530414E+02  0.97166251939E+02  0.93094376762E+02 0.  0.
         13    1    3    3    0    0  0.53241261074E+02 -0.11411723184E+02 -0.12659473636E+02  0.55902886719E+02  0.10566000000E+00 0. -1.
         22    1    1    0    0    0 -0.13424479645E+02  0.22018311425E+02  0.10473530414E+02  0.27833748061E+02  0.00000000000E+00 0. -1.
</event>
<event>
 5    1  0.1285346E-004  0.9118800E+02  0.7818608E-02  0.1130116E+00
         25   -1    0    0    0    0  0.00000000000E+00  0.00000000000E+00  0.99999998245E-14  0.12500000000E+03  0.12500000000E+03 0.  0.
        -13    1    3    3    0    0  0.14555389894E+02 -0.39400405677E+02 -0.13315685073E+02  0.44063249716E+02  0.10566000000E+00 0.  1.
         23    2    1    0    0    0 -0.11011107560E+02  0.60240489721E+01 -0.24588359927E+02  0.97393459116E+02  0.93398954913E+02 0.  0.
         13    1    3    3    0    0 -0.25566497454E+02  0.45424454649E+02 -0.11272674854E+02  0.53330209400E+02  0.10566000000E+00 0. -1.
         22    1    1    0    0    0  0.11011107560E+02 -0.60240489721E+01  0.24588359927E+02  0.27606540884E+02  0.00000000000E+00 0. -1.
</event>
<event>
 5    1  0.1285346E-004  0.9118800E+02  0.7818608E-02  0.1130116E+00
         25   -1    0    0    0    0  0.00000000000E+00  0.00000000000E+00  0.99999998245E-14  0.12500000000E+03  0.12500000000E+03 0.  0.
        -13    1    3    3    0    0  0.67768266730E+01 -0.26370317851E+02 -0.21200276128E+02  0.34507708056E+02  0.10566000000E+00 0. -1.
         23    2    1    0    0    0  0.47733802341E+01  0.70897015884E+01  0.28942067824E+02  0.94822320875E+02  0.89892047583E+02 0.  0.
         13    1    3    3    0    0 -0.20034464388E+01  0.33460019439E+02  0.50142343952E+02  0.60314612819E+02  0.10566000000E+00 0.  1.
         22    1    1    0    0    0 -0.47733802341E+01 -0.70897015884E+01 -0.28942067824E+02  0.30177679125E+02  0.00000000000E+00 0.  1.
</event>
<event>
 5    1  0.1285346E-004  0.9118800E+02  0.7818608E-02  0.1130116E+00
         25   -1    0    0    0    0  0.00000000000E+00  0.00000000000E+00  0.99999998245E-14  0.12500000000E+03  0.12500000000E+03 0.  0.
        -13    1    3    3    0    0  0.37721044514E+02  0.32182496266E+02 -0.14754325648E+02  0.51732886586E+02  0.10566000000E+00 0. -1.
         23    2    1    0    0    0 -0.92979728799E+00  0.24806546667E+02 -0.22103218023E+02  0.91761746022E+02  0.85530325063E+02 0.  0.
         13    1    3    3    0    0 -0.38650841802E+02 -0.73759495990E+01 -0.73488923749E+01  0.40028859435E+02  0.10566000000E+00 0.  1.
         22    1    1    0    0    0  0.92979728799E+00 -0.24806546667E+02  0.22103218023E+02  0.33238253978E+02  0.00000000000E+00 0.  1.
</event>
<event>
 5    1  0.1285346E-004  0.9118800E+02  0.7818608E-02  0.1130116E+00
         25   -1    0    0    0    0  0.00000000000E+00  0.00000000000E+00  0.99999998245E-14  0.12500000000E+03  0.12500000000E+03 0.  0.
        -13    1    3    3    0    0 -0.23053752951E+02  0.22628341154E+02 -0.13808130905E+02  0.35131082984E+02  0.10566000000E+00 0. -1.
         23    2    1    0    0    0  0.23144885242E+02 -0.15648507700E+02 -0.10280460285E+02  0.95230059291E+02  0.90457254120E+02 0.  0.
         13    1    3    3    0    0  0.46198638193E+02 -0.38276848855E+02  0.35276706195E+01  0.60098976307E+02  0.10566000000E+00 0.  1.
         22    1    1    0    0    0 -0.23144885242E+02  0.15648507700E+02  0.10280460285E+02  0.29769940709E+02  0.00000000000E+00 0.  1.
</event>
<event>
 5    1  0.1285346E-004  0.9118800E+02  0.7818608E-02  0.1130116E+00
         25   -1    0    0    0    0  0.00000000000E+00  0.00000000000E+00  0.99999998245E-14  0.12500000000E+03  0.12500000000E+03 0.  0.
        -13    1    3    3    0    0  0.16725368403E+02 -0.47063717712E+02 -0.32368458339E+02  0.59518566283E+02  0.10566000000E+00 0. -1.
         23    2    1    0    0    0  0.12846944683E+02 -0.11056357337E+02 -0.22074451670E+02  0.97168930280E+02  0.93097972963E+02 0.  0.
         13    1    3    3    0    0 -0.38784237199E+01  0.36007360375E+02  0.10294006669E+02  0.37650363997E+02  0.10566000000E+00 0.  1.
         22    1    1    0    0    0 -0.12846944683E+02  0.11056357337E+02  0.22074451670E+02  0.27831069720E+02  0.00000000000E+00 0. -1.
</event>
<event>
 5    1  0.1285346E-004  0.9118800E+02  0.7818608E-02  0.1130116E+00
         25   -1    0    0    0    0  0.00000000000E+00  0.00000000000E+00  0.99999998245E-14  0.12500000000E+03  0.12500000000E+03 0.  0.
        -13    1    3    3    0    0  0.37838354298E+02  0.29738465864E+02 -0.14419198135E+02  0.50239843221E+02  0.10566000000E+00 0.  1.
         23    2    1    0    0    0  0.14976957923E+02 -0.75783911275E+01 -0.24645229101E+02  0.95181740525E+02  0.90390459293E+02 0.  0.
         13    1    3    3    0    0 -0.22861396376E+02 -0.37316856991E+02 -0.10226030966E+02  0.44941897304E+02  0.10566000000E+00 0. -1.
         22    1    1    0    0    0 -0.14976957923E+02  0.75783911275E+01  0.24645229101E+02  0.29818259475E+02  0.00000000000E+00 0. -1.
</event>
<event>
 5    1  0.1285346E-004  0.9118800E+02  0.7818608E-02  0.1130116E+00
         25   -1    0    0    0    0  0.00000000000E+00  0.00000000000E+00  0.99999998245E-14  0.12500000000E+03  0.12500000000E+03 0.  0.
        -13    1    3    3    0    0  0.49302141052E+02  0.86909785148E+01 -0.29115138807E+02  0.57913182365E+02  0.10566000000E+00 0. -1.
         23    2    1    0    0    0  0.12929156248E+02  0.16460823549E+02 -0.19645299531E+02  0.96293561927E+02  0.91915126512E+02 0.  0.
         13    1    3    3    0    0 -0.36372984804E+02  0.77698450339E+01  0.94698392761E+01  0.38380379562E+02  0.10566000000E+00 0.  1.
         22    1    1    0    0    0 -0.12929156248E+02 -0.16460823549E+02  0.19645299531E+02  0.28706438073E+02  0.00000000000E+00 0. -1.
</event>
<event>
 5    1  0.1285346E-004  0.9118800E+02  0.7818608E-02  0.1130116E+00
         25   -1    0    0    0    0  0.00000000000E+00  0.00000000000E+00  0.99999998245E-14  0.12500000000E+03  0.12500000000E+03 0.  0.
        -13    1    3    3    0    0 -0.23797867905E+02 -0.44337632667E+02 -0.31834520707E+02  0.59545042279E+02  0.10566000000E+00 0.  1.
         23    2    1    0    0    0 -0.67332898012E+01 -0.14831194982E+02 -0.26281862624E+02  0.94080138436E+02  0.88854007276E+02 0.  0.
         13    1    3    3    0    0  0.17064578104E+02  0.29506437685E+02  0.55526580828E+01  0.34535096157E+02  0.10566000000E+00 0. -1.
         22    1    1    0    0    0  0.67332898012E+01  0.14831194982E+02  0.26281862624E+02  0.30919861564E+02  0.00000000000E+00 0.  1.
</event>
<event>
 5    1  0.1285346E-004  0.9118800E+02  0.7818608E-02  0.1130116E+00
         25   -1    0    0    0    0  0.00000000000E+00  0.00000000000E+00  0.99999998245E-14  0.12500000000E+03  0.12500000000E+03 0.  0.
        -13    1    3    3    0    0  0.49453311584E+02 -0.28256625913E+02  0.14244301554E+02  0.58710971934E+02  0.10566000000E+00 0. -1.
         23    2    1    0    0    0  0.20160846807E+02 -0.88551716966E+01  0.21093244835E+02  0.94507397824E+02  0.89453057276E+02 0.  0.
         13    1    3    3    0    0 -0.29292464777E+02  0.19401454216E+02  0.68489432816E+01  0.35796425890E+02  0.10566000000E+00 0.  1.
         22    1    1    0    0    0 -0.20160846807E+02  0.88551716966E+01 -0.21093244835E+02  0.30492602176E+02  0.00000000000E+00 0. -1.
</event>
<event>
 5    1  0.1285346E-004  0.9118800E+02  0.7818608E-02  0.1130116E+00
         25   -1    0    0    0    0  0.00000000000E+00  0.00000000000E+00  0.99999998245E-14  0.12500000000E+03  0.12500000000E+03 0.  0.
        -13    1    3    3    0    0  0.65065886773E+01 -0.23019420659E+01  0.60561960566E+02  0.60954055362E+02  0.10566000000E+00 0.  1.
         23    2    1    0    0    0 -0.49895072398E+01 -0.62173468219E+01  0.32595821776E+02  0.91443507614E+02  0.85063957722E+02 0.  0.
         13    1    3    3    0    0 -0.11496095917E+02 -0.39154047559E+01 -0.27966138790E+02  0.30489452251E+02  0.10566000000E+00 0. -1.
         22    1    1    0    0    0  0.49895072398E+01  0.62173468219E+01 -0.32595821776E+02  0.33556492386E+02  0.00000000000E+00 0.  1.
</event>
<event>
 5    1  0.1285346E-004  0.9118800E+02  0.7818608E-02  0.1130116E+00
         25   -1    0    0    0    0  0.00000000000E+00  0.00000000000E+00  0.99999998245E-14  0.12500000000E+03  0.12500000000E+03 0.  0.
        -13    1    3    3    0    0  0.29583069551E+01  0.45916110718E+02  0.30250383034E+01  0.46110766902E+02  0.10566000000E+00 0.  1.
         23    2    1    0    0    0 -0.14383154889E+02  0.63516273341E+01  0.25679761337E+02  0.94889064168E+02  0.89984810062E+02 0.  0.
         13    1    3    3    0    0 -0.17341461844E+02 -0.39564483384E+02  0.22654723034E+02  0.48778297266E+02  0.10566000000E+00 0. -1.
         22    1    1    0    0    0  0.14383154889E+02 -0.63516273341E+01 -0.25679761337E+02  0.30110935832E+02  0.00000000000E+00 0. -1.
</event>
<event>
 5    1  0.1285346E-004  0.9118800E+02  0.7818608E-02  0.1130116E+00
         25   -1    0    0    0    0  0.00000000000E+00  0.00000000000E+00  0.99999998245E-14  0.12500000000E+03  0.12500000000E+03 0.  0.
        -13    1    3    3    0    0 -0.13594376556E+01 -0.31531912945E+01 -0.36072719534E+02  0.36235934439E+02  0.10566000000E+00 0.  1.
         23    2    1    0    0    0 -0.20454134579E+02 -0.95301371007E+01  0.19395615371E+02  0.95244579819E+02  0.90477317349E+02 0.  0.
         13    1    3    3    0    0 -0.19094696924E+02 -0.63769458063E+01  0.55468334905E+02  0.59008645380E+02  0.10566000000E+00 0. -1.
         22    1    1    0    0    0  0.20454134579E+02  0.95301371007E+01 -0.19395615371E+02  0.29755420181E+02  0.00000000000E+00 0. -1.
</event>
<event>
 5    1  0.1285346E-004  0.9118800E+02  0.7818608E-02  0.1130116E+00
         25   -1    0    0    0    0  0.00000000000E+00  0.00000000000E+00  0.99999998245E-14  0.12500000000E+03  0.12500000000E+03 0.  0.
        -13    1    3    3    0    0 -0.48029560437E+02 -0.89414668703E+01  0.32665585432E+02  0.58769380984E+02  0.10566000000E+00 0.  1.
         23    2    1    0    0    0 -0.16345556337E+02  0.72622272074E+01  0.23407460311E+02  0.95541107384E+02  0.90886065191E+02 0.  0.
         13    1    3    3    0    0  0.31684004101E+02  0.16203694078E+02 -0.92581251213E+01  0.36771726400E+02  0.10566000000E+00 0. -1.
         22    1    1    0    0    0  0.16345556337E+02 -0.72622272074E+01 -0.23407460311E+02  0.29458892616E+02  0.00000000000E+00 0.  1.
</event>
<event>
 5    1  0.1285346E-004  0.9118800E+02  0.7818608E-02  0.1130116E+00
         25   -1    0    0    0    0  0.00000000000E+00  0.00000000000E+00  0.99999998245E-14  0.12500000000E+03  0.12500000000E+03 0.  0.
        -13    1    3    3    0    0 -0.24433248413E+02 -0.21255557873E+02 -0.48243751634E+02  0.58105534197E+02  0.10566000000E+00 0.  1.
         23    2    1    0    0    0 -0.78738264506E+01  0.53120582647E+01 -0.28114322608E+02  0.95324585231E+02  0.90587782332E+02 0.  0.
         13    1    3    3    0    0  0.16559421962E+02  0.26567616137E+02  0.20129429027E+02  0.37219051035E+02  0.10566000000E+00 0. -1.
         22    1    1    0    0    0  0.78738264506E+01 -0.53120582647E+01  0.28114322608E+02  0.29675414769E+02  0.00000000000E+00 0.  1.
</event>
<event>
 5    1  0.1285346E-004  0.9118800E+02  0.7818608E-02  0.1130116E+00
         25   -1    0    0    0    0  0.00000000000E+00  0.00000000000E+00  0.99999998245E-14  0.12500000000E+03  0.12500000000E+03 0.  0.
        -13    1    3    3    0    0 -0.30616433422E+02  0.35509922145E+02  0.15243481446E+02  0.49302083697E+02  0.10566000000E+00 0. -1.
         23    2    1    0    0    0 -0.29514196958E+02 -0.74597405276E+01  0.11534500445E+02  0.92445733746E+02  0.86524178335E+02 0.  0.
         13    1    3    3    0    0  0.11022364639E+01 -0.42969662673E+02 -0.37089810010E+01  0.43143650049E+02  0.10566000000E+00 0.  1.
         22    1    1    0    0    0  0.29514196958E+02  0.74597405276E+01 -0.11534500445E+02  0.32554266254E+02  0.00000000000E+00 0. -1.
</event>
<event>
 5    1  0.1285346E-004  0.9118800E+02  0.7818608E-02  0.1130116E+00
         25   -1    0    0    0    0  0.00000000000E+00  0.00000000000E+00  0.99999998245E-14  0.12500000000E+03  0.12500000000E+03 0.  0.
        -13    1    3    3    0    0 -0.18683773189E+02  0.96075800061E+00 -0.36808520523E+02  0.41290250467E+02  0.10566000000E+00 0.  1.
         23    2    1    0    0    0  0.11232793052E+02  0.26504948886E+02  0.14655358277E+01  0.96175778406E+02  0.91754806967E+02 0.  0.
         13    1    3    3    0    0  0.29916566242E+02  0.25544190885E+02  0.38274056350E+02  0.54885527940E+02  0.10566000000E+00 0. -1.
         22    1    1    0    0    0 -0.11232793052E+02 -0.26504948886E+02 -0.14655358277E+01  0.28824221594E+02  0.00000000000E+00 0. -1.
</event>
<event>
 5    1  0.1285346E-004  0.9118800E+02  0.7818608E-02  0.1130116E+00
         25   -1    0    0    0    0  0.00000000000E+00  0.00000000000E+00  0.99999998245E-14  0.12500000000E+03  0.12500000000E+03 0.  0.
        -13    1    3    3    0    0  0.24317146164E+01 -0.36288946614E+02 -0.48843526312E+02  0.60897472106E+02  0.10566000000E+00 0.  1.
         23    2    1    0    0    0  0.91695657957E+01 -0.20928418269E+02 -0.18371029104E+02  0.95681501770E+02  0.91078951699E+02 0.  0.
         13    1    3    3    0    0  0.67378511793E+01  0.15360528345E+02  0.30472497208E+02  0.34784029664E+02  0.10566000000E+00 0. -1.
         22    1    1    0    0    0 -0.91695657957E+01  0.20928418269E+02  0.18371029104E+02  0.29318498230E+02  0.00000000000E+00 0.  1.
</event>
<event>
 5    1  0.1285346E-004  0.9118800E+02  0.7818608E-02  0.1130116E+00
         25   -1    0    0    0    0  0.00000000000E+00  0.00000000000E+00  0.99999998245E-14  0.12500000000E+03  0.12500000000E+03 0.  0.
        -13    1    3    3    0    0  0.56463632162E+02  0.21899317850E+02 -0.71106489403E+01  0.60977818685E+02  0.10566000000E+00 0. -1.
         23    2    1    0    0    0  0.26363246896E+02  0.69829166548E+01 -0.12497038800E+02  0.95000701830E+02  0.90139755144E+02 0.  0.
         13    1    3    3    0    0 -0.30100385265E+02 -0.14916401195E+02 -0.53863898600E+01  0.34022883145E+02  0.10566000000E+00 0.  1.
         22    1    1    0    0    0 -0.26363246896E+02 -0.69829166548E+01  0.12497038800E+02  0.29999298170E+02  0.00000000000E+00 0. -1.
</event>
<event>
 5    1  0.1285346E-004  0.9118800E+02  0.7818608E-02  0.1130116E+00
         25   -1    0    0    0    0  0.00000000000E+00  0.00000000000E+00  0.99999998245E-14  0.12500000000E+03  0.12500000000E+03 0.  0.
        -13    1    3    3    0    0  0.34702869166E+02  0.96222429084E+01 -0.49923563532E+01  0.36356725278E+02  0.10566000000E+00 0. -1.
         23    2    1    0    0    0 -0.23443894687E+02  0.87894071072E+01 -0.15644051064E+02  0.95477022354E+02  0.90797883171E+02 0.  0.
         13    1    3    3    0    0 -0.58146763853E+02 -0.83283580119E+00 -0.10651694711E+02  0.59120297076E+02  0.10566000000E+00 0.  1.
         22    1    1    0    0    0  0.23443894687E+02 -0.87894071072E+01  0.15644051064E+02  0.29522977646E+02  0.00000000000E+00 0.  1.
</event>
<event>
 5    1  0.1285346E-004  0.9118800E+02  0.7818608E-02  0.1130116E+00
         25   -1    0    0    0    0  0.00000000000E+00  0.00000000000E+00  0.99999998245E-14  0.12500000000E+03  0.12500000000E+03 0.  0.
        -13    1    3    3    0    0 -0.37273379056E+02 -0.31412208517E+02 -0.18143654609E+02  0.52011873614E+02  0.10566000000E+00 0.  1.
         23    2    1    0    0    0 -0.32663855794E+02 -0.36436910202E+02  0.46892449728E+01  0.75841430871E+02  0.57752555940E+02 0.  0.
         13    1    3    3    0    0  0.46095232618E+01 -0.50247016847E+01  0.22832899582E+02  0.23829557257E+02  0.10566000000E+00 0. -1.
         22    1    1    0    0    0  0.32663855794E+02  0.36436910202E+02 -0.46892449728E+01  0.49158569129E+02  0.00000000000E+00 0.  1.
</event>
<event>
 5    1  0.1285346E-004  0.9118800E+02  0.7818608E-02  0.1130116E+00
         25   -1    0    0    0    0  0.00000000000E+00  0.00000000000E+00  0.99999998245E-14  0.12500000000E+03  0.12500000000E+03 0.  0.
        -13    1    3    3    0    0  0.32975730962E+02  0.21145351103E+02 -0.30521727455E+02  0.49659960900E+02  0.10566000000E+00 0. -1.
         23    2    1    0    0    0  0.56666803242E+01  0.29497378689E+02  0.42590579111E+01  0.94662791992E+02  0.89669939210E+02 0.  0.
         13    1    3    3    0    0 -0.27309050638E+02  0.83520275866E+01  0.34780785366E+02  0.45002831092E+02  0.10566000000E+00 0.  1.
         22    1    1    0    0    0 -0.56666803242E+01 -0.29497378689E+02 -0.42590579111E+01  0.30337208008E+02  0.00000000000E+00 0. -1.
</event>
<event>
 5    1  0.1285346E-004  0.9118800E+02  0.7818608E-02  0.1130116E+00
         25   -1    0    0    0    0  0.00000000000E+00  0.00000000000E+00  0.99999998245E-14  0.12500000000E+03  0.12500000000E+03 0.  0.
        -13    1    3    3    0    0  0.45860277998E+02 -0.16880928229E+02 -0.32648299449E+00  0.48869710364E+02  0.10566000000E+00 0. -1.
         23    2    1    0    0    0  0.17395337820E+02  0.16040761836E+02  0.17157735369E+02  0.95771731130E+02  0.91202701618E+02 0.  0.
         13    1    3    3    0    0 -0.28464940178E+02  0.32921690065E+02  0.17484218363E+02  0.46902020766E+02  0.10566000000E+00 0.  1.
         22    1    1    0    0    0 -0.17395337820E+02 -0.16040761836E+02 -0.17157735369E+02  0.29228268870E+02  0.00000000000E+00 0. -1.
</event>
<event>
 5    1  0.1285346E-004  0.9118800E+02  0.7818608E-02  0.1130116E+00
         25   -1    0    0    0    0  0.00000000000E+00  0.00000000000E+00  0.99999998245E-14  0.12500000000E+03  0.12500000000E+03 0.  0.
        -13    1    3    3    0    0  0.48543725993E+02  0.30491200998E+01 -0.15626362182E+02  0.51088010587E+02  0.10566000000E+00 0.  1.
         23    2    1    0    0    0  0.77851545251E+01  0.16597060464E+02 -0.23950755557E+02  0.94838605158E+02  0.89914688953E+02 0.  0.
         13    1    3    3    0    0 -0.40758571468E+02  0.13547940365E+02 -0.83243933752E+01  0.43750594571E+02  0.10566000000E+00 0. -1.
         22    1    1    0    0    0 -0.77851545251E+01 -0.16597060464E+02  0.23950755557E+02  0.30161394842E+02  0.00000000000E+00 0.  1.
</event>
<event>
 5    1  0.1285346E-004  0.9118800E+02  0.7818608E-02  0.1130116E+00
         25   -1    0    0    0    0  0.00000000000E+00  0.00000000000E+00  0.99999998245E-14  0.12500000000E+03  0.12500000000E+03 0.  0.
        -13    1    3    3    0    0  0.18576864953E+02 -0.22074852277E+02 -0.38308223830E+02  0.47957587424E+02  0.10566000000E+00 0. -1.
         23    2    1    0    0    0  0.12962196574E+01  0.19380384050E+02 -0.21784482802E+02  0.95813647671E+02  0.91260133234E+02 0.  0.
         13    1    3    3    0    0 -0.17280645296E+02  0.41455236327E+02  0.16523741028E+02  0.47856060247E+02  0.10566000000E+00 0.  1.
         22    1    1    0    0    0 -0.12962196574E+01 -0.19380384050E+02  0.21784482802E+02  0.29186352329E+02  0.00000000000E+00 0. -1.
</event>
<event>
 5    1  0.1285346E-004  0.9118800E+02  0.7818608E-02  0.1130116E+00
         25   -1    0    0    0    0  0.00000000000E+00  0.00000000000E+00  0.99999998245E-14  0.12500000000E+03  0.12500000000E+03 0.  0.
        -13    1    3    3    0    0  0.41885844532E+02  0.14983251894E+02  0.30751738999E+02  0.54079593425E+02  0.10566000000E+00 0.  1.
         23    2    1    0    0    0  0.42399592892E+01 -0.10946296611E+01  0.29648315401E+02  0.95030047131E+02  0.90180440134E+02 0.  0.
         13    1    3    3    0    0 -0.37645885243E+02 -0.16077881555E+02 -0.11034235982E+01  0.40950453706E+02  0.10566000000E+00 0. -1.
         22    1    1    0    0    0 -0.42399592892E+01  0.10946296611E+01 -0.29648315401E+02  0.29969952869E+02  0.00000000000E+00 0.  1.
</event>
<event>
 5    1  0.1285346E-004  0.9118800E+02  0.7818608E-02  0.1130116E+00
         25   -1    0    0    0    0  0.00000000000E+00  0.00000000000E+00  0.99999998245E-14  0.12500000000E+03  0.12500000000E+03 0.  0.
        -13    1    3    3    0    0  0.19660650653E+02  0.38883970573E+02 -0.36075123313E+02  0.56567924107E+02  0.10566000000E+00 0. -1.
         23    2    1    0    0    0  0.21920042671E+02  0.19912401820E+02 -0.23957404290E+01  0.95289200800E+02  0.90538943002E+02 0.  0.
         13    1    3    3    0    0  0.22593920176E+01 -0.18971568753E+02  0.33679382884E+02  0.38721276693E+02  0.10566000000E+00 0.  1.
         22    1    1    0    0    0 -0.21920042671E+02 -0.19912401820E+02  0.23957404290E+01  0.29710799200E+02  0.00000000000E+00 0. -1.
</event>
<event>
 5    1  0.1285346E-004  0.9118800E+02  0.7818608E-02  0.1130116E+00
         25   -1    0    0    0    0  0.00000000000E+00  0.00000000000E+00  0.99999998245E-14  0.12500000000E+03  0.12500000000E+03 0.  0.
        -13    1    3    3    0    0 -0.49343088025E+02  0.15890819466E+02 -0.22754790826E+02  0.56613162328E+02  0.10566000000E+00 0. -1.
         23    2    1    0    0    0 -0.18502665691E+02  0.43683350285E+01 -0.29195700670E+02  0.90160081426E+02  0.83156601401E+02 0.  0.
         13    1    3    3    0    0  0.30840422334E+02 -0.11522484438E+02 -0.64409098435E+01  0.33546919098E+02  0.10566000000E+00 0.  1.
         22    1    1    0    0    0  0.18502665691E+02 -0.43683350285E+01  0.29195700670E+02  0.34839918574E+02  0.00000000000E+00 0.  1.
</event>
<event>
 5    1  0.1285346E-004  0.9118800E+02  0.7818608E-02  0.1130116E+00
         25   -1    0    0    0    0  0.00000000000E+00  0.00000000000E+00  0.99999998245E-14  0.12500000000E+03  0.12500000000E+03 0.  0.
        -13    1    3    3    0    0  0.46072718765E+01 -0.38842805004E+02 -0.31418424618E+02  0.50170898181E+02  0.10566000000E+00 0.  1.
         23    2    1    0    0    0 -0.24546432105E+02 -0.12690802254E+02 -0.64288815376E+01  0.96628988231E+02  0.92370163245E+02 0.  0.
         13    1    3    3    0    0 -0.29153703982E+02  0.26152002750E+02  0.24989543081E+02  0.46458090050E+02  0.10566000000E+00 0. -1.
         22    1    1    0    0    0  0.24546432105E+02  0.12690802254E+02  0.64288815376E+01  0.28371011769E+02  0.00000000000E+00 0.  1.
</event>
<event>
 5    1  0.1285346E-004  0.9118800E+02  0.7818608E-02  0.1130116E+00
         25   -1    0    0    0    0  0.00000000000E+00  0.00000000000E+00  0.99999998245E-14  0.12500000000E+03  0.12500000000E+03 0.  0.
        -13    1    3    3    0    0 -0.38332334339E+02  0.23560611786E+02 -0.23227829715E+02  0.50636089116E+02  0.10566000000E+00 0. -1.
         23    2    1    0    0    0 -0.24926508362E+02 -0.63535424031E+00  0.13523434766E+02  0.96634214589E+02  0.92377235547E+02 0.  0.
         13    1    3    3    0    0  0.13405825978E+02 -0.24195966027E+02  0.36751264480E+02  0.45998125473E+02  0.10566000000E+00 0.  1.
         22    1    1    0    0    0  0.24926508362E+02  0.63535424031E+00 -0.13523434766E+02  0.28365785411E+02  0.00000000000E+00 0.  1.
</event>
<event>
 5    1  0.1285346E-004  0.9118800E+02  0.7818608E-02  0.1130116E+00
         25   -1    0    0    0    0  0.00000000000E+00  0.00000000000E+00  0.99999998245E-14  0.12500000000E+03  0.12500000000E+03 0.  0.
        -13    1    3    3    0    0  0.32148411090E+02 -0.33548723684E+02  0.21619190097E+02  0.51248782824E+02  0.10566000000E+00 0.  1.
         23    2    1    0    0    0  0.27128552045E+02  0.76901569124E+01  0.34477663856E+01  0.96592537205E+02  0.92320822685E+02 0.  0.
         13    1    3    3    0    0 -0.50198590450E+01  0.41238880596E+02 -0.18171423711E+02  0.45343754381E+02  0.10566000000E+00 0. -1.
         22    1    1    0    0    0 -0.27128552045E+02 -0.76901569124E+01 -0.34477663856E+01  0.28407462795E+02  0.00000000000E+00 0.  1.
</event>
<event>
 5    1  0.1285346E-004  0.9118800E+02  0.7818608E-02  0.1130116E+00
         25   -1    0    0    0    0  0.00000000000E+00  0.00000000000E+00  0.99999998245E-14  0.12500000000E+03  0.12500000000E+03 0.  0.
        -13    1    3    3    0    0 -0.16114696468E+01  0.41088221354E+02 -0.45939583205E+02  0.61654644898E+02  0.10566000000E+00 0. -1.
         23    2    1    0    0    0  0.43525910700E+01  0.15684281559E+02 -0.25259082718E+02  0.94950657298E+02  0.90070329880E+02 0.  0.
         13    1    3    3    0    0  0.59640607168E+01 -0.25403939794E+02  0.20680500487E+02  0.33296012400E+02  0.10566000000E+00 0.  1.
         22    1    1    0    0    0 -0.43525910700E+01 -0.15684281559E+02  0.25259082718E+02  0.30049342702E+02  0.00000000000E+00 0. -1.
</event>
<event>
 5    1  0.1285346E-004  0.9118800E+02  0.7818608E-02  0.1130116E+00
         25   -1    0    0    0    0  0.00000000000E+00  0.00000000000E+00  0.99999998245E-14  0.12500000000E+03  0.12500000000E+03 0.  0.
        -13    1    3    3    0    0  0.23646049332E+02  0.20025241730E+02  0.21803087784E+02  0.37888411900E+02  0.10566000000E+00 0. -1.
         23    2    1    0    0    0  0.25090507980E+02 -0.16552249329E+02 -0.16366727836E+02  0.90774566057E+02  0.84075213435E+02 0.  0.
         13    1    3    3    0    0  0.14444586486E+01 -0.36577491059E+02 -0.38169815620E+02  0.52886154156E+02  0.10566000000E+00 0.  1.
         22    1    1    0    0    0 -0.25090507980E+02  0.16552249329E+02  0.16366727836E+02  0.34225433943E+02  0.00000000000E+00 0.  1.
</event>
<event>
 5    1  0.1285346E-004  0.9118800E+02  0.7818608E-02  0.1130116E+00
         25   -1    0    0    0    0  0.00000000000E+00  0.00000000000E+00  0.99999998245E-14  0.12500000000E+03  0.12500000000E+03 0.  0.
        -13    1    3    3    0    0  0.52917747513E+02 -0.22941930927E+02 -0.23295223157E+02  0.62203687853E+02  0.10566000000E+00 0. -1.
         23    2    1    0    0    0  0.33526557328E+02 -0.10337247620E+02 -0.15861602140E+02  0.86497024049E+02  0.77454864356E+02 0.  0.
         13    1    3    3    0    0 -0.19391190186E+02  0.12604683307E+02  0.74336210176E+01  0.24293336196E+02  0.10566000000E+00 0.  1.
         22    1    1    0    0    0 -0.33526557328E+02  0.10337247620E+02  0.15861602140E+02  0.38502975951E+02  0.00000000000E+00 0. -1.
</event>
<event>
 5    1  0.1285346E-004  0.9118800E+02  0.7818608E-02  0.1130116E+00
         25   -1    0    0    0    0  0.00000000000E+00  0.00000000000E+00  0.99999998245E-14  0.12500000000E+03  0.12500000000E+03 0.  0.
        -13    1    3    3    0    0 -0.10845672150E+02  0.23212788039E+02  0.43273957260E+02  0.50290244322E+02  0.10566000000E+00 0. -1.
         23    2    1    0    0    0  0.97998644967E+01 -0.14719005064E+02  0.13670513918E+02  0.10264895070E+03  0.10018601536E+03 0.  0.
         13    1    3    3    0    0  0.20645536647E+02 -0.37931793103E+02 -0.29603443342E+02  0.52358706374E+02  0.10566000000E+00 0.  1.
         22    1    1    0    0    0 -0.97998644967E+01  0.14719005064E+02 -0.13670513918E+02  0.22351049304E+02  0.00000000000E+00 0. -1.
</event>
<event>
 5    1  0.1285346E-004  0.9118800E+02  0.7818608E-02  0.1130116E+00
         25   -1    0    0    0    0  0.00000000000E+00  0.00000000000E+00  0.99999998245E-14  0.12500000000E+03  0.12500000000E+03 0.  0.
        -13    1    3    3    0    0 -0.19825707968E+01  0.18499503064E+02  0.31004800181E+02  0.36158968443E+02  0.10566000000E+00 0. -1.
         23    2    1    0    0    0 -0.10291284437E+02 -0.27653885592E+02 -0.47282118265E+01  0.95116828970E+02  0.90300649181E+02 0.  0.
         13    1    3    3    0    0 -0.83087136403E+01 -0.46153388656E+02 -0.35733012008E+02  0.58957860527E+02  0.10566000000E+00 0.  1.
         22    1    1    0    0    0  0.10291284437E+02  0.27653885592E+02  0.47282118265E+01  0.29883171030E+02  0.00000000000E+00 0.  1.
</event>
<event>
 5    1  0.1285346E-004  0.9118800E+02  0.7818608E-02  0.1130116E+00
         25   -1    0    0    0    0  0.00000000000E+00  0.00000000000E+00  0.99999998245E-14  0.12500000000E+03  0.12500000000E+03 0.  0.
        -13    1    3    3    0    0  0.26555742633E+02 -0.43320313597E+02  0.19322666346E+02  0.54362060628E+02  0.10566000000E+00 0.  1.
         23    2    1    0    0    0 -0.76531058654E+00 -0.15793879405E+02  0.26822067358E+02  0.93863917647E+02  0.88549304976E+02 0.  0.
         13    1    3    3    0    0 -0.27321053220E+02  0.27526434192E+02  0.74994010122E+01  0.39501857019E+02  0.10566000000E+00 0. -1.
         22    1    1    0    0    0  0.76531058654E+00  0.15793879405E+02 -0.26822067358E+02  0.31136082353E+02  0.00000000000E+00 0.  1.
</event>
<event>
 5    1  0.1285346E-004  0.9118800E+02  0.7818608E-02  0.1130116E+00
         25   -1    0    0    0    0  0.00000000000E+00  0.00000000000E+00  0.99999998245E-14  0.12500000000E+03  0.12500000000E+03 0.  0.
        -13    1    3    3    0    0 -0.13749519902E+02 -0.25832784269E+02 -0.96223039119E+01  0.30805550429E+02  0.10566000000E+00 0. -1.
         23    2    1    0    0    0  0.22476382773E+02  0.69503183659E+01  0.24987750347E+02  0.90679708985E+02  0.83934064874E+02 0.  0.
         13    1    3    3    0    0  0.36225902674E+02  0.32783102635E+02  0.34610054259E+02  0.59874158556E+02  0.10566000000E+00 0.  1.
         22    1    1    0    0    0 -0.22476382773E+02 -0.69503183659E+01 -0.24987750347E+02  0.34320291015E+02  0.00000000000E+00 0.  1.
</event>
<event>
 5    1  0.1285346E-004  0.9118800E+02  0.7818608E-02  0.1130116E+00
         25   -1    0    0    0    0  0.00000000000E+00  0.00000000000E+00  0.99999998245E-14  0.12500000000E+03  0.12500000000E+03 0.  0.
        -13    1    3    3    0    0  0.41787797323E+02  0.24013710687E+01 -0.37850851836E+02  0.56433011056E+02  0.10566000000E+00 0. -1.
         23    2    1    0    0    0  0.80369648937E+01 -0.13048988867E+02 -0.24928629369E+02  0.95737302288E+02  0.91155502149E+02 0.  0.
         13    1    3    3    0    0 -0.33750832429E+02 -0.15450359935E+02  0.12922222466E+02  0.39304291232E+02  0.10566000000E+00 0.  1.
         22    1    1    0    0    0 -0.80369648937E+01  0.13048988867E+02  0.24928629369E+02  0.29262697712E+02  0.00000000000E+00 0. -1.
</event>
<event>
 5    1  0.1285346E-004  0.9118800E+02  0.7818608E-02  0.1130116E+00
         25   -1    0    0    0    0  0.00000000000E+00  0.00000000000E+00  0.99999998245E-14  0.12500000000E+03  0.12500000000E+03 0.  0.
        -13    1    3    3    0    0 -0.17892979660E+01 -0.58250385089E+01 -0.39818624619E+02  0.40282337214E+02  0.10566000000E+00 0. -1.
         23    2    1    0    0    0 -0.25625699622E+02 -0.74054916722E+01  0.10774488676E+02  0.96231833665E+02  0.91831140776E+02 0.  0.
         13    1    3    3    0    0 -0.23836401656E+02 -0.15804531633E+01  0.50593113296E+02  0.55949496451E+02  0.10566000000E+00 0.  1.
         22    1    1    0    0    0  0.25625699622E+02  0.74054916722E+01 -0.10774488676E+02  0.28768166335E+02  0.00000000000E+00 0.  1.
</event>
<event>
 5    1  0.1285346E-004  0.9118800E+02  0.7818608E-02  0.1130116E+00
         25   -1    0    0    0    0  0.00000000000E+00  0.00000000000E+00  0.99999998245E-14  0.12500000000E+03  0.12500000000E+03 0.  0.
        -13    1    3    3    0    0 -0.48296044648E+02  0.36491911433E+02 -0.25502940530E+01  0.60586159248E+02  0.10566000000E+00 0.  1.
         23    2    1    0    0    0 -0.27700368416E+02  0.74719944147E+01 -0.28041159046E+01  0.96172856942E+02  0.91750826892E+02 0.  0.
         13    1    3    3    0    0  0.20595676232E+02 -0.29019917018E+02 -0.25382185160E+00  0.35586697694E+02  0.10566000000E+00 0. -1.
         22    1    1    0    0    0  0.27700368416E+02 -0.74719944147E+01  0.28041159046E+01  0.28827143058E+02  0.00000000000E+00 0.  1.
</event>
<event>
 5    1  0.1285346E-004  0.9118800E+02  0.7818608E-02  0.1130116E+00
         25   -1    0    0    0    0  0.00000000000E+00  0.00000000000E+00  0.99999998245E-14  0.12500000000E+03  0.12500000000E+03 0.  0.
        -13    1    3    3    0    0  0.19827131344E+02  0.56203224568E+01  0.58752143945E+02  0.62261775946E+02  0.10566000000E+00 0. -1.
         23    2    1    0    0    0  0.10020304376E+02 -0.10144088296E+01  0.29908444997E+02  0.93441314869E+02  0.87950717548E+02 0.  0.
         13    1    3    3    0    0 -0.98068269679E+01 -0.66347312864E+01 -0.28843698948E+02  0.31179538923E+02  0.10566000000E+00 0.  1.
         22    1    1    0    0    0 -0.10020304376E+02  0.10144088296E+01 -0.29908444997E+02  0.31558685131E+02  0.00000000000E+00 0. -1.
</event>
<event>
 5    1  0.1285346E-004  0.9118800E+02  0.7818608E-02  0.1130116E+00
         25   -1    0    0    0    0  0.00000000000E+00  0.00000000000E+00  0.99999998245E-14  0.12500000000E+03  0.12500000000E+03 0.  0.
        -13    1    3    3    0    0 -0.35149928035E+02  0.12831546930E+02  0.26387883482E+02  0.45787526644E+02  0.10566000000E+00 0. -1.
         23    2    1    0    0    0 -0.18329278425E+02  0.16411739101E+02 -0.18734441164E+02  0.94076110956E+02  0.88848341228E+02 0.  0.
         13    1    3    3    0    0  0.16820649611E+02  0.35801921714E+01 -0.45122324646E+02  0.48288584311E+02  0.10566000000E+00 0.  1.
         22    1    1    0    0    0  0.18329278425E+02 -0.16411739101E+02  0.18734441164E+02  0.30923889044E+02  0.00000000000E+00 0.  1.
</event>
<event>
 5    1  0.1285346E-004  0.9118800E+02  0.7818608E-02  0.1130116E+00
         25   -1    0    0    0    0  0.00000000000E+00  0.00000000000E+00  0.99999998245E-14  0.12500000000E+03  0.12500000000E+03 0.  0.
        -13    1    3    3    0    0  0.26142865393E+02 -0.75895242918E+01  0.43547631615E+02  0.51356184372E+02  0.10566000000E+00 0.  1.
         23    2    1    0    0    0  0.28534394739E+02  0.13868238590E+02  0.91283539717E+01  0.91986872749E+02  0.85858710608E+02 0.  0.
         13    1    3    3    0    0  0.23915293460E+01  0.21457762881E+02 -0.34419277643E+02  0.40630688377E+02  0.10566000000E+00 0. -1.
         22    1    1    0    0    0 -0.28534394739E+02 -0.13868238590E+02 -0.91283539717E+01  0.33013127251E+02  0.00000000000E+00 0.  1.
</event>
<event>
 5    1  0.1285346E-004  0.9118800E+02  0.7818608E-02  0.1130116E+00
         25   -1    0    0    0    0  0.00000000000E+00  0.00000000000E+00  0.99999998245E-14  0.12500000000E+03  0.12500000000E+03 0.  0.
        -13    1    3    3    0    0 -0.11850490587E+02  0.23851236228E+02  0.33640768868E+02  0.42907203251E+02  0.10566000000E+00 0. -1.
         23    2    1    0    0    0 -0.21146634646E+02 -0.19571272032E+02  0.49808463484E+01  0.95759212115E+02  0.91185541774E+02 0.  0.
         13    1    3    3    0    0 -0.92961440590E+01 -0.43422508261E+02 -0.28659922520E+02  0.52852008863E+02  0.10566000000E+00 0.  1.
         22    1    1    0    0    0  0.21146634646E+02  0.19571272032E+02 -0.49808463484E+01  0.29240787885E+02  0.00000000000E+00 0.  1.
</event>
<event>
 5    1  0.1285346E-004  0.9118800E+02  0.7818608E-02  0.1130116E+00
         25   -1    0    0    0    0  0.00000000000E+00  0.00000000000E+00  0.99999998245E-14  0.12500000000E+03  0.12500000000E+03 0.  0.
        -13    1    3    3    0    0 -0.13278009140E+02 -0.65578566186E+01 -0.40809949592E+02  0.43413985764E+02  0.10566000000E+00 0. -1.
         23    2    1    0    0    0  0.26621165598E+02 -0.98284803482E+01 -0.71045837423E+01  0.95746613975E+02  0.91168270214E+02 0.  0.
         13    1    3    3    0    0  0.39899174738E+02 -0.32706237296E+01  0.33705365850E+02  0.52332628211E+02  0.10566000000E+00 0.  1.
         22    1    1    0    0    0 -0.26621165598E+02  0.98284803482E+01  0.71045837423E+01  0.29253386025E+02  0.00000000000E+00 0. -1.
</event>
<event>
 5    1  0.1285346E-004  0.9118800E+02  0.7818608E-02  0.1130116E+00
         25   -1    0    0    0    0  0.00000000000E+00  0.00000000000E+00  0.99999998245E-14  0.12500000000E+03  0.12500000000E+03 0.  0.
        -13    1    3    3    0    0  0.31304359890E+02  0.50614628751E+02 -0.12171243527E+02  0.60744990944E+02  0.10566000000E+00 0. -1.
         23    2    1    0    0    0  0.15675207364E+02  0.21195291684E+02 -0.15816676193E+02  0.94257199846E+02  0.89102749462E+02 0.  0.
         13    1    3    3    0    0 -0.15629152526E+02 -0.29419337067E+02 -0.36454326660E+01  0.33512208902E+02  0.10566000000E+00 0.  1.
         22    1    1    0    0    0 -0.15675207364E+02 -0.21195291684E+02  0.15816676193E+02  0.30742800154E+02  0.00000000000E+00 0. -1.
</event>
<event>
 5    1  0.1285346E-004  0.9118800E+02  0.7818608E-02  0.1130116E+00
         25   -1    0    0    0    0  0.00000000000E+00  0.00000000000E+00  0.99999998245E-14  0.12500000000E+03  0.12500000000E+03 0.  0.
        -13    1    3    3    0    0 -0.43804192586E+02 -0.22388707924E+02 -0.19017659145E+02  0.52742241648E+02  0.10566000000E+00 0. -1.
         23    2    1    0    0    0 -0.20404061084E+02 -0.91390944894E+01  0.16443795966E+02  0.97246672585E+02  0.93202296894E+02 0.  0.
         13    1    3    3    0    0  0.23400131502E+02  0.13249613435E+02  0.35461455111E+02  0.44504430938E+02  0.10566000000E+00 0.  1.
         22    1    1    0    0    0  0.20404061084E+02  0.91390944894E+01 -0.16443795966E+02  0.27753327415E+02  0.00000000000E+00 0. -1.
</event>
<event>
 5    1  0.1285346E-004  0.9118800E+02  0.7818608E-02  0.1130116E+00
         25   -1    0    0    0    0  0.00000000000E+00  0.00000000000E+00  0.99999998245E-14  0.12500000000E+03  0.12500000000E+03 0.  0.
        -13    1    3    3    0    0 -0.17319999896E+02  0.40439488509E+02 -0.19579052438E+02  0.48152726669E+02  0.10566000000E+00 0.  1.
         23    2    1    0    0    0 -0.27826768448E+02  0.50244134569E+01  0.95046517119E+01  0.95168604172E+02  0.90372291346E+02 0.  0.
         13    1    3    3    0    0 -0.10506768552E+02 -0.35415075052E+02  0.29083704150E+02  0.47015877504E+02  0.10566000000E+00 0. -1.
         22    1    1    0    0    0  0.27826768448E+02 -0.50244134569E+01 -0.95046517119E+01  0.29831395828E+02  0.00000000000E+00 0. -1.
</event>
<event>
 5    1  0.1285346E-004  0.9118800E+02  0.7818608E-02  0.1130116E+00
         25   -1    0    0    0    0  0.00000000000E+00  0.00000000000E+00  0.99999998245E-14  0.12500000000E+03  0.12500000000E+03 0.  0.
        -13    1    3    3    0    0 -0.13829726792E+02 -0.34687794727E+02 -0.26712835867E+02  0.45913954417E+02  0.10566000000E+00 0. -1.
         23    2    1    0    0    0  0.18523331372E+02  0.34046552298E+01 -0.21888922879E+02  0.96123877907E+02  0.91684074281E+02 0.  0.
         13    1    3    3    0    0  0.32353058164E+02  0.38092449957E+02  0.48239129882E+01  0.50209923489E+02  0.10566000000E+00 0.  1.
         22    1    1    0    0    0 -0.18523331372E+02 -0.34046552298E+01  0.21888922879E+02  0.28876122093E+02  0.00000000000E+00 0.  1.
</event>
<event>
 5    1  0.1285346E-004  0.9118800E+02  0.7818608E-02  0.1130116E+00
         25   -1    0    0    0    0  0.00000000000E+00  0.00000000000E+00  0.99999998245E-14  0.12500000000E+03  0.12500000000E+03 0.  0.
        -13    1    3    3    0    0 -0.11374833220E+02 -0.10378407647E+02  0.35102735816E+02  0.38331597956E+02  0.10566000000E+00 0.  1.
         23    2    1    0    0    0 -0.91735917528E+01  0.26396150676E+02 -0.88549728996E+01  0.95685803760E+02  0.91084855711E+02 0.  0.
         13    1    3    3    0    0  0.22012414668E+01  0.36774558323E+02 -0.43957708715E+02  0.57354205804E+02  0.10566000000E+00 0. -1.
         22    1    1    0    0    0  0.91735917528E+01 -0.26396150676E+02  0.88549728996E+01  0.29314196240E+02  0.00000000000E+00 0. -1.
</event>
<event>
 5    1  0.1285346E-004  0.9118800E+02  0.7818608E-02  0.1130116E+00
         25   -1    0    0    0    0  0.00000000000E+00  0.00000000000E+00  0.99999998245E-14  0.12500000000E+03  0.12500000000E+03 0.  0.
        -13    1    3    3    0    0  0.39067849107E+02 -0.55937326362E+01 -0.26574213000E+02  0.47579266906E+02  0.10566000000E+00 0.  1.
         23    2    1    0    0    0  0.20683183063E+01 -0.28268168691E+02 -0.43815706669E+01  0.96319597923E+02  0.91950527355E+02 0.  0.
         13    1    3    3    0    0 -0.36999530801E+02 -0.22674436055E+02  0.22192642334E+02  0.48740331017E+02  0.10566000000E+00 0. -1.
         22    1    1    0    0    0 -0.20683183063E+01  0.28268168691E+02  0.43815706669E+01  0.28680402077E+02  0.00000000000E+00 0. -1.
</event>
<event>
 5    1  0.1285346E-004  0.9118800E+02  0.7818608E-02  0.1130116E+00
         25   -1    0    0    0    0  0.00000000000E+00  0.00000000000E+00  0.99999998245E-14  0.12500000000E+03  0.12500000000E+03 0.  0.
        -13    1    3    3    0    0 -0.51286282900E+02 -0.22842888632E+02 -0.48316080149E+01  0.56351006866E+02  0.10566000000E+00 0.  1.
         23    2    1    0    0    0 -0.13595492486E+02 -0.21596147130E+02 -0.14986187526E+02  0.95405797808E+02  0.90699776472E+02 0.  0.
         13    1    3    3    0    0  0.37690790414E+02  0.12467415018E+01 -0.10154579511E+02  0.39054790942E+02  0.10566000000E+00 0. -1.
         22    1    1    0    0    0  0.13595492486E+02  0.21596147130E+02  0.14986187526E+02  0.29594202192E+02  0.00000000000E+00 0.  1.
</event>
<event>
 5    1  0.1285346E-004  0.9118800E+02  0.7818608E-02  0.1130116E+00
         25   -1    0    0    0    0  0.00000000000E+00  0.00000000000E+00  0.99999998245E-14  0.12500000000E+03  0.12500000000E+03 0.  0.
        -13    1    3    3    0    0 -0.78146852666E+01 -0.20330134137E+02  0.26290224771E+02  0.34140456095E+02  0.10566000000E+00 0.  1.
         23    2    1    0    0    0  0.12174744193E+02  0.77887772396E+01 -0.25099386441E+02  0.96036770781E+02  0.91565237374E+02 0.  0.
         13    1    3    3    0    0  0.19989429460E+02  0.28118911376E+02 -0.51389611212E+02  0.61896314686E+02  0.10566000000E+00 0. -1.
         22    1    1    0    0    0 -0.12174744193E+02 -0.77887772396E+01  0.25099386441E+02  0.28963229219E+02  0.00000000000E+00 0. -1.
</event>
<event>
 5    1  0.1285346E-004  0.9118800E+02  0.7818608E-02  0.1130116E+00
         25   -1    0    0    0    0  0.00000000000E+00  0.00000000000E+00  0.99999998245E-14  0.12500000000E+03  0.12500000000E+03 0.  0.
        -13    1    3    3    0    0 -0.33093648880E+02  0.38177611791E+02  0.15674908168E+02  0.52900222574E+02  0.10566000000E+00 0.  1.
         23    2    1    0    0    0 -0.18215291949E+02  0.15840574046E+02 -0.17214851810E+02  0.95350855497E+02  0.90624024818E+02 0.  0.
         13    1    3    3    0    0  0.14878356931E+02 -0.22337037744E+02 -0.32889759978E+02  0.42450632923E+02  0.10566000000E+00 0. -1.
         22    1    1    0    0    0  0.18215291949E+02 -0.15840574046E+02  0.17214851810E+02  0.29649144503E+02  0.00000000000E+00 0. -1.
</event>
<event>
 5    1  0.1285346E-004  0.9118800E+02  0.7818608E-02  0.1130116E+00
         25   -1    0    0    0    0  0.00000000000E+00  0.00000000000E+00  0.99999998245E-14  0.12500000000E+03  0.12500000000E+03 0.  0.
        -13    1    3    3    0    0 -0.22802713458E+02 -0.26980272769E+02  0.18532207258E+02  0.39891762679E+02  0.10566000000E+00 0.  1.
         23    2    1    0    0    0 -0.85941137328E+01  0.26351078045E+02  0.86765919648E+01  0.95956560928E+02  0.91455673591E+02 0.  0.
         13    1    3    3    0    0  0.14208599726E+02  0.53331350814E+02 -0.98556152934E+01  0.56064798249E+02  0.10566000000E+00 0. -1.
         22    1    1    0    0    0  0.85941137328E+01 -0.26351078045E+02 -0.86765919648E+01  0.29043439072E+02  0.00000000000E+00 0. -1.
</event>
<event>
 5    1  0.1285346E-004  0.9118800E+02  0.7818608E-02  0.1130116E+00
         25   -1    0    0    0    0  0.00000000000E+00  0.00000000000E+00  0.99999998245E-14  0.12500000000E+03  0.12500000000E+03 0.  0.
        -13    1    3    3    0    0  0.12634843198E+02 -0.26001690573E+02 -0.26963313664E+02  0.39531741968E+02  0.10566000000E+00 0.  1.
         23    2    1    0    0    0 -0.24126854966E+02 -0.13340723439E+02  0.12319942549E+02  0.94802963443E+02  0.89865125943E+02 0.  0.
         13    1    3    3    0    0 -0.36761698164E+02  0.12660967134E+02  0.39283256213E+02  0.55271221475E+02  0.10566000000E+00 0. -1.
         22    1    1    0    0    0  0.24126854966E+02  0.13340723439E+02 -0.12319942549E+02  0.30197036557E+02  0.00000000000E+00 0. -1.
</event>
<event>
 5    1  0.1285346E-004  0.9118800E+02  0.7818608E-02  0.1130116E+00
         25   -1    0    0    0    0  0.00000000000E+00  0.00000000000E+00  0.99999998245E-14  0.12500000000E+03  0.12500000000E+03 0.  0.
        -13    1    3    3    0    0 -0.17252900379E+02  0.45460846735E+02 -0.32030806078E+02  0.58226582068E+02  0.10566000000E+00 0. -1.
         23    2    1    0    0    0  0.31506306590E+01  0.28599056329E+02 -0.54933477072E+01  0.95708203102E+02  0.91115590190E+02 0.  0.
         13    1    3    3    0    0  0.20403531038E+02 -0.16861790406E+02  0.26537458371E+02  0.37481621034E+02  0.10566000000E+00 0.  1.
         22    1    1    0    0    0 -0.31506306590E+01 -0.28599056329E+02  0.54933477072E+01  0.29291796898E+02  0.00000000000E+00 0. -1.
</event>
<event>
 5    1  0.1285346E-004  0.9118800E+02  0.7818608E-02  0.1130116E+00
         25   -1    0    0    0    0  0.00000000000E+00  0.00000000000E+00  0.99999998245E-14  0.12500000000E+03  0.12500000000E+03 0.  0.
        -13    1    3    3    0    0 -0.30874707859E+02  0.48687132280E+02 -0.20051393807E+02  0.61038954714E+02  0.10566000000E+00 0.  1.
         23    2    1    0    0    0 -0.16070239864E+02  0.16532977011E+02 -0.16567094857E+02  0.96608794141E+02  0.92342831532E+02 0.  0.
         13    1    3    3    0    0  0.14804467995E+02 -0.32154155269E+02  0.34842989505E+01  0.35569839427E+02  0.10566000000E+00 0. -1.
         22    1    1    0    0    0  0.16070239864E+02 -0.16532977011E+02  0.16567094857E+02  0.28391205859E+02  0.00000000000E+00 0.  1.
</event>
<event>
 5    1  0.1285346E-004  0.9118800E+02  0.7818608E-02  0.1130116E+00
         25   -1    0    0    0    0  0.00000000000E+00  0.00000000000E+00  0.99999998245E-14  0.12500000000E+03  0.12500000000E+03 0.  0.
        -13    1    3    3    0    0 -0.10991404051E+02 -0.55769283783E+02  0.12123584337E+01  0.56855122492E+02  0.10566000000E+00 0.  1.
         23    2    1    0    0    0 -0.20150538244E+02 -0.19146812236E+02  0.97210128396E+01  0.95552713182E+02  0.90902025805E+02 0.  0.
         13    1    3    3    0    0 -0.91591341931E+01  0.36622471547E+02  0.85086544059E+01  0.38697590690E+02  0.10566000000E+00 0. -1.
         22    1    1    0    0    0  0.20150538244E+02  0.19146812236E+02 -0.97210128396E+01  0.29447286818E+02  0.00000000000E+00 0.  1.
</event>
<event>
 5    1  0.1285346E-004  0.9118800E+02  0.7818608E-02  0.1130116E+00
         25   -1    0    0    0    0  0.00000000000E+00  0.00000000000E+00  0.99999998245E-14  0.12500000000E+03  0.12500000000E+03 0.  0.
        -13    1    3    3    0    0  0.11891564088E+02  0.30437102546E+02 -0.32672081744E+02  0.46209334526E+02  0.10566000000E+00 0.  1.
         23    2    1    0    0    0 -0.14979601215E+02 -0.86639316246E+01 -0.25485383757E+02  0.94194855154E+02  0.89015244697E+02 0.  0.
         13    1    3    3    0    0 -0.26871165303E+02 -0.39101034170E+02  0.71866979873E+01  0.47985520628E+02  0.10566000000E+00 0. -1.
         22    1    1    0    0    0  0.14979601215E+02  0.86639316246E+01  0.25485383757E+02  0.30805144846E+02  0.00000000000E+00 0. -1.
</event>
<event>
 5    1  0.1285346E-004  0.9118800E+02  0.7818608E-02  0.1130116E+00
         25   -1    0    0    0    0  0.00000000000E+00  0.00000000000E+00  0.99999998245E-14  0.12500000000E+03  0.12500000000E+03 0.  0.
        -13    1    3    3    0    0  0.32502105175E+02  0.80675439510E+01  0.23657849649E+02  0.41002159946E+02  0.10566000000E+00 0. -1.
         23    2    1    0    0    0 -0.21947516793E+02  0.11435443173E+02  0.14493436357E+02  0.96320346038E+02  0.91951544357E+02 0.  0.
         13    1    3    3    0    0 -0.54449621967E+02  0.33678992221E+01 -0.91644132920E+01  0.55318186092E+02  0.10566000000E+00 0.  1.
         22    1    1    0    0    0  0.21947516793E+02 -0.11435443173E+02 -0.14493436357E+02  0.28679653962E+02  0.00000000000E+00 0.  1.
</event>
<event>
 5    1  0.1285346E-004  0.9118800E+02  0.7818608E-02  0.1130116E+00
         25   -1    0    0    0    0  0.00000000000E+00  0.00000000000E+00  0.99999998245E-14  0.12500000000E+03  0.12500000000E+03 0.  0.
        -13    1    3    3    0    0  0.29213762569E+02 -0.39939018648E+01 -0.21016292467E+02  0.36208989058E+02  0.10566000000E+00 0. -1.
         23    2    1    0    0    0 -0.27937059183E+02  0.45960623002E+01 -0.94835763747E+01  0.95141311393E+02  0.90334532978E+02 0.  0.
         13    1    3    3    0    0 -0.57150821752E+02  0.85899641651E+01  0.11532716092E+02  0.58932322335E+02  0.10566000000E+00 0.  1.
         22    1    1    0    0    0  0.27937059183E+02 -0.45960623002E+01  0.94835763747E+01  0.29858688607E+02  0.00000000000E+00 0.  1.
</event>
<event>
 5    1  0.1285346E-004  0.9118800E+02  0.7818608E-02  0.1130116E+00
         25   -1    0    0    0    0  0.00000000000E+00  0.00000000000E+00  0.99999998245E-14  0.12500000000E+03  0.12500000000E+03 0.  0.
        -13    1    3    3    0    0 -0.20296679450E+01 -0.30981249647E+02 -0.17316253913E+02  0.35550262942E+02  0.10566000000E+00 0. -1.
         23    2    1    0    0    0  0.14324593371E+02  0.92639778131E+01  0.24035291163E+02  0.95526105085E+02  0.90865429462E+02 0.  0.
         13    1    3    3    0    0  0.16354261316E+02  0.40245227460E+02  0.41351545076E+02  0.59975842143E+02  0.10566000000E+00 0.  1.
         22    1    1    0    0    0 -0.14324593371E+02 -0.92639778131E+01 -0.24035291163E+02  0.29473894915E+02  0.00000000000E+00 0.  1.
</event>
<event>
 5    1  0.1285346E-004  0.9118800E+02  0.7818608E-02  0.1130116E+00
         25   -1    0    0    0    0  0.00000000000E+00  0.00000000000E+00  0.99999998245E-14  0.12500000000E+03  0.12500000000E+03 0.  0.
        -13    1    3    3    0    0 -0.21388387918E+02 -0.29752111378E+02  0.60910061679E+01  0.37145158357E+02  0.10566000000E+00 0. -1.
         23    2    1    0    0    0  0.18117679086E+02 -0.49473486763E+00 -0.24107054113E+02  0.94839676460E+02  0.89916178271E+02 0.  0.
         13    1    3    3    0    0  0.39506067003E+02  0.29257376511E+02 -0.30198060281E+02  0.57694518103E+02  0.10566000000E+00 0.  1.
         22    1    1    0    0    0 -0.18117679086E+02  0.49473486763E+00  0.24107054113E+02  0.30160323540E+02  0.00000000000E+00 0.  1.
</event>
<event>
 5    1  0.1285346E-004  0.9118800E+02  0.7818608E-02  0.1130116E+00
         25   -1    0    0    0    0  0.00000000000E+00  0.00000000000E+00  0.99999998245E-14  0.12500000000E+03  0.12500000000E+03 0.  0.
        -13    1    3    3    0    0 -0.13279369740E+02  0.20826198237E+02 -0.27278798411E+02  0.36799676636E+02  0.10566000000E+00 0. -1.
         23    2    1    0    0    0  0.79223651651E+01 -0.28263705808E+02 -0.31039160472E+01  0.95483305899E+02  0.90806533217E+02 0.  0.
         13    1    3    3    0    0  0.21201734905E+02 -0.49089904045E+02  0.24174882364E+02  0.58683629263E+02  0.10566000000E+00 0.  1.
         22    1    1    0    0    0 -0.79223651651E+01  0.28263705808E+02  0.31039160472E+01  0.29516694101E+02  0.00000000000E+00 0.  1.
</event>
<event>
 5    1  0.1285346E-004  0.9118800E+02  0.7818608E-02  0.1130116E+00
         25   -1    0    0    0    0  0.00000000000E+00  0.00000000000E+00  0.99999998245E-14  0.12500000000E+03  0.12500000000E+03 0.  0.
        -13    1    3    3    0    0 -0.84221353781E+01  0.47089681226E+02 -0.26311044112E+02  0.54595353727E+02  0.10566000000E+00 0.  1.
         23    2    1    0    0    0 -0.12324164700E+02  0.22161045216E+02  0.90849183759E+01  0.98064285743E+02  0.94292478151E+02 0.  0.
         13    1    3    3    0    0 -0.39020293220E+01 -0.24928636010E+02  0.35395962488E+02  0.43468932016E+02  0.10566000000E+00 0. -1.
         22    1    1    0    0    0  0.12324164700E+02 -0.22161045216E+02 -0.90849183759E+01  0.26935714257E+02  0.00000000000E+00 0.  1.
</event>
<event>
 5    1  0.1285346E-004  0.9118800E+02  0.7818608E-02  0.1130116E+00
         25   -1    0    0    0    0  0.00000000000E+00  0.00000000000E+00  0.99999998245E-14  0.12500000000E+03  0.12500000000E+03 0.  0.
        -13    1    3    3    0    0  0.94513629149E+01  0.38714262705E+02 -0.45822621501E+02  0.60727639531E+02  0.10566000000E+00 0. -1.
         23    2    1    0    0    0  0.38962220988E+01  0.66886392972E+01 -0.23756812072E+02  0.10001391263E+03  0.96842543116E+02 0.  0.
         13    1    3    3    0    0 -0.55551408161E+01 -0.32025623408E+02  0.22065809429E+02  0.39286273098E+02  0.10566000000E+00 0.  1.
         22    1    1    0    0    0 -0.38962220988E+01 -0.66886392972E+01  0.23756812072E+02  0.24986087371E+02  0.00000000000E+00 0. -1.
</event>
<event>
 5    1  0.1285346E-004  0.9118800E+02  0.7818608E-02  0.1130116E+00
         25   -1    0    0    0    0  0.00000000000E+00  0.00000000000E+00  0.99999998245E-14  0.12500000000E+03  0.12500000000E+03 0.  0.
        -13    1    3    3    0    0  0.33238031367E+02 -0.25362454720E+02 -0.30397725996E+02  0.51691911827E+02  0.10566000000E+00 0. -1.
         23    2    1    0    0    0  0.28971732754E+02  0.49593935402E+01  0.10543856412E+01  0.95587951242E+02  0.90950468995E+02 0.  0.
         13    1    3    3    0    0 -0.42662986130E+01  0.30321848261E+02  0.31452111637E+02  0.43896039414E+02  0.10566000000E+00 0.  1.
         22    1    1    0    0    0 -0.28971732754E+02 -0.49593935402E+01 -0.10543856412E+01  0.29412048758E+02  0.00000000000E+00 0. -1.
</event>
<event>
 5    1  0.1285346E-004  0.9118800E+02  0.7818608E-02  0.1130116E+00
         25   -1    0    0    0    0  0.00000000000E+00  0.00000000000E+00  0.99999998245E-14  0.12500000000E+03  0.12500000000E+03 0.  0.
        -13    1    3    3    0    0  0.49015519089E+02 -0.15337300313E+02 -0.22970666045E+02  0.56262034758E+02  0.10566000000E+00 0.  1.
         23    2    1    0    0    0  0.27720947579E+02 -0.29283592314E+01  0.81477171620E+01  0.95958451876E+02  0.91458258069E+02 0.  0.
         13    1    3    3    0    0 -0.21294571510E+02  0.12408941082E+02  0.31118383207E+02  0.39696417118E+02  0.10566000000E+00 0. -1.
         22    1    1    0    0    0 -0.27720947579E+02  0.29283592314E+01 -0.81477171620E+01  0.29041548124E+02  0.00000000000E+00 0.  1.
</event>
<event>
 5    1  0.1285346E-004  0.9118800E+02  0.7818608E-02  0.1130116E+00
         25   -1    0    0    0    0  0.00000000000E+00  0.00000000000E+00  0.99999998245E-14  0.12500000000E+03  0.12500000000E+03 0.  0.
        -13    1    3    3    0    0 -0.35240116737E+02  0.13737306789E+02 -0.36239946443E+01  0.37996367283E+02  0.10566000000E+00 0.  1.
         23    2    1    0    0    0  0.15518177328E+02 -0.67344784210E+01  0.21018647382E+02  0.98019440981E+02  0.94233010380E+02 0.  0.
         13    1    3    3    0    0  0.50758294065E+02 -0.20471785210E+02  0.24642642026E+02  0.60023073698E+02  0.10566000000E+00 0. -1.
         22    1    1    0    0    0 -0.15518177328E+02  0.67344784210E+01 -0.21018647382E+02  0.26980559019E+02  0.00000000000E+00 0. -1.
</event>
<event>
 5    1  0.1285346E-004  0.9118800E+02  0.7818608E-02  0.1130116E+00
         25   -1    0    0    0    0  0.00000000000E+00  0.00000000000E+00  0.99999998245E-14  0.12500000000E+03  0.12500000000E+03 0.  0.
        -13    1    3    3    0    0  0.21322908965E+02 -0.33790557648E+02  0.72236094777E+01  0.40603693561E+02  0.10566000000E+00 0.  1.
         23    2    1    0    0    0  0.23280391068E+02  0.19729455463E+02  0.33802954347E+01  0.94297322293E+02  0.89159018463E+02 0.  0.
         13    1    3    3    0    0  0.19574821034E+01  0.53520013111E+02 -0.38433140430E+01  0.53693628732E+02  0.10566000000E+00 0. -1.
         22    1    1    0    0    0 -0.23280391068E+02 -0.19729455463E+02 -0.33802954347E+01  0.30702677707E+02  0.00000000000E+00 0. -1.
</event>
<event>
 5    1  0.1285346E-004  0.9118800E+02  0.7818608E-02  0.1130116E+00
         25   -1    0    0    0    0  0.00000000000E+00  0.00000000000E+00  0.99999998245E-14  0.12500000000E+03  0.12500000000E+03 0.  0.
        -13    1    3    3    0    0 -0.35251577988E+02 -0.16313330784E+02  0.34311321874E+02  0.51827371964E+02  0.10566000000E+00 0.  1.
         23    2    1    0    0    0  0.51984234942E+01  0.71804247898E+00  0.28407212639E+02  0.96112131928E+02  0.91668058679E+02 0.  0.
         13    1    3    3    0    0  0.40450001482E+02  0.17031373263E+02 -0.59041092343E+01  0.44284759964E+02  0.10566000000E+00 0. -1.
         22    1    1    0    0    0 -0.51984234942E+01 -0.71804247898E+00 -0.28407212639E+02  0.28887868072E+02  0.00000000000E+00 0. -1.
</event>
<event>
 5    1  0.1285346E-004  0.9118800E+02  0.7818608E-02  0.1130116E+00
         25   -1    0    0    0    0  0.00000000000E+00  0.00000000000E+00  0.99999998245E-14  0.12500000000E+03  0.12500000000E+03 0.  0.
        -13    1    3    3    0    0 -0.17662664931E+02 -0.50754845329E+02  0.11058077525E+01  0.53751818869E+02  0.10566000000E+00 0. -1.
         23    2    1    0    0    0 -0.22989385039E+02 -0.10862350275E+02  0.13949793971E+02  0.95998289192E+02  0.91512689273E+02 0.  0.
         13    1    3    3    0    0 -0.53267201077E+01  0.39892495055E+02  0.12843986218E+02  0.42246470323E+02  0.10566000000E+00 0.  1.
         22    1    1    0    0    0  0.22989385039E+02  0.10862350275E+02 -0.13949793971E+02  0.29001710808E+02  0.00000000000E+00 0.  1.
</event>
<event>
 5    1  0.1285346E-004  0.9118800E+02  0.7818608E-02  0.1130116E+00
         25   -1    0    0    0    0  0.00000000000E+00  0.00000000000E+00  0.99999998245E-14  0.12500000000E+03  0.12500000000E+03 0.  0.
        -13    1    3    3    0    0 -0.13609253433E+02  0.51726696281E+01  0.36115066806E+02  0.38939408117E+02  0.10566000000E+00 0.  1.
         23    2    1    0    0    0  0.99540122586E+01 -0.29037004781E+02 -0.48145621363E+00  0.94300459176E+02  0.89163416231E+02 0.  0.
         13    1    3    3    0    0  0.23563265692E+02 -0.34209674409E+02 -0.36596523019E+02  0.55361051059E+02  0.10566000000E+00 0. -1.
         22    1    1    0    0    0 -0.99540122586E+01  0.29037004781E+02  0.48145621363E+00  0.30699540824E+02  0.00000000000E+00 0. -1.
</event>
<event>
 5    1  0.1285346E-004  0.9118800E+02  0.7818608E-02  0.1130116E+00
         25   -1    0    0    0    0  0.00000000000E+00  0.00000000000E+00  0.99999998245E-14  0.12500000000E+03  0.12500000000E+03 0.  0.
        -13    1    3    3    0    0  0.41285289330E+02 -0.29076579011E+02  0.32757287524E+02  0.60191142306E+02  0.10566000000E+00 0. -1.
         23    2    1    0    0    0  0.16136233483E+02 -0.61724542206E+01  0.24198142410E+02  0.95267403103E+02  0.90508843633E+02 0.  0.
         13    1    3    3    0    0 -0.25149055847E+02  0.22904124791E+02 -0.85591451143E+01  0.35076260798E+02  0.10566000000E+00 0.  1.
         22    1    1    0    0    0 -0.16136233483E+02  0.61724542206E+01 -0.24198142410E+02  0.29732596897E+02  0.00000000000E+00 0. -1.
</event>
<event>
 5    1  0.1285346E-004  0.9118800E+02  0.7818608E-02  0.1130116E+00
         25   -1    0    0    0    0  0.00000000000E+00  0.00000000000E+00  0.99999998245E-14  0.12500000000E+03  0.12500000000E+03 0.  0.
        -13    1    3    3    0    0  0.13283409202E+02  0.50594729887E+01  0.38711253129E+02  0.41238568232E+02  0.10566000000E+00 0.  1.
         23    2    1    0    0    0  0.25536873728E+02 -0.42376777126E+01 -0.13596066832E+02  0.95760593961E+02  0.91187436033E+02 0.  0.
         13    1    3    3    0    0  0.12253464526E+02 -0.92971507012E+01 -0.52307319961E+02  0.54522025729E+02  0.10566000000E+00 0. -1.
         22    1    1    0    0    0 -0.25536873728E+02  0.42376777126E+01  0.13596066832E+02  0.29239406039E+02  0.00000000000E+00 0. -1.
</event>
<event>
 5    1  0.1285346E-004  0.9118800E+02  0.7818608E-02  0.1130116E+00
         25   -1    0    0    0    0  0.00000000000E+00  0.00000000000E+00  0.99999998245E-14  0.12500000000E+03  0.12500000000E+03 0.  0.
        -13    1    3    3    0    0  0.10571315800E+02  0.25364651814E+02  0.39702984262E+02  0.48285157168E+02  0.10566000000E+00 0.  1.
         23    2    1    0    0    0  0.28045348237E+02 -0.56480333716E+01  0.98491781710E+01  0.94743626302E+02  0.89782551621E+02 0.  0.
         13    1    3    3    0    0  0.17474032437E+02 -0.31012685186E+02 -0.29853806091E+02  0.46458469134E+02  0.10566000000E+00 0. -1.
         22    1    1    0    0    0 -0.28045348237E+02  0.56480333716E+01 -0.98491781710E+01  0.30256373698E+02  0.00000000000E+00 0.  1.
</event>
<event>
 5    1  0.1285346E-004  0.9118800E+02  0.7818608E-02  0.1130116E+00
         25   -1    0    0    0    0  0.00000000000E+00  0.00000000000E+00  0.99999998245E-14  0.12500000000E+03  0.12500000000E+03 0.  0.
        -13    1    3    3    0    0  0.23459937253E+02 -0.21081228267E+02 -0.34921764660E+02  0.47056643018E+02  0.10566000000E+00 0.  1.
         23    2    1    0    0    0  0.26072731908E+02 -0.61138438518E+01  0.11465442022E+02  0.95868868945E+02  0.91335739097E+02 0.  0.
         13    1    3    3    0    0  0.26127946544E+01  0.14967384415E+02  0.46387206682E+02  0.48812225927E+02  0.10566000000E+00 0. -1.
         22    1    1    0    0    0 -0.26072731908E+02  0.61138438518E+01 -0.11465442022E+02  0.29131131055E+02  0.00000000000E+00 0.  1.
</event>
<event>
 5    1  0.1285346E-004  0.9118800E+02  0.7818608E-02  0.1130116E+00
         25   -1    0    0    0    0  0.00000000000E+00  0.00000000000E+00  0.99999998245E-14  0.12500000000E+03  0.12500000000E+03 0.  0.
        -13    1    3    3    0    0  0.18684792589E+02 -0.29116236768E+02  0.21333719651E+02  0.40644993244E+02  0.10566000000E+00 0. -1.
         23    2    1    0    0    0 -0.27945224840E+02 -0.34695076032E+01  0.43556012069E+01  0.96505363027E+02  0.92202715560E+02 0.  0.
         13    1    3    3    0    0 -0.46630017429E+02  0.25646729165E+02 -0.16978118444E+02  0.55860369782E+02  0.10566000000E+00 0.  1.
         22    1    1    0    0    0  0.27945224840E+02  0.34695076032E+01 -0.43556012069E+01  0.28494636973E+02  0.00000000000E+00 0. -1.
</event>
<event>
 5    1  0.1285346E-004  0.9118800E+02  0.7818608E-02  0.1130116E+00
         25   -1    0    0    0    0  0.00000000000E+00  0.00000000000E+00  0.99999998245E-14  0.12500000000E+03  0.12500000000E+03 0.  0.
        -13    1    3    3    0    0 -0.13638003935E+02 -0.26271451389E+02  0.13044614940E+02  0.32347448931E+02  0.10566000000E+00 0. -1.
         23    2    1    0    0    0 -0.73895036400E+01  0.30335739992E+02 -0.74967926015E+01  0.92889818060E+02  0.87163378291E+02 0.  0.
         13    1    3    3    0    0  0.62485002947E+01  0.56607191381E+02 -0.20541407541E+02  0.60542369129E+02  0.10566000000E+00 0.  1.
         22    1    1    0    0    0  0.73895036400E+01 -0.30335739992E+02  0.74967926015E+01  0.32110181940E+02  0.00000000000E+00 0.  1.
</event>
<event>
 5    1  0.1285346E-004  0.9118800E+02  0.7818608E-02  0.1130116E+00
         25   -1    0    0    0    0  0.00000000000E+00  0.00000000000E+00  0.99999998245E-14  0.12500000000E+03  0.12500000000E+03 0.  0.
        -13    1    3    3    0    0 -0.20179253438E+02 -0.37834290728E+02 -0.27049212254E+02  0.50698193970E+02  0.10566000000E+00 0. -1.
         23    2    1    0    0    0 -0.14239134406E+02  0.67072636201E+01 -0.24719807058E+02  0.95694553494E+02  0.91096862589E+02 0.  0.
         13    1    3    3    0    0  0.59401190322E+01  0.44541554348E+02  0.23294051957E+01  0.44996359525E+02  0.10566000000E+00 0.  1.
         22    1    1    0    0    0  0.14239134406E+02 -0.67072636201E+01  0.24719807058E+02  0.29305446506E+02  0.00000000000E+00 0. -1.
</event>
<event>
 5    1  0.1285346E-004  0.9118800E+02  0.7818608E-02  0.1130116E+00
         25   -1    0    0    0    0  0.00000000000E+00  0.00000000000E+00  0.99999998245E-14  0.12500000000E+03  0.12500000000E+03 0.  0.
        -13    1    3    3    0    0  0.36996895456E+02  0.13360881395E+02  0.57543641234E+01  0.39754336814E+02  0.10566000000E+00 0.  1.
         23    2    1    0    0    0  0.42523413700E+01 -0.29794391560E+02  0.76045203623E+01  0.93957820542E+02  0.88681763264E+02 0.  0.
         13    1    3    3    0    0 -0.32744554086E+02 -0.43155272955E+02  0.18501562389E+01  0.54203483728E+02  0.10566000000E+00 0. -1.
         22    1    1    0    0    0 -0.42523413700E+01  0.29794391560E+02 -0.76045203623E+01  0.31042179458E+02  0.00000000000E+00 0. -1.
</event>
<event>
 5    1  0.1285346E-004  0.9118800E+02  0.7818608E-02  0.1130116E+00
         25   -1    0    0    0    0  0.00000000000E+00  0.00000000000E+00  0.99999998245E-14  0.12500000000E+03  0.12500000000E+03 0.  0.
        -13    1    3    3    0    0  0.13930467103E+01  0.14975144880E+02 -0.36690400931E+02  0.39653401214E+02  0.10566000000E+00 0.  1.
         23    2    1    0    0    0 -0.30323317133E+02 -0.59514122663E+01  0.21929781542E+01  0.94020457991E+02  0.88770008999E+02 0.  0.
         13    1    3    3    0    0 -0.31716363844E+02 -0.20926557146E+02  0.38883379085E+02  0.54367056777E+02  0.10566000000E+00 0. -1.
         22    1    1    0    0    0  0.30323317133E+02  0.59514122663E+01 -0.21929781542E+01  0.30979542009E+02  0.00000000000E+00 0. -1.
</event>
<event>
 5    1  0.1285346E-004  0.9118800E+02  0.7818608E-02  0.1130116E+00
         25   -1    0    0    0    0  0.00000000000E+00  0.00000000000E+00  0.99999998245E-14  0.12500000000E+03  0.12500000000E+03 0.  0.
        -13    1    3    3    0    0 -0.38318745658E+02  0.32411069781E+02 -0.80446169737E+01  0.50828444197E+02  0.10566000000E+00 0.  1.
         23    2    1    0    0    0  0.16876982456E+00  0.15085744306E+02 -0.24580026287E+02  0.96159302075E+02  0.91732358079E+02 0.  0.
         13    1    3    3    0    0  0.38487515482E+02 -0.17325325475E+02 -0.16535409313E+02  0.45330857879E+02  0.10566000000E+00 0. -1.
         22    1    1    0    0    0 -0.16876982456E+00 -0.15085744306E+02  0.24580026287E+02  0.28840697925E+02  0.00000000000E+00 0.  1.
</event>
<event>
 5    1  0.1285346E-004  0.9118800E+02  0.7818608E-02  0.1130116E+00
         25   -1    0    0    0    0  0.00000000000E+00  0.00000000000E+00  0.99999998245E-14  0.12500000000E+03  0.12500000000E+03 0.  0.
        -13    1    3    3    0    0  0.45040383111E+02 -0.19055375654E+02  0.32899234756E+01  0.49016101564E+02  0.10566000000E+00 0.  1.
         23    2    1    0    0    0  0.20585914206E+02  0.20570117527E+02 -0.17115638308E+01  0.95848000934E+02  0.91307175148E+02 0.  0.
         13    1    3    3    0    0 -0.24454468905E+02  0.39625493181E+02 -0.50014873064E+01  0.46831899370E+02  0.10566000000E+00 0. -1.
         22    1    1    0    0    0 -0.20585914206E+02 -0.20570117527E+02  0.17115638308E+01  0.29151999066E+02  0.00000000000E+00 0.  1.
</event>
<event>
 5    1  0.1285346E-004  0.9118800E+02  0.7818608E-02  0.1130116E+00
         25   -1    0    0    0    0  0.00000000000E+00  0.00000000000E+00  0.99999998245E-14  0.12500000000E+03  0.12500000000E+03 0.  0.
        -13    1    3    3    0    0 -0.17036947756E+02  0.12398365523E+02  0.45397393919E+02  0.50049091852E+02  0.10566000000E+00 0.  1.
         23    2    1    0    0    0 -0.25571477425E+01 -0.21820716630E+02  0.12232141700E+02  0.99854265384E+02  0.96636257927E+02 0.  0.
         13    1    3    3    0    0  0.14479800014E+02 -0.34219082153E+02 -0.33165252219E+02  0.49805173533E+02  0.10566000000E+00 0. -1.
         22    1    1    0    0    0  0.25571477425E+01  0.21820716630E+02 -0.12232141700E+02  0.25145734616E+02  0.00000000000E+00 0. -1.
</event>
<event>
 5    1  0.1285346E-004  0.9118800E+02  0.7818608E-02  0.1130116E+00
         25   -1    0    0    0    0  0.00000000000E+00  0.00000000000E+00  0.99999998245E-14  0.12500000000E+03  0.12500000000E+03 0.  0.
        -13    1    3    3    0    0  0.19713874759E+02  0.26390111629E+02 -0.19335975427E+02  0.38196412914E+02  0.10566000000E+00 0.  1.
         23    2    1    0    0    0 -0.21932910439E+02 -0.10717408433E+02  0.66009174071E+01  0.99711909632E+02  0.96451943516E+02 0.  0.
         13    1    3    3    0    0 -0.41646785198E+02 -0.37107520062E+02  0.25936892834E+02  0.61515496717E+02  0.10566000000E+00 0. -1.
         22    1    1    0    0    0  0.21932910439E+02  0.10717408433E+02 -0.66009174071E+01  0.25288090368E+02  0.00000000000E+00 0. -1.
</event>
<event>
 5    1  0.1285346E-004  0.9118800E+02  0.7818608E-02  0.1130116E+00
         25   -1    0    0    0    0  0.00000000000E+00  0.00000000000E+00  0.99999998245E-14  0.12500000000E+03  0.12500000000E+03 0.  0.
        -13    1    3    3    0    0 -0.17530705804E+00  0.17312736198E+02  0.20386341405E+01  0.17433552720E+02  0.10566000000E+00 0.  1.
         23    2    1    0    0    0 -0.25264110529E+02 -0.74564466948E+01 -0.42965205193E+02  0.74602750716E+02  0.55006251272E+02 0.  0.
         13    1    3    3    0    0 -0.25088803471E+02 -0.24769182893E+02 -0.45003839333E+02  0.57169197996E+02  0.10566000000E+00 0. -1.
         22    1    1    0    0    0  0.25264110529E+02  0.74564466948E+01  0.42965205193E+02  0.50397249284E+02  0.00000000000E+00 0. -1.
</event>
<event>
 5    1  0.1285346E-004  0.9118800E+02  0.7818608E-02  0.1130116E+00
         25   -1    0    0    0    0  0.00000000000E+00  0.00000000000E+00  0.99999998245E-14  0.12500000000E+03  0.12500000000E+03 0.  0.
        -13    1    3    3    0    0  0.34718637281E+02  0.14179704090E+02  0.40254381857E+02  0.55017035593E+02  0.10566000000E+00 0.  1.
         23    2    1    0    0    0  0.25444807544E+02 -0.33654162200E+01  0.63863736806E+00  0.99325652590E+02  0.95950055484E+02 0.  0.
         13    1    3    3    0    0 -0.92738297376E+01 -0.17545120310E+02 -0.39615744489E+02  0.44308616996E+02  0.10566000000E+00 0. -1.
         22    1    1    0    0    0 -0.25444807544E+02  0.33654162200E+01 -0.63863736806E+00  0.25674347410E+02  0.00000000000E+00 0. -1.
</event>
<event>
 5    1  0.1285346E-004  0.9118800E+02  0.7818608E-02  0.1130116E+00
         25   -1    0    0    0    0  0.00000000000E+00  0.00000000000E+00  0.99999998245E-14  0.12500000000E+03  0.12500000000E+03 0.  0.
        -13    1    3    3    0    0  0.22817124760E+02 -0.42218809774E+02  0.10173759646E+02  0.49056759274E+02  0.10566000000E+00 0.  1.
         23    2    1    0    0    0 -0.17980794481E+02 -0.22725551567E+02 -0.22085541577E+01  0.95937354290E+02  0.91429418529E+02 0.  0.
         13    1    3    3    0    0 -0.40797919241E+02  0.19493258207E+02 -0.12382313803E+02  0.46880595017E+02  0.10566000000E+00 0. -1.
         22    1    1    0    0    0  0.17980794481E+02  0.22725551567E+02  0.22085541577E+01  0.29062645710E+02  0.00000000000E+00 0.  1.
</event>
<event>
 5    1  0.1285346E-004  0.9118800E+02  0.7818608E-02  0.1130116E+00
         25   -1    0    0    0    0  0.00000000000E+00  0.00000000000E+00  0.99999998245E-14  0.12500000000E+03  0.12500000000E+03 0.  0.
        -13    1    3    3    0    0  0.38254345093E+02 -0.22900400666E+02  0.15013414984E+02  0.47045053541E+02  0.10566000000E+00 0.  1.
         23    2    1    0    0    0 -0.68101551375E+01 -0.27042326897E+02 -0.52404202992E+01  0.96625228426E+02  0.92365075144E+02 0.  0.
         13    1    3    3    0    0 -0.45064500230E+02 -0.41419262309E+01 -0.20253835283E+02  0.49580174885E+02  0.10566000000E+00 0. -1.
         22    1    1    0    0    0  0.68101551375E+01  0.27042326897E+02  0.52404202992E+01  0.28374771574E+02  0.00000000000E+00 0.  1.
</event>
<event>
 5    1  0.1285346E-004  0.9118800E+02  0.7818608E-02  0.1130116E+00
         25   -1    0    0    0    0  0.00000000000E+00  0.00000000000E+00  0.99999998245E-14  0.12500000000E+03  0.12500000000E+03 0.  0.
        -13    1    3    3    0    0 -0.45313457301E+02 -0.98296481759E+01 -0.31688706902E+02  0.56161523350E+02  0.10566000000E+00 0.  1.
         23    2    1    0    0    0 -0.14087420610E+02 -0.23062115176E+02 -0.11495483924E+02  0.95632284282E+02  0.91011378797E+02 0.  0.
         13    1    3    3    0    0  0.31226036691E+02 -0.13232467000E+02  0.20193222978E+02  0.39470760933E+02  0.10566000000E+00 0. -1.
         22    1    1    0    0    0  0.14087420610E+02  0.23062115176E+02  0.11495483924E+02  0.29367715718E+02  0.00000000000E+00 0.  1.
</event>
<event>
 5    1  0.1285346E-004  0.9118800E+02  0.7818608E-02  0.1130116E+00
         25   -1    0    0    0    0  0.00000000000E+00  0.00000000000E+00  0.99999998245E-14  0.12500000000E+03  0.12500000000E+03 0.  0.
        -13    1    3    3    0    0  0.35735734623E+02  0.17441106318E+02 -0.27247281128E+02  0.48204360918E+02  0.10566000000E+00 0.  1.
         23    2    1    0    0    0 -0.90935622339E+01  0.24552634785E+02 -0.12929699528E+02  0.95798940450E+02  0.91239986368E+02 0.  0.
         13    1    3    3    0    0 -0.44829296857E+02  0.71115284671E+01  0.14317581600E+02  0.47594579531E+02  0.10566000000E+00 0. -1.
         22    1    1    0    0    0  0.90935622339E+01 -0.24552634785E+02  0.12929699528E+02  0.29201059550E+02  0.00000000000E+00 0. -1.
</event>
<event>
 5    1  0.1285346E-004  0.9118800E+02  0.7818608E-02  0.1130116E+00
         25   -1    0    0    0    0  0.00000000000E+00  0.00000000000E+00  0.99999998245E-14  0.12500000000E+03  0.12500000000E+03 0.  0.
        -13    1    3    3    0    0  0.61689543730E+01 -0.47329622177E+02  0.38312793667E+02  0.61204823797E+02  0.10566000000E+00 0.  1.
         23    2    1    0    0    0 -0.47604177756E+01 -0.25321824626E+02  0.14441295169E+02  0.95463456770E+02  0.90779205728E+02 0.  0.
         13    1    3    3    0    0 -0.10929372149E+02  0.22007797551E+02 -0.23871498498E+02  0.34258632973E+02  0.10566000000E+00 0. -1.
         22    1    1    0    0    0  0.47604177756E+01  0.25321824626E+02 -0.14441295169E+02  0.29536543230E+02  0.00000000000E+00 0.  1.
</event>
<event>
 5    1  0.1285346E-004  0.9118800E+02  0.7818608E-02  0.1130116E+00
         25   -1    0    0    0    0  0.00000000000E+00  0.00000000000E+00  0.99999998245E-14  0.12500000000E+03  0.12500000000E+03 0.  0.
        -13    1    3    3    0    0 -0.17049636197E+02  0.24174477431E+02 -0.23043497852E+02  0.37498125430E+02  0.10566000000E+00 0.  1.
         23    2    1    0    0    0  0.15539966863E+02 -0.22065122159E+02 -0.13341280910E+02  0.94894353315E+02  0.89992157041E+02 0.  0.
         13    1    3    3    0    0  0.32589603060E+02 -0.46239599590E+02  0.97022169421E+01  0.57396227885E+02  0.10566000000E+00 0. -1.
         22    1    1    0    0    0 -0.15539966863E+02  0.22065122159E+02  0.13341280910E+02  0.30105646685E+02  0.00000000000E+00 0. -1.
</event>
<event>
 5    1  0.1285346E-004  0.9118800E+02  0.7818608E-02  0.1130116E+00
         25   -1    0    0    0    0  0.00000000000E+00  0.00000000000E+00  0.99999998245E-14  0.12500000000E+03  0.12500000000E+03 0.  0.
        -13    1    3    3    0    0 -0.33961526839E+02 -0.83862865852E+01  0.29065831365E+02  0.45481301926E+02  0.10566000000E+00 0.  1.
         23    2    1    0    0    0 -0.21858242695E+02  0.68776135045E+01 -0.17636796647E+02  0.96083898306E+02  0.91629550781E+02 0.  0.
         13    1    3    3    0    0  0.12103284144E+02  0.15263900090E+02 -0.46702628012E+02  0.50602596379E+02  0.10566000000E+00 0. -1.
         22    1    1    0    0    0  0.21858242695E+02 -0.68776135045E+01  0.17636796647E+02  0.28916101694E+02  0.00000000000E+00 0. -1.
</event>
<event>
 5    1  0.1285346E-004  0.9118800E+02  0.7818608E-02  0.1130116E+00
         25   -1    0    0    0    0  0.00000000000E+00  0.00000000000E+00  0.99999998245E-14  0.12500000000E+03  0.12500000000E+03 0.  0.
        -13    1    3    3    0    0 -0.36210985202E+02  0.31877083600E+02  0.30435945073E+02  0.57041579788E+02  0.10566000000E+00 0. -1.
         23    2    1    0    0    0 -0.26758227638E+02  0.13057603990E+02 -0.13770327161E+01  0.95193960555E+02  0.90407356662E+02 0.  0.
         13    1    3    3    0    0  0.94527575640E+01 -0.18819479610E+02 -0.31812977789E+02  0.38152380767E+02  0.10566000000E+00 0.  1.
         22    1    1    0    0    0  0.26758227638E+02 -0.13057603990E+02  0.13770327161E+01  0.29806039445E+02  0.00000000000E+00 0. -1.
</event>
<event>
 5    1  0.1285346E-004  0.9118800E+02  0.7818608E-02  0.1130116E+00
         25   -1    0    0    0    0  0.00000000000E+00  0.00000000000E+00  0.99999998245E-14  0.12500000000E+03  0.12500000000E+03 0.  0.
        -13    1    3    3    0    0 -0.33335292582E+02 -0.79847615060E+01  0.46184593721E+02  0.57515441484E+02  0.10566000000E+00 0. -1.
         23    2    1    0    0    0 -0.24068469109E+02 -0.14002823027E+02  0.98972738644E+01  0.95447905524E+02  0.90757789644E+02 0.  0.
         13    1    3    3    0    0  0.92668234729E+01 -0.60180615209E+01 -0.36287319857E+02  0.37932464040E+02  0.10566000000E+00 0.  1.
         22    1    1    0    0    0  0.24068469109E+02  0.14002823027E+02 -0.98972738644E+01  0.29552094476E+02  0.00000000000E+00 0. -1.
</event>
<event>
 5    1  0.1285346E-004  0.9118800E+02  0.7818608E-02  0.1130116E+00
         25   -1    0    0    0    0  0.00000000000E+00  0.00000000000E+00  0.99999998245E-14  0.12500000000E+03  0.12500000000E+03 0.  0.
        -13    1    3    3    0    0 -0.21424477438E+02 -0.12410944763E+02 -0.55685027297E+01  0.25378320868E+02  0.10566000000E+00 0. -1.
         23    2    1    0    0    0 -0.71943683758E+01  0.41775595743E+02  0.47483629683E+01  0.82344328784E+02  0.70434950102E+02 0.  0.
         13    1    3    3    0    0  0.14230109062E+02  0.54186540506E+02  0.10316865698E+02  0.56966007916E+02  0.10566000000E+00 0.  1.
         22    1    1    0    0    0  0.71943683758E+01 -0.41775595743E+02 -0.47483629683E+01  0.42655671216E+02  0.00000000000E+00 0.  1.
</event>
<event>
 5    1  0.1285346E-004  0.9118800E+02  0.7818608E-02  0.1130116E+00
         25   -1    0    0    0    0  0.00000000000E+00  0.00000000000E+00  0.99999998245E-14  0.12500000000E+03  0.12500000000E+03 0.  0.
        -13    1    3    3    0    0 -0.34922874112E+02  0.76810059385E+01 -0.12427690109E+02  0.37855826949E+02  0.10566000000E+00 0. -1.
         23    2    1    0    0    0  0.12184769948E+02  0.14392820045E+02  0.21578997654E+02  0.96342103579E+02  0.91981117056E+02 0.  0.
         13    1    3    3    0    0  0.47107644060E+02  0.67118141061E+01  0.34006687763E+02  0.58486276631E+02  0.10566000000E+00 0.  1.
         22    1    1    0    0    0 -0.12184769948E+02 -0.14392820045E+02 -0.21578997654E+02  0.28657896421E+02  0.00000000000E+00 0.  1.
</event>
<event>
 5    1  0.1285346E-004  0.9118800E+02  0.7818608E-02  0.1130116E+00
         25   -1    0    0    0    0  0.00000000000E+00  0.00000000000E+00  0.99999998245E-14  0.12500000000E+03  0.12500000000E+03 0.  0.
        -13    1    3    3    0    0 -0.39774236717E+02  0.13471604966E+02  0.43850242439E+02  0.60715146157E+02  0.10566000000E+00 0. -1.
         23    2    1    0    0    0 -0.13846181429E+02  0.26263308523E+01  0.29577263930E+02  0.92236775258E+02  0.86221771117E+02 0.  0.
         13    1    3    3    0    0  0.25928055289E+02 -0.10845274114E+02 -0.14272978509E+02  0.31521629101E+02  0.10566000000E+00 0.  1.
         22    1    1    0    0    0  0.13846181429E+02 -0.26263308523E+01 -0.29577263930E+02  0.32763224742E+02  0.00000000000E+00 0. -1.
</event>
<event>
 5    1  0.1285346E-004  0.9118800E+02  0.7818608E-02  0.1130116E+00
         25   -1    0    0    0    0  0.00000000000E+00  0.00000000000E+00  0.99999998245E-14  0.12500000000E+03  0.12500000000E+03 0.  0.
        -13    1    3    3    0    0  0.23806310726E+02 -0.42412162227E+02 -0.36358735388E+02  0.60724795086E+02  0.10566000000E+00 0.  1.
         23    2    1    0    0    0  0.15629793300E+02 -0.21161186006E+02 -0.71919614826E+01  0.97727109765E+02  0.93844432127E+02 0.  0.
         13    1    3    3    0    0 -0.81765174254E+01  0.21250976221E+02  0.29166773905E+02  0.37002314679E+02  0.10566000000E+00 0. -1.
         22    1    1    0    0    0 -0.15629793300E+02  0.21161186006E+02  0.71919614826E+01  0.27272890235E+02  0.00000000000E+00 0.  1.
</event>
<event>
 5    1  0.1285346E-004  0.9118800E+02  0.7818608E-02  0.1130116E+00
         25   -1    0    0    0    0  0.00000000000E+00  0.00000000000E+00  0.99999998245E-14  0.12500000000E+03  0.12500000000E+03 0.  0.
        -13    1    3    3    0    0 -0.39502942608E+02  0.37614479344E+02  0.33310995807E+01  0.54648320372E+02  0.10566000000E+00 0.  1.
         23    2    1    0    0    0 -0.69497852538E+00  0.30489063939E+02  0.47745256977E+01  0.94131535336E+02  0.88926283146E+02 0.  0.
         13    1    3    3    0    0  0.38807964083E+02 -0.71254154049E+01  0.14434261170E+01  0.39483214964E+02  0.10566000000E+00 0. -1.
         22    1    1    0    0    0  0.69497852538E+00 -0.30489063939E+02 -0.47745256977E+01  0.30868464664E+02  0.00000000000E+00 0.  1.
</event>
<event>
 5    1  0.1285346E-004  0.9118800E+02  0.7818608E-02  0.1130116E+00
         25   -1    0    0    0    0  0.00000000000E+00  0.00000000000E+00  0.99999998245E-14  0.12500000000E+03  0.12500000000E+03 0.  0.
        -13    1    3    3    0    0 -0.59346952468E+01  0.33546887264E+02  0.28765928261E+02  0.44588160374E+02  0.10566000000E+00 0.  1.
         23    2    1    0    0    0 -0.11304750576E+02 -0.15620977858E+02  0.23905918370E+02  0.94286724891E+02  0.89144159779E+02 0.  0.
         13    1    3    3    0    0 -0.53700553290E+01 -0.49167865122E+02 -0.48600098916E+01  0.49698564517E+02  0.10566000000E+00 0. -1.
         22    1    1    0    0    0  0.11304750576E+02  0.15620977858E+02 -0.23905918370E+02  0.30713275109E+02  0.00000000000E+00 0. -1.
</event>
<event>
 5    1  0.1285346E-004  0.9118800E+02  0.7818608E-02  0.1130116E+00
         25   -1    0    0    0    0  0.00000000000E+00  0.00000000000E+00  0.99999998245E-14  0.12500000000E+03  0.12500000000E+03 0.  0.
        -13    1    3    3    0    0  0.10626025329E+02 -0.79519385249E+01  0.40733593206E+02  0.42841364592E+02  0.10566000000E+00 0.  1.
         23    2    1    0    0    0 -0.17070912014E+02  0.22681109568E+02  0.80915168331E+01  0.95481846045E+02  0.90804523628E+02 0.  0.
         13    1    3    3    0    0 -0.27696937343E+02  0.30633048093E+02 -0.32642076373E+02  0.52640481453E+02  0.10566000000E+00 0. -1.
         22    1    1    0    0    0  0.17070912014E+02 -0.22681109568E+02 -0.80915168331E+01  0.29518153955E+02  0.00000000000E+00 0.  1.
</event>
<event>
 5    1  0.1285346E-004  0.9118800E+02  0.7818608E-02  0.1130116E+00
         25   -1    0    0    0    0  0.00000000000E+00  0.00000000000E+00  0.99999998245E-14  0.12500000000E+03  0.12500000000E+03 0.  0.
        -13    1    3    3    0    0 -0.26520491222E+02 -0.14006614578E+02  0.25820411514E+02  0.39575579862E+02  0.10566000000E+00 0.  1.
         23    2    1    0    0    0 -0.25624274316E+01  0.28995612987E+02 -0.14589566700E+01  0.95854843260E+02  0.91316541848E+02 0.  0.
         13    1    3    3    0    0  0.23958063790E+02  0.43002227565E+02 -0.27279368185E+02  0.56279263399E+02  0.10566000000E+00 0. -1.
         22    1    1    0    0    0  0.25624274316E+01 -0.28995612987E+02  0.14589566700E+01  0.29145156740E+02  0.00000000000E+00 0. -1.
</event>
<event>
 5    1  0.1285346E-004  0.9118800E+02  0.7818608E-02  0.1130116E+00
         25   -1    0    0    0    0  0.00000000000E+00  0.00000000000E+00  0.99999998245E-14  0.12500000000E+03  0.12500000000E+03 0.  0.
        -13    1    3    3    0    0  0.36906658621E+02  0.24455163725E+02 -0.14740695699E+02  0.46663216318E+02  0.10566000000E+00 0.  1.
         23    2    1    0    0    0 -0.83818527182E+01  0.10488421815E+02 -0.26322416554E+02  0.95451191895E+02  0.90762315824E+02 0.  0.
         13    1    3    3    0    0 -0.45288511339E+02 -0.13966741910E+02 -0.11581720855E+02  0.48787975577E+02  0.10566000000E+00 0. -1.
         22    1    1    0    0    0  0.83818527182E+01 -0.10488421815E+02  0.26322416554E+02  0.29548808105E+02  0.00000000000E+00 0. -1.
</event>
<event>
 5    1  0.1285346E-004  0.9118800E+02  0.7818608E-02  0.1130116E+00
         25   -1    0    0    0    0  0.00000000000E+00  0.00000000000E+00  0.99999998245E-14  0.12500000000E+03  0.12500000000E+03 0.  0.
        -13    1    3    3    0    0 -0.21306995428E+02 -0.72156112189E+01 -0.53940349569E+02  0.58443353558E+02  0.10566000000E+00 0. -1.
         23    2    1    0    0    0 -0.98471725477E+01  0.12554164959E+02 -0.19049564165E+02  0.10015126241E+03  0.97019666059E+02 0.  0.
         13    1    3    3    0    0  0.11459822880E+02  0.19769776177E+02  0.34890785404E+02  0.41707908851E+02  0.10566000000E+00 0.  1.
         22    1    1    0    0    0  0.98471725477E+01 -0.12554164959E+02  0.19049564165E+02  0.24848737591E+02  0.00000000000E+00 0. -1.
</event>
<event>
 5    1  0.1285346E-004  0.9118800E+02  0.7818608E-02  0.1130116E+00
         25   -1    0    0    0    0  0.00000000000E+00  0.00000000000E+00  0.99999998245E-14  0.12500000000E+03  0.12500000000E+03 0.  0.
        -13    1    3    3    0    0 -0.49575913076E+02  0.35086516128E+02  0.13121799554E+02  0.62137167290E+02  0.10566000000E+00 0.  1.
         23    2    1    0    0    0 -0.20657321239E+02  0.17466682908E+02  0.10055967712E+02  0.96139431412E+02  0.91705277128E+02 0.  0.
         13    1    3    3    0    0  0.28918591837E+02 -0.17619833220E+02 -0.30658318422E+01  0.34002264122E+02  0.10566000000E+00 0. -1.
         22    1    1    0    0    0  0.20657321239E+02 -0.17466682908E+02 -0.10055967712E+02  0.28860568588E+02  0.00000000000E+00 0.  1.
</event>
<event>
 5    1  0.1285346E-004  0.9118800E+02  0.7818608E-02  0.1130116E+00
         25   -1    0    0    0    0  0.00000000000E+00  0.00000000000E+00  0.99999998245E-14  0.12500000000E+03  0.12500000000E+03 0.  0.
        -13    1    3    3    0    0 -0.15711216600E+02  0.19294953041E+02  0.32586241022E+02  0.41000143998E+02  0.10566000000E+00 0. -1.
         23    2    1    0    0    0 -0.12434305974E+02 -0.25263520874E+02 -0.88869078028E+00  0.96828254876E+02  0.92639428533E+02 0.  0.
         13    1    3    3    0    0  0.32769106254E+01 -0.44558473916E+02 -0.33474931802E+02  0.55828110877E+02  0.10566000000E+00 0.  1.
         22    1    1    0    0    0  0.12434305974E+02  0.25263520874E+02  0.88869078028E+00  0.28171745124E+02  0.00000000000E+00 0.  1.
</event>
<event>
 5    1  0.1285346E-004  0.9118800E+02  0.7818608E-02  0.1130116E+00
         25   -1    0    0    0    0  0.00000000000E+00  0.00000000000E+00  0.99999998245E-14  0.12500000000E+03  0.12500000000E+03 0.  0.
        -13    1    3    3    0    0 -0.14539284723E+02  0.29314941085E+02  0.15731307352E+02  0.36307599288E+02  0.10566000000E+00 0. -1.
         23    2    1    0    0    0  0.89845731704E+01 -0.25750500872E+02  0.26578588964E+01  0.97597900370E+02  0.93672168185E+02 0.  0.
         13    1    3    3    0    0  0.23523857893E+02 -0.55065441957E+02 -0.13073448456E+02  0.61290301081E+02  0.10566000000E+00 0.  1.
         22    1    1    0    0    0 -0.89845731704E+01  0.25750500872E+02 -0.26578588964E+01  0.27402099630E+02  0.00000000000E+00 0.  1.
</event>
<event>
 5    1  0.1285346E-004  0.9118800E+02  0.7818608E-02  0.1130116E+00
         25   -1    0    0    0    0  0.00000000000E+00  0.00000000000E+00  0.99999998245E-14  0.12500000000E+03  0.12500000000E+03 0.  0.
        -13    1    3    3    0    0  0.41107676093E+02 -0.14406231174E+02  0.22641520838E+01  0.43617864220E+02  0.10566000000E+00 0.  1.
         23    2    1    0    0    0 -0.81850909014E+01 -0.27725437168E+02  0.80142886708E+01  0.95001259991E+02  0.90140529163E+02 0.  0.
         13    1    3    3    0    0 -0.49292766994E+02 -0.13319205994E+02  0.57501365870E+01  0.51383395772E+02  0.10566000000E+00 0. -1.
         22    1    1    0    0    0  0.81850909014E+01  0.27725437168E+02 -0.80142886708E+01  0.29998740009E+02  0.00000000000E+00 0. -1.
</event>
<event>
 5    1  0.1285346E-004  0.9118800E+02  0.7818608E-02  0.1130116E+00
         25   -1    0    0    0    0  0.00000000000E+00  0.00000000000E+00  0.99999998245E-14  0.12500000000E+03  0.12500000000E+03 0.  0.
        -13    1    3    3    0    0 -0.59417790161E+00 -0.27479168393E+00  0.35481566914E+02  0.35487762857E+02  0.10566000000E+00 0. -1.
         23    2    1    0    0    0  0.17664118732E+02 -0.11692302831E+02 -0.20532629864E+02  0.95498814851E+02  0.90827879601E+02 0.  0.
         13    1    3    3    0    0  0.18258296634E+02 -0.11417511147E+02 -0.56014196778E+02  0.60011051994E+02  0.10566000000E+00 0.  1.
         22    1    1    0    0    0 -0.17664118732E+02  0.11692302831E+02  0.20532629864E+02  0.29501185149E+02  0.00000000000E+00 0.  1.
</event>
<event>
 5    1  0.1285346E-004  0.9118800E+02  0.7818608E-02  0.1130116E+00
         25   -1    0    0    0    0  0.00000000000E+00  0.00000000000E+00  0.99999998245E-14  0.12500000000E+03  0.12500000000E+03 0.  0.
        -13    1    3    3    0    0  0.25116238803E+02 -0.40529864450E+02  0.35452302310E+02  0.59416935861E+02  0.10566000000E+00 0. -1.
         23    2    1    0    0    0  0.12403814010E+02 -0.69505724504E+01  0.24000076509E+02  0.97104324138E+02  0.93011187685E+02 0.  0.
         13    1    3    3    0    0 -0.12712424793E+02  0.33579292000E+02 -0.11452225801E+02  0.37687388277E+02  0.10566000000E+00 0.  1.
         22    1    1    0    0    0 -0.12403814010E+02  0.69505724504E+01 -0.24000076509E+02  0.27895675862E+02  0.00000000000E+00 0. -1.
</event>
<event>
 5    1  0.1285346E-004  0.9118800E+02  0.7818608E-02  0.1130116E+00
         25   -1    0    0    0    0  0.00000000000E+00  0.00000000000E+00  0.99999998245E-14  0.12500000000E+03  0.12500000000E+03 0.  0.
        -13    1    3    3    0    0  0.18054866318E+02  0.14255508821E+02  0.33624374958E+02  0.40740734957E+02  0.10566000000E+00 0. -1.
         23    2    1    0    0    0 -0.19081749809E+02 -0.19303327678E+02  0.10201846479E+02  0.96003288000E+02  0.91519517044E+02 0.  0.
         13    1    3    3    0    0 -0.37136616127E+02 -0.33558836499E+02 -0.23422528478E+02  0.55262553043E+02  0.10566000000E+00 0.  1.
         22    1    1    0    0    0  0.19081749809E+02  0.19303327678E+02 -0.10201846479E+02  0.28996712000E+02  0.00000000000E+00 0.  1.
</event>
<event>
 5    1  0.1285346E-004  0.9118800E+02  0.7818608E-02  0.1130116E+00
         25   -1    0    0    0    0  0.00000000000E+00  0.00000000000E+00  0.99999998245E-14  0.12500000000E+03  0.12500000000E+03 0.  0.
        -13    1    3    3    0    0 -0.22801781233E+02  0.18333699075E+02  0.63065101508E+01  0.29930402327E+02  0.10566000000E+00 0.  1.
         23    2    1    0    0    0  0.11557244099E+02  0.48057199463E+02  0.30553144209E+01  0.75478295086E+02  0.56961160201E+02 0.  0.
         13    1    3    3    0    0  0.34359025331E+02  0.29723500388E+02 -0.32511957299E+01  0.45547892759E+02  0.10566000000E+00 0. -1.
         22    1    1    0    0    0 -0.11557244099E+02 -0.48057199463E+02 -0.30553144209E+01  0.49521704914E+02  0.00000000000E+00 0. -1.
</event>
<event>
 5    1  0.1285346E-004  0.9118800E+02  0.7818608E-02  0.1130116E+00
         25   -1    0    0    0    0  0.00000000000E+00  0.00000000000E+00  0.99999998245E-14  0.12500000000E+03  0.12500000000E+03 0.  0.
        -13    1    3    3    0    0  0.30067968884E+02  0.30997705693E+02  0.12638316354E+02  0.44996430029E+02  0.10566000000E+00 0. -1.
         23    2    1    0    0    0  0.14420375313E+02  0.55043456789E+00 -0.25161656313E+02  0.95993808406E+02  0.91506568624E+02 0.  0.
         13    1    3    3    0    0 -0.15647593571E+02 -0.30447271125E+02 -0.37799972668E+02  0.50997378376E+02  0.10566000000E+00 0.  1.
         22    1    1    0    0    0 -0.14420375313E+02 -0.55043456789E+00  0.25161656313E+02  0.29006191594E+02  0.00000000000E+00 0.  1.
</event>
<event>
 5    1  0.1285346E-004  0.9118800E+02  0.7818608E-02  0.1130116E+00
         25   -1    0    0    0    0  0.00000000000E+00  0.00000000000E+00  0.99999998245E-14  0.12500000000E+03  0.12500000000E+03 0.  0.
        -13    1    3    3    0    0 -0.18460492616E+02  0.39999330532E+02 -0.40862227124E+02  0.60087178334E+02  0.10566000000E+00 0.  1.
         23    2    1    0    0    0 -0.19991993161E+02  0.14599372909E+02 -0.17016211113E+02  0.94960477359E+02  0.90083957171E+02 0.  0.
         13    1    3    3    0    0 -0.15315005450E+01 -0.25399957623E+02  0.23846016011E+02  0.34873299024E+02  0.10566000000E+00 0. -1.
         22    1    1    0    0    0  0.19991993161E+02 -0.14599372909E+02  0.17016211113E+02  0.30039522641E+02  0.00000000000E+00 0.  1.
</event>
<event>
 5    1  0.1285346E-004  0.9118800E+02  0.7818608E-02  0.1130116E+00
         25   -1    0    0    0    0  0.00000000000E+00  0.00000000000E+00  0.99999998245E-14  0.12500000000E+03  0.12500000000E+03 0.  0.
        -13    1    3    3    0    0  0.36616541723E+02 -0.21108307462E-01  0.10323763858E+02  0.38044222131E+02  0.10566000000E+00 0.  1.
         23    2    1    0    0    0 -0.19676628657E+02 -0.40746150432E+01 -0.15020313536E+02  0.99912512645E+02  0.96711572014E+02 0.  0.
         13    1    3    3    0    0 -0.56293170379E+02 -0.40535067357E+01 -0.25344077394E+02  0.61868290515E+02  0.10566000000E+00 0. -1.
         22    1    1    0    0    0  0.19676628657E+02  0.40746150432E+01  0.15020313536E+02  0.25087487355E+02  0.00000000000E+00 0. -1.
</event>
<event>
 5    1  0.1285346E-004  0.9118800E+02  0.7818608E-02  0.1130116E+00
         25   -1    0    0    0    0  0.00000000000E+00  0.00000000000E+00  0.99999998245E-14  0.12500000000E+03  0.12500000000E+03 0.  0.
        -13    1    3    3    0    0  0.98936298291E+01 -0.31275422836E+01 -0.35749200077E+02  0.37224748516E+02  0.10566000000E+00 0. -1.
         23    2    1    0    0    0 -0.49684264642E+01 -0.23197156219E+02  0.17152823065E+02  0.95725221482E+02  0.91138934439E+02 0.  0.
         13    1    3    3    0    0 -0.14862056293E+02 -0.20069613935E+02  0.52902023141E+02  0.58500472966E+02  0.10566000000E+00 0.  1.
         22    1    1    0    0    0  0.49684264642E+01  0.23197156219E+02 -0.17152823065E+02  0.29274778518E+02  0.00000000000E+00 0.  1.
</event>
<event>
 4    1  0.1285346E-004  0.9118800E+02  0.7818608E-02  0.1130116E+00
         25   -1    0    0    0    0  0.00000000000E+00  0.00000000000E+00  0.99999998245E-14  0.12500000000E+03  0.12500000000E+03 0.  0.
        -13    1    1    0    0    0 -0.12724111804E+02 -0.52831321090E+02  0.17723984998E+02  0.57159446442E+02  0.10566000000E+00 0.  1.
         13    1    1    0    0    0  0.50199229038E+01  0.77874921971E+01  0.10598289907E+02  0.14077626706E+02  0.10566000000E+00 0. -1.
         22    1    1    0    0    0  0.77041888997E+01  0.45043828893E+02 -0.28322274905E+02  0.53762926852E+02  0.00000000000E+00 0.  1.
</event>
<event>
 5    1  0.1285346E-004  0.9118800E+02  0.7818608E-02  0.1130116E+00
         25   -1    0    0    0    0  0.00000000000E+00  0.00000000000E+00  0.99999998245E-14  0.12500000000E+03  0.12500000000E+03 0.  0.
        -13    1    3    3    0    0  0.12994390444E+02  0.34446672499E+02 -0.28557653279E+02  0.46593756599E+02  0.10566000000E+00 0.  1.
         23    2    1    0    0    0 -0.49696058095E+01  0.27465200064E+02  0.14338862247E+02  0.93621071290E+02  0.88205826466E+02 0.  0.
         13    1    3    3    0    0 -0.17963996253E+02 -0.69814724347E+01  0.42896515526E+02  0.47027314691E+02  0.10566000000E+00 0. -1.
         22    1    1    0    0    0  0.49696058095E+01 -0.27465200064E+02 -0.14338862247E+02  0.31378928710E+02  0.00000000000E+00 0.  1.
</event>
<event>
 5    1  0.1285346E-004  0.9118800E+02  0.7818608E-02  0.1130116E+00
         25   -1    0    0    0    0  0.00000000000E+00  0.00000000000E+00  0.99999998245E-14  0.12500000000E+03  0.12500000000E+03 0.  0.
        -13    1    3    3    0    0  0.35160343156E+02 -0.23572398457E+02 -0.86210198528E+01  0.43200009805E+02  0.10566000000E+00 0.  1.
         23    2    1    0    0    0 -0.11258025607E+02 -0.19854780832E+02  0.17175656149E+02  0.96435010474E+02  0.92107288628E+02 0.  0.
         13    1    3    3    0    0 -0.46418368763E+02  0.37176176244E+01  0.25796676002E+02  0.53235000669E+02  0.10566000000E+00 0. -1.
         22    1    1    0    0    0  0.11258025607E+02  0.19854780832E+02 -0.17175656149E+02  0.28564989526E+02  0.00000000000E+00 0.  1.
</event>
<event>
 5    1  0.1285346E-004  0.9118800E+02  0.7818608E-02  0.1130116E+00
         25   -1    0    0    0    0  0.00000000000E+00  0.00000000000E+00  0.99999998245E-14  0.12500000000E+03  0.12500000000E+03 0.  0.
        -13    1    3    3    0    0  0.44282593546E+02  0.37171694647E+02 -0.90431463778E+01  0.58518993793E+02  0.10566000000E+00 0. -1.
         23    2    1    0    0    0  0.11629000567E+02  0.24859891012E+02  0.66152841901E+01  0.96768637648E+02  0.92558951010E+02 0.  0.
         13    1    3    3    0    0 -0.32653592978E+02 -0.12311803635E+02  0.15658430568E+02  0.38249643855E+02  0.10566000000E+00 0.  1.
         22    1    1    0    0    0 -0.11629000567E+02 -0.24859891012E+02 -0.66152841901E+01  0.28231362352E+02  0.00000000000E+00 0. -1.
</event>
<event>
 5    1  0.1285346E-004  0.9118800E+02  0.7818608E-02  0.1130116E+00
         25   -1    0    0    0    0  0.00000000000E+00  0.00000000000E+00  0.99999998245E-14  0.12500000000E+03  0.12500000000E+03 0.  0.
        -13    1    3    3    0    0 -0.20114398097E+02 -0.24927965843E+02  0.37963473224E+01  0.32255478743E+02  0.10566000000E+00 0.  1.
         23    2    1    0    0    0  0.20384680333E+02  0.21823318097E+02  0.74663883053E+01  0.94217872729E+02  0.89047561349E+02 0.  0.
         13    1    3    3    0    0  0.40499078429E+02  0.46751283940E+02  0.36700409829E+01  0.61962393986E+02  0.10566000000E+00 0. -1.
         22    1    1    0    0    0 -0.20384680333E+02 -0.21823318097E+02 -0.74663883053E+01  0.30782127271E+02  0.00000000000E+00 0. -1.
</event>
<event>
 5    1  0.1285346E-004  0.9118800E+02  0.7818608E-02  0.1130116E+00
         25   -1    0    0    0    0  0.00000000000E+00  0.00000000000E+00  0.99999998245E-14  0.12500000000E+03  0.12500000000E+03 0.  0.
        -13    1    3    3    0    0  0.30700295030E+02 -0.20219017962E+02 -0.19622648934E+02  0.41669849022E+02  0.10566000000E+00 0.  1.
         23    2    1    0    0    0  0.16946037822E+02  0.32799711465E+01  0.25402701647E+02  0.94288053472E+02  0.89146022726E+02 0.  0.
         13    1    3    3    0    0 -0.13754257209E+02  0.23498989109E+02  0.45025350581E+02  0.52618204450E+02  0.10566000000E+00 0. -1.
         22    1    1    0    0    0 -0.16946037822E+02 -0.32799711465E+01 -0.25402701647E+02  0.30711946528E+02  0.00000000000E+00 0.  1.
</event>
<event>
 5    1  0.1285346E-004  0.9118800E+02  0.7818608E-02  0.1130116E+00
         25   -1    0    0    0    0  0.00000000000E+00  0.00000000000E+00  0.99999998245E-14  0.12500000000E+03  0.12500000000E+03 0.  0.
        -13    1    3    3    0    0 -0.22856328340E+02  0.28407402552E+02 -0.59497191844E+01  0.36943234663E+02  0.10566000000E+00 0. -1.
         23    2    1    0    0    0  0.21056344216E+02 -0.24518461245E+01  0.19367507358E+02  0.96286213723E+02  0.91905132776E+02 0.  0.
         13    1    3    3    0    0  0.43912672556E+02 -0.30859248677E+02  0.25317226542E+02  0.59342979060E+02  0.10566000000E+00 0.  1.
         22    1    1    0    0    0 -0.21056344216E+02  0.24518461245E+01 -0.19367507358E+02  0.28713786277E+02  0.00000000000E+00 0.  1.
</event>
<event>
 5    1  0.1285346E-004  0.9118800E+02  0.7818608E-02  0.1130116E+00
         25   -1    0    0    0    0  0.00000000000E+00  0.00000000000E+00  0.99999998245E-14  0.12500000000E+03  0.12500000000E+03 0.  0.
        -13    1    3    3    0    0  0.30046702958E+02 -0.43847393752E+02 -0.24937213779E+02  0.58713491572E+02  0.10566000000E+00 0.  1.
         23    2    1    0    0    0 -0.11884204637E+00 -0.25375733692E+02 -0.15274785556E+02  0.95381406893E+02  0.90666155336E+02 0.  0.
         13    1    3    3    0    0 -0.30165545004E+02  0.18471660060E+02  0.96624282228E+01  0.36667915321E+02  0.10566000000E+00 0. -1.
         22    1    1    0    0    0  0.11884204637E+00  0.25375733692E+02  0.15274785556E+02  0.29618593107E+02  0.00000000000E+00 0.  1.
</event>
<event>
 5    1  0.1285346E-004  0.9118800E+02  0.7818608E-02  0.1130116E+00
         25   -1    0    0    0    0  0.00000000000E+00  0.00000000000E+00  0.99999998245E-14  0.12500000000E+03  0.12500000000E+03 0.  0.
        -13    1    3    3    0    0  0.20738219237E+02 -0.37764704145E+02  0.33362077509E+00  0.43085601808E+02  0.10566000000E+00 0.  1.
         23    2    1    0    0    0 -0.11728436843E+02 -0.53438329050E+00 -0.24097003453E+02  0.98195012186E+02  0.94465618330E+02 0.  0.
         13    1    3    3    0    0 -0.32466656080E+02  0.37230320855E+02 -0.24430624228E+02  0.55109410378E+02  0.10566000000E+00 0. -1.
         22    1    1    0    0    0  0.11728436843E+02  0.53438329050E+00  0.24097003453E+02  0.26804987814E+02  0.00000000000E+00 0. -1.
</event>
<event>
 5    1  0.1285346E-004  0.9118800E+02  0.7818608E-02  0.1130116E+00
         25   -1    0    0    0    0  0.00000000000E+00  0.00000000000E+00  0.99999998245E-14  0.12500000000E+03  0.12500000000E+03 0.  0.
        -13    1    3    3    0    0 -0.21506679812E+02  0.19838587687E+02 -0.28011067106E+02  0.40506022792E+02  0.10566000000E+00 0. -1.
         23    2    1    0    0    0  0.13752113574E+02  0.91908386799E+01  0.18728106406E+02  0.10001332129E+03  0.96841779840E+02 0.  0.
         13    1    3    3    0    0  0.35258793387E+02 -0.10647749007E+02  0.46739173512E+02  0.59507298498E+02  0.10566000000E+00 0.  1.
         22    1    1    0    0    0 -0.13752113574E+02 -0.91908386799E+01 -0.18728106406E+02  0.24986678710E+02  0.00000000000E+00 0.  1.
</event>
<event>
 5    1  0.1285346E-004  0.9118800E+02  0.7818608E-02  0.1130116E+00
         25   -1    0    0    0    0  0.00000000000E+00  0.00000000000E+00  0.99999998245E-14  0.12500000000E+03  0.12500000000E+03 0.  0.
        -13    1    3    3    0    0 -0.39497454768E+02 -0.12237779182E+02  0.69489702996E+01  0.41929840504E+02  0.10566000000E+00 0.  1.
         23    2    1    0    0    0  0.40465392096E+01  0.23229194792E+02  0.12408933128E+02  0.98355083194E+02  0.94677192599E+02 0.  0.
         13    1    3    3    0    0  0.43543993978E+02  0.35466973974E+02  0.54599628283E+01  0.56425242689E+02  0.10566000000E+00 0. -1.
         22    1    1    0    0    0 -0.40465392096E+01 -0.23229194792E+02 -0.12408933128E+02  0.26644916806E+02  0.00000000000E+00 0. -1.
</event>
<event>
 5    1  0.1285346E-004  0.9118800E+02  0.7818608E-02  0.1130116E+00
         25   -1    0    0    0    0  0.00000000000E+00  0.00000000000E+00  0.99999998245E-14  0.12500000000E+03  0.12500000000E+03 0.  0.
        -13    1    3    3    0    0  0.50566347486E+00 -0.27568050690E+02 -0.31320405820E+02  0.41728073274E+02  0.10566000000E+00 0.  1.
         23    2    1    0    0    0 -0.17910957952E+02  0.17119045514E+02  0.15430553632E+01  0.10017571443E+03  0.97051164898E+02 0.  0.
         13    1    3    3    0    0 -0.18416621427E+02  0.44687096204E+02  0.32863461183E+02  0.58447641158E+02  0.10566000000E+00 0. -1.
         22    1    1    0    0    0  0.17910957952E+02 -0.17119045514E+02 -0.15430553632E+01  0.24824285568E+02  0.00000000000E+00 0. -1.
</event>
<event>
 5    1  0.1285346E-004  0.9118800E+02  0.7818608E-02  0.1130116E+00
         25   -1    0    0    0    0  0.00000000000E+00  0.00000000000E+00  0.99999998245E-14  0.12500000000E+03  0.12500000000E+03 0.  0.
        -13    1    3    3    0    0 -0.45689531343E+01  0.28295358189E+02  0.14670496035E+02  0.32198404397E+02  0.10566000000E+00 0.  1.
         23    2    1    0    0    0  0.98078500372E+00 -0.18785367496E+02 -0.24791120866E+02  0.93880044265E+02  0.88572067077E+02 0.  0.
         13    1    3    3    0    0  0.55497381381E+01 -0.47080725684E+02 -0.39461616900E+02  0.61681639868E+02  0.10566000000E+00 0. -1.
         22    1    1    0    0    0 -0.98078500372E+00  0.18785367496E+02  0.24791120866E+02  0.31119955735E+02  0.00000000000E+00 0. -1.
</event>
<event>
 5    1  0.1285346E-004  0.9118800E+02  0.7818608E-02  0.1130116E+00
         25   -1    0    0    0    0  0.00000000000E+00  0.00000000000E+00  0.99999998245E-14  0.12500000000E+03  0.12500000000E+03 0.  0.
        -13    1    3    3    0    0 -0.24473085552E+02  0.32344210856E+02  0.27596978776E+02  0.49057968710E+02  0.10566000000E+00 0.  1.
         23    2    1    0    0    0 -0.73164624649E+00 -0.79588816799E+01  0.28047179972E+02  0.95836265530E+02  0.91291107905E+02 0.  0.
         13    1    3    3    0    0  0.23741439305E+02 -0.40303092536E+02  0.45020119634E+00  0.46778296820E+02  0.10566000000E+00 0. -1.
         22    1    1    0    0    0  0.73164624649E+00  0.79588816799E+01 -0.28047179972E+02  0.29163734470E+02  0.00000000000E+00 0. -1.
</event>
<event>
 5    1  0.1285346E-004  0.9118800E+02  0.7818608E-02  0.1130116E+00
         25   -1    0    0    0    0  0.00000000000E+00  0.00000000000E+00  0.99999998245E-14  0.12500000000E+03  0.12500000000E+03 0.  0.
        -13    1    3    3    0    0  0.19289093444E+02  0.51299980380E+02 -0.17983691265E+01  0.54836141444E+02  0.10566000000E+00 0. -1.
         23    2    1    0    0    0  0.13134235699E+02  0.12763633474E+02  0.18622218984E+02  0.98880935569E+02  0.95368935677E+02 0.  0.
         13    1    3    3    0    0 -0.61548577445E+01 -0.38536346906E+02  0.20420588111E+02  0.44044794125E+02  0.10566000000E+00 0.  1.
         22    1    1    0    0    0 -0.13134235699E+02 -0.12763633474E+02 -0.18622218984E+02  0.26119064431E+02  0.00000000000E+00 0.  1.
</event>
<event>
 5    1  0.1285346E-004  0.9118800E+02  0.7818608E-02  0.1130116E+00
         25   -1    0    0    0    0  0.00000000000E+00  0.00000000000E+00  0.99999998245E-14  0.12500000000E+03  0.12500000000E+03 0.  0.
        -13    1    3    3    0    0 -0.31750199536E+01  0.61078663550E+02 -0.11638029213E+02  0.62258644225E+02  0.10566000000E+00 0.  1.
         23    2    1    0    0    0  0.16442865029E+01  0.30831954624E+02 -0.36675008492E+01  0.93907176608E+02  0.88610350140E+02 0.  0.
         13    1    3    3    0    0  0.48193064565E+01 -0.30246708926E+02  0.79705283636E+01  0.31648532383E+02  0.10566000000E+00 0. -1.
         22    1    1    0    0    0 -0.16442865029E+01 -0.30831954624E+02  0.36675008492E+01  0.31092823392E+02  0.00000000000E+00 0.  1.
</event>
<event>
 5    1  0.1285346E-004  0.9118800E+02  0.7818608E-02  0.1130116E+00
         25   -1    0    0    0    0  0.00000000000E+00  0.00000000000E+00  0.99999998245E-14  0.12500000000E+03  0.12500000000E+03 0.  0.
        -13    1    3    3    0    0  0.19421428632E+02  0.43171492649E+02 -0.22735138156E+02  0.52515400966E+02  0.10566000000E+00 0. -1.
         23    2    1    0    0    0 -0.93117631279E+01  0.27471523960E+02  0.51697993925E+01  0.95536117245E+02  0.90879201753E+02 0.  0.
         13    1    3    3    0    0 -0.28733191760E+02 -0.15699968688E+02  0.27904937549E+02  0.43020716279E+02  0.10566000000E+00 0.  1.
         22    1    1    0    0    0  0.93117631279E+01 -0.27471523960E+02 -0.51697993925E+01  0.29463882755E+02  0.00000000000E+00 0. -1.
</event>
<event>
 5    1  0.1285346E-004  0.9118800E+02  0.7818608E-02  0.1130116E+00
         25   -1    0    0    0    0  0.00000000000E+00  0.00000000000E+00  0.99999998245E-14  0.12500000000E+03  0.12500000000E+03 0.  0.
        -13    1    3    3    0    0 -0.68337065638E+01 -0.67794635331E+00  0.34692429908E+02  0.35365732194E+02  0.10566000000E+00 0.  1.
         23    2    1    0    0    0 -0.11948149624E+02  0.23062951443E+01 -0.25972025979E+02  0.96318587724E+02  0.91949154052E+02 0.  0.
         13    1    3    3    0    0 -0.51144430605E+01  0.29842414976E+01 -0.60664455887E+02  0.60952855530E+02  0.10566000000E+00 0. -1.
         22    1    1    0    0    0  0.11948149624E+02 -0.23062951443E+01  0.25972025979E+02  0.28681412276E+02  0.00000000000E+00 0. -1.
</event>
<event>
 5    1  0.1285346E-004  0.9118800E+02  0.7818608E-02  0.1130116E+00
         25   -1    0    0    0    0  0.00000000000E+00  0.00000000000E+00  0.99999998245E-14  0.12500000000E+03  0.12500000000E+03 0.  0.
        -13    1    3    3    0    0  0.37716357731E+02 -0.14066311604E+01  0.22399524954E+02  0.43889089008E+02  0.10566000000E+00 0. -1.
         23    2    1    0    0    0 -0.11781303179E+02  0.12030040217E+02  0.24558333888E+02  0.95223621181E+02  0.90448357062E+02 0.  0.
         13    1    3    3    0    0 -0.49497660911E+02  0.13436671378E+02  0.21588089338E+01  0.51334532173E+02  0.10566000000E+00 0.  1.
         22    1    1    0    0    0  0.11781303179E+02 -0.12030040217E+02 -0.24558333888E+02  0.29776378819E+02  0.00000000000E+00 0. -1.
</event>
<event>
 5    1  0.1285346E-004  0.9118800E+02  0.7818608E-02  0.1130116E+00
         25   -1    0    0    0    0  0.00000000000E+00  0.00000000000E+00  0.99999998245E-14  0.12500000000E+03  0.12500000000E+03 0.  0.
        -13    1    3    3    0    0 -0.12676366285E+02 -0.56054761714E+02 -0.43571205504E+01  0.57635251683E+02  0.10566000000E+00 0. -1.
         23    2    1    0    0    0 -0.13633732098E+02 -0.20932801462E+02  0.13016325475E+02  0.96831124324E+02  0.92643300250E+02 0.  0.
         13    1    3    3    0    0 -0.95736581295E+00  0.35121960253E+02  0.17373446025E+02  0.39195872641E+02  0.10566000000E+00 0.  1.
         22    1    1    0    0    0  0.13633732098E+02  0.20932801462E+02 -0.13016325475E+02  0.28168875676E+02  0.00000000000E+00 0.  1.
</event>
<event>
 5    1  0.1285346E-004  0.9118800E+02  0.7818608E-02  0.1130116E+00
         25   -1    0    0    0    0  0.00000000000E+00  0.00000000000E+00  0.99999998245E-14  0.12500000000E+03  0.12500000000E+03 0.  0.
        -13    1    3    3    0    0 -0.27569098411E+02  0.13728033822E+02  0.46926599639E+02  0.56130482071E+02  0.10566000000E+00 0.  1.
         23    2    1    0    0    0 -0.67949281906E+01  0.23981949018E+02  0.13936807543E+02  0.96442347220E+02  0.92117244885E+02 0.  0.
         13    1    3    3    0    0  0.20774170220E+02  0.10253915195E+02 -0.32989792097E+02  0.40311865149E+02  0.10566000000E+00 0. -1.
         22    1    1    0    0    0  0.67949281906E+01 -0.23981949018E+02 -0.13936807543E+02  0.28557652780E+02  0.00000000000E+00 0.  1.
</event>
<event>
 5    1  0.1285346E-004  0.9118800E+02  0.7818608E-02  0.1130116E+00
         25   -1    0    0    0    0  0.00000000000E+00  0.00000000000E+00  0.99999998245E-14  0.12500000000E+03  0.12500000000E+03 0.  0.
        -13    1    3    3    0    0  0.38768614961E+02 -0.18848696781E+02 -0.24060823486E+02  0.49368140204E+02  0.10566000000E+00 0.  1.
         23    2    1    0    0    0  0.24149512667E+02  0.17414633324E+02 -0.98250328466E-01  0.95226218430E+02  0.90451946400E+02 0.  0.
         13    1    3    3    0    0 -0.14619102294E+02  0.36263330106E+02  0.23962573158E+02  0.45858078226E+02  0.10566000000E+00 0. -1.
         22    1    1    0    0    0 -0.24149512667E+02 -0.17414633324E+02  0.98250328466E-01  0.29773781570E+02  0.00000000000E+00 0. -1.
</event>
<event>
 5    1  0.1285346E-004  0.9118800E+02  0.7818608E-02  0.1130116E+00
         25   -1    0    0    0    0  0.00000000000E+00  0.00000000000E+00  0.99999998245E-14  0.12500000000E+03  0.12500000000E+03 0.  0.
        -13    1    3    3    0    0 -0.18302702323E+02 -0.35327190058E+02  0.48109785430E+01  0.40076875480E+02  0.10566000000E+00 0. -1.
         23    2    1    0    0    0  0.13535305679E+02  0.18029516976E+02  0.31796628206E+01  0.10223207875E+03  0.99664535761E+02 0.  0.
         13    1    3    3    0    0  0.31838008002E+02  0.53356707034E+02 -0.16313157224E+01  0.62155203274E+02  0.10566000000E+00 0.  1.
         22    1    1    0    0    0 -0.13535305679E+02 -0.18029516976E+02 -0.31796628206E+01  0.22767921246E+02  0.00000000000E+00 0.  1.
</event>
<event>
 5    1  0.1285346E-004  0.9118800E+02  0.7818608E-02  0.1130116E+00
         25   -1    0    0    0    0  0.00000000000E+00  0.00000000000E+00  0.99999998245E-14  0.12500000000E+03  0.12500000000E+03 0.  0.
        -13    1    3    3    0    0 -0.14082001864E+02  0.86538699012E+01 -0.34200045615E+02  0.37984819663E+02  0.10566000000E+00 0.  1.
         23    2    1    0    0    0  0.10660127589E+02  0.22870550649E+02  0.15566262973E+02  0.95351914899E+02  0.90625486067E+02 0.  0.
         13    1    3    3    0    0  0.24742129453E+02  0.14216680748E+02  0.49766308588E+02  0.57367095236E+02  0.10566000000E+00 0. -1.
         22    1    1    0    0    0 -0.10660127589E+02 -0.22870550649E+02 -0.15566262973E+02  0.29648085101E+02  0.00000000000E+00 0. -1.
</event>
<event>
 5    1  0.1285346E-004  0.9118800E+02  0.7818608E-02  0.1130116E+00
         25   -1    0    0    0    0  0.00000000000E+00  0.00000000000E+00  0.99999998245E-14  0.12500000000E+03  0.12500000000E+03 0.  0.
        -13    1    3    3    0    0 -0.13879082860E+02  0.32769303592E+02 -0.29647158659E+02  0.46318693629E+02  0.10566000000E+00 0.  1.
         23    2    1    0    0    0  0.24760588899E+02  0.18132925695E+02 -0.18693069077E+02  0.89065050600E+02  0.81493942412E+02 0.  0.
         13    1    3    3    0    0  0.38639671759E+02 -0.14636377897E+02  0.10954089582E+02  0.42746356970E+02  0.10566000000E+00 0. -1.
         22    1    1    0    0    0 -0.24760588899E+02 -0.18132925695E+02  0.18693069077E+02  0.35934949400E+02  0.00000000000E+00 0. -1.
</event>
<event>
 5    1  0.1285346E-004  0.9118800E+02  0.7818608E-02  0.1130116E+00
         25   -1    0    0    0    0  0.00000000000E+00  0.00000000000E+00  0.99999998245E-14  0.12500000000E+03  0.12500000000E+03 0.  0.
        -13    1    3    3    0    0  0.57250082445E+02 -0.22886031694E+02 -0.80657940752E+01  0.62180467871E+02  0.10566000000E+00 0.  1.
         23    2    1    0    0    0  0.22656914111E+02 -0.11440455238E+02 -0.71543409435E+01  0.98629479197E+02  0.95038780501E+02 0.  0.
         13    1    3    3    0    0 -0.34593168333E+02  0.11445576456E+02  0.91145313170E+00  0.36449011325E+02  0.10566000000E+00 0. -1.
         22    1    1    0    0    0 -0.22656914111E+02  0.11440455238E+02  0.71543409435E+01  0.26370520803E+02  0.00000000000E+00 0.  1.
</event>
<event>
 5    1  0.1285346E-004  0.9118800E+02  0.7818608E-02  0.1130116E+00
         25   -1    0    0    0    0  0.00000000000E+00  0.00000000000E+00  0.99999998245E-14  0.12500000000E+03  0.12500000000E+03 0.  0.
        -13    1    3    3    0    0  0.84408276775E+01  0.60920188874E+00 -0.33334630224E+02  0.34392258359E+02  0.10566000000E+00 0.  1.
         23    2    1    0    0    0 -0.10421678640E+02  0.14743271735E+02  0.23175898030E+02  0.95621475588E+02  0.90996532335E+02 0.  0.
         13    1    3    3    0    0 -0.18862506318E+02  0.14134069846E+02  0.56510528253E+02  0.61229217229E+02  0.10566000000E+00 0. -1.
         22    1    1    0    0    0  0.10421678640E+02 -0.14743271735E+02 -0.23175898030E+02  0.29378524412E+02  0.00000000000E+00 0. -1.
</event>
<event>
 5    1  0.1285346E-004  0.9118800E+02  0.7818608E-02  0.1130116E+00
         25   -1    0    0    0    0  0.00000000000E+00  0.00000000000E+00  0.99999998245E-14  0.12500000000E+03  0.12500000000E+03 0.  0.
        -13    1    3    3    0    0 -0.33324864847E+02 -0.80974826273E+01  0.22499227775E+02  0.41016365715E+02  0.10566000000E+00 0.  1.
         23    2    1    0    0    0  0.15640093138E+02 -0.24638924976E+02  0.67572324163E+01  0.95044210455E+02  0.90200069922E+02 0.  0.
         13    1    3    3    0    0  0.48964957984E+02 -0.16541442348E+02 -0.15741995359E+02  0.54027844740E+02  0.10566000000E+00 0. -1.
         22    1    1    0    0    0 -0.15640093138E+02  0.24638924976E+02 -0.67572324163E+01  0.29955789545E+02  0.00000000000E+00 0. -1.
</event>
<event>
 5    1  0.1285346E-004  0.9118800E+02  0.7818608E-02  0.1130116E+00
         25   -1    0    0    0    0  0.00000000000E+00  0.00000000000E+00  0.99999998245E-14  0.12500000000E+03  0.12500000000E+03 0.  0.
        -13    1    3    3    0    0  0.11371965382E+02  0.71357997064E+00  0.59899748351E+02  0.60973943694E+02  0.10566000000E+00 0.  1.
         23    2    1    0    0    0  0.54915180727E+01 -0.93928949937E+01  0.26984028565E+02  0.95904965292E+02  0.91385126377E+02 0.  0.
         13    1    3    3    0    0 -0.58804473088E+01 -0.10106474964E+02 -0.32915719787E+02  0.34931021598E+02  0.10566000000E+00 0. -1.
         22    1    1    0    0    0 -0.54915180727E+01  0.93928949937E+01 -0.26984028565E+02  0.29095034708E+02  0.00000000000E+00 0.  1.
</event>
<event>
 5    1  0.1285346E-004  0.9118800E+02  0.7818608E-02  0.1130116E+00
         25   -1    0    0    0    0  0.00000000000E+00  0.00000000000E+00  0.99999998245E-14  0.12500000000E+03  0.12500000000E+03 0.  0.
        -13    1    3    3    0    0 -0.16480009411E+02  0.57109042551E+02 -0.65636619373E+01  0.59800721345E+02  0.10566000000E+00 0. -1.
         23    2    1    0    0    0 -0.14924689141E+01  0.25895988298E+02 -0.14443233825E+02  0.95311000745E+02  0.90569035472E+02 0.  0.
         13    1    3    3    0    0  0.14987540497E+02 -0.31213054253E+02 -0.78795718882E+01  0.35510279401E+02  0.10566000000E+00 0.  1.
         22    1    1    0    0    0  0.14924689141E+01 -0.25895988298E+02  0.14443233825E+02  0.29688999255E+02  0.00000000000E+00 0. -1.
</event>
<event>
 5    1  0.1285346E-004  0.9118800E+02  0.7818608E-02  0.1130116E+00
         25   -1    0    0    0    0  0.00000000000E+00  0.00000000000E+00  0.99999998245E-14  0.12500000000E+03  0.12500000000E+03 0.  0.
        -13    1    3    3    0    0 -0.94562191024E+01  0.32870977374E+02  0.10195158852E+02  0.35691366761E+02  0.10566000000E+00 0.  1.
         23    2    1    0    0    0  0.20079945577E+02 -0.12207546414E+02 -0.16940863666E+02  0.96030684068E+02  0.91556927738E+02 0.  0.
         13    1    3    3    0    0  0.29536164680E+02 -0.45078523787E+02 -0.27136022519E+02  0.60339317306E+02  0.10566000000E+00 0. -1.
         22    1    1    0    0    0 -0.20079945577E+02  0.12207546414E+02  0.16940863666E+02  0.28969315932E+02  0.00000000000E+00 0. -1.
</event>
<event>
 4    1  0.1285346E-004  0.9118800E+02  0.7818608E-02  0.1130116E+00
         25   -1    0    0    0    0  0.00000000000E+00  0.00000000000E+00  0.99999998245E-14  0.12500000000E+03  0.12500000000E+03 0.  0.
        -13    1    1    0    0    0 -0.83577035256E+01  0.22527015996E+01  0.29607810975E+01  0.91489486534E+01  0.10566000000E+00 0.  1.
         13    1    1    0    0    0  0.60221426460E+02 -0.12843855378E+02  0.70515186674E+01  0.61978382566E+02  0.10566000000E+00 0. -1.
         22    1    1    0    0    0 -0.51863722935E+02  0.10591153778E+02 -0.10012299765E+02  0.53872668781E+02  0.00000000000E+00 0. -1.
</event>
<event>
 5    1  0.1285346E-004  0.9118800E+02  0.7818608E-02  0.1130116E+00
         25   -1    0    0    0    0  0.00000000000E+00  0.00000000000E+00  0.99999998245E-14  0.12500000000E+03  0.12500000000E+03 0.  0.
        -13    1    3    3    0    0  0.67055029903E+01  0.29473709172E+02  0.46932230216E+02  0.55823907959E+02  0.10566000000E+00 0. -1.
         23    2    1    0    0    0  0.14412376200E+02  0.25819703504E+02  0.99135224180E+01  0.93812637118E+02  0.88476885567E+02 0.  0.
         13    1    3    3    0    0  0.77068732095E+01 -0.36540056672E+01 -0.37018707798E+02  0.37988729160E+02  0.10566000000E+00 0.  1.
         22    1    1    0    0    0 -0.14412376200E+02 -0.25819703504E+02 -0.99135224180E+01  0.31187362882E+02  0.00000000000E+00 0. -1.
</event>
<event>
 5    1  0.1285346E-004  0.9118800E+02  0.7818608E-02  0.1130116E+00
         25   -1    0    0    0    0  0.00000000000E+00  0.00000000000E+00  0.99999998245E-14  0.12500000000E+03  0.12500000000E+03 0.  0.
        -13    1    3    3    0    0  0.45094579739E+02  0.36190765336E+02 -0.11370110891E+02  0.58928628044E+02  0.10566000000E+00 0.  1.
         23    2    1    0    0    0  0.11744556609E+02  0.20686103117E+02 -0.16482008744E+02  0.96060302621E+02  0.91597356159E+02 0.  0.
         13    1    3    3    0    0 -0.33350023130E+02 -0.15504662218E+02 -0.51118978529E+01  0.37131674578E+02  0.10566000000E+00 0. -1.
         22    1    1    0    0    0 -0.11744556609E+02 -0.20686103117E+02  0.16482008744E+02  0.28939697379E+02  0.00000000000E+00 0.  1.
</event>
<event>
 5    1  0.1285346E-004  0.9118800E+02  0.7818608E-02  0.1130116E+00
         25   -1    0    0    0    0  0.00000000000E+00  0.00000000000E+00  0.99999998245E-14  0.12500000000E+03  0.12500000000E+03 0.  0.
        -13    1    3    3    0    0 -0.24004079206E+02 -0.22383648440E+02 -0.27606727036E+02  0.42887831347E+02  0.10566000000E+00 0. -1.
         23    2    1    0    0    0  0.13520987375E+02 -0.24032985132E+02  0.96424214886E+01  0.95787369750E+02  0.91224132978E+02 0.  0.
         13    1    3    3    0    0  0.37525066581E+02 -0.16493366916E+01  0.37249148524E+02  0.52899538403E+02  0.10566000000E+00 0.  1.
         22    1    1    0    0    0 -0.13520987375E+02  0.24032985132E+02 -0.96424214886E+01  0.29212630250E+02  0.00000000000E+00 0.  1.
</event>
<event>
 5    1  0.1285346E-004  0.9118800E+02  0.7818608E-02  0.1130116E+00
         25   -1    0    0    0    0  0.00000000000E+00  0.00000000000E+00  0.99999998245E-14  0.12500000000E+03  0.12500000000E+03 0.  0.
        -13    1    3    3    0    0 -0.24845915192E+02 -0.27742445594E+02 -0.14899568365E+02  0.40111981885E+02  0.10566000000E+00 0. -1.
         23    2    1    0    0    0  0.22260288840E+02  0.12508252794E+01 -0.19178213432E+02  0.95591006587E+02  0.90954668087E+02 0.  0.
         13    1    3    3    0    0  0.47106204032E+02  0.28993270873E+02 -0.42786450675E+01  0.55479024702E+02  0.10566000000E+00 0.  1.
         22    1    1    0    0    0 -0.22260288840E+02 -0.12508252794E+01  0.19178213432E+02  0.29408993413E+02  0.00000000000E+00 0.  1.
</event>
<event>
 5    1  0.1285346E-004  0.9118800E+02  0.7818608E-02  0.1130116E+00
         25   -1    0    0    0    0  0.00000000000E+00  0.00000000000E+00  0.99999998245E-14  0.12500000000E+03  0.12500000000E+03 0.  0.
        -13    1    3    3    0    0  0.14732406779E+02 -0.47227759718E+02 -0.13662876230E+02  0.51324365056E+02  0.10566000000E+00 0.  1.
         23    2    1    0    0    0 -0.16888094473E+02 -0.19762389775E+02 -0.17924483501E+02  0.93423950638E+02  0.87926035163E+02 0.  0.
         13    1    3    3    0    0 -0.31620501253E+02  0.27465369943E+02 -0.42616072714E+01  0.42099585582E+02  0.10566000000E+00 0. -1.
         22    1    1    0    0    0  0.16888094473E+02  0.19762389775E+02  0.17924483501E+02  0.31576049362E+02  0.00000000000E+00 0.  1.
</event>
<event>
 5    1  0.1285346E-004  0.9118800E+02  0.7818608E-02  0.1130116E+00
         25   -1    0    0    0    0  0.00000000000E+00  0.00000000000E+00  0.99999998245E-14  0.12500000000E+03  0.12500000000E+03 0.  0.
        -13    1    3    3    0    0 -0.83923971766E+01  0.32976084407E+02 -0.91248423063E+01  0.35229652061E+02  0.10566000000E+00 0. -1.
         23    2    1    0    0    0  0.12757715968E+02 -0.22304021658E+02 -0.15867511934E+02  0.94800552425E+02  0.89861772219E+02 0.  0.
         13    1    3    3    0    0  0.21150113145E+02 -0.55280106064E+02 -0.67426696273E+01  0.59570900365E+02  0.10566000000E+00 0.  1.
         22    1    1    0    0    0 -0.12757715968E+02  0.22304021658E+02  0.15867511934E+02  0.30199447575E+02  0.00000000000E+00 0.  1.
</event>
<event>
 5    1  0.1285346E-004  0.9118800E+02  0.7818608E-02  0.1130116E+00
         25   -1    0    0    0    0  0.00000000000E+00  0.00000000000E+00  0.99999998245E-14  0.12500000000E+03  0.12500000000E+03 0.  0.
        -13    1    3    3    0    0  0.15201511363E+02  0.42526610888E+02  0.19257907644E+02  0.49096606321E+02  0.10566000000E+00 0. -1.
         23    2    1    0    0    0  0.27718711725E+02  0.89211418199E+00 -0.14023334321E+01  0.97231503706E+02  0.93181950647E+02 0.  0.
         13    1    3    3    0    0  0.12517200362E+02 -0.41634496706E+02 -0.20660241077E+02  0.48134897385E+02  0.10566000000E+00 0.  1.
         22    1    1    0    0    0 -0.27718711725E+02 -0.89211418199E+00  0.14023334321E+01  0.27768496294E+02  0.00000000000E+00 0.  1.
</event>
<event>
 5    1  0.1285346E-004  0.9118800E+02  0.7818608E-02  0.1130116E+00
         25   -1    0    0    0    0  0.00000000000E+00  0.00000000000E+00  0.99999998245E-14  0.12500000000E+03  0.12500000000E+03 0.  0.
        -13    1    3    3    0    0 -0.38471485255E+02  0.25068294253E+02  0.37106361309E+02  0.59037003380E+02  0.10566000000E+00 0.  1.
         23    2    1    0    0    0 -0.27680657967E+02  0.21366889748E+02  0.97175857276E+01  0.88706828806E+02  0.80942616720E+02 0.  0.
         13    1    3    3    0    0  0.10790827288E+02 -0.37014045053E+01 -0.27388775582E+02  0.29669825425E+02  0.10566000000E+00 0. -1.
         22    1    1    0    0    0  0.27680657967E+02 -0.21366889748E+02 -0.97175857276E+01  0.36293171194E+02  0.00000000000E+00 0.  1.
</event>
<event>
 5    1  0.1285346E-004  0.9118800E+02  0.7818608E-02  0.1130116E+00
         25   -1    0    0    0    0  0.00000000000E+00  0.00000000000E+00  0.99999998245E-14  0.12500000000E+03  0.12500000000E+03 0.  0.
        -13    1    3    3    0    0 -0.23756853149E+02 -0.23759537754E+02  0.44872683064E+02  0.56057760883E+02  0.10566000000E+00 0.  1.
         23    2    1    0    0    0 -0.70361358290E+01  0.76866540833E+01  0.27312813097E+02  0.95766772027E+02  0.91195904551E+02 0.  0.
         13    1    3    3    0    0  0.16720717320E+02  0.31446191838E+02 -0.17559869967E+02  0.39709011144E+02  0.10566000000E+00 0. -1.
         22    1    1    0    0    0  0.70361358290E+01 -0.76866540833E+01 -0.27312813097E+02  0.29233227973E+02  0.00000000000E+00 0.  1.
</event>
<event>
 5    1  0.1285346E-004  0.9118800E+02  0.7818608E-02  0.1130116E+00
         25   -1    0    0    0    0  0.00000000000E+00  0.00000000000E+00  0.99999998245E-14  0.12500000000E+03  0.12500000000E+03 0.  0.
        -13    1    3    3    0    0 -0.45978897750E+02 -0.22862721221E+02 -0.20444668502E+02  0.55269871486E+02  0.10566000000E+00 0. -1.
         23    2    1    0    0    0 -0.10952523301E+02 -0.28125262723E+02 -0.15615363361E+02  0.91017243449E+02  0.84435246564E+02 0.  0.
         13    1    3    3    0    0  0.35026374449E+02 -0.52625415026E+01  0.48293051410E+01  0.35747371963E+02  0.10566000000E+00 0.  1.
         22    1    1    0    0    0  0.10952523301E+02  0.28125262723E+02  0.15615363361E+02  0.33982756551E+02  0.00000000000E+00 0. -1.
</event>
<event>
 5    1  0.1285346E-004  0.9118800E+02  0.7818608E-02  0.1130116E+00
         25   -1    0    0    0    0  0.00000000000E+00  0.00000000000E+00  0.99999998245E-14  0.12500000000E+03  0.12500000000E+03 0.  0.
        -13    1    3    3    0    0 -0.28739295463E+02 -0.43759976303E+02 -0.21768096399E+02  0.56698710872E+02  0.10566000000E+00 0. -1.
         23    2    1    0    0    0 -0.24574125842E+02 -0.15255538581E+02  0.45523428847E+01  0.95719580876E+02  0.91131197836E+02 0.  0.
         13    1    3    3    0    0  0.41651696203E+01  0.28504437721E+02  0.26320439284E+02  0.39020870004E+02  0.10566000000E+00 0.  1.
         22    1    1    0    0    0  0.24574125842E+02  0.15255538581E+02 -0.45523428847E+01  0.29280419124E+02  0.00000000000E+00 0. -1.
</event>
<event>
 5    1  0.1285346E-004  0.9118800E+02  0.7818608E-02  0.1130116E+00
         25   -1    0    0    0    0  0.00000000000E+00  0.00000000000E+00  0.99999998245E-14  0.12500000000E+03  0.12500000000E+03 0.  0.
        -13    1    3    3    0    0  0.41931541074E+02 -0.39958564531E+02 -0.94785580833E+01  0.58692378071E+02  0.10566000000E+00 0. -1.
         23    2    1    0    0    0  0.20800452979E+02 -0.10975850218E+02 -0.17789757627E+02  0.95510957822E+02  0.90844589578E+02 0.  0.
         13    1    3    3    0    0 -0.21131088095E+02  0.28982714313E+02 -0.83111995434E+01  0.36818579751E+02  0.10566000000E+00 0.  1.
         22    1    1    0    0    0 -0.20800452979E+02  0.10975850218E+02  0.17789757627E+02  0.29489042178E+02  0.00000000000E+00 0. -1.
</event>
<event>
 5    1  0.1285346E-004  0.9118800E+02  0.7818608E-02  0.1130116E+00
         25   -1    0    0    0    0  0.00000000000E+00  0.00000000000E+00  0.99999998245E-14  0.12500000000E+03  0.12500000000E+03 0.  0.
        -13    1    3    3    0    0  0.26815348224E+02  0.27716368418E+02  0.97059721342E+01  0.39767788947E+02  0.10566000000E+00 0.  1.
         23    2    1    0    0    0 -0.24075865773E+02  0.16042675087E+02 -0.81384235966E+01  0.94945904184E+02  0.90063733245E+02 0.  0.
         13    1    3    3    0    0 -0.50891213997E+02 -0.11673693331E+02 -0.17844395731E+02  0.55178115237E+02  0.10566000000E+00 0. -1.
         22    1    1    0    0    0  0.24075865773E+02 -0.16042675087E+02  0.81384235966E+01  0.30054095816E+02  0.00000000000E+00 0. -1.
</event>
<event>
 5    1  0.1285346E-004  0.9118800E+02  0.7818608E-02  0.1130116E+00
         25   -1    0    0    0    0  0.00000000000E+00  0.00000000000E+00  0.99999998245E-14  0.12500000000E+03  0.12500000000E+03 0.  0.
        -13    1    3    3    0    0 -0.34364346091E+02 -0.18077455147E+02  0.77044515251E+01  0.39586265348E+02  0.10566000000E+00 0.  1.
         23    2    1    0    0    0  0.24232701047E+02 -0.29434338248E+01  0.43611521717E-01  0.10058915191E+03  0.97582211373E+02 0.  0.
         13    1    3    3    0    0  0.58597047139E+02  0.15134021322E+02 -0.76608400034E+01  0.61002886557E+02  0.10566000000E+00 0. -1.
         22    1    1    0    0    0 -0.24232701047E+02  0.29434338248E+01 -0.43611521717E-01  0.24410848094E+02  0.00000000000E+00 0. -1.
</event>
<event>
 5    1  0.1285346E-004  0.9118800E+02  0.7818608E-02  0.1130116E+00
         25   -1    0    0    0    0  0.00000000000E+00  0.00000000000E+00  0.99999998245E-14  0.12500000000E+03  0.12500000000E+03 0.  0.
        -13    1    3    3    0    0  0.11799780974E+02  0.40686410444E+02  0.12117813600E+02  0.44062131091E+02  0.10566000000E+00 0. -1.
         23    2    1    0    0    0  0.27933681081E+02 -0.51250913748E+01 -0.61290955371E+01  0.95946206574E+02  0.91441520347E+02 0.  0.
         13    1    3    3    0    0  0.16133900108E+02 -0.45811501819E+02 -0.18246909137E+02  0.51884075482E+02  0.10566000000E+00 0.  1.
         22    1    1    0    0    0 -0.27933681081E+02  0.51250913748E+01  0.61290955371E+01  0.29053793426E+02  0.00000000000E+00 0. -1.
</event>
<event>
 5    1  0.1285346E-004  0.9118800E+02  0.7818608E-02  0.1130116E+00
         25   -1    0    0    0    0  0.00000000000E+00  0.00000000000E+00  0.99999998245E-14  0.12500000000E+03  0.12500000000E+03 0.  0.
        -13    1    3    3    0    0  0.25652769492E+02 -0.18372904002E+02 -0.89203961524E+01  0.32790437869E+02  0.10566000000E+00 0.  1.
         23    2    1    0    0    0 -0.14744780747E+02  0.27074476504E+02 -0.58789075653E+00  0.94165255753E+02  0.88973669916E+02 0.  0.
         13    1    3    3    0    0 -0.40397550239E+02  0.45447380506E+02  0.83325053959E+01  0.61374817884E+02  0.10566000000E+00 0. -1.
         22    1    1    0    0    0  0.14744780747E+02 -0.27074476504E+02  0.58789075653E+00  0.30834744247E+02  0.00000000000E+00 0. -1.
</event>
<event>
 5    1  0.1285346E-004  0.9118800E+02  0.7818608E-02  0.1130116E+00
         25   -1    0    0    0    0  0.00000000000E+00  0.00000000000E+00  0.99999998245E-14  0.12500000000E+03  0.12500000000E+03 0.  0.
        -13    1    3    3    0    0 -0.30802497533E+02  0.50403126997E+02  0.12514395808E+02  0.60381208433E+02  0.10566000000E+00 0. -1.
         23    2    1    0    0    0 -0.72535545230E+01  0.24280903053E+02  0.14849144095E+02  0.95628697907E+02  0.91006452940E+02 0.  0.
         13    1    3    3    0    0  0.23548943010E+02 -0.26122223944E+02  0.23347482873E+01  0.35247489474E+02  0.10566000000E+00 0.  1.
         22    1    1    0    0    0  0.72535545230E+01 -0.24280903053E+02 -0.14849144095E+02  0.29371302093E+02  0.00000000000E+00 0. -1.
</event>
<event>
 5    1  0.1285346E-004  0.9118800E+02  0.7818608E-02  0.1130116E+00
         25   -1    0    0    0    0  0.00000000000E+00  0.00000000000E+00  0.99999998245E-14  0.12500000000E+03  0.12500000000E+03 0.  0.
        -13    1    3    3    0    0  0.35946321593E+02  0.46511872168E+02  0.11769486234E+02  0.59950181475E+02  0.10566000000E+00 0. -1.
         23    2    1    0    0    0  0.18037706913E+02  0.15556552346E+02  0.16499464170E+02  0.96024190961E+02  0.91548062460E+02 0.  0.
         13    1    3    3    0    0 -0.17908614680E+02 -0.30955319822E+02  0.47299779364E+01  0.36074009486E+02  0.10566000000E+00 0.  1.
         22    1    1    0    0    0 -0.18037706913E+02 -0.15556552346E+02 -0.16499464170E+02  0.28975809039E+02  0.00000000000E+00 0. -1.
</event>
<event>
 5    1  0.1285346E-004  0.9118800E+02  0.7818608E-02  0.1130116E+00
         25   -1    0    0    0    0  0.00000000000E+00  0.00000000000E+00  0.99999998245E-14  0.12500000000E+03  0.12500000000E+03 0.  0.
        -13    1    3    3    0    0  0.27133603893E+02 -0.26425640189E+02 -0.14456696994E+02  0.40540771720E+02  0.10566000000E+00 0.  1.
         23    2    1    0    0    0 -0.41777555993E+01  0.19116444023E+01  0.25745889655E+02  0.98847392859E+02  0.95324961131E+02 0.  0.
         13    1    3    3    0    0 -0.31311359492E+02  0.28337284592E+02  0.40202586649E+02  0.58306621139E+02  0.10566000000E+00 0. -1.
         22    1    1    0    0    0  0.41777555993E+01 -0.19116444023E+01 -0.25745889655E+02  0.26152607141E+02  0.00000000000E+00 0. -1.
</event>
<event>
 5    1  0.1285346E-004  0.9118800E+02  0.7818608E-02  0.1130116E+00
         25   -1    0    0    0    0  0.00000000000E+00  0.00000000000E+00  0.99999998245E-14  0.12500000000E+03  0.12500000000E+03 0.  0.
        -13    1    3    3    0    0  0.51159054047E+02 -0.19461377463E+02  0.11990547855E+02  0.56033725788E+02  0.10566000000E+00 0.  1.
         23    2    1    0    0    0  0.17410115594E+02 -0.23751244989E+02 -0.66260371262E+01  0.94814935291E+02  0.89881776922E+02 0.  0.
         13    1    3    3    0    0 -0.33748938453E+02 -0.42898675255E+01 -0.18616584981E+02  0.38781209503E+02  0.10566000000E+00 0. -1.
         22    1    1    0    0    0 -0.17410115594E+02  0.23751244989E+02  0.66260371262E+01  0.30185064709E+02  0.00000000000E+00 0.  1.
</event>
<event>
 5    1  0.1285346E-004  0.9118800E+02  0.7818608E-02  0.1130116E+00
         25   -1    0    0    0    0  0.00000000000E+00  0.00000000000E+00  0.99999998245E-14  0.12500000000E+03  0.12500000000E+03 0.  0.
        -13    1    3    3    0    0  0.14844089476E+02 -0.21374743667E+02  0.40895438746E+02  0.48473443590E+02  0.10566000000E+00 0. -1.
         23    2    1    0    0    0  0.12218171659E+02  0.18070245093E+02  0.26802842377E+02  0.90442658726E+02  0.83580288834E+02 0.  0.
         13    1    3    3    0    0 -0.26259178168E+01  0.39444988760E+02 -0.14092596369E+02  0.41969215136E+02  0.10566000000E+00 0.  1.
         22    1    1    0    0    0 -0.12218171659E+02 -0.18070245093E+02 -0.26802842377E+02  0.34557341274E+02  0.00000000000E+00 0. -1.
</event>
<event>
 5    1  0.1285346E-004  0.9118800E+02  0.7818608E-02  0.1130116E+00
         25   -1    0    0    0    0  0.00000000000E+00  0.00000000000E+00  0.99999998245E-14  0.12500000000E+03  0.12500000000E+03 0.  0.
        -13    1    3    3    0    0  0.63220591756E+01  0.51644444988E+02  0.13986209483E+01  0.52048865837E+02  0.10566000000E+00 0.  1.
         23    2    1    0    0    0 -0.20530680663E+02  0.20440186408E+02 -0.92801073064E+01  0.94579111445E+02  0.89553212457E+02 0.  0.
         13    1    3    3    0    0 -0.26852739838E+02 -0.31204258580E+02 -0.10678728255E+02  0.42530245608E+02  0.10566000000E+00 0. -1.
         22    1    1    0    0    0  0.20530680663E+02 -0.20440186408E+02  0.92801073064E+01  0.30420888555E+02  0.00000000000E+00 0.  1.
</event>
<event>
 5    1  0.1285346E-004  0.9118800E+02  0.7818608E-02  0.1130116E+00
         25   -1    0    0    0    0  0.00000000000E+00  0.00000000000E+00  0.99999998245E-14  0.12500000000E+03  0.12500000000E+03 0.  0.
        -13    1    3    3    0    0  0.37657102379E+02  0.20590577618E+02 -0.20695342170E+02  0.47648059749E+02  0.10566000000E+00 0.  1.
         23    2    1    0    0    0  0.74246363421E+01  0.23902049813E+02  0.15989010774E+02  0.95300140142E+02  0.90554044832E+02 0.  0.
         13    1    3    3    0    0 -0.30232466037E+02  0.33114721943E+01  0.36684352945E+02  0.47652080393E+02  0.10566000000E+00 0. -1.
         22    1    1    0    0    0 -0.74246363421E+01 -0.23902049813E+02 -0.15989010774E+02  0.29699859858E+02  0.00000000000E+00 0. -1.
</event>
<event>
 5    1  0.1285346E-004  0.9118800E+02  0.7818608E-02  0.1130116E+00
         25   -1    0    0    0    0  0.00000000000E+00  0.00000000000E+00  0.99999998245E-14  0.12500000000E+03  0.12500000000E+03 0.  0.
        -13    1    3    3    0    0 -0.18378830622E+02  0.18050569193E+02 -0.25751311869E+02  0.36424520453E+02  0.10566000000E+00 0.  1.
         23    2    1    0    0    0  0.90337926687E+01 -0.27509163266E+02  0.11688748523E+01  0.96021909276E+02  0.91544946988E+02 0.  0.
         13    1    3    3    0    0  0.27412623291E+02 -0.45559732459E+02  0.26920186721E+02  0.59597388823E+02  0.10566000000E+00 0. -1.
         22    1    1    0    0    0 -0.90337926687E+01  0.27509163266E+02 -0.11688748523E+01  0.28978090724E+02  0.00000000000E+00 0. -1.
</event>
<event>
 5    1  0.1285346E-004  0.9118800E+02  0.7818608E-02  0.1130116E+00
         25   -1    0    0    0    0  0.00000000000E+00  0.00000000000E+00  0.99999998245E-14  0.12500000000E+03  0.12500000000E+03 0.  0.
        -13    1    3    3    0    0  0.10231201598E+02 -0.44676546871E+02  0.25598335866E+01  0.45904631993E+02  0.10566000000E+00 0. -1.
         23    2    1    0    0    0 -0.23373600879E+02 -0.86144533863E+01  0.13884331595E+02  0.96481432556E+02  0.92170267110E+02 0.  0.
         13    1    3    3    0    0 -0.33604802477E+02  0.36062093484E+02  0.11324498009E+02  0.50576800563E+02  0.10566000000E+00 0.  1.
         22    1    1    0    0    0  0.23373600879E+02  0.86144533863E+01 -0.13884331595E+02  0.28518567444E+02  0.00000000000E+00 0.  1.
</event>
<event>
 5    1  0.1285346E-004  0.9118800E+02  0.7818608E-02  0.1130116E+00
         25   -1    0    0    0    0  0.00000000000E+00  0.00000000000E+00  0.99999998245E-14  0.12500000000E+03  0.12500000000E+03 0.  0.
        -13    1    3    3    0    0 -0.51725207748E+01 -0.34204233984E+02  0.22103941881E+02  0.41052161993E+02  0.10566000000E+00 0.  1.
         23    2    1    0    0    0 -0.29375441763E+02 -0.27604949847E+01 -0.11779523793E+02  0.93230610769E+02  0.87650742680E+02 0.  0.
         13    1    3    3    0    0 -0.24202920988E+02  0.31443738999E+02 -0.33883465674E+02  0.52178448776E+02  0.10566000000E+00 0. -1.
         22    1    1    0    0    0  0.29375441763E+02  0.27604949847E+01  0.11779523793E+02  0.31769389231E+02  0.00000000000E+00 0. -1.
</event>
<event>
 5    1  0.1285346E-004  0.9118800E+02  0.7818608E-02  0.1130116E+00
         25   -1    0    0    0    0  0.00000000000E+00  0.00000000000E+00  0.99999998245E-14  0.12500000000E+03  0.12500000000E+03 0.  0.
        -13    1    3    3    0    0  0.97662903671E+01  0.49396182681E+02 -0.29884734346E+02  0.58553153647E+02  0.10566000000E+00 0.  1.
         23    2    1    0    0    0  0.12597131365E+02  0.26931253345E+02 -0.10048037531E+01  0.95251222614E+02  0.90486494316E+02 0.  0.
         13    1    3    3    0    0  0.28308409980E+01 -0.22464929336E+02  0.28879930593E+02  0.36698068967E+02  0.10566000000E+00 0. -1.
         22    1    1    0    0    0 -0.12597131365E+02 -0.26931253345E+02  0.10048037531E+01  0.29748777386E+02  0.00000000000E+00 0.  1.
</event>
<event>
 5    1  0.1285346E-004  0.9118800E+02  0.7818608E-02  0.1130116E+00
         25   -1    0    0    0    0  0.00000000000E+00  0.00000000000E+00  0.99999998245E-14  0.12500000000E+03  0.12500000000E+03 0.  0.
        -13    1    3    3    0    0  0.43543185553E+02  0.11974954776E+02 -0.26285253499E+02  0.52252600562E+02  0.10566000000E+00 0.  1.
         23    2    1    0    0    0  0.23906363138E+02  0.10955169608E+02  0.12610098230E+02  0.95835903632E+02  0.91290612376E+02 0.  0.
         13    1    3    3    0    0 -0.19636822415E+02 -0.10197851675E+01  0.38895351728E+02  0.43583303070E+02  0.10566000000E+00 0. -1.
         22    1    1    0    0    0 -0.23906363138E+02 -0.10955169608E+02 -0.12610098230E+02  0.29164096368E+02  0.00000000000E+00 0. -1.
</event>
<event>
 5    1  0.1285346E-004  0.9118800E+02  0.7818608E-02  0.1130116E+00
         25   -1    0    0    0    0  0.00000000000E+00  0.00000000000E+00  0.99999998245E-14  0.12500000000E+03  0.12500000000E+03 0.  0.
        -13    1    3    3    0    0  0.36095714183E+02  0.41884020556E+01 -0.37289459974E+01  0.36528885782E+02  0.10566000000E+00 0.  1.
         23    2    1    0    0    0  0.30993168934E+01 -0.35084584553E+02  0.73829448978E+01  0.89013311992E+02  0.81414544142E+02 0.  0.
         13    1    3    3    0    0 -0.32996397290E+02 -0.39272986608E+02  0.11111890895E+02  0.52484426210E+02  0.10566000000E+00 0. -1.
         22    1    1    0    0    0 -0.30993168934E+01  0.35084584553E+02 -0.73829448978E+01  0.35986688008E+02  0.00000000000E+00 0. -1.
</event>
<event>
 5    1  0.1285346E-004  0.9118800E+02  0.7818608E-02  0.1130116E+00
         25   -1    0    0    0    0  0.00000000000E+00  0.00000000000E+00  0.99999998245E-14  0.12500000000E+03  0.12500000000E+03 0.  0.
        -13    1    3    3    0    0 -0.58048935928E+02  0.19914158756E+02  0.36678470215E+01  0.61479402626E+02  0.10566000000E+00 0. -1.
         23    2    1    0    0    0 -0.27905455709E+02  0.15575656863E+02  0.74996187693E+01  0.92173793598E+02  0.86130415067E+02 0.  0.
         13    1    3    3    0    0  0.30143480219E+02 -0.43385018928E+01  0.38317717478E+01  0.30694390973E+02  0.10566000000E+00 0.  1.
         22    1    1    0    0    0  0.27905455709E+02 -0.15575656863E+02 -0.74996187693E+01  0.32826206402E+02  0.00000000000E+00 0. -1.
</event>
<event>
 5    1  0.1285346E-004  0.9118800E+02  0.7818608E-02  0.1130116E+00
         25   -1    0    0    0    0  0.00000000000E+00  0.00000000000E+00  0.99999998245E-14  0.12500000000E+03  0.12500000000E+03 0.  0.
        -13    1    3    3    0    0  0.31563487923E+02 -0.40356990147E+02 -0.13898577353E+02  0.53085987229E+02  0.10566000000E+00 0. -1.
         23    2    1    0    0    0  0.23414270274E+02 -0.43452519280E-01 -0.19414977483E+02  0.94583371469E+02  0.89559158477E+02 0.  0.
         13    1    3    3    0    0 -0.81492176490E+01  0.40313537628E+02 -0.55164001291E+01  0.41497384240E+02  0.10566000000E+00 0.  1.
         22    1    1    0    0    0 -0.23414270274E+02  0.43452519280E-01  0.19414977483E+02  0.30416628531E+02  0.00000000000E+00 0. -1.
</event>
<event>
 5    1  0.1285346E-004  0.9118800E+02  0.7818608E-02  0.1130116E+00
         25   -1    0    0    0    0  0.00000000000E+00  0.00000000000E+00  0.99999998245E-14  0.12500000000E+03  0.12500000000E+03 0.  0.
        -13    1    3    3    0    0 -0.10686400400E+02  0.27326374747E+02  0.22988712729E+02  0.37274951204E+02  0.10566000000E+00 0. -1.
         23    2    1    0    0    0 -0.22778076800E+02 -0.17625571604E+02 -0.10201443408E+02  0.94445605804E+02  0.89366668568E+02 0.  0.
         13    1    3    3    0    0 -0.12091676400E+02 -0.44951946351E+02 -0.33190156137E+02  0.57170654599E+02  0.10566000000E+00 0.  1.
         22    1    1    0    0    0  0.22778076800E+02  0.17625571604E+02  0.10201443408E+02  0.30554394196E+02  0.00000000000E+00 0.  1.
</event>
<event>
 5    1  0.1285346E-004  0.9118800E+02  0.7818608E-02  0.1130116E+00
         25   -1    0    0    0    0  0.00000000000E+00  0.00000000000E+00  0.99999998245E-14  0.12500000000E+03  0.12500000000E+03 0.  0.
        -13    1    3    3    0    0  0.31797410532E+02  0.58881371111E+01  0.35475762607E+02  0.48002982947E+02  0.10566000000E+00 0.  1.
         23    2    1    0    0    0 -0.13868066594E+02  0.10571817270E+02  0.24022818866E+02  0.95315283095E+02  0.90574945619E+02 0.  0.
         13    1    3    3    0    0 -0.45665477126E+02  0.46836801589E+01 -0.11452943741E+02  0.47312300148E+02  0.10566000000E+00 0. -1.
         22    1    1    0    0    0  0.13868066594E+02 -0.10571817270E+02 -0.24022818866E+02  0.29684716905E+02  0.00000000000E+00 0.  1.
</event>
<event>
 5    1  0.1285346E-004  0.9118800E+02  0.7818608E-02  0.1130116E+00
         25   -1    0    0    0    0  0.00000000000E+00  0.00000000000E+00  0.99999998245E-14  0.12500000000E+03  0.12500000000E+03 0.  0.
        -13    1    3    3    0    0 -0.41095342212E+02  0.15394411171E+01  0.15580166399E+02  0.43976695868E+02  0.10566000000E+00 0.  1.
         23    2    1    0    0    0 -0.99624701589E+01  0.26375589666E+02 -0.13937520725E+02  0.93548815191E+02  0.88103369957E+02 0.  0.
         13    1    3    3    0    0  0.31132872053E+02  0.24836148549E+02 -0.29517687124E+02  0.49572119323E+02  0.10566000000E+00 0. -1.
         22    1    1    0    0    0  0.99624701589E+01 -0.26375589666E+02  0.13937520725E+02  0.31451184809E+02  0.00000000000E+00 0. -1.
</event>
<event>
 5    1  0.1285346E-004  0.9118800E+02  0.7818608E-02  0.1130116E+00
         25   -1    0    0    0    0  0.00000000000E+00  0.00000000000E+00  0.99999998245E-14  0.12500000000E+03  0.12500000000E+03 0.  0.
        -13    1    3    3    0    0  0.34481797723E+01  0.16962008097E+02 -0.29599396195E+02  0.34288993592E+02  0.10566000000E+00 0. -1.
         23    2    1    0    0    0 -0.13471140149E+02 -0.74145807425E+01  0.24547831532E+02  0.96033749683E+02  0.91561113037E+02 0.  0.
         13    1    3    3    0    0 -0.16919319922E+02 -0.24376588839E+02  0.54147227728E+02  0.61744756090E+02  0.10566000000E+00 0.  1.
         22    1    1    0    0    0  0.13471140149E+02  0.74145807425E+01 -0.24547831532E+02  0.28966250317E+02  0.00000000000E+00 0.  1.
</event>
<event>
 5    1  0.1285346E-004  0.9118800E+02  0.7818608E-02  0.1130116E+00
         25   -1    0    0    0    0  0.00000000000E+00  0.00000000000E+00  0.99999998245E-14  0.12500000000E+03  0.12500000000E+03 0.  0.
        -13    1    3    3    0    0  0.37069384359E+01  0.48128725600E+02  0.29082135624E+01  0.48358913249E+02  0.10566000000E+00 0.  1.
         23    2    1    0    0    0 -0.86643476881E+01  0.10275669754E+02 -0.24743715422E+02  0.96841311064E+02  0.92657043801E+02 0.  0.
         13    1    3    3    0    0 -0.12371286124E+02 -0.37853055846E+02 -0.27651928984E+02  0.48482397815E+02  0.10566000000E+00 0. -1.
         22    1    1    0    0    0  0.86643476881E+01 -0.10275669754E+02  0.24743715422E+02  0.28158688936E+02  0.00000000000E+00 0. -1.
</event>
<event>
 5    1  0.1285346E-004  0.9118800E+02  0.7818608E-02  0.1130116E+00
         25   -1    0    0    0    0  0.00000000000E+00  0.00000000000E+00  0.99999998245E-14  0.12500000000E+03  0.12500000000E+03 0.  0.
        -13    1    3    3    0    0 -0.51503170350E+02  0.14656231298E+02 -0.28519357681E+01  0.53623934708E+02  0.10566000000E+00 0.  1.
         23    2    1    0    0    0 -0.16793157550E+02  0.63793220177E+01  0.21618595140E+02  0.96891824219E+02  0.92725164086E+02 0.  0.
         13    1    3    3    0    0  0.34710012799E+02 -0.82769092804E+01  0.24470530908E+02  0.43267889511E+02  0.10566000000E+00 0. -1.
         22    1    1    0    0    0  0.16793157550E+02 -0.63793220177E+01 -0.21618595140E+02  0.28108175781E+02  0.00000000000E+00 0.  1.
</event>
<event>
 5    1  0.1285346E-004  0.9118800E+02  0.7818608E-02  0.1130116E+00
         25   -1    0    0    0    0  0.00000000000E+00  0.00000000000E+00  0.99999998245E-14  0.12500000000E+03  0.12500000000E+03 0.  0.
        -13    1    3    3    0    0  0.99465061740E+01 -0.55840865101E+02  0.10822383586E+02  0.57743141158E+02  0.10566000000E+00 0.  1.
         23    2    1    0    0    0  0.29630751725E+01 -0.27102302552E+02 -0.12110238578E+02  0.95167593182E+02  0.90370892967E+02 0.  0.
         13    1    3    3    0    0 -0.69834310015E+01  0.28738562549E+02 -0.22932622164E+02  0.37424452024E+02  0.10566000000E+00 0. -1.
         22    1    1    0    0    0 -0.29630751725E+01  0.27102302552E+02  0.12110238578E+02  0.29832406818E+02  0.00000000000E+00 0.  1.
</event>
<event>
 5    1  0.1285346E-004  0.9118800E+02  0.7818608E-02  0.1130116E+00
         25   -1    0    0    0    0  0.00000000000E+00  0.00000000000E+00  0.99999998245E-14  0.12500000000E+03  0.12500000000E+03 0.  0.
        -13    1    3    3    0    0  0.67394320265E+00 -0.32693291755E+02 -0.51025878413E+02  0.60604925188E+02  0.10566000000E+00 0.  1.
         23    2    1    0    0    0  0.55564791991E+01 -0.74119607071E+01 -0.29220978552E+02  0.94345845141E+02  0.89227021049E+02 0.  0.
         13    1    3    3    0    0  0.48825359964E+01  0.25281331048E+02  0.21804899861E+02  0.33740919953E+02  0.10566000000E+00 0. -1.
         22    1    1    0    0    0 -0.55564791991E+01  0.74119607071E+01  0.29220978552E+02  0.30654154859E+02  0.00000000000E+00 0.  1.
</event>
<event>
 5    1  0.1285346E-004  0.9118800E+02  0.7818608E-02  0.1130116E+00
         25   -1    0    0    0    0  0.00000000000E+00  0.00000000000E+00  0.99999998245E-14  0.12500000000E+03  0.12500000000E+03 0.  0.
        -13    1    3    3    0    0  0.19346318125E+01 -0.50964278367E+02  0.19533186408E+01  0.51038486336E+02  0.10566000000E+00 0.  1.
         23    2    1    0    0    0  0.12135318313E+02 -0.11264336289E+02  0.22639233057E+02  0.96952075015E+02  0.92806350826E+02 0.  0.
         13    1    3    3    0    0  0.10200686500E+02  0.39699942078E+02  0.20685914416E+02  0.45913588679E+02  0.10566000000E+00 0. -1.
         22    1    1    0    0    0 -0.12135318313E+02  0.11264336289E+02 -0.22639233057E+02  0.28047924985E+02  0.00000000000E+00 0.  1.
</event>
<event>
 5    1  0.1285346E-004  0.9118800E+02  0.7818608E-02  0.1130116E+00
         25   -1    0    0    0    0  0.00000000000E+00  0.00000000000E+00  0.99999998245E-14  0.12500000000E+03  0.12500000000E+03 0.  0.
        -13    1    3    3    0    0  0.58692965844E+02  0.15958916112E+02  0.49630380612E+00  0.60826053008E+02  0.10566000000E+00 0.  1.
         23    2    1    0    0    0  0.28927062178E+02 -0.26415475831E+01  0.11124954518E+01  0.95931282347E+02  0.91421116744E+02 0.  0.
         13    1    3    3    0    0 -0.29765903666E+02 -0.18600463695E+02  0.61619164569E+00  0.35105229339E+02  0.10566000000E+00 0. -1.
         22    1    1    0    0    0 -0.28927062178E+02  0.26415475831E+01 -0.11124954518E+01  0.29068717653E+02  0.00000000000E+00 0.  1.
</event>
<event>
 5    1  0.1285346E-004  0.9118800E+02  0.7818608E-02  0.1130116E+00
         25   -1    0    0    0    0  0.00000000000E+00  0.00000000000E+00  0.99999998245E-14  0.12500000000E+03  0.12500000000E+03 0.  0.
        -13    1    3    3    0    0 -0.36867706094E+01 -0.14899708739E+02  0.49401140810E+02  0.51730817463E+02  0.10566000000E+00 0.  1.
         23    2    1    0    0    0 -0.10319398116E+01  0.19354312804E+02  0.22028877480E+02  0.95658463454E+02  0.91047327602E+02 0.  0.
         13    1    3    3    0    0  0.26548307978E+01  0.34254021543E+02 -0.27372263330E+02  0.43927645990E+02  0.10566000000E+00 0. -1.
         22    1    1    0    0    0  0.10319398116E+01 -0.19354312804E+02 -0.22028877480E+02  0.29341536546E+02  0.00000000000E+00 0. -1.
</event>
<event>
 5    1  0.1285346E-004  0.9118800E+02  0.7818608E-02  0.1130116E+00
         25   -1    0    0    0    0  0.00000000000E+00  0.00000000000E+00  0.99999998245E-14  0.12500000000E+03  0.12500000000E+03 0.  0.
        -13    1    3    3    0    0 -0.10844642229E+02  0.99802931723E+00 -0.31820388880E+02  0.33632583013E+02  0.10566000000E+00 0.  1.
         23    2    1    0    0    0  0.13234256480E+02  0.17705124716E+02  0.21300997138E+02  0.94302288932E+02  0.89165981366E+02 0.  0.
         13    1    3    3    0    0  0.24078898709E+02  0.16707095399E+02  0.53121386018E+02  0.60669705918E+02  0.10566000000E+00 0. -1.
         22    1    1    0    0    0 -0.13234256480E+02 -0.17705124716E+02 -0.21300997138E+02  0.30697711068E+02  0.00000000000E+00 0. -1.
</event>
<event>
 5    1  0.1285346E-004  0.9118800E+02  0.7818608E-02  0.1130116E+00
         25   -1    0    0    0    0  0.00000000000E+00  0.00000000000E+00  0.99999998245E-14  0.12500000000E+03  0.12500000000E+03 0.  0.
        -13    1    3    3    0    0  0.37645136020E+02 -0.29188313826E+01 -0.17798261046E+02  0.41742844931E+02  0.10566000000E+00 0.  1.
         23    2    1    0    0    0  0.62635864160E+01 -0.15575802657E+02  0.24118899990E+02  0.95613617440E+02  0.90985737125E+02 0.  0.
         13    1    3    3    0    0 -0.31381549604E+02 -0.12656971275E+02  0.41917161037E+02  0.53870772510E+02  0.10566000000E+00 0. -1.
         22    1    1    0    0    0 -0.62635864160E+01  0.15575802657E+02 -0.24118899990E+02  0.29386382560E+02  0.00000000000E+00 0. -1.
</event>
<event>
 5    1  0.1285346E-004  0.9118800E+02  0.7818608E-02  0.1130116E+00
         25   -1    0    0    0    0  0.00000000000E+00  0.00000000000E+00  0.99999998245E-14  0.12500000000E+03  0.12500000000E+03 0.  0.
        -13    1    3    3    0    0 -0.18755219163E+01  0.19018558187E+02  0.35523816871E+02  0.40338268023E+02  0.10566000000E+00 0.  1.
         23    2    1    0    0    0 -0.10728110905E+01  0.20598340205E+02 -0.20223272663E+02  0.96113613933E+02  0.91670079542E+02 0.  0.
         13    1    3    3    0    0  0.80271082583E+00  0.15797820178E+01 -0.55747089533E+02  0.55775345910E+02  0.10566000000E+00 0. -1.
         22    1    1    0    0    0  0.10728110905E+01 -0.20598340205E+02  0.20223272663E+02  0.28886386067E+02  0.00000000000E+00 0. -1.
</event>
<event>
 5    1  0.1285346E-004  0.9118800E+02  0.7818608E-02  0.1130116E+00
         25   -1    0    0    0    0  0.00000000000E+00  0.00000000000E+00  0.99999998245E-14  0.12500000000E+03  0.12500000000E+03 0.  0.
        -13    1    3    3    0    0 -0.31229536667E+02 -0.18712661417E+02 -0.16353576919E+02  0.39911130024E+02  0.10566000000E+00 0.  1.
         23    2    1    0    0    0  0.64383975272E+01  0.24227493011E+02 -0.12028802418E+02  0.97195028000E+02  0.93133007038E+02 0.  0.
         13    1    3    3    0    0  0.37667934194E+02  0.42940154428E+02  0.43247745015E+01  0.57283897976E+02  0.10566000000E+00 0. -1.
         22    1    1    0    0    0 -0.64383975272E+01 -0.24227493011E+02  0.12028802418E+02  0.27804972000E+02  0.00000000000E+00 0. -1.
</event>
<event>
 5    1  0.1285346E-004  0.9118800E+02  0.7818608E-02  0.1130116E+00
         25   -1    0    0    0    0  0.00000000000E+00  0.00000000000E+00  0.99999998245E-14  0.12500000000E+03  0.12500000000E+03 0.  0.
        -13    1    3    3    0    0  0.22038778179E+00 -0.10575635642E+02  0.61212294858E+02  0.62119633337E+02  0.10566000000E+00 0.  1.
         23    2    1    0    0    0  0.23508773713E+01 -0.84371986217E+00  0.30287601129E+02  0.94609585890E+02  0.89595739143E+02 0.  0.
         13    1    3    3    0    0  0.21304895895E+01  0.97319157800E+01 -0.30924693729E+02  0.32489952554E+02  0.10566000000E+00 0. -1.
         22    1    1    0    0    0 -0.23508773713E+01  0.84371986217E+00 -0.30287601129E+02  0.30390414110E+02  0.00000000000E+00 0.  1.
</event>
<event>
 5    1  0.1285346E-004  0.9118800E+02  0.7818608E-02  0.1130116E+00
         25   -1    0    0    0    0  0.00000000000E+00  0.00000000000E+00  0.99999998245E-14  0.12500000000E+03  0.12500000000E+03 0.  0.
        -13    1    3    3    0    0 -0.46835792835E+02  0.24401504369E+02  0.66662119528E+01  0.53230390303E+02  0.10566000000E+00 0.  1.
         23    2    1    0    0    0 -0.18656369625E+02 -0.12548430544E+02 -0.66203016609E+01  0.10156174856E+03  0.98820226365E+02 0.  0.
         13    1    3    3    0    0  0.28179423209E+02 -0.36949934913E+02 -0.13286513614E+02  0.48331358252E+02  0.10566000000E+00 0. -1.
         22    1    1    0    0    0  0.18656369625E+02  0.12548430544E+02  0.66203016609E+01  0.23438251445E+02  0.00000000000E+00 0.  1.
</event>
<event>
 5    1  0.1285346E-004  0.9118800E+02  0.7818608E-02  0.1130116E+00
         25   -1    0    0    0    0  0.00000000000E+00  0.00000000000E+00  0.99999998245E-14  0.12500000000E+03  0.12500000000E+03 0.  0.
        -13    1    3    3    0    0 -0.31817776271E+02  0.20127970853E+02  0.42462104296E+02  0.56749868394E+02  0.10566000000E+00 0. -1.
         23    2    1    0    0    0 -0.27225071278E+02 -0.18811462175E+01  0.10649190012E+02  0.95705828820E+02  0.91112332892E+02 0.  0.
         13    1    3    3    0    0  0.45927049922E+01 -0.22009117071E+02 -0.31812914284E+02  0.38955960426E+02  0.10566000000E+00 0.  1.
         22    1    1    0    0    0  0.27225071278E+02  0.18811462175E+01 -0.10649190012E+02  0.29294171180E+02  0.00000000000E+00 0. -1.
</event>
<event>
 5    1  0.1285346E-004  0.9118800E+02  0.7818608E-02  0.1130116E+00
         25   -1    0    0    0    0  0.00000000000E+00  0.00000000000E+00  0.99999998245E-14  0.12500000000E+03  0.12500000000E+03 0.  0.
        -13    1    3    3    0    0 -0.13227690265E+02 -0.30053871830E+02  0.37046374840E-02  0.32836232724E+02  0.10566000000E+00 0.  1.
         23    2    1    0    0    0 -0.76519238797E+01  0.19704790850E+02  0.27777891870E+02  0.90093811462E+02  0.83056925452E+02 0.  0.
         13    1    3    3    0    0  0.55757663856E+01  0.49758662680E+02  0.27774187233E+02  0.57257578738E+02  0.10566000000E+00 0. -1.
         22    1    1    0    0    0  0.76519238797E+01 -0.19704790850E+02 -0.27777891870E+02  0.34906188538E+02  0.00000000000E+00 0. -1.
</event>
<event>
 5    1  0.1285346E-004  0.9118800E+02  0.7818608E-02  0.1130116E+00
         25   -1    0    0    0    0  0.00000000000E+00  0.00000000000E+00  0.99999998245E-14  0.12500000000E+03  0.12500000000E+03 0.  0.
        -13    1    3    3    0    0  0.22966998873E+02  0.21058169161E+01 -0.44133715414E+02  0.49796721804E+02  0.10566000000E+00 0. -1.
         23    2    1    0    0    0  0.18877706665E+02 -0.22942798373E+02 -0.75111224533E+01  0.94354335272E+02  0.89238914258E+02 0.  0.
         13    1    3    3    0    0 -0.40892922087E+01 -0.25048615290E+02  0.36622592961E+02  0.44557613468E+02  0.10566000000E+00 0.  1.
         22    1    1    0    0    0 -0.18877706665E+02  0.22942798373E+02  0.75111224533E+01  0.30645664728E+02  0.00000000000E+00 0. -1.
</event>
<event>
 5    1  0.1285346E-004  0.9118800E+02  0.7818608E-02  0.1130116E+00
         25   -1    0    0    0    0  0.00000000000E+00  0.00000000000E+00  0.99999998245E-14  0.12500000000E+03  0.12500000000E+03 0.  0.
        -13    1    3    3    0    0 -0.34299668624E+02 -0.96695016145E+01 -0.41416234859E+02  0.54637736072E+02  0.10566000000E+00 0.  1.
         23    2    1    0    0    0 -0.28308569661E+02 -0.92296320199E+01 -0.13052220599E+01  0.95196227956E+02  0.90410491586E+02 0.  0.
         13    1    3    3    0    0  0.59910989634E+01  0.43986959465E+00  0.40111012799E+02  0.40558491883E+02  0.10566000000E+00 0. -1.
         22    1    1    0    0    0  0.28308569661E+02  0.92296320199E+01  0.13052220599E+01  0.29803772044E+02  0.00000000000E+00 0.  1.
</event>
<event>
 5    1  0.1285346E-004  0.9118800E+02  0.7818608E-02  0.1130116E+00
         25   -1    0    0    0    0  0.00000000000E+00  0.00000000000E+00  0.99999998245E-14  0.12500000000E+03  0.12500000000E+03 0.  0.
        -13    1    3    3    0    0  0.37665176206E+02  0.75889655456E+01  0.15631284770E+02  0.41480189540E+02  0.10566000000E+00 0. -1.
         23    2    1    0    0    0  0.41730939423E+01  0.19427982482E+02 -0.23429734190E+02  0.94278449574E+02  0.89132555183E+02 0.  0.
         13    1    3    3    0    0 -0.33492082264E+02  0.11839016936E+02 -0.39061018960E+02  0.52798260034E+02  0.10566000000E+00 0.  1.
         22    1    1    0    0    0 -0.41730939423E+01 -0.19427982482E+02  0.23429734190E+02  0.30721550426E+02  0.00000000000E+00 0.  1.
</event>
<event>
 5    1  0.1285346E-004  0.9118800E+02  0.7818608E-02  0.1130116E+00
         25   -1    0    0    0    0  0.00000000000E+00  0.00000000000E+00  0.99999998245E-14  0.12500000000E+03  0.12500000000E+03 0.  0.
        -13    1    3    3    0    0  0.15964137137E+02 -0.46472662489E+01 -0.36751676964E+02  0.40337918660E+02  0.10566000000E+00 0. -1.
         23    2    1    0    0    0 -0.39145229554E+01 -0.24308134529E+02  0.12812676206E+02  0.97244395776E+02  0.93199243259E+02 0.  0.
         13    1    3    3    0    0 -0.19878660093E+02 -0.19660868281E+02  0.49564353170E+02  0.56906477116E+02  0.10566000000E+00 0.  1.
         22    1    1    0    0    0  0.39145229554E+01  0.24308134529E+02 -0.12812676206E+02  0.27755604224E+02  0.00000000000E+00 0.  1.
</event>
<event>
 5    1  0.1285346E-004  0.9118800E+02  0.7818608E-02  0.1130116E+00
         25   -1    0    0    0    0  0.00000000000E+00  0.00000000000E+00  0.99999998245E-14  0.12500000000E+03  0.12500000000E+03 0.  0.
        -13    1    3    3    0    0  0.11511110269E+02  0.39601341819E+02 -0.58400630326E+01  0.41652003959E+02  0.10566000000E+00 0. -1.
         23    2    1    0    0    0 -0.28159139641E+02  0.34882013326E+01  0.44580707313E+01  0.96277550792E+02  0.91893349585E+02 0.  0.
         13    1    3    3    0    0 -0.39670249910E+02 -0.36113140487E+02  0.10298133764E+02  0.54625546833E+02  0.10566000000E+00 0.  1.
         22    1    1    0    0    0  0.28159139641E+02 -0.34882013326E+01 -0.44580707313E+01  0.28722449208E+02  0.00000000000E+00 0.  1.
</event>
<event>
 5    1  0.1285346E-004  0.9118800E+02  0.7818608E-02  0.1130116E+00
         25   -1    0    0    0    0  0.00000000000E+00  0.00000000000E+00  0.99999998245E-14  0.12500000000E+03  0.12500000000E+03 0.  0.
        -13    1    3    3    0    0  0.23621302044E+02  0.38570390673E+02 -0.26919680889E+02  0.52633842061E+02  0.10566000000E+00 0.  1.
         23    2    1    0    0    0  0.12607712810E+02  0.23610674523E+02  0.11929295943E+02  0.95695964861E+02  0.91098799198E+02 0.  0.
         13    1    3    3    0    0 -0.11013589234E+02 -0.14959716150E+02  0.38848976832E+02  0.43062122800E+02  0.10566000000E+00 0. -1.
         22    1    1    0    0    0 -0.12607712810E+02 -0.23610674523E+02 -0.11929295943E+02  0.29304035139E+02  0.00000000000E+00 0.  1.
</event>
<event>
 5    1  0.1285346E-004  0.9118800E+02  0.7818608E-02  0.1130116E+00
         25   -1    0    0    0    0  0.00000000000E+00  0.00000000000E+00  0.99999998245E-14  0.12500000000E+03  0.12500000000E+03 0.  0.
        -13    1    3    3    0    0  0.51092385738E+02 -0.30083550804E+02  0.39761037745E+01  0.59424510723E+02  0.10566000000E+00 0.  1.
         23    2    1    0    0    0  0.15367345601E+02 -0.22825596843E+02  0.85981161364E+01  0.96171354816E+02  0.91748780395E+02 0.  0.
         13    1    3    3    0    0 -0.35725040137E+02  0.72579539611E+01  0.46220123619E+01  0.36746844093E+02  0.10566000000E+00 0. -1.
         22    1    1    0    0    0 -0.15367345601E+02  0.22825596843E+02 -0.85981161364E+01  0.28828645184E+02  0.00000000000E+00 0.  1.
</event>
<event>
 5    1  0.1285346E-004  0.9118800E+02  0.7818608E-02  0.1130116E+00
         25   -1    0    0    0    0  0.00000000000E+00  0.00000000000E+00  0.99999998245E-14  0.12500000000E+03  0.12500000000E+03 0.  0.
        -13    1    3    3    0    0  0.38673806592E+02  0.43650043774E+02  0.40946966874E+01  0.58461674136E+02  0.10566000000E+00 0.  1.
         23    2    1    0    0    0  0.11957899528E+02  0.21681164050E+02  0.16542568158E+02  0.95222142506E+02  0.90446313504E+02 0.  0.
         13    1    3    3    0    0 -0.26715907064E+02 -0.21968879723E+02  0.12447871471E+02  0.36760468370E+02  0.10566000000E+00 0. -1.
         22    1    1    0    0    0 -0.11957899528E+02 -0.21681164050E+02 -0.16542568158E+02  0.29777857494E+02  0.00000000000E+00 0.  1.
</event>
<event>
 5    1  0.1285346E-004  0.9118800E+02  0.7818608E-02  0.1130116E+00
         25   -1    0    0    0    0  0.00000000000E+00  0.00000000000E+00  0.99999998245E-14  0.12500000000E+03  0.12500000000E+03 0.  0.
        -13    1    3    3    0    0 -0.47714684799E+01 -0.36775965646E+02 -0.40876076846E+02  0.55191515498E+02  0.10566000000E+00 0. -1.
         23    2    1    0    0    0  0.11026168299E+01  0.21814530553E+01 -0.28367385924E+02  0.96527502999E+02  0.92232726024E+02 0.  0.
         13    1    3    3    0    0  0.58740853098E+01  0.38957418701E+02  0.12508690922E+02  0.41335987501E+02  0.10566000000E+00 0.  1.
         22    1    1    0    0    0 -0.11026168299E+01 -0.21814530553E+01  0.28367385924E+02  0.28472497001E+02  0.00000000000E+00 0. -1.
</event>
<event>
 5    1  0.1285346E-004  0.9118800E+02  0.7818608E-02  0.1130116E+00
         25   -1    0    0    0    0  0.00000000000E+00  0.00000000000E+00  0.99999998245E-14  0.12500000000E+03  0.12500000000E+03 0.  0.
        -13    1    3    3    0    0  0.18268283212E+02  0.24851539193E+02 -0.18352481291E+02  0.35890861029E+02  0.10566000000E+00 0. -1.
         23    2    1    0    0    0  0.54801283792E+01 -0.24571121033E+02  0.13867219737E+02  0.96258539022E+02  0.91867484757E+02 0.  0.
         13    1    3    3    0    0 -0.12788154833E+02 -0.49422660227E+02  0.32219701029E+02  0.60367677994E+02  0.10566000000E+00 0.  1.
         22    1    1    0    0    0 -0.54801283792E+01  0.24571121033E+02 -0.13867219737E+02  0.28741460978E+02  0.00000000000E+00 0.  1.
</event>
<event>
 5    1  0.1285346E-004  0.9118800E+02  0.7818608E-02  0.1130116E+00
         25   -1    0    0    0    0  0.00000000000E+00  0.00000000000E+00  0.99999998245E-14  0.12500000000E+03  0.12500000000E+03 0.  0.
        -13    1    3    3    0    0  0.41792319165E+02 -0.32935634040E+02  0.18743563196E+02  0.56415301613E+02  0.10566000000E+00 0. -1.
         23    2    1    0    0    0  0.21799090889E+02  0.18540161270E+00  0.20407232329E+02  0.95138823388E+02  0.90331090146E+02 0.  0.
         13    1    3    3    0    0 -0.19993228276E+02  0.33121035653E+02  0.16636691331E+01  0.38723521775E+02  0.10566000000E+00 0.  1.
         22    1    1    0    0    0 -0.21799090889E+02 -0.18540161270E+00 -0.20407232329E+02  0.29861176612E+02  0.00000000000E+00 0. -1.
</event>
<event>
 5    1  0.1285346E-004  0.9118800E+02  0.7818608E-02  0.1130116E+00
         25   -1    0    0    0    0  0.00000000000E+00  0.00000000000E+00  0.99999998245E-14  0.12500000000E+03  0.12500000000E+03 0.  0.
        -13    1    3    3    0    0  0.10238893637E+02 -0.31602862535E+00  0.57641398797E+02  0.58544656770E+02  0.10566000000E+00 0. -1.
         23    2    1    0    0    0 -0.34741782691E+01  0.13232690589E+02  0.26672182302E+02  0.95023687291E+02  0.90171624266E+02 0.  0.
         13    1    3    3    0    0 -0.13713071906E+02  0.13548719214E+02 -0.30969216494E+02  0.36479030521E+02  0.10566000000E+00 0.  1.
         22    1    1    0    0    0  0.34741782691E+01 -0.13232690589E+02 -0.26672182302E+02  0.29976312709E+02  0.00000000000E+00 0. -1.
</event>
<event>
 5    1  0.1285346E-004  0.9118800E+02  0.7818608E-02  0.1130116E+00
         25   -1    0    0    0    0  0.00000000000E+00  0.00000000000E+00  0.99999998245E-14  0.12500000000E+03  0.12500000000E+03 0.  0.
        -13    1    3    3    0    0 -0.52491321739E+01 -0.59027273898E+01 -0.37027504406E+02  0.37860834985E+02  0.10566000000E+00 0. -1.
         23    2    1    0    0    0  0.23101744603E+02  0.11826727905E+02  0.11353072678E+02  0.96672374687E+02  0.92428857353E+02 0.  0.
         13    1    3    3    0    0  0.28350876777E+02  0.17729455295E+02  0.48380577083E+02  0.58811539702E+02  0.10566000000E+00 0.  1.
         22    1    1    0    0    0 -0.23101744603E+02 -0.11826727905E+02 -0.11353072678E+02  0.28327625313E+02  0.00000000000E+00 0.  1.
</event>
<event>
 5    1  0.1285346E-004  0.9118800E+02  0.7818608E-02  0.1130116E+00
         25   -1    0    0    0    0  0.00000000000E+00  0.00000000000E+00  0.99999998245E-14  0.12500000000E+03  0.12500000000E+03 0.  0.
        -13    1    3    3    0    0 -0.28662526047E+02  0.34022217076E+02  0.13062804382E+02  0.46364853892E+02  0.10566000000E+00 0.  1.
         23    2    1    0    0    0 -0.23129470633E+02 -0.12426560815E+02 -0.78374121871E+01  0.97598962515E+02  0.93673585545E+02 0.  0.
         13    1    3    3    0    0  0.55330554137E+01 -0.46448777890E+02 -0.20900216569E+02  0.51234108623E+02  0.10566000000E+00 0. -1.
         22    1    1    0    0    0  0.23129470633E+02  0.12426560815E+02  0.78374121871E+01  0.27401037485E+02  0.00000000000E+00 0. -1.
</event>
<event>
 5    1  0.1285346E-004  0.9118800E+02  0.7818608E-02  0.1130116E+00
         25   -1    0    0    0    0  0.00000000000E+00  0.00000000000E+00  0.99999998245E-14  0.12500000000E+03  0.12500000000E+03 0.  0.
        -13    1    3    3    0    0  0.96191267101E+01  0.61539011879E+02  0.18494815407E+01  0.62313797250E+02  0.10566000000E+00 0.  1.
         23    2    1    0    0    0  0.69636411295E+01  0.26490494113E+02 -0.11078760601E+01  0.97587120445E+02  0.93657781905E+02 0.  0.
         13    1    3    3    0    0 -0.26554855806E+01 -0.35048517766E+02 -0.29573576008E+01  0.35273323196E+02  0.10566000000E+00 0. -1.
         22    1    1    0    0    0 -0.69636411295E+01 -0.26490494113E+02  0.11078760601E+01  0.27412879555E+02  0.00000000000E+00 0.  1.
</event>
<event>
 5    1  0.1285346E-004  0.9118800E+02  0.7818608E-02  0.1130116E+00
         25   -1    0    0    0    0  0.00000000000E+00  0.00000000000E+00  0.99999998245E-14  0.12500000000E+03  0.12500000000E+03 0.  0.
        -13    1    3    3    0    0  0.18157651103E+02 -0.41457589494E+02 -0.38138967009E+02  0.59186349683E+02  0.10566000000E+00 0.  1.
         23    2    1    0    0    0  0.53051371008E+01 -0.10089794577E+02 -0.28309399689E+02  0.94481635938E+02  0.89417050860E+02 0.  0.
         13    1    3    3    0    0 -0.12852514002E+02  0.31367794917E+02  0.98295673200E+01  0.35295286256E+02  0.10566000000E+00 0. -1.
         22    1    1    0    0    0 -0.53051371008E+01  0.10089794577E+02  0.28309399689E+02  0.30518364062E+02  0.00000000000E+00 0.  1.
</event>
<event>
 5    1  0.1285346E-004  0.9118800E+02  0.7818608E-02  0.1130116E+00
         25   -1    0    0    0    0  0.00000000000E+00  0.00000000000E+00  0.99999998245E-14  0.12500000000E+03  0.12500000000E+03 0.  0.
        -13    1    3    3    0    0  0.60158564018E+02  0.13566558026E+00  0.10586214167E+02  0.61083142718E+02  0.10566000000E+00 0.  1.
         23    2    1    0    0    0  0.29145222660E+02  0.56915297816E+01 -0.24984454162E+01  0.95199333151E+02  0.90414784675E+02 0.  0.
         13    1    3    3    0    0 -0.31013341358E+02  0.55558642013E+01 -0.13084659583E+02  0.34116190433E+02  0.10566000000E+00 0. -1.
         22    1    1    0    0    0 -0.29145222660E+02 -0.56915297816E+01  0.24984454162E+01  0.29800666849E+02  0.00000000000E+00 0.  1.
</event>
<event>
 5    1  0.1285346E-004  0.9118800E+02  0.7818608E-02  0.1130116E+00
         25   -1    0    0    0    0  0.00000000000E+00  0.00000000000E+00  0.99999998245E-14  0.12500000000E+03  0.12500000000E+03 0.  0.
        -13    1    3    3    0    0  0.35847219184E+02  0.20381228118E+02  0.39232485493E+02  0.56917630527E+02  0.10566000000E+00 0. -1.
         23    2    1    0    0    0  0.25909393847E+02  0.14525168034E+02  0.27622456492E+01  0.95168687643E+02  0.90372406800E+02 0.  0.
         13    1    3    3    0    0 -0.99378253378E+01 -0.58560600838E+01 -0.36470239844E+02  0.38251057116E+02  0.10566000000E+00 0.  1.
         22    1    1    0    0    0 -0.25909393847E+02 -0.14525168034E+02 -0.27622456492E+01  0.29831312357E+02  0.00000000000E+00 0. -1.
</event>
<event>
 5    1  0.1285346E-004  0.9118800E+02  0.7818608E-02  0.1130116E+00
         25   -1    0    0    0    0  0.00000000000E+00  0.00000000000E+00  0.99999998245E-14  0.12500000000E+03  0.12500000000E+03 0.  0.
        -13    1    3    3    0    0 -0.11080576497E+01  0.27234288450E+02  0.18691436232E+02  0.33050192308E+02  0.10566000000E+00 0.  1.
         23    2    1    0    0    0  0.18625670067E+01 -0.18845744888E+02 -0.22961350953E+02  0.95236685436E+02  0.90466410115E+02 0.  0.
         13    1    3    3    0    0  0.29706246564E+01 -0.46080033338E+02 -0.41652787185E+02  0.62186493128E+02  0.10566000000E+00 0. -1.
         22    1    1    0    0    0 -0.18625670067E+01  0.18845744888E+02  0.22961350953E+02  0.29763314564E+02  0.00000000000E+00 0. -1.
</event>
<event>
 5    1  0.1285346E-004  0.9118800E+02  0.7818608E-02  0.1130116E+00
         25   -1    0    0    0    0  0.00000000000E+00  0.00000000000E+00  0.99999998245E-14  0.12500000000E+03  0.12500000000E+03 0.  0.
        -13    1    3    3    0    0  0.93883826441E+01 -0.32495195780E+02 -0.13830979585E+02  0.36542942379E+02  0.10566000000E+00 0. -1.
         23    2    1    0    0    0 -0.15015475565E+02  0.22535951405E+02 -0.24458349407E+01  0.97809639194E+02  0.93954296328E+02 0.  0.
         13    1    3    3    0    0 -0.24403858209E+02  0.55031147185E+02  0.11385144644E+02  0.61266696815E+02  0.10566000000E+00 0.  1.
         22    1    1    0    0    0  0.15015475565E+02 -0.22535951405E+02  0.24458349407E+01  0.27190360806E+02  0.00000000000E+00 0.  1.
</event>
<event>
 5    1  0.1285346E-004  0.9118800E+02  0.7818608E-02  0.1130116E+00
         25   -1    0    0    0    0  0.00000000000E+00  0.00000000000E+00  0.99999998245E-14  0.12500000000E+03  0.12500000000E+03 0.  0.
        -13    1    3    3    0    0 -0.79919891608E+01  0.25545666766E+02 -0.31678447522E+02  0.41472740236E+02  0.10566000000E+00 0. -1.
         23    2    1    0    0    0 -0.83270171598E+01 -0.25106878539E+02 -0.13607449657E+02  0.95253449765E+02  0.90489570898E+02 0.  0.
         13    1    3    3    0    0 -0.33502799906E+00 -0.50652545304E+02  0.18070997865E+02  0.53780709529E+02  0.10566000000E+00 0.  1.
         22    1    1    0    0    0  0.83270171598E+01  0.25106878539E+02  0.13607449657E+02  0.29746550235E+02  0.00000000000E+00 0.  1.
</event>
<event>
 5    1  0.1285346E-004  0.9118800E+02  0.7818608E-02  0.1130116E+00
         25   -1    0    0    0    0  0.00000000000E+00  0.00000000000E+00  0.99999998245E-14  0.12500000000E+03  0.12500000000E+03 0.  0.
        -13    1    3    3    0    0 -0.17144424140E+02  0.82692789474E+01 -0.34063727487E+02  0.39021288392E+02  0.10566000000E+00 0. -1.
         23    2    1    0    0    0  0.14943825813E+02 -0.24795027986E+02 -0.46437584002E+00  0.96046123097E+02  0.91578003769E+02 0.  0.
         13    1    3    3    0    0  0.32088249953E+02 -0.33064306934E+02  0.33599351647E+02  0.57024834706E+02  0.10566000000E+00 0.  1.
         22    1    1    0    0    0 -0.14943825813E+02  0.24795027986E+02  0.46437584002E+00  0.28953876903E+02  0.00000000000E+00 0. -1.
</event>
<event>
 5    1  0.1285346E-004  0.9118800E+02  0.7818608E-02  0.1130116E+00
         25   -1    0    0    0    0  0.00000000000E+00  0.00000000000E+00  0.99999998245E-14  0.12500000000E+03  0.12500000000E+03 0.  0.
        -13    1    3    3    0    0  0.43729242929E+02  0.15860662641E+02 -0.34753344412E+02  0.58065595825E+02  0.10566000000E+00 0.  1.
         23    2    1    0    0    0  0.17634057736E+02 -0.76101587851E+01 -0.22902871097E+02  0.95109934536E+02  0.90291104954E+02 0.  0.
         13    1    3    3    0    0 -0.26095185193E+02 -0.23470821426E+02  0.11850473315E+02  0.37044338711E+02  0.10566000000E+00 0. -1.
         22    1    1    0    0    0 -0.17634057736E+02  0.76101587851E+01  0.22902871097E+02  0.29890065464E+02  0.00000000000E+00 0.  1.
</event>
<event>
 5    1  0.1285346E-004  0.9118800E+02  0.7818608E-02  0.1130116E+00
         25   -1    0    0    0    0  0.00000000000E+00  0.00000000000E+00  0.99999998245E-14  0.12500000000E+03  0.12500000000E+03 0.  0.
        -13    1    3    3    0    0  0.23105334901E+02 -0.36194889617E+02  0.13909729322E+02  0.45137769873E+02  0.10566000000E+00 0.  1.
         23    2    1    0    0    0  0.95734488009E+01  0.17141436829E+02  0.15185913781E+02  0.10017880430E+03  0.97055144508E+02 0.  0.
         13    1    3    3    0    0 -0.13531886100E+02  0.53336326446E+02  0.12761844587E+01  0.55041034429E+02  0.10566000000E+00 0. -1.
         22    1    1    0    0    0 -0.95734488009E+01 -0.17141436829E+02 -0.15185913781E+02  0.24821195698E+02  0.00000000000E+00 0.  1.
</event>
<event>
 5    1  0.1285346E-004  0.9118800E+02  0.7818608E-02  0.1130116E+00
         25   -1    0    0    0    0  0.00000000000E+00  0.00000000000E+00  0.99999998245E-14  0.12500000000E+03  0.12500000000E+03 0.  0.
        -13    1    3    3    0    0 -0.43412291195E+02 -0.37603226754E+02 -0.21743681289E+02  0.61411957542E+02  0.10566000000E+00 0.  1.
         23    2    1    0    0    0 -0.24422056096E+02 -0.16427460109E+02 -0.31386922055E+01  0.95400174691E+02  0.90692026511E+02 0.  0.
         13    1    3    3    0    0  0.18990235099E+02  0.21175766645E+02  0.18604989084E+02  0.33988217149E+02  0.10566000000E+00 0. -1.
         22    1    1    0    0    0  0.24422056096E+02  0.16427460109E+02  0.31386922055E+01  0.29599825309E+02  0.00000000000E+00 0.  1.
</event>
<event>
 5    1  0.1285346E-004  0.9118800E+02  0.7818608E-02  0.1130116E+00
         25   -1    0    0    0    0  0.00000000000E+00  0.00000000000E+00  0.99999998245E-14  0.12500000000E+03  0.12500000000E+03 0.  0.
        -13    1    3    3    0    0  0.35487013138E+01  0.12513455360E+02 -0.39685536602E+02  0.41762816302E+02  0.10566000000E+00 0. -1.
         23    2    1    0    0    0  0.25404514839E+02 -0.13671186527E+02  0.25355269660E+01  0.96039343719E+02  0.91568749744E+02 0.  0.
         13    1    3    3    0    0  0.21855813525E+02 -0.26184641887E+02  0.42221063568E+02  0.54276527417E+02  0.10566000000E+00 0.  1.
         22    1    1    0    0    0 -0.25404514839E+02  0.13671186527E+02 -0.25355269660E+01  0.28960656281E+02  0.00000000000E+00 0.  1.
</event>
<event>
 5    1  0.1285346E-004  0.9118800E+02  0.7818608E-02  0.1130116E+00
         25   -1    0    0    0    0  0.00000000000E+00  0.00000000000E+00  0.99999998245E-14  0.12500000000E+03  0.12500000000E+03 0.  0.
        -13    1    3    3    0    0 -0.19347470917E+02  0.45359123338E+02 -0.19700823624E+02  0.53102808931E+02  0.10566000000E+00 0.  1.
         23    2    1    0    0    0  0.14558638048E+02  0.25877202291E+02 -0.49416220892E+01  0.94900113470E+02  0.90000157597E+02 0.  0.
         13    1    3    3    0    0  0.33906108965E+02 -0.19481921047E+02  0.14759201534E+02  0.41797304540E+02  0.10566000000E+00 0. -1.
         22    1    1    0    0    0 -0.14558638048E+02 -0.25877202291E+02  0.49416220892E+01  0.30099886530E+02  0.00000000000E+00 0.  1.
</event>
<event>
 5    1  0.1285346E-004  0.9118800E+02  0.7818608E-02  0.1130116E+00
         25   -1    0    0    0    0  0.00000000000E+00  0.00000000000E+00  0.99999998245E-14  0.12500000000E+03  0.12500000000E+03 0.  0.
        -13    1    3    3    0    0  0.19889909454E+02  0.32581936265E+02 -0.80869669215E+00  0.38181883443E+02  0.10566000000E+00 0. -1.
         23    2    1    0    0    0  0.39927321089E+01 -0.22114572009E+02  0.15818068911E+02  0.97518960920E+02  0.93566768833E+02 0.  0.
         13    1    3    3    0    0 -0.15897177345E+02 -0.54696508275E+02  0.16626765604E+02  0.59337077477E+02  0.10566000000E+00 0.  1.
         22    1    1    0    0    0 -0.39927321089E+01  0.22114572009E+02 -0.15818068911E+02  0.27481039080E+02  0.00000000000E+00 0.  1.
</event>
<event>
 5    1  0.1285346E-004  0.9118800E+02  0.7818608E-02  0.1130116E+00
         25   -1    0    0    0    0  0.00000000000E+00  0.00000000000E+00  0.99999998245E-14  0.12500000000E+03  0.12500000000E+03 0.  0.
        -13    1    3    3    0    0 -0.30911980488E+02  0.26321573894E+02  0.37404454546E+02  0.55203986938E+02  0.10566000000E+00 0.  1.
         23    2    1    0    0    0 -0.20025286076E+02 -0.72740519617E+01  0.23819228738E+02  0.93042534956E+02  0.87382113382E+02 0.  0.
         13    1    3    3    0    0  0.10886694412E+02 -0.33595625855E+02 -0.13585225808E+02  0.37838548018E+02  0.10566000000E+00 0. -1.
         22    1    1    0    0    0  0.20025286076E+02  0.72740519617E+01 -0.23819228738E+02  0.31957465044E+02  0.00000000000E+00 0. -1.
</event>
<event>
 5    1  0.1285346E-004  0.9118800E+02  0.7818608E-02  0.1130116E+00
         25   -1    0    0    0    0  0.00000000000E+00  0.00000000000E+00  0.99999998245E-14  0.12500000000E+03  0.12500000000E+03 0.  0.
        -13    1    3    3    0    0  0.50104048069E+02  0.29790805034E+02 -0.15959246949E+02  0.60436879673E+02  0.10566000000E+00 0.  1.
         23    2    1    0    0    0  0.30724834230E+02  0.60644456636E+01 -0.35803994637E+01  0.93478385194E+02  0.88003387994E+02 0.  0.
         13    1    3    3    0    0 -0.19379213839E+02 -0.23726359370E+02  0.12378847485E+02  0.33041505521E+02  0.10566000000E+00 0. -1.
         22    1    1    0    0    0 -0.30724834230E+02 -0.60644456636E+01  0.35803994637E+01  0.31521614806E+02  0.00000000000E+00 0.  1.
</event>
<event>
 5    1  0.1285346E-004  0.9118800E+02  0.7818608E-02  0.1130116E+00
         25   -1    0    0    0    0  0.00000000000E+00  0.00000000000E+00  0.99999998245E-14  0.12500000000E+03  0.12500000000E+03 0.  0.
        -13    1    3    3    0    0 -0.15914938693E+02  0.32846322791E+02  0.26739700472E+02  0.45245872075E+02  0.10566000000E+00 0. -1.
         23    2    1    0    0    0  0.25185772630E+02  0.72616508695E+01  0.13889705968E+02  0.95335565938E+02  0.90602933090E+02 0.  0.
         13    1    3    3    0    0  0.41100711323E+02 -0.25584671921E+02 -0.12849994504E+02  0.50089693863E+02  0.10566000000E+00 0.  1.
         22    1    1    0    0    0 -0.25185772630E+02 -0.72616508695E+01 -0.13889705968E+02  0.29664434062E+02  0.00000000000E+00 0. -1.
</event>
<event>
 5    1  0.1285346E-004  0.9118800E+02  0.7818608E-02  0.1130116E+00
         25   -1    0    0    0    0  0.00000000000E+00  0.00000000000E+00  0.99999998245E-14  0.12500000000E+03  0.12500000000E+03 0.  0.
        -13    1    3    3    0    0  0.15647802192E+02  0.71858376044E+01  0.46689806277E+02  0.49763833752E+02  0.10566000000E+00 0.  1.
         23    2    1    0    0    0  0.18158768091E+02 -0.20945934053E+02  0.11246706606E+02  0.95084094173E+02  0.90255324183E+02 0.  0.
         13    1    3    3    0    0  0.25109658984E+01 -0.28131771658E+02 -0.35443099670E+02  0.45320260421E+02  0.10566000000E+00 0. -1.
         22    1    1    0    0    0 -0.18158768091E+02  0.20945934053E+02 -0.11246706606E+02  0.29915905827E+02  0.00000000000E+00 0.  1.
</event>
<event>
 5    1  0.1285346E-004  0.9118800E+02  0.7818608E-02  0.1130116E+00
         25   -1    0    0    0    0  0.00000000000E+00  0.00000000000E+00  0.99999998245E-14  0.12500000000E+03  0.12500000000E+03 0.  0.
        -13    1    3    3    0    0  0.45417560385E+02  0.20538100641E+02 -0.46274102866E+01  0.50059888726E+02  0.10566000000E+00 0. -1.
         23    2    1    0    0    0  0.78173810902E+00  0.29068356586E+02 -0.49389028607E+01  0.95504691381E+02  0.90835966694E+02 0.  0.
         13    1    3    3    0    0 -0.44635822276E+02  0.85302559450E+01 -0.31149257414E+00  0.45444802655E+02  0.10566000000E+00 0.  1.
         22    1    1    0    0    0 -0.78173810902E+00 -0.29068356586E+02  0.49389028607E+01  0.29495308619E+02  0.00000000000E+00 0. -1.
</event>
<event>
 5    1  0.1285346E-004  0.9118800E+02  0.7818608E-02  0.1130116E+00
         25   -1    0    0    0    0  0.00000000000E+00  0.00000000000E+00  0.99999998245E-14  0.12500000000E+03  0.12500000000E+03 0.  0.
        -13    1    3    3    0    0 -0.15150107728E+01  0.35561000064E+02 -0.29306829514E+01  0.35713863552E+02  0.10566000000E+00 0. -1.
         23    2    1    0    0    0  0.17260311922E+02 -0.21254397702E+02 -0.97437047810E+01  0.95937867040E+02  0.91430119544E+02 0.  0.
         13    1    3    3    0    0  0.18775322695E+02 -0.56815397766E+02 -0.68130218296E+01  0.60224003488E+02  0.10566000000E+00 0.  1.
         22    1    1    0    0    0 -0.17260311922E+02  0.21254397702E+02  0.97437047810E+01  0.29062132960E+02  0.00000000000E+00 0.  1.
</event>
<event>
 5    1  0.1285346E-004  0.9118800E+02  0.7818608E-02  0.1130116E+00
         25   -1    0    0    0    0  0.00000000000E+00  0.00000000000E+00  0.99999998245E-14  0.12500000000E+03  0.12500000000E+03 0.  0.
        -13    1    3    3    0    0 -0.22507483372E+02 -0.45919433472E+02 -0.16429123537E+02  0.53713205475E+02  0.10566000000E+00 0.  1.
         23    2    1    0    0    0 -0.25632253336E+02 -0.84605021923E+01  0.58112587486E+01  0.97389073963E+02  0.93393085882E+02 0.  0.
         13    1    3    3    0    0 -0.31247699636E+01  0.37458931280E+02  0.22240382285E+02  0.43675868488E+02  0.10566000000E+00 0. -1.
         22    1    1    0    0    0  0.25632253336E+02  0.84605021923E+01 -0.58112587486E+01  0.27610926037E+02  0.00000000000E+00 0.  1.
</event>
<event>
 5    1  0.1285346E-004  0.9118800E+02  0.7818608E-02  0.1130116E+00
         25   -1    0    0    0    0  0.00000000000E+00  0.00000000000E+00  0.99999998245E-14  0.12500000000E+03  0.12500000000E+03 0.  0.
        -13    1    3    3    0    0  0.33990176319E+02 -0.14182681385E+02 -0.57416751906E+01  0.37275441453E+02  0.10566000000E+00 0. -1.
         23    2    1    0    0    0 -0.25100818621E+02 -0.12297757047E+02  0.23597411978E+01  0.96949076622E+02  0.92802312232E+02 0.  0.
         13    1    3    3    0    0 -0.59090994940E+02  0.18849243379E+01  0.81014163883E+01  0.59673635169E+02  0.10566000000E+00 0.  1.
         22    1    1    0    0    0  0.25100818621E+02  0.12297757047E+02 -0.23597411978E+01  0.28050923378E+02  0.00000000000E+00 0.  1.
</event>
<event>
 5    1  0.1285346E-004  0.9118800E+02  0.7818608E-02  0.1130116E+00
         25   -1    0    0    0    0  0.00000000000E+00  0.00000000000E+00  0.99999998245E-14  0.12500000000E+03  0.12500000000E+03 0.  0.
        -13    1    3    3    0    0 -0.21501267433E+02 -0.25825036164E+02 -0.26028847895E+02  0.42505871134E+02  0.10566000000E+00 0. -1.
         23    2    1    0    0    0  0.71375422380E+01 -0.21770330532E+02  0.18464777200E+02  0.95574844134E+02  0.90932453137E+02 0.  0.
         13    1    3    3    0    0  0.28638809671E+02  0.40547056321E+01  0.44493625095E+02  0.53068973000E+02  0.10566000000E+00 0.  1.
         22    1    1    0    0    0 -0.71375422380E+01  0.21770330532E+02 -0.18464777200E+02  0.29425155866E+02  0.00000000000E+00 0.  1.
</event>
<event>
 5    1  0.1285346E-004  0.9118800E+02  0.7818608E-02  0.1130116E+00
         25   -1    0    0    0    0  0.00000000000E+00  0.00000000000E+00  0.99999998245E-14  0.12500000000E+03  0.12500000000E+03 0.  0.
        -13    1    3    3    0    0  0.44011793916E+02 -0.12471709868E+02  0.23124866264E+02  0.51257703368E+02  0.10566000000E+00 0.  1.
         23    2    1    0    0    0  0.15555468818E+02 -0.16516348433E+02 -0.14099617113E+02  0.98287426585E+02  0.94587825043E+02 0.  0.
         13    1    3    3    0    0 -0.28456325099E+02 -0.40446385649E+01 -0.37224483377E+02  0.47029723218E+02  0.10566000000E+00 0. -1.
         22    1    1    0    0    0 -0.15555468818E+02  0.16516348433E+02  0.14099617113E+02  0.26712573415E+02  0.00000000000E+00 0.  1.
</event>
<event>
 5    1  0.1285346E-004  0.9118800E+02  0.7818608E-02  0.1130116E+00
         25   -1    0    0    0    0  0.00000000000E+00  0.00000000000E+00  0.99999998245E-14  0.12500000000E+03  0.12500000000E+03 0.  0.
        -13    1    3    3    0    0 -0.28585664857E+02 -0.83023790246E+01 -0.33714207552E+02  0.44974756116E+02  0.10566000000E+00 0. -1.
         23    2    1    0    0    0 -0.83300089947E+01  0.27624230538E+02 -0.38584061086E+01  0.95890302984E+02  0.91365068522E+02 0.  0.
         13    1    3    3    0    0  0.20255655862E+02  0.35926609562E+02  0.29855801443E+02  0.50915546868E+02  0.10566000000E+00 0.  1.
         22    1    1    0    0    0  0.83300089947E+01 -0.27624230538E+02  0.38584061086E+01  0.29109697016E+02  0.00000000000E+00 0.  1.
</event>
<event>
 5    1  0.1285346E-004  0.9118800E+02  0.7818608E-02  0.1130116E+00
         25   -1    0    0    0    0  0.00000000000E+00  0.00000000000E+00  0.99999998245E-14  0.12500000000E+03  0.12500000000E+03 0.  0.
        -13    1    3    3    0    0 -0.34752210142E+02  0.47828992794E+01  0.27422413748E+02  0.44526308797E+02  0.10566000000E+00 0.  1.
         23    2    1    0    0    0 -0.36779926638E+01  0.21916365193E+02 -0.13739990148E+02  0.98872581020E+02  0.95357984747E+02 0.  0.
         13    1    3    3    0    0  0.31074217478E+02  0.17133465913E+02 -0.41162403896E+02  0.54346272223E+02  0.10566000000E+00 0. -1.
         22    1    1    0    0    0  0.36779926638E+01 -0.21916365193E+02  0.13739990148E+02  0.26127418980E+02  0.00000000000E+00 0. -1.
</event>
<event>
 5    1  0.1285346E-004  0.9118800E+02  0.7818608E-02  0.1130116E+00
         25   -1    0    0    0    0  0.00000000000E+00  0.00000000000E+00  0.99999998245E-14  0.12500000000E+03  0.12500000000E+03 0.  0.
        -13    1    3    3    0    0 -0.26348437665E+02  0.22446328171E+02  0.46422377342E+02  0.57906183590E+02  0.10566000000E+00 0. -1.
         23    2    1    0    0    0 -0.20193805858E+01  0.42937745742E+01  0.33943967788E+02  0.90725996043E+02  0.84002970250E+02 0.  0.
         13    1    3    3    0    0  0.24329057079E+02 -0.18152553597E+02 -0.12478409555E+02  0.32819812454E+02  0.10566000000E+00 0.  1.
         22    1    1    0    0    0  0.20193805858E+01 -0.42937745742E+01 -0.33943967788E+02  0.34274003957E+02  0.00000000000E+00 0. -1.
</event>
<event>
 5    1  0.1285346E-004  0.9118800E+02  0.7818608E-02  0.1130116E+00
         25   -1    0    0    0    0  0.00000000000E+00  0.00000000000E+00  0.99999998245E-14  0.12500000000E+03  0.12500000000E+03 0.  0.
        -13    1    3    3    0    0  0.31165595872E+02  0.36566446736E+01  0.42713801841E+02  0.53001372134E+02  0.10566000000E+00 0. -1.
         23    2    1    0    0    0  0.95184832223E+01 -0.20738566692E+02  0.75435391287E+01  0.10096680101E+03  0.98064775795E+02 0.  0.
         13    1    3    3    0    0 -0.21647112650E+02 -0.24395211365E+02 -0.35170262712E+02  0.47965428872E+02  0.10566000000E+00 0.  1.
         22    1    1    0    0    0 -0.95184832223E+01  0.20738566692E+02 -0.75435391287E+01  0.24033198993E+02  0.00000000000E+00 0. -1.
</event>
<event>
 5    1  0.1285346E-004  0.9118800E+02  0.7818608E-02  0.1130116E+00
         25   -1    0    0    0    0  0.00000000000E+00  0.00000000000E+00  0.99999998245E-14  0.12500000000E+03  0.12500000000E+03 0.  0.
        -13    1    3    3    0    0  0.23315739159E+02 -0.13295242132E+02  0.53515648433E+02  0.59869215354E+02  0.10566000000E+00 0.  1.
         23    2    1    0    0    0  0.58083332559E+01  0.50346115321E+01  0.28497736604E+02  0.95483817319E+02  0.90807237210E+02 0.  0.
         13    1    3    3    0    0 -0.17507405903E+02  0.18329853664E+02 -0.25017911829E+02  0.35614601965E+02  0.10566000000E+00 0. -1.
         22    1    1    0    0    0 -0.58083332559E+01 -0.50346115321E+01 -0.28497736604E+02  0.29516182681E+02  0.00000000000E+00 0.  1.
</event>
<event>
 5    1  0.1285346E-004  0.9118800E+02  0.7818608E-02  0.1130116E+00
         25   -1    0    0    0    0  0.00000000000E+00  0.00000000000E+00  0.99999998245E-14  0.12500000000E+03  0.12500000000E+03 0.  0.
        -13    1    3    3    0    0  0.44674096866E+02 -0.23792909776E+02 -0.12677271257E+02  0.52178557444E+02  0.10566000000E+00 0. -1.
         23    2    1    0    0    0  0.19285507634E+02 -0.14473371887E+02  0.19339958512E+02  0.94089754227E+02  0.88867533761E+02 0.  0.
         13    1    3    3    0    0 -0.25388589232E+02  0.93195378885E+01  0.32017229769E+02  0.41911196783E+02  0.10566000000E+00 0.  1.
         22    1    1    0    0    0 -0.19285507634E+02  0.14473371887E+02 -0.19339958512E+02  0.30910245773E+02  0.00000000000E+00 0. -1.
</event>
