<event>
 5    1  0.3190780E-003  0.9118800E+02  0.7818608E-02  0.1130116E+00
         25   -1    0    0    0    0  0.00000000000E+00  0.00000000000E+00  0.99999998245E-14  0.12500000000E+03  0.12500000000E+03 0.  0.
        -11    1    3    3    0    0  0.41482253546E+02  0.35029849588E+02  0.25164657678E+02  0.59842524326E+02  0.51100000000E-03 0.  1.
         23    2    1    0    0    0  0.94271201606E+01  0.22836712809E+02  0.16736596616E+02  0.95158758190E+02  0.90358671679E+02 0.  0.
         11    1    3    3    0    0 -0.32055133385E+02 -0.12193136778E+02 -0.84280610616E+01  0.35316233864E+02  0.51100000000E-03 0. -1.
         22    1    1    0    0    0 -0.94271201606E+01 -0.22836712809E+02 -0.16736596616E+02  0.29841241810E+02  0.00000000000E+00 0.  1.
</event>
<event>
 5    1  0.3190780E-003  0.9118800E+02  0.7818608E-02  0.1130116E+00
         25   -1    0    0    0    0  0.00000000000E+00  0.00000000000E+00  0.99999998245E-14  0.12500000000E+03  0.12500000000E+03 0.  0.
        -11    1    3    3    0    0 -0.12638590693E+00  0.31882932897E+02  0.18838400571E+02  0.37032724986E+02  0.51100000000E-03 0. -1.
         23    2    1    0    0    0 -0.12497879337E+02 -0.24413781633E+02  0.11950003152E+02  0.95082909618E+02  0.90253683607E+02 0.  0.
         11    1    3    3    0    0 -0.12371493430E+02 -0.56296714531E+02 -0.68883974196E+01  0.58050184633E+02  0.51100000000E-03 0.  1.
         22    1    1    0    0    0  0.12497879337E+02  0.24413781633E+02 -0.11950003152E+02  0.29917090382E+02  0.00000000000E+00 0.  1.
</event>
<event>
 5    1  0.3190780E-003  0.9118800E+02  0.7818608E-02  0.1130116E+00
         25   -1    0    0    0    0  0.00000000000E+00  0.00000000000E+00  0.99999998245E-14  0.12500000000E+03  0.12500000000E+03 0.  0.
        -11    1    3    3    0    0 -0.35222823750E+02 -0.29284556987E+01 -0.50868814415E+01  0.35708535797E+02  0.51100000000E-03 0.  1.
         23    2    1    0    0    0  0.25477503804E+02  0.80229958489E+01 -0.68884495330E+01  0.97415178097E+02  0.93428017876E+02 0.  0.
         11    1    3    3    0    0  0.60700327554E+02  0.10951451548E+02 -0.18015680916E+01  0.61706642300E+02  0.51100000000E-03 0. -1.
         22    1    1    0    0    0 -0.25477503804E+02 -0.80229958489E+01  0.68884495330E+01  0.27584821903E+02  0.00000000000E+00 0. -1.
</event>
<event>
 5    1  0.3190780E-003  0.9118800E+02  0.7818608E-02  0.1130116E+00
         25   -1    0    0    0    0  0.00000000000E+00  0.00000000000E+00  0.99999998245E-14  0.12500000000E+03  0.12500000000E+03 0.  0.
        -11    1    3    3    0    0  0.26394514086E+02  0.55124480228E+01 -0.31343616328E+02  0.41345855195E+02  0.51100000000E-03 0. -1.
         23    2    1    0    0    0 -0.93181991363E+01 -0.27032432098E+02 -0.64955455861E+01  0.95678108302E+02  0.91074294263E+02 0.  0.
         11    1    3    3    0    0 -0.35712713222E+02 -0.32544880121E+02  0.24848070742E+02  0.54332253107E+02  0.51100000000E-03 0.  1.
         22    1    1    0    0    0  0.93181991363E+01  0.27032432098E+02  0.64955455861E+01  0.29321891698E+02  0.00000000000E+00 0. -1.
</event>
<event>
 5    1  0.3190780E-003  0.9118800E+02  0.7818608E-02  0.1130116E+00
         25   -1    0    0    0    0  0.00000000000E+00  0.00000000000E+00  0.99999998245E-14  0.12500000000E+03  0.12500000000E+03 0.  0.
        -11    1    3    3    0    0  0.88965852645E+01 -0.16385900987E+02 -0.21516583927E+02  0.28471219936E+02  0.51100000000E-03 0. -1.
         23    2    1    0    0    0 -0.35414531964E+02 -0.97167712216E+01  0.14049915297E+02  0.85680731987E+02  0.76126099314E+02 0.  0.
         11    1    3    3    0    0 -0.44311117229E+02  0.66691297649E+01  0.35566499224E+02  0.57209512051E+02  0.51100000000E-03 0.  1.
         22    1    1    0    0    0  0.35414531964E+02  0.97167712216E+01 -0.14049915297E+02  0.39319268013E+02  0.00000000000E+00 0.  1.
</event>
<event>
 5    1  0.3190780E-003  0.9118800E+02  0.7818608E-02  0.1130116E+00
         25   -1    0    0    0    0  0.00000000000E+00  0.00000000000E+00  0.99999998245E-14  0.12500000000E+03  0.12500000000E+03 0.  0.
        -11    1    3    3    0    0 -0.12862641476E+02  0.51697828009E+02  0.22682213994E+02  0.57901604455E+02  0.51100000000E-03 0. -1.
         23    2    1    0    0    0 -0.19199450345E+02  0.18193356193E+02  0.56727802477E+00  0.98543641455E+02  0.94925815054E+02 0.  0.
         11    1    3    3    0    0 -0.63368088693E+01 -0.33504471816E+02 -0.22114935969E+02  0.40642037000E+02  0.51100000000E-03 0.  1.
         22    1    1    0    0    0  0.19199450345E+02 -0.18193356193E+02 -0.56727802477E+00  0.26456358545E+02  0.00000000000E+00 0. -1.
</event>
<event>
 5    1  0.3190780E-003  0.9118800E+02  0.7818608E-02  0.1130116E+00
         25   -1    0    0    0    0  0.00000000000E+00  0.00000000000E+00  0.99999998245E-14  0.12500000000E+03  0.12500000000E+03 0.  0.
        -11    1    3    3    0    0 -0.39506788888E+02  0.24782574094E+02  0.34023764309E+02  0.57728492834E+02  0.51100000000E-03 0.  1.
         23    2    1    0    0    0 -0.11039731157E+02  0.25776299164E+02  0.92680892692E+01  0.95467124398E+02  0.90784255791E+02 0.  0.
         11    1    3    3    0    0  0.28467057730E+02  0.99372507023E+00 -0.24755675040E+02  0.37738631563E+02  0.51100000000E-03 0. -1.
         22    1    1    0    0    0  0.11039731157E+02 -0.25776299164E+02 -0.92680892692E+01  0.29532875602E+02  0.00000000000E+00 0.  1.
</event>
<event>
 5    1  0.3190780E-003  0.9118800E+02  0.7818608E-02  0.1130116E+00
         25   -1    0    0    0    0  0.00000000000E+00  0.00000000000E+00  0.99999998245E-14  0.12500000000E+03  0.12500000000E+03 0.  0.
        -11    1    3    3    0    0  0.33915531599E+02  0.20297265855E+02  0.13542742360E+02  0.41780954461E+02  0.51100000000E-03 0. -1.
         23    2    1    0    0    0  0.89885076237E+01 -0.25539475400E+02 -0.55888215084E+01  0.97354150423E+02  0.93346331506E+02 0.  0.
         11    1    3    3    0    0 -0.24927023975E+02 -0.45836741254E+02 -0.19131563868E+02  0.55573195962E+02  0.51100000000E-03 0.  1.
         22    1    1    0    0    0 -0.89885076237E+01  0.25539475400E+02  0.55888215084E+01  0.27645849577E+02  0.00000000000E+00 0.  1.
</event>
<event>
 5    1  0.3190780E-003  0.9118800E+02  0.7818608E-02  0.1130116E+00
         25   -1    0    0    0    0  0.00000000000E+00  0.00000000000E+00  0.99999998245E-14  0.12500000000E+03  0.12500000000E+03 0.  0.
        -11    1    3    3    0    0 -0.15468741925E+02  0.51697756582E+02 -0.97413481664E+01  0.54834604738E+02  0.51100000000E-03 0.  1.
         23    2    1    0    0    0 -0.67888343591E+01  0.19366490732E+02  0.17527764684E+02  0.98011636395E+02  0.94222657035E+02 0.  0.
         11    1    3    3    0    0  0.86799075657E+01 -0.32331265850E+02  0.27269112851E+02  0.43177031657E+02  0.51100000000E-03 0. -1.
         22    1    1    0    0    0  0.67888343591E+01 -0.19366490732E+02 -0.17527764684E+02  0.26988363605E+02  0.00000000000E+00 0.  1.
</event>
<event>
 5    1  0.3190780E-003  0.9118800E+02  0.7818608E-02  0.1130116E+00
         25   -1    0    0    0    0  0.00000000000E+00  0.00000000000E+00  0.99999998245E-14  0.12500000000E+03  0.12500000000E+03 0.  0.
        -11    1    3    3    0    0  0.13182471986E+02 -0.51057996454E+00  0.49942455966E+02  0.51655466000E+02  0.51100000000E-03 0.  1.
         23    2    1    0    0    0 -0.16718810999E+02  0.12714605627E+02  0.20356591746E+02  0.95749860428E+02  0.91172721287E+02 0.  0.
         11    1    3    3    0    0 -0.29901282985E+02  0.13225185591E+02 -0.29585864219E+02  0.44094394427E+02  0.51100000000E-03 0. -1.
         22    1    1    0    0    0  0.16718810999E+02 -0.12714605627E+02 -0.20356591746E+02  0.29250139572E+02  0.00000000000E+00 0. -1.
</event>
<event>
 5    1  0.3190780E-003  0.9118800E+02  0.7818608E-02  0.1130116E+00
         25   -1    0    0    0    0  0.00000000000E+00  0.00000000000E+00  0.99999998245E-14  0.12500000000E+03  0.12500000000E+03 0.  0.
        -11    1    3    3    0    0  0.63182767522E+01 -0.16477518815E+02  0.35745883975E+02  0.39864739668E+02  0.51100000000E-03 0.  1.
         23    2    1    0    0    0  0.11169414285E+02  0.25770749427E+02  0.31798187523E+02  0.82573450868E+02  0.70840403139E+02 0.  0.
         11    1    3    3    0    0  0.48511375324E+01  0.42248268242E+02 -0.39476964517E+01  0.42708711199E+02  0.51100000000E-03 0. -1.
         22    1    1    0    0    0 -0.11169414285E+02 -0.25770749427E+02 -0.31798187523E+02  0.42426549132E+02  0.00000000000E+00 0. -1.
</event>
<event>
 5    1  0.3190780E-003  0.9118800E+02  0.7818608E-02  0.1130116E+00
         25   -1    0    0    0    0  0.00000000000E+00  0.00000000000E+00  0.99999998245E-14  0.12500000000E+03  0.12500000000E+03 0.  0.
        -11    1    3    3    0    0 -0.31716328854E+02  0.22352601548E+01  0.53409848314E+02  0.62157331033E+02  0.51100000000E-03 0.  1.
         23    2    1    0    0    0 -0.10371317597E+02 -0.11601029496E+01  0.25423283240E+02  0.97518126006E+02  0.93565653428E+02 0.  0.
         11    1    3    3    0    0  0.21345011257E+02 -0.33953631044E+01 -0.27986565074E+02  0.35360794973E+02  0.51100000000E-03 0. -1.
         22    1    1    0    0    0  0.10371317597E+02  0.11601029496E+01 -0.25423283240E+02  0.27481873994E+02  0.00000000000E+00 0.  1.
</event>
<event>
 5    1  0.3190780E-003  0.9118800E+02  0.7818608E-02  0.1130116E+00
         25   -1    0    0    0    0  0.00000000000E+00  0.00000000000E+00  0.99999998245E-14  0.12500000000E+03  0.12500000000E+03 0.  0.
        -11    1    3    3    0    0 -0.10054458013E+02 -0.50908281224E+02 -0.27582515962E+02  0.58766830867E+02  0.51100000000E-03 0.  1.
         23    2    1    0    0    0  0.57778857390E+01 -0.28763425231E+02 -0.28895975922E+01  0.95520034449E+02  0.90857077943E+02 0.  0.
         11    1    3    3    0    0  0.15832343752E+02  0.22144855993E+02  0.24692918370E+02  0.36753203582E+02  0.51100000000E-03 0. -1.
         22    1    1    0    0    0 -0.57778857390E+01  0.28763425231E+02  0.28895975922E+01  0.29479965551E+02  0.00000000000E+00 0.  1.
</event>
<event>
 5    1  0.3190780E-003  0.9118800E+02  0.7818608E-02  0.1130116E+00
         25   -1    0    0    0    0  0.00000000000E+00  0.00000000000E+00  0.99999998245E-14  0.12500000000E+03  0.12500000000E+03 0.  0.
        -11    1    3    3    0    0  0.55973035386E+01 -0.58841044741E+02  0.19000990272E+02  0.62085714819E+02  0.51100000000E-03 0.  1.
         23    2    1    0    0    0  0.50655337472E+01 -0.28425001513E+02  0.45262156350E+01  0.95774549257E+02  0.91206563987E+02 0.  0.
         11    1    3    3    0    0 -0.53176979140E+00  0.30416043228E+02 -0.14474774637E+02  0.33688834438E+02  0.51100000000E-03 0. -1.
         22    1    1    0    0    0 -0.50655337472E+01  0.28425001513E+02 -0.45262156350E+01  0.29225450743E+02  0.00000000000E+00 0.  1.
</event>
<event>
 5    1  0.3190780E-003  0.9118800E+02  0.7818608E-02  0.1130116E+00
         25   -1    0    0    0    0  0.00000000000E+00  0.00000000000E+00  0.99999998245E-14  0.12500000000E+03  0.12500000000E+03 0.  0.
        -11    1    3    3    0    0 -0.54692296892E+02 -0.13855274701E+02 -0.22501340564E+02  0.60741471037E+02  0.51100000000E-03 0.  1.
         23    2    1    0    0    0 -0.21454069044E+02 -0.52777087399E+01 -0.20064699155E+02  0.95155009797E+02  0.90353486093E+02 0.  0.
         11    1    3    3    0    0  0.33238227848E+02  0.85775659613E+01  0.24366414097E+01  0.34413538759E+02  0.51100000000E-03 0. -1.
         22    1    1    0    0    0  0.21454069044E+02  0.52777087399E+01  0.20064699155E+02  0.29844990203E+02  0.00000000000E+00 0.  1.
</event>
<event>
 5    1  0.3190780E-003  0.9118800E+02  0.7818608E-02  0.1130116E+00
         25   -1    0    0    0    0  0.00000000000E+00  0.00000000000E+00  0.99999998245E-14  0.12500000000E+03  0.12500000000E+03 0.  0.
        -11    1    3    3    0    0 -0.28170833579E+02  0.36635723537E+02 -0.34159224571E+02  0.57468467242E+02  0.51100000000E-03 0.  1.
         23    2    1    0    0    0 -0.16931079014E+02  0.23621443446E+02  0.25113225485E+00  0.95936326893E+02  0.91428013887E+02 0.  0.
         11    1    3    3    0    0  0.11239754565E+02 -0.13014280091E+02  0.34410356826E+02  0.38467859651E+02  0.51100000000E-03 0. -1.
         22    1    1    0    0    0  0.16931079014E+02 -0.23621443446E+02 -0.25113225485E+00  0.29063673107E+02  0.00000000000E+00 0.  1.
</event>
<event>
 5    1  0.3190780E-003  0.9118800E+02  0.7818608E-02  0.1130116E+00
         25   -1    0    0    0    0  0.00000000000E+00  0.00000000000E+00  0.99999998245E-14  0.12500000000E+03  0.12500000000E+03 0.  0.
        -11    1    3    3    0    0  0.46206128938E+02 -0.16861319103E+02  0.36266349675E+02  0.61111034620E+02  0.51100000000E-03 0.  1.
         23    2    1    0    0    0  0.25585125927E+02 -0.10635120213E+02  0.89829418717E+01  0.95872732787E+02  0.91341026909E+02 0.  0.
         11    1    3    3    0    0 -0.20621003012E+02  0.62261988897E+01 -0.27283407803E+02  0.34761698167E+02  0.51100000000E-03 0. -1.
         22    1    1    0    0    0 -0.25585125927E+02  0.10635120213E+02 -0.89829418717E+01  0.29127267213E+02  0.00000000000E+00 0.  1.
</event>
<event>
 5    1  0.3190780E-003  0.9118800E+02  0.7818608E-02  0.1130116E+00
         25   -1    0    0    0    0  0.00000000000E+00  0.00000000000E+00  0.99999998245E-14  0.12500000000E+03  0.12500000000E+03 0.  0.
        -11    1    3    3    0    0 -0.16677012623E+01  0.38061508670E+02 -0.18946333305E+02  0.42549068330E+02  0.51100000000E-03 0. -1.
         23    2    1    0    0    0  0.30190783052E+02 -0.15047944470E+00 -0.37024315541E+01  0.94582669006E+02  0.89558178027E+02 0.  0.
         11    1    3    3    0    0  0.31858484314E+02 -0.38211988115E+02  0.15243901751E+02  0.52033600677E+02  0.51100000000E-03 0.  1.
         22    1    1    0    0    0 -0.30190783052E+02  0.15047944470E+00  0.37024315541E+01  0.30417330994E+02  0.00000000000E+00 0.  1.
</event>
<event>
 5    1  0.3190780E-003  0.9118800E+02  0.7818608E-02  0.1130116E+00
         25   -1    0    0    0    0  0.00000000000E+00  0.00000000000E+00  0.99999998245E-14  0.12500000000E+03  0.12500000000E+03 0.  0.
        -11    1    3    3    0    0  0.16127307787E+02  0.40556304807E+02  0.39045482457E+02  0.58561537007E+02  0.51100000000E-03 0.  1.
         23    2    1    0    0    0  0.19445345357E+01  0.79789725327E+01  0.28076705958E+02  0.95746852568E+02  0.91168597345E+02 0.  0.
         11    1    3    3    0    0 -0.14182773251E+02 -0.32577332274E+02 -0.10968776499E+02  0.37185315561E+02  0.51100000000E-03 0. -1.
         22    1    1    0    0    0 -0.19445345357E+01 -0.79789725327E+01 -0.28076705958E+02  0.29253147432E+02  0.00000000000E+00 0.  1.
</event>
<event>
 5    1  0.3190780E-003  0.9118800E+02  0.7818608E-02  0.1130116E+00
         25   -1    0    0    0    0  0.00000000000E+00  0.00000000000E+00  0.99999998245E-14  0.12500000000E+03  0.12500000000E+03 0.  0.
        -11    1    3    3    0    0  0.40542260972E+02 -0.13828514976E+02  0.44650860775E+02  0.61875698941E+02  0.51100000000E-03 0.  1.
         23    2    1    0    0    0  0.17213586696E+02 -0.14486654151E+01  0.24144779936E+02  0.95312012588E+02  0.90570431968E+02 0.  0.
         11    1    3    3    0    0 -0.23328674276E+02  0.12379849561E+02 -0.20506080839E+02  0.33436313647E+02  0.51100000000E-03 0. -1.
         22    1    1    0    0    0 -0.17213586696E+02  0.14486654151E+01 -0.24144779936E+02  0.29687987412E+02  0.00000000000E+00 0.  1.
</event>
<event>
 5    1  0.3190780E-003  0.9118800E+02  0.7818608E-02  0.1130116E+00
         25   -1    0    0    0    0  0.00000000000E+00  0.00000000000E+00  0.99999998245E-14  0.12500000000E+03  0.12500000000E+03 0.  0.
        -11    1    3    3    0    0 -0.54358832599E+02  0.76373892658E+01  0.24301807122E+02  0.60031576908E+02  0.51100000000E-03 0.  1.
         23    2    1    0    0    0 -0.20191314144E+02  0.13571727196E+02  0.16577147872E+02  0.95560523484E+02  0.90912765171E+02 0.  0.
         11    1    3    3    0    0  0.34167518455E+02  0.59343379299E+01 -0.77246592504E+01  0.35528946577E+02  0.51100000000E-03 0. -1.
         22    1    1    0    0    0  0.20191314144E+02 -0.13571727196E+02 -0.16577147872E+02  0.29439476516E+02  0.00000000000E+00 0.  1.
</event>
<event>
 5    1  0.3190780E-003  0.9118800E+02  0.7818608E-02  0.1130116E+00
         25   -1    0    0    0    0  0.00000000000E+00  0.00000000000E+00  0.99999998245E-14  0.12500000000E+03  0.12500000000E+03 0.  0.
        -11    1    3    3    0    0  0.35016585639E+02 -0.61413245426E+01  0.81401802672E+01  0.36471079940E+02  0.51100000000E-03 0. -1.
         23    2    1    0    0    0 -0.19490799205E+02 -0.23826851520E+02  0.44780900122E+01  0.93892711511E+02  0.88589942306E+02 0.  0.
         11    1    3    3    0    0 -0.54507384844E+02 -0.17685526977E+02 -0.36620902551E+01  0.57421631571E+02  0.51100000000E-03 0.  1.
         22    1    1    0    0    0  0.19490799205E+02  0.23826851520E+02 -0.44780900122E+01  0.31107288489E+02  0.00000000000E+00 0.  1.
</event>
<event>
 5    1  0.3190780E-003  0.9118800E+02  0.7818608E-02  0.1130116E+00
         25   -1    0    0    0    0  0.00000000000E+00  0.00000000000E+00  0.99999998245E-14  0.12500000000E+03  0.12500000000E+03 0.  0.
        -11    1    3    3    0    0 -0.19376701381E+02  0.42127710496E+02 -0.23350546264E+02  0.51917709494E+02  0.51100000000E-03 0.  1.
         23    2    1    0    0    0 -0.20344548529E+02  0.35293757792E+02  0.75404787500E+01  0.83570435512E+02  0.72578294812E+02 0.  0.
         11    1    3    3    0    0 -0.96784714747E+00 -0.68339527040E+01  0.30891025014E+02  0.31652726017E+02  0.51100000000E-03 0. -1.
         22    1    1    0    0    0  0.20344548529E+02 -0.35293757792E+02 -0.75404787500E+01  0.41429564488E+02  0.00000000000E+00 0.  1.
</event>
<event>
 5    1  0.3190780E-003  0.9118800E+02  0.7818608E-02  0.1130116E+00
         25   -1    0    0    0    0  0.00000000000E+00  0.00000000000E+00  0.99999998245E-14  0.12500000000E+03  0.12500000000E+03 0.  0.
        -11    1    3    3    0    0  0.41438527510E+02 -0.22208564793E+02  0.99809096709E+01  0.48062360226E+02  0.51100000000E-03 0. -1.
         23    2    1    0    0    0 -0.57716898359E+01 -0.23715885620E+02  0.16201069568E+02  0.95704432256E+02  0.91110416879E+02 0.  0.
         11    1    3    3    0    0 -0.47210217346E+02 -0.15073208266E+01  0.62201598975E+01  0.47642072030E+02  0.51100000000E-03 0.  1.
         22    1    1    0    0    0  0.57716898359E+01  0.23715885620E+02 -0.16201069568E+02  0.29295567744E+02  0.00000000000E+00 0. -1.
</event>
<event>
 5    1  0.3190780E-003  0.9118800E+02  0.7818608E-02  0.1130116E+00
         25   -1    0    0    0    0  0.00000000000E+00  0.00000000000E+00  0.99999998245E-14  0.12500000000E+03  0.12500000000E+03 0.  0.
        -11    1    3    3    0    0 -0.30146027158E+02  0.82104698681E+01  0.95793825604E+01  0.32679647174E+02  0.51100000000E-03 0.  1.
         23    2    1    0    0    0  0.85669460069E+01 -0.12051794277E+02 -0.29948049492E+02  0.91600539262E+02  0.85294400845E+02 0.  0.
         11    1    3    3    0    0  0.38712973165E+02 -0.20262264145E+02 -0.39527432053E+02  0.58920892089E+02  0.51100000000E-03 0. -1.
         22    1    1    0    0    0 -0.85669460069E+01  0.12051794277E+02  0.29948049492E+02  0.33399460738E+02  0.00000000000E+00 0. -1.
</event>
<event>
 5    1  0.3190780E-003  0.9118800E+02  0.7818608E-02  0.1130116E+00
         25   -1    0    0    0    0  0.00000000000E+00  0.00000000000E+00  0.99999998245E-14  0.12500000000E+03  0.12500000000E+03 0.  0.
        -11    1    3    3    0    0 -0.19973753959E+02  0.40557162577E+02 -0.88092448749E+01  0.46059060771E+02  0.51100000000E-03 0. -1.
         23    2    1    0    0    0 -0.22605105766E+01 -0.16090841781E+02  0.67303654318E+01  0.10741242154E+03  0.10596275471E+03 0.  0.
         11    1    3    3    0    0  0.17713243383E+02 -0.56648004358E+02  0.15539610307E+02  0.61353360769E+02  0.51100000000E-03 0.  1.
         22    1    1    0    0    0  0.22605105766E+01  0.16090841781E+02 -0.67303654318E+01  0.17587578461E+02  0.00000000000E+00 0.  1.
</event>
<event>
 4    1  0.3190780E-003  0.9118800E+02  0.7818608E-02  0.1130116E+00
         25   -1    0    0    0    0  0.00000000000E+00  0.00000000000E+00  0.99999998245E-14  0.12500000000E+03  0.12500000000E+03 0.  0.
        -11    1    1    0    0    0 -0.65008192650E+01  0.57030404462E+01  0.12136501414E+02  0.14902348415E+02  0.51100000000E-03 0.  1.
         11    1    1    0    0    0 -0.30304259304E+02 -0.45759087970E+02 -0.89297257199E+01  0.55605595632E+02  0.51100000000E-03 0. -1.
         22    1    1    0    0    0  0.36805078569E+02  0.40056047524E+02 -0.32067756937E+01  0.54492055954E+02  0.00000000000E+00 0. -1.
</event>
<event>
 5    1  0.3190780E-003  0.9118800E+02  0.7818608E-02  0.1130116E+00
         25   -1    0    0    0    0  0.00000000000E+00  0.00000000000E+00  0.99999998245E-14  0.12500000000E+03  0.12500000000E+03 0.  0.
        -11    1    3    3    0    0 -0.13623459438E+02 -0.31914820760E+02  0.15768735041E+02  0.38115711147E+02  0.51100000000E-03 0.  1.
         23    2    1    0    0    0 -0.15417776134E+02  0.22801870027E+02 -0.56471173591E+01  0.96901547514E+02  0.92738270840E+02 0.  0.
         11    1    3    3    0    0 -0.17943166962E+01  0.54716690787E+02 -0.21415852400E+02  0.58785836367E+02  0.51100000000E-03 0. -1.
         22    1    1    0    0    0  0.15417776134E+02 -0.22801870027E+02  0.56471173591E+01  0.28098452486E+02  0.00000000000E+00 0. -1.
</event>
<event>
 5    1  0.3190780E-003  0.9118800E+02  0.7818608E-02  0.1130116E+00
         25   -1    0    0    0    0  0.00000000000E+00  0.00000000000E+00  0.99999998245E-14  0.12500000000E+03  0.12500000000E+03 0.  0.
        -11    1    3    3    0    0 -0.34408145063E+02 -0.10877596023E+02  0.32801589950E+02  0.48766657107E+02  0.51100000000E-03 0.  1.
         23    2    1    0    0    0 -0.23816970906E+02 -0.67107245482E+01 -0.13751786643E+02  0.96691104526E+02  0.92454183958E+02 0.  0.
         11    1    3    3    0    0  0.10591174157E+02  0.41668714744E+01 -0.46553376593E+02  0.47924447418E+02  0.51100000000E-03 0. -1.
         22    1    1    0    0    0  0.23816970906E+02  0.67107245482E+01  0.13751786643E+02  0.28308895474E+02  0.00000000000E+00 0.  1.
</event>
<event>
 5    1  0.3190780E-003  0.9118800E+02  0.7818608E-02  0.1130116E+00
         25   -1    0    0    0    0  0.00000000000E+00  0.00000000000E+00  0.99999998245E-14  0.12500000000E+03  0.12500000000E+03 0.  0.
        -11    1    3    3    0    0 -0.19154858775E+02 -0.21018661587E+02 -0.16497856742E+02  0.32876618241E+02  0.51100000000E-03 0.  1.
         23    2    1    0    0    0 -0.93354402411E+01  0.11076169537E+02  0.30852660007E+02  0.90916006607E+02  0.84285239821E+02 0.  0.
         11    1    3    3    0    0  0.98194185336E+01  0.32094831124E+02  0.47350516749E+02  0.58039388366E+02  0.51100000000E-03 0. -1.
         22    1    1    0    0    0  0.93354402411E+01 -0.11076169537E+02 -0.30852660007E+02  0.34083993393E+02  0.00000000000E+00 0. -1.
</event>
<event>
 5    1  0.3190780E-003  0.9118800E+02  0.7818608E-02  0.1130116E+00
         25   -1    0    0    0    0  0.00000000000E+00  0.00000000000E+00  0.99999998245E-14  0.12500000000E+03  0.12500000000E+03 0.  0.
        -11    1    3    3    0    0  0.74170064470E+01 -0.36676295159E+02 -0.10675686660E+02  0.38911860623E+02  0.51100000000E-03 0.  1.
         23    2    1    0    0    0  0.14965346456E+02  0.18683375805E+02 -0.17707331674E+02  0.95224511405E+02  0.90449587348E+02 0.  0.
         11    1    3    3    0    0  0.75483400085E+01  0.55359670965E+02 -0.70316450142E+01  0.56312650782E+02  0.51100000000E-03 0. -1.
         22    1    1    0    0    0 -0.14965346456E+02 -0.18683375805E+02  0.17707331674E+02  0.29775488595E+02  0.00000000000E+00 0. -1.
</event>
<event>
 5    1  0.3190780E-003  0.9118800E+02  0.7818608E-02  0.1130116E+00
         25   -1    0    0    0    0  0.00000000000E+00  0.00000000000E+00  0.99999998245E-14  0.12500000000E+03  0.12500000000E+03 0.  0.
        -11    1    3    3    0    0 -0.45464295507E+02  0.13460638049E+02 -0.21868158849E+02  0.52215010431E+02  0.51100000000E-03 0.  1.
         23    2    1    0    0    0 -0.85452643093E+01  0.25965077305E+02  0.14322898799E+01  0.97627418173E+02  0.93711549679E+02 0.  0.
         11    1    3    3    0    0  0.36919031198E+02  0.12504439255E+02  0.23300448729E+02  0.45412407742E+02  0.51100000000E-03 0. -1.
         22    1    1    0    0    0  0.85452643093E+01 -0.25965077305E+02 -0.14322898799E+01  0.27372581827E+02  0.00000000000E+00 0. -1.
</event>
<event>
 5    1  0.3190780E-003  0.9118800E+02  0.7818608E-02  0.1130116E+00
         25   -1    0    0    0    0  0.00000000000E+00  0.00000000000E+00  0.99999998245E-14  0.12500000000E+03  0.12500000000E+03 0.  0.
        -11    1    3    3    0    0 -0.29768666255E+02 -0.41728973579E+02 -0.27518916213E+02  0.58178788887E+02  0.51100000000E-03 0.  1.
         23    2    1    0    0    0 -0.29456309218E+02 -0.22866846702E+02 -0.52855631334E+01  0.87336967614E+02  0.78798743033E+02 0.  0.
         11    1    3    3    0    0  0.31235703666E+00  0.18862126877E+02  0.22233353080E+02  0.29158178727E+02  0.51100000000E-03 0. -1.
         22    1    1    0    0    0  0.29456309218E+02  0.22866846702E+02  0.52855631334E+01  0.37663032386E+02  0.00000000000E+00 0.  1.
</event>
<event>
 5    1  0.3190780E-003  0.9118800E+02  0.7818608E-02  0.1130116E+00
         25   -1    0    0    0    0  0.00000000000E+00  0.00000000000E+00  0.99999998245E-14  0.12500000000E+03  0.12500000000E+03 0.  0.
        -11    1    3    3    0    0 -0.26585642231E+02 -0.14287370633E+02 -0.21376457026E+02  0.36984838078E+02  0.51100000000E-03 0. -1.
         23    2    1    0    0    0 -0.34532662078E+01  0.10112341502E+02  0.27036880379E+02  0.95928065100E+02  0.91416717700E+02 0.  0.
         11    1    3    3    0    0  0.23132376023E+02  0.24399712135E+02  0.48413337406E+02  0.58943227022E+02  0.51100000000E-03 0.  1.
         22    1    1    0    0    0  0.34532662078E+01 -0.10112341502E+02 -0.27036880379E+02  0.29071934900E+02  0.00000000000E+00 0.  1.
</event>
<event>
 5    1  0.3190780E-003  0.9118800E+02  0.7818608E-02  0.1130116E+00
         25   -1    0    0    0    0  0.00000000000E+00  0.00000000000E+00  0.99999998245E-14  0.12500000000E+03  0.12500000000E+03 0.  0.
        -11    1    3    3    0    0  0.33659498876E+02 -0.64075703606E+01 -0.46970624442E+01  0.34584407156E+02  0.51100000000E-03 0. -1.
         23    2    1    0    0    0 -0.89028042048E+01 -0.12290006813E+02  0.31025681317E+02  0.90461657663E+02  0.83608698207E+02 0.  0.
         11    1    3    3    0    0 -0.42562303080E+02 -0.58824364526E+01  0.35722743761E+02  0.55877250507E+02  0.51100000000E-03 0.  1.
         22    1    1    0    0    0  0.89028042048E+01  0.12290006813E+02 -0.31025681317E+02  0.34538342337E+02  0.00000000000E+00 0.  1.
</event>
<event>
 5    1  0.3190780E-003  0.9118800E+02  0.7818608E-02  0.1130116E+00
         25   -1    0    0    0    0  0.00000000000E+00  0.00000000000E+00  0.99999998245E-14  0.12500000000E+03  0.12500000000E+03 0.  0.
        -11    1    3    3    0    0  0.12010412606E+02 -0.30389469903E+02 -0.32010625827E+02  0.45743306155E+02  0.51100000000E-03 0.  1.
         23    2    1    0    0    0  0.15446463732E+02 -0.17634020878E+02  0.16702528027E+02  0.96215865887E+02  0.91809402959E+02 0.  0.
         11    1    3    3    0    0  0.34360511259E+01  0.12755449024E+02  0.48713153854E+02  0.50472559732E+02  0.51100000000E-03 0. -1.
         22    1    1    0    0    0 -0.15446463732E+02  0.17634020878E+02 -0.16702528027E+02  0.28784134113E+02  0.00000000000E+00 0. -1.
</event>
<event>
 5    1  0.3190780E-003  0.9118800E+02  0.7818608E-02  0.1130116E+00
         25   -1    0    0    0    0  0.00000000000E+00  0.00000000000E+00  0.99999998245E-14  0.12500000000E+03  0.12500000000E+03 0.  0.
        -11    1    3    3    0    0 -0.19622044094E+02  0.34121282183E+02 -0.11132957644E+02  0.40905125087E+02  0.51100000000E-03 0.  1.
         23    2    1    0    0    0 -0.19960317362E+02 -0.70331270526E+01  0.22540678656E+02  0.94081375522E+02  0.88855747594E+02 0.  0.
         11    1    3    3    0    0 -0.33827326778E+00 -0.41154409236E+02  0.33673636300E+02  0.53176250435E+02  0.51100000000E-03 0. -1.
         22    1    1    0    0    0  0.19960317362E+02  0.70331270526E+01 -0.22540678656E+02  0.30918624478E+02  0.00000000000E+00 0. -1.
</event>
<event>
 5    1  0.3190780E-003  0.9118800E+02  0.7818608E-02  0.1130116E+00
         25   -1    0    0    0    0  0.00000000000E+00  0.00000000000E+00  0.99999998245E-14  0.12500000000E+03  0.12500000000E+03 0.  0.
        -11    1    3    3    0    0  0.66175250692E+01 -0.50965928994E+02  0.11051845375E+01  0.51405631884E+02  0.51100000000E-03 0.  1.
         23    2    1    0    0    0 -0.23043278299E+02 -0.18129700794E+02  0.12083509063E+01  0.95654832807E+02  0.91042342906E+02 0.  0.
         11    1    3    3    0    0 -0.29660803368E+02  0.32836228200E+02  0.10316636879E+00  0.44249200924E+02  0.51100000000E-03 0. -1.
         22    1    1    0    0    0  0.23043278299E+02  0.18129700794E+02 -0.12083509063E+01  0.29345167193E+02  0.00000000000E+00 0. -1.
</event>
<event>
 5    1  0.3190780E-003  0.9118800E+02  0.7818608E-02  0.1130116E+00
         25   -1    0    0    0    0  0.00000000000E+00  0.00000000000E+00  0.99999998245E-14  0.12500000000E+03  0.12500000000E+03 0.  0.
        -11    1    3    3    0    0 -0.54401834938E+02 -0.23597028838E+02  0.12229644387E+02  0.60547036399E+02  0.51100000000E-03 0.  1.
         23    2    1    0    0    0 -0.25811951081E+02 -0.14608764411E+02 -0.47044991966E+01  0.94969929589E+02  0.90097072079E+02 0.  0.
         11    1    3    3    0    0  0.28589883857E+02  0.89882644270E+01 -0.16934143584E+02  0.34422893189E+02  0.51100000000E-03 0. -1.
         22    1    1    0    0    0  0.25811951081E+02  0.14608764411E+02  0.47044991966E+01  0.30030070411E+02  0.00000000000E+00 0.  1.
</event>
<event>
 5    1  0.3190780E-003  0.9118800E+02  0.7818608E-02  0.1130116E+00
         25   -1    0    0    0    0  0.00000000000E+00  0.00000000000E+00  0.99999998245E-14  0.12500000000E+03  0.12500000000E+03 0.  0.
        -11    1    3    3    0    0  0.14329182265E+01  0.43130653552E+02 -0.42134525470E+02  0.60312724754E+02  0.51100000000E-03 0.  1.
         23    2    1    0    0    0 -0.97848764644E+01  0.22801037530E+02 -0.15080149527E+02  0.95964813939E+02  0.91466952965E+02 0.  0.
         11    1    3    3    0    0 -0.11217794691E+02 -0.20329616022E+02  0.27054375942E+02  0.35652089185E+02  0.51100000000E-03 0. -1.
         22    1    1    0    0    0  0.97848764644E+01 -0.22801037530E+02  0.15080149527E+02  0.29035186061E+02  0.00000000000E+00 0.  1.
</event>
<event>
 5    1  0.3190780E-003  0.9118800E+02  0.7818608E-02  0.1130116E+00
         25   -1    0    0    0    0  0.00000000000E+00  0.00000000000E+00  0.99999998245E-14  0.12500000000E+03  0.12500000000E+03 0.  0.
        -11    1    3    3    0    0 -0.25193961645E+02  0.21600293910E+02 -0.51630033184E+02  0.61375636267E+02  0.51100000000E-03 0. -1.
         23    2    1    0    0    0 -0.97767610616E+01  0.17578956671E+02 -0.20886601175E+02  0.96002502122E+02  0.91518443663E+02 0.  0.
         11    1    3    3    0    0  0.15417200583E+02 -0.40213372391E+01  0.30743432009E+02  0.34626865855E+02  0.51100000000E-03 0.  1.
         22    1    1    0    0    0  0.97767610616E+01 -0.17578956671E+02  0.20886601175E+02  0.28997497878E+02  0.00000000000E+00 0. -1.
</event>
<event>
 5    1  0.3190780E-003  0.9118800E+02  0.7818608E-02  0.1130116E+00
         25   -1    0    0    0    0  0.00000000000E+00  0.00000000000E+00  0.99999998245E-14  0.12500000000E+03  0.12500000000E+03 0.  0.
        -11    1    3    3    0    0  0.15592990759E+02  0.90140611940E+00  0.33046896545E+02  0.36552035037E+02  0.51100000000E-03 0.  1.
         23    2    1    0    0    0  0.13889868589E+02 -0.51215564546E+01 -0.25543942668E+02  0.95476250290E+02  0.90796820278E+02 0.  0.
         11    1    3    3    0    0 -0.17031221700E+01 -0.60229625740E+01 -0.58590839213E+02  0.58924215253E+02  0.51100000000E-03 0. -1.
         22    1    1    0    0    0 -0.13889868589E+02  0.51215564546E+01  0.25543942668E+02  0.29523749710E+02  0.00000000000E+00 0. -1.
</event>
<event>
 5    1  0.3190780E-003  0.9118800E+02  0.7818608E-02  0.1130116E+00
         25   -1    0    0    0    0  0.00000000000E+00  0.00000000000E+00  0.99999998245E-14  0.12500000000E+03  0.12500000000E+03 0.  0.
        -11    1    3    3    0    0 -0.39885921423E+02 -0.21178453743E+02 -0.11201856354E+02  0.46528434497E+02  0.51100000000E-03 0.  1.
         23    2    1    0    0    0  0.87965030638E+01 -0.25247357301E+02 -0.12694528902E+02  0.95403402545E+02  0.90696475325E+02 0.  0.
         11    1    3    3    0    0  0.48682424487E+02 -0.40689035587E+01 -0.14926725481E+01  0.48874968048E+02  0.51100000000E-03 0. -1.
         22    1    1    0    0    0 -0.87965030638E+01  0.25247357301E+02  0.12694528902E+02  0.29596597455E+02  0.00000000000E+00 0.  1.
</event>
<event>
 5    1  0.3190780E-003  0.9118800E+02  0.7818608E-02  0.1130116E+00
         25   -1    0    0    0    0  0.00000000000E+00  0.00000000000E+00  0.99999998245E-14  0.12500000000E+03  0.12500000000E+03 0.  0.
        -11    1    3    3    0    0 -0.57014141534E+01 -0.11602617704E+02 -0.33136604132E+02  0.35569107306E+02  0.51100000000E-03 0. -1.
         23    2    1    0    0    0  0.22019066055E+02  0.20504702910E+02  0.71549356826E+01  0.94073066496E+02  0.88844057899E+02 0.  0.
         11    1    3    3    0    0  0.27720480208E+02  0.32107320614E+02  0.40291539814E+02  0.58503959189E+02  0.51100000000E-03 0.  1.
         22    1    1    0    0    0 -0.22019066055E+02 -0.20504702910E+02 -0.71549356826E+01  0.30926933504E+02  0.00000000000E+00 0.  1.
</event>
<event>
 5    1  0.3190780E-003  0.9118800E+02  0.7818608E-02  0.1130116E+00
         25   -1    0    0    0    0  0.00000000000E+00  0.00000000000E+00  0.99999998245E-14  0.12500000000E+03  0.12500000000E+03 0.  0.
        -11    1    3    3    0    0 -0.27092216720E+02 -0.12851191645E+02  0.21342777738E+02  0.36805644884E+02  0.51100000000E-03 0. -1.
         23    2    1    0    0    0  0.22094245973E+02 -0.13244883673E+02 -0.12355792293E+02  0.96429941340E+02  0.92100408985E+02 0.  0.
         11    1    3    3    0    0  0.49186462692E+02 -0.39369202786E+00 -0.33698570031E+02  0.59624296457E+02  0.51100000000E-03 0.  1.
         22    1    1    0    0    0 -0.22094245973E+02  0.13244883673E+02  0.12355792293E+02  0.28570058660E+02  0.00000000000E+00 0.  1.
</event>
<event>
 5    1  0.3190780E-003  0.9118800E+02  0.7818608E-02  0.1130116E+00
         25   -1    0    0    0    0  0.00000000000E+00  0.00000000000E+00  0.99999998245E-14  0.12500000000E+03  0.12500000000E+03 0.  0.
        -11    1    3    3    0    0  0.26988138154E+02  0.27111308656E+02 -0.54675492567E+01  0.38642939241E+02  0.51100000000E-03 0.  1.
         23    2    1    0    0    0 -0.25798475807E+02  0.58077105792E+01  0.84419276638E+01  0.97241091541E+02  0.93194811472E+02 0.  0.
         11    1    3    3    0    0 -0.52786613961E+02 -0.21303598077E+02  0.13909476920E+02  0.58598152300E+02  0.51100000000E-03 0. -1.
         22    1    1    0    0    0  0.25798475807E+02 -0.58077105792E+01 -0.84419276638E+01  0.27758908459E+02  0.00000000000E+00 0. -1.
</event>
<event>
 5    1  0.3190780E-003  0.9118800E+02  0.7818608E-02  0.1130116E+00
         25   -1    0    0    0    0  0.00000000000E+00  0.00000000000E+00  0.99999998245E-14  0.12500000000E+03  0.12500000000E+03 0.  0.
        -11    1    3    3    0    0 -0.39143552535E+02 -0.56845725459E+01  0.34279298045E+01  0.39702427799E+02  0.51100000000E-03 0. -1.
         23    2    1    0    0    0  0.87465484574E+01  0.23053960504E+02  0.14146198798E+02  0.96572862520E+02  0.92294179828E+02 0.  0.
         11    1    3    3    0    0  0.47890100993E+02  0.28738533050E+02  0.10718268994E+02  0.56870434722E+02  0.51100000000E-03 0.  1.
         22    1    1    0    0    0 -0.87465484574E+01 -0.23053960504E+02 -0.14146198798E+02  0.28427137480E+02  0.00000000000E+00 0.  1.
</event>
<event>
 5    1  0.3190780E-003  0.9118800E+02  0.7818608E-02  0.1130116E+00
         25   -1    0    0    0    0  0.00000000000E+00  0.00000000000E+00  0.99999998245E-14  0.12500000000E+03  0.12500000000E+03 0.  0.
        -11    1    3    3    0    0 -0.40817025971E+01  0.36130554891E+02  0.39740171218E+01  0.36576906720E+02  0.51100000000E-03 0. -1.
         23    2    1    0    0    0 -0.63822292064E+01 -0.24896748074E+02  0.87888659542E+01  0.97837064240E+02  0.93990776463E+02 0.  0.
         11    1    3    3    0    0 -0.23005266093E+01 -0.61027302965E+02  0.48148488324E+01  0.61260157521E+02  0.51100000000E-03 0.  1.
         22    1    1    0    0    0  0.63822292064E+01  0.24896748074E+02 -0.87888659542E+01  0.27162935760E+02  0.00000000000E+00 0.  1.
</event>
<event>
 5    1  0.3190780E-003  0.9118800E+02  0.7818608E-02  0.1130116E+00
         25   -1    0    0    0    0  0.00000000000E+00  0.00000000000E+00  0.99999998245E-14  0.12500000000E+03  0.12500000000E+03 0.  0.
        -11    1    3    3    0    0 -0.41414172223E+02  0.42130907434E+02 -0.12835956417E+01  0.59091409191E+02  0.51100000000E-03 0.  1.
         23    2    1    0    0    0 -0.21679247220E+02  0.12063870736E+02 -0.13094921232E+02  0.96946413790E+02  0.92798725462E+02 0.  0.
         11    1    3    3    0    0  0.19734925003E+02 -0.30067036698E+02 -0.11811325591E+02  0.37855004598E+02  0.51100000000E-03 0. -1.
         22    1    1    0    0    0  0.21679247220E+02 -0.12063870736E+02  0.13094921232E+02  0.28053586210E+02  0.00000000000E+00 0.  1.
</event>
<event>
 5    1  0.3190780E-003  0.9118800E+02  0.7818608E-02  0.1130116E+00
         25   -1    0    0    0    0  0.00000000000E+00  0.00000000000E+00  0.99999998245E-14  0.12500000000E+03  0.12500000000E+03 0.  0.
        -11    1    3    3    0    0  0.46295455931E+02 -0.56792942061E+01  0.21190271906E+02  0.51230374255E+02  0.51100000000E-03 0.  1.
         23    2    1    0    0    0  0.54119744163E+01  0.14225577958E+02  0.23769567455E+02  0.96775031048E+02  0.92567584834E+02 0.  0.
         11    1    3    3    0    0 -0.40883481515E+02  0.19904872164E+02  0.25792955491E+01  0.45544656794E+02  0.51100000000E-03 0. -1.
         22    1    1    0    0    0 -0.54119744163E+01 -0.14225577958E+02 -0.23769567455E+02  0.28224968952E+02  0.00000000000E+00 0.  1.
</event>
<event>
 5    1  0.3190780E-003  0.9118800E+02  0.7818608E-02  0.1130116E+00
         25   -1    0    0    0    0  0.00000000000E+00  0.00000000000E+00  0.99999998245E-14  0.12500000000E+03  0.12500000000E+03 0.  0.
        -11    1    3    3    0    0  0.52521510674E+02 -0.30768750619E+02  0.11315400076E+02  0.61913353788E+02  0.51100000000E-03 0.  1.
         23    2    1    0    0    0  0.17305946238E+02 -0.13980961524E+02  0.90201831428E+01  0.10099319338E+03  0.98098411527E+02 0.  0.
         11    1    3    3    0    0 -0.35215564436E+02  0.16787789095E+02 -0.22952169329E+01  0.39079839589E+02  0.51100000000E-03 0. -1.
         22    1    1    0    0    0 -0.17305946238E+02  0.13980961524E+02 -0.90201831428E+01  0.24006806623E+02  0.00000000000E+00 0.  1.
</event>
<event>
 5    1  0.3190780E-003  0.9118800E+02  0.7818608E-02  0.1130116E+00
         25   -1    0    0    0    0  0.00000000000E+00  0.00000000000E+00  0.99999998245E-14  0.12500000000E+03  0.12500000000E+03 0.  0.
        -11    1    3    3    0    0  0.98025935562E+01  0.27187414983E+02  0.27476368521E+02  0.39877276753E+02  0.51100000000E-03 0.  1.
         23    2    1    0    0    0  0.20623287695E+02  0.16393039312E+01 -0.20866394444E+02  0.95616097438E+02  0.90989144184E+02 0.  0.
         11    1    3    3    0    0  0.10820694139E+02 -0.25548111052E+02 -0.48342762964E+02  0.55738820684E+02  0.51100000000E-03 0. -1.
         22    1    1    0    0    0 -0.20623287695E+02 -0.16393039312E+01  0.20866394444E+02  0.29383902562E+02  0.00000000000E+00 0.  1.
</event>
<event>
 5    1  0.3190780E-003  0.9118800E+02  0.7818608E-02  0.1130116E+00
         25   -1    0    0    0    0  0.00000000000E+00  0.00000000000E+00  0.99999998245E-14  0.12500000000E+03  0.12500000000E+03 0.  0.
        -11    1    3    3    0    0 -0.95357428383E+01  0.22021938584E+02  0.24161078993E+02  0.34053691560E+02  0.51100000000E-03 0.  1.
         23    2    1    0    0    0  0.21005436660E+02 -0.91610412952E+01 -0.18846015209E+02  0.95329723018E+02  0.90594871569E+02 0.  0.
         11    1    3    3    0    0  0.30541179499E+02 -0.31182979879E+02 -0.43007094202E+02  0.61276031459E+02  0.51100000000E-03 0. -1.
         22    1    1    0    0    0 -0.21005436660E+02  0.91610412952E+01  0.18846015209E+02  0.29670276982E+02  0.00000000000E+00 0. -1.
</event>
<event>
 5    1  0.3190780E-003  0.9118800E+02  0.7818608E-02  0.1130116E+00
         25   -1    0    0    0    0  0.00000000000E+00  0.00000000000E+00  0.99999998245E-14  0.12500000000E+03  0.12500000000E+03 0.  0.
        -11    1    3    3    0    0 -0.10404634883E+02  0.10454865439E+02  0.38116475816E+02  0.40870849847E+02  0.51100000000E-03 0.  1.
         23    2    1    0    0    0 -0.24817024028E+02 -0.73215330975E+01 -0.12383949615E+02  0.96314607610E+02  0.91943743139E+02 0.  0.
         11    1    3    3    0    0 -0.14412389145E+02 -0.17776398536E+02 -0.50500425431E+02  0.55443757762E+02  0.51100000000E-03 0. -1.
         22    1    1    0    0    0  0.24817024028E+02  0.73215330975E+01  0.12383949615E+02  0.28685392390E+02  0.00000000000E+00 0. -1.
</event>
<event>
 5    1  0.3190780E-003  0.9118800E+02  0.7818608E-02  0.1130116E+00
         25   -1    0    0    0    0  0.00000000000E+00  0.00000000000E+00  0.99999998245E-14  0.12500000000E+03  0.12500000000E+03 0.  0.
        -11    1    3    3    0    0 -0.33916554805E+02  0.48221395681E+02 -0.60542495981E+01  0.59264573142E+02  0.51100000000E-03 0. -1.
         23    2    1    0    0    0 -0.17730951293E+02  0.22878033299E+02  0.11234953766E+02  0.93951405386E+02  0.88672720419E+02 0.  0.
         11    1    3    3    0    0  0.16185603512E+02 -0.25343362382E+02  0.17289203364E+02  0.34686832244E+02  0.51100000000E-03 0.  1.
         22    1    1    0    0    0  0.17730951293E+02 -0.22878033299E+02 -0.11234953766E+02  0.31048594614E+02  0.00000000000E+00 0. -1.
</event>
<event>
 5    1  0.3190780E-003  0.9118800E+02  0.7818608E-02  0.1130116E+00
         25   -1    0    0    0    0  0.00000000000E+00  0.00000000000E+00  0.99999998245E-14  0.12500000000E+03  0.12500000000E+03 0.  0.
        -11    1    3    3    0    0  0.34955058578E+02  0.19679729330E+02  0.12053585650E+01  0.40132290693E+02  0.51100000000E-03 0. -1.
         23    2    1    0    0    0  0.34390817495E+01 -0.26043748493E+02  0.10996166734E+02  0.96521590605E+02  0.92224712801E+02 0.  0.
         11    1    3    3    0    0 -0.31515976828E+02 -0.45723477824E+02  0.97908081686E+01  0.56389299912E+02  0.51100000000E-03 0.  1.
         22    1    1    0    0    0 -0.34390817495E+01  0.26043748493E+02 -0.10996166734E+02  0.28478409395E+02  0.00000000000E+00 0.  1.
</event>
<event>
 5    1  0.3190780E-003  0.9118800E+02  0.7818608E-02  0.1130116E+00
         25   -1    0    0    0    0  0.00000000000E+00  0.00000000000E+00  0.99999998245E-14  0.12500000000E+03  0.12500000000E+03 0.  0.
        -11    1    3    3    0    0  0.10048016290E+02 -0.13429819720E+01  0.14418812862E+02  0.17625787828E+02  0.51100000000E-03 0. -1.
         23    2    1    0    0    0  0.28507464070E+02  0.73156524440E+01 -0.39770419104E+02  0.75523939990E+02  0.57061239011E+02 0.  0.
         11    1    3    3    0    0  0.18459447780E+02  0.86586344159E+01 -0.54189231967E+02  0.57898152162E+02  0.51100000000E-03 0.  1.
         22    1    1    0    0    0 -0.28507464070E+02 -0.73156524440E+01  0.39770419104E+02  0.49476060010E+02  0.00000000000E+00 0.  1.
</event>
<event>
 5    1  0.3190780E-003  0.9118800E+02  0.7818608E-02  0.1130116E+00
         25   -1    0    0    0    0  0.00000000000E+00  0.00000000000E+00  0.99999998245E-14  0.12500000000E+03  0.12500000000E+03 0.  0.
        -11    1    3    3    0    0  0.14139802581E+02  0.20307631169E+02 -0.26118689172E+02  0.35979436141E+02  0.51100000000E-03 0. -1.
         23    2    1    0    0    0 -0.27422171657E+02 -0.95297049484E+01  0.45266367942E+01  0.95618352404E+02  0.90992241983E+02 0.  0.
         11    1    3    3    0    0 -0.41561974238E+02 -0.29837336117E+02  0.30645325966E+02  0.59638916263E+02  0.51100000000E-03 0.  1.
         22    1    1    0    0    0  0.27422171657E+02  0.95297049484E+01 -0.45266367942E+01  0.29381647596E+02  0.00000000000E+00 0.  1.
</event>
<event>
 5    1  0.3190780E-003  0.9118800E+02  0.7818608E-02  0.1130116E+00
         25   -1    0    0    0    0  0.00000000000E+00  0.00000000000E+00  0.99999998245E-14  0.12500000000E+03  0.12500000000E+03 0.  0.
        -11    1    3    3    0    0  0.57876369082E+00  0.18806601110E+02 -0.50740778028E+02  0.54117000729E+02  0.51100000000E-03 0. -1.
         23    2    1    0    0    0  0.21669818909E+02  0.14388956934E+02 -0.17797120615E+02  0.93482375798E+02  0.88009056065E+02 0.  0.
         11    1    3    3    0    0  0.21091055218E+02 -0.44176441764E+01  0.32943657414E+02  0.39365375069E+02  0.51100000000E-03 0.  1.
         22    1    1    0    0    0 -0.21669818909E+02 -0.14388956934E+02  0.17797120615E+02  0.31517624202E+02  0.00000000000E+00 0. -1.
</event>
<event>
 5    1  0.3190780E-003  0.9118800E+02  0.7818608E-02  0.1130116E+00
         25   -1    0    0    0    0  0.00000000000E+00  0.00000000000E+00  0.99999998245E-14  0.12500000000E+03  0.12500000000E+03 0.  0.
        -11    1    3    3    0    0 -0.32373371076E+02  0.28398143989E+02  0.12524258682E+01  0.43081995168E+02  0.51100000000E-03 0.  1.
         23    2    1    0    0    0  0.19957033201E+02  0.20610846041E+02 -0.29714459577E+01  0.96156982824E+02  0.91729197675E+02 0.  0.
         11    1    3    3    0    0  0.52330404278E+02 -0.77872979481E+01 -0.42238718259E+01  0.53074987656E+02  0.51100000000E-03 0. -1.
         22    1    1    0    0    0 -0.19957033201E+02 -0.20610846041E+02  0.29714459577E+01  0.28843017176E+02  0.00000000000E+00 0. -1.
</event>
<event>
 5    1  0.3190780E-003  0.9118800E+02  0.7818608E-02  0.1130116E+00
         25   -1    0    0    0    0  0.00000000000E+00  0.00000000000E+00  0.99999998245E-14  0.12500000000E+03  0.12500000000E+03 0.  0.
        -11    1    3    3    0    0  0.96012500485E+01 -0.43784496230E+02  0.21858749131E+02  0.49870542673E+02  0.51100000000E-03 0.  1.
         23    2    1    0    0    0  0.17536541438E+02 -0.15849236751E+02 -0.15158417832E+02  0.96919647040E+02  0.92762663610E+02 0.  0.
         11    1    3    3    0    0  0.79352913893E+01  0.27935259480E+02 -0.37017166962E+02  0.47049104368E+02  0.51100000000E-03 0. -1.
         22    1    1    0    0    0 -0.17536541438E+02  0.15849236751E+02  0.15158417832E+02  0.28080352960E+02  0.00000000000E+00 0.  1.
</event>
<event>
 5    1  0.3190780E-003  0.9118800E+02  0.7818608E-02  0.1130116E+00
         25   -1    0    0    0    0  0.00000000000E+00  0.00000000000E+00  0.99999998245E-14  0.12500000000E+03  0.12500000000E+03 0.  0.
        -11    1    3    3    0    0 -0.19357321941E+02  0.22566522622E+02  0.27837685634E+02  0.40729480696E+02  0.51100000000E-03 0. -1.
         23    2    1    0    0    0  0.20837849733E+02  0.20359072493E+02 -0.81742940987E+01  0.94742324969E+02  0.89780739818E+02 0.  0.
         11    1    3    3    0    0  0.40195171674E+02 -0.22074501291E+01 -0.36011979733E+02  0.54012844273E+02  0.51100000000E-03 0.  1.
         22    1    1    0    0    0 -0.20837849733E+02 -0.20359072493E+02  0.81742940987E+01  0.30257675031E+02  0.00000000000E+00 0.  1.
</event>
<event>
 5    1  0.3190780E-003  0.9118800E+02  0.7818608E-02  0.1130116E+00
         25   -1    0    0    0    0  0.00000000000E+00  0.00000000000E+00  0.99999998245E-14  0.12500000000E+03  0.12500000000E+03 0.  0.
        -11    1    3    3    0    0 -0.31389661029E+02  0.34078051539E+02  0.30005836233E+02  0.55199407828E+02  0.51100000000E-03 0. -1.
         23    2    1    0    0    0 -0.40010335270E+01  0.72438456604E+01  0.30347676108E+02  0.93544268974E+02  0.88096919603E+02 0.  0.
         11    1    3    3    0    0  0.27388627502E+02 -0.26834205879E+02  0.34183987474E+00  0.38344861146E+02  0.51100000000E-03 0.  1.
         22    1    1    0    0    0  0.40010335270E+01 -0.72438456604E+01 -0.30347676108E+02  0.31455731026E+02  0.00000000000E+00 0. -1.
</event>
<event>
 5    1  0.3190780E-003  0.9118800E+02  0.7818608E-02  0.1130116E+00
         25   -1    0    0    0    0  0.00000000000E+00  0.00000000000E+00  0.99999998245E-14  0.12500000000E+03  0.12500000000E+03 0.  0.
        -11    1    3    3    0    0 -0.57859259914E-01  0.17022080966E+02  0.28051024700E+02  0.32811805423E+02  0.51100000000E-03 0. -1.
         23    2    1    0    0    0 -0.10420129557E+02 -0.10633250817E+02 -0.26363025612E+02  0.94723701641E+02  0.89754807171E+02 0.  0.
         11    1    3    3    0    0 -0.10362270297E+02 -0.27655331783E+02 -0.54414050312E+02  0.61911896218E+02  0.51100000000E-03 0.  1.
         22    1    1    0    0    0  0.10420129557E+02  0.10633250817E+02  0.26363025612E+02  0.30276298359E+02  0.00000000000E+00 0.  1.
</event>
<event>
 5    1  0.3190780E-003  0.9118800E+02  0.7818608E-02  0.1130116E+00
         25   -1    0    0    0    0  0.00000000000E+00  0.00000000000E+00  0.99999998245E-14  0.12500000000E+03  0.12500000000E+03 0.  0.
        -11    1    3    3    0    0  0.39891258517E+01 -0.37961619388E+02  0.82071581235E+01  0.39042990618E+02  0.51100000000E-03 0.  1.
         23    2    1    0    0    0  0.13974516126E+02  0.19417120154E+02  0.13511334291E+02  0.97525142215E+02  0.93575026335E+02 0.  0.
         11    1    3    3    0    0  0.99853902740E+01  0.57378739542E+02  0.53041761674E+01  0.58482151597E+02  0.51100000000E-03 0. -1.
         22    1    1    0    0    0 -0.13974516126E+02 -0.19417120154E+02 -0.13511334291E+02  0.27474857785E+02  0.00000000000E+00 0. -1.
</event>
<event>
 5    1  0.3190780E-003  0.9118800E+02  0.7818608E-02  0.1130116E+00
         25   -1    0    0    0    0  0.00000000000E+00  0.00000000000E+00  0.99999998245E-14  0.12500000000E+03  0.12500000000E+03 0.  0.
        -11    1    3    3    0    0  0.34315352906E+02  0.82910715476E+01  0.81929141241E+01  0.36240987218E+02  0.51100000000E-03 0. -1.
         23    2    1    0    0    0 -0.13905021683E+02  0.83509188062E+01  0.31326498200E+02  0.89723421901E+02  0.82497608906E+02 0.  0.
         11    1    3    3    0    0 -0.48220374588E+02  0.59847258626E-01  0.23133584076E+02  0.53482434683E+02  0.51100000000E-03 0.  1.
         22    1    1    0    0    0  0.13905021683E+02 -0.83509188062E+01 -0.31326498200E+02  0.35276578099E+02  0.00000000000E+00 0.  1.
</event>
<event>
 5    1  0.3190780E-003  0.9118800E+02  0.7818608E-02  0.1130116E+00
         25   -1    0    0    0    0  0.00000000000E+00  0.00000000000E+00  0.99999998245E-14  0.12500000000E+03  0.12500000000E+03 0.  0.
        -11    1    3    3    0    0  0.23985792602E+02  0.12306391983E+02  0.33925942619E+02  0.43332841047E+02  0.51100000000E-03 0.  1.
         23    2    1    0    0    0  0.38870494694E+01  0.31790426056E+02 -0.63186836022E+01  0.92355458268E+02  0.86393660457E+02 0.  0.
         11    1    3    3    0    0 -0.20098743132E+02  0.19484034073E+02 -0.40244626221E+02  0.49022617221E+02  0.51100000000E-03 0. -1.
         22    1    1    0    0    0 -0.38870494694E+01 -0.31790426056E+02  0.63186836022E+01  0.32644541732E+02  0.00000000000E+00 0. -1.
</event>
<event>
 5    1  0.3190780E-003  0.9118800E+02  0.7818608E-02  0.1130116E+00
         25   -1    0    0    0    0  0.00000000000E+00  0.00000000000E+00  0.99999998245E-14  0.12500000000E+03  0.12500000000E+03 0.  0.
        -11    1    3    3    0    0 -0.21239231823E+02  0.31376433782E+02 -0.75786047205E+01  0.38639627523E+02  0.51100000000E-03 0. -1.
         23    2    1    0    0    0  0.12036463614E+02 -0.11085335008E+02  0.19944423426E+02  0.99201916072E+02  0.95788720724E+02 0.  0.
         11    1    3    3    0    0  0.33275695438E+02 -0.42461768790E+02  0.27523028147E+02  0.60562288549E+02  0.51100000000E-03 0.  1.
         22    1    1    0    0    0 -0.12036463614E+02  0.11085335008E+02 -0.19944423426E+02  0.25798083928E+02  0.00000000000E+00 0.  1.
</event>
<event>
 5    1  0.3190780E-003  0.9118800E+02  0.7818608E-02  0.1130116E+00
         25   -1    0    0    0    0  0.00000000000E+00  0.00000000000E+00  0.99999998245E-14  0.12500000000E+03  0.12500000000E+03 0.  0.
        -11    1    3    3    0    0  0.15441070647E+02  0.29462128177E+02  0.13211034560E+02  0.35790712396E+02  0.51100000000E-03 0.  1.
         23    2    1    0    0    0  0.12341393567E+02 -0.25534629000E+02 -0.90904861124E+01  0.95218055619E+02  0.90440665106E+02 0.  0.
         11    1    3    3    0    0 -0.30996770795E+01 -0.54996757177E+02 -0.22301520672E+02  0.59427343223E+02  0.51100000000E-03 0. -1.
         22    1    1    0    0    0 -0.12341393567E+02  0.25534629000E+02  0.90904861124E+01  0.29781944381E+02  0.00000000000E+00 0. -1.
</event>
<event>
 5    1  0.3190780E-003  0.9118800E+02  0.7818608E-02  0.1130116E+00
         25   -1    0    0    0    0  0.00000000000E+00  0.00000000000E+00  0.99999998245E-14  0.12500000000E+03  0.12500000000E+03 0.  0.
        -11    1    3    3    0    0 -0.26369522602E+02 -0.21569451576E+02 -0.70364334356E+01  0.34786554289E+02  0.51100000000E-03 0.  1.
         23    2    1    0    0    0  0.17541562685E+02  0.19488911486E+02  0.94596913606E+01  0.97125103534E+02  0.93039109430E+02 0.  0.
         11    1    3    3    0    0  0.43911085287E+02  0.41058363062E+02  0.16496124796E+02  0.62338549245E+02  0.51100000000E-03 0. -1.
         22    1    1    0    0    0 -0.17541562685E+02 -0.19488911486E+02 -0.94596913606E+01  0.27874896466E+02  0.00000000000E+00 0. -1.
</event>
<event>
 5    1  0.3190780E-003  0.9118800E+02  0.7818608E-02  0.1130116E+00
         25   -1    0    0    0    0  0.00000000000E+00  0.00000000000E+00  0.99999998245E-14  0.12500000000E+03  0.12500000000E+03 0.  0.
        -11    1    3    3    0    0  0.23324010448E+00  0.15627615684E+02 -0.59568071778E+02  0.61584348243E+02  0.51100000000E-03 0. -1.
         23    2    1    0    0    0  0.11831706272E+01  0.39913087065E+00 -0.31026543045E+02  0.93948340278E+02  0.88668399498E+02 0.  0.
         11    1    3    3    0    0  0.94993052274E+00 -0.15228484813E+02  0.28541528734E+02  0.32363992035E+02  0.51100000000E-03 0.  1.
         22    1    1    0    0    0 -0.11831706272E+01 -0.39913087065E+00  0.31026543045E+02  0.31051659722E+02  0.00000000000E+00 0. -1.
</event>
<event>
 5    1  0.3190780E-003  0.9118800E+02  0.7818608E-02  0.1130116E+00
         25   -1    0    0    0    0  0.00000000000E+00  0.00000000000E+00  0.99999998245E-14  0.12500000000E+03  0.12500000000E+03 0.  0.
        -11    1    3    3    0    0  0.11255290020E+02 -0.20830842990E+02  0.38659532585E+02  0.45333928057E+02  0.51100000000E-03 0.  1.
         23    2    1    0    0    0 -0.21994697540E+02 -0.18726353289E+02  0.34051042938E+00  0.96111265609E+02  0.91666877345E+02 0.  0.
         11    1    3    3    0    0 -0.33249987560E+02  0.21044897018E+01 -0.38319022156E+02  0.50777337552E+02  0.51100000000E-03 0. -1.
         22    1    1    0    0    0  0.21994697540E+02  0.18726353289E+02 -0.34051042938E+00  0.28888734391E+02  0.00000000000E+00 0. -1.
</event>
<event>
 5    1  0.3190780E-003  0.9118800E+02  0.7818608E-02  0.1130116E+00
         25   -1    0    0    0    0  0.00000000000E+00  0.00000000000E+00  0.99999998245E-14  0.12500000000E+03  0.12500000000E+03 0.  0.
        -11    1    3    3    0    0 -0.27023586085E+02  0.11023405363E+02  0.36120430819E+02  0.46437863792E+02  0.51100000000E-03 0. -1.
         23    2    1    0    0    0 -0.16896062146E+02  0.22662707217E+02 -0.99569981903E+01  0.95029730942E+02  0.90180001861E+02 0.  0.
         11    1    3    3    0    0  0.10127523940E+02  0.11639301854E+02 -0.46077429010E+02  0.48591867151E+02  0.51100000000E-03 0.  1.
         22    1    1    0    0    0  0.16896062146E+02 -0.22662707217E+02  0.99569981903E+01  0.29970269058E+02  0.00000000000E+00 0.  1.
</event>
<event>
 5    1  0.3190780E-003  0.9118800E+02  0.7818608E-02  0.1130116E+00
         25   -1    0    0    0    0  0.00000000000E+00  0.00000000000E+00  0.99999998245E-14  0.12500000000E+03  0.12500000000E+03 0.  0.
        -11    1    3    3    0    0 -0.39632598517E+02 -0.15577147741E+02 -0.41602012501E+02  0.59532493996E+02  0.51100000000E-03 0. -1.
         23    2    1    0    0    0 -0.21663226277E+02 -0.15206265479E+02 -0.84965544639E+01  0.97202206557E+02  0.93142641358E+02 0.  0.
         11    1    3    3    0    0  0.17969372240E+02  0.37088226220E+00  0.33105458037E+02  0.37669712561E+02  0.51100000000E-03 0.  1.
         22    1    1    0    0    0  0.21663226277E+02  0.15206265479E+02  0.84965544639E+01  0.27797793443E+02  0.00000000000E+00 0. -1.
</event>
<event>
 5    1  0.3190780E-003  0.9118800E+02  0.7818608E-02  0.1130116E+00
         25   -1    0    0    0    0  0.00000000000E+00  0.00000000000E+00  0.99999998245E-14  0.12500000000E+03  0.12500000000E+03 0.  0.
        -11    1    3    3    0    0 -0.28238166697E+02 -0.36694513647E+02  0.36844748668E+02  0.59172771566E+02  0.51100000000E-03 0.  1.
         23    2    1    0    0    0 -0.44561679383E+01 -0.26749746057E+02  0.10820532611E+02  0.95802563935E+02  0.91244950456E+02 0.  0.
         11    1    3    3    0    0  0.23781998758E+02  0.99447675896E+01 -0.26024216057E+02  0.36629792369E+02  0.51100000000E-03 0. -1.
         22    1    1    0    0    0  0.44561679383E+01  0.26749746057E+02 -0.10820532611E+02  0.29197436065E+02  0.00000000000E+00 0.  1.
</event>
<event>
 5    1  0.3190780E-003  0.9118800E+02  0.7818608E-02  0.1130116E+00
         25   -1    0    0    0    0  0.00000000000E+00  0.00000000000E+00  0.99999998245E-14  0.12500000000E+03  0.12500000000E+03 0.  0.
        -11    1    3    3    0    0 -0.31712477178E+02  0.97572205598E+01  0.44638728586E+02  0.55619247135E+02  0.51100000000E-03 0.  1.
         23    2    1    0    0    0 -0.11977051462E+02 -0.16192058071E+02  0.13135302597E+02  0.10095486160E+03  0.98049555839E+02 0.  0.
         11    1    3    3    0    0  0.19735425716E+02 -0.25949278631E+02 -0.31503425989E+02  0.45335614466E+02  0.51100000000E-03 0. -1.
         22    1    1    0    0    0  0.11977051462E+02  0.16192058071E+02 -0.13135302597E+02  0.24045138399E+02  0.00000000000E+00 0.  1.
</event>
<event>
 5    1  0.3190780E-003  0.9118800E+02  0.7818608E-02  0.1130116E+00
         25   -1    0    0    0    0  0.00000000000E+00  0.00000000000E+00  0.99999998245E-14  0.12500000000E+03  0.12500000000E+03 0.  0.
        -11    1    3    3    0    0  0.95801212049E+01  0.33770968050E+02 -0.13121065283E+02  0.37475583515E+02  0.51100000000E-03 0.  1.
         23    2    1    0    0    0 -0.23375252486E+02 -0.11128113786E+02  0.92671922328E+01  0.97502396521E+02  0.93544637101E+02 0.  0.
         11    1    3    3    0    0 -0.32955373690E+02 -0.44899081837E+02  0.22388257515E+02  0.60026813006E+02  0.51100000000E-03 0. -1.
         22    1    1    0    0    0  0.23375252486E+02  0.11128113786E+02 -0.92671922328E+01  0.27497603479E+02  0.00000000000E+00 0. -1.
</event>
<event>
 5    1  0.3190780E-003  0.9118800E+02  0.7818608E-02  0.1130116E+00
         25   -1    0    0    0    0  0.00000000000E+00  0.00000000000E+00  0.99999998245E-14  0.12500000000E+03  0.12500000000E+03 0.  0.
        -11    1    3    3    0    0 -0.35449864899E+02  0.39451878587E+02  0.43252915640E+01  0.53215146272E+02  0.51100000000E-03 0. -1.
         23    2    1    0    0    0 -0.93019629463E+01  0.25181388918E+02 -0.19878041301E+02  0.91596925464E+02  0.85289104614E+02 0.  0.
         11    1    3    3    0    0  0.26147901953E+02 -0.14270489668E+02 -0.24203332865E+02  0.38381779192E+02  0.51100000000E-03 0.  1.
         22    1    1    0    0    0  0.93019629463E+01 -0.25181388918E+02  0.19878041301E+02  0.33403074536E+02  0.00000000000E+00 0. -1.
</event>
<event>
 5    1  0.3190780E-003  0.9118800E+02  0.7818608E-02  0.1130116E+00
         25   -1    0    0    0    0  0.00000000000E+00  0.00000000000E+00  0.99999998245E-14  0.12500000000E+03  0.12500000000E+03 0.  0.
        -11    1    3    3    0    0  0.31146379146E+02  0.24647015174E+02 -0.30899512221E+02  0.50322481523E+02  0.51100000000E-03 0. -1.
         23    2    1    0    0    0  0.23014678575E+01 -0.50744345588E+01 -0.32748328767E+02  0.91781034371E+02  0.85558509763E+02 0.  0.
         11    1    3    3    0    0 -0.28844911288E+02 -0.29721449732E+02 -0.18488165468E+01  0.41458552849E+02  0.51100000000E-03 0.  1.
         22    1    1    0    0    0 -0.23014678575E+01  0.50744345588E+01  0.32748328767E+02  0.33218965629E+02  0.00000000000E+00 0.  1.
</event>
<event>
 5    1  0.3190780E-003  0.9118800E+02  0.7818608E-02  0.1130116E+00
         25   -1    0    0    0    0  0.00000000000E+00  0.00000000000E+00  0.99999998245E-14  0.12500000000E+03  0.12500000000E+03 0.  0.
        -11    1    3    3    0    0  0.29528733389E+02  0.30276598880E+02  0.44104357750E+02  0.61104933582E+02  0.51100000000E-03 0. -1.
         23    2    1    0    0    0  0.66963339338E+01  0.12011978678E+02  0.26254323289E+02  0.95361882461E+02  0.90639233311E+02 0.  0.
         11    1    3    3    0    0 -0.22832399455E+02 -0.18264620202E+02 -0.17850034461E+02  0.34256948879E+02  0.51100000000E-03 0.  1.
         22    1    1    0    0    0 -0.66963339338E+01 -0.12011978678E+02 -0.26254323289E+02  0.29638117539E+02  0.00000000000E+00 0. -1.
</event>
<event>
 5    1  0.3190780E-003  0.9118800E+02  0.7818608E-02  0.1130116E+00
         25   -1    0    0    0    0  0.00000000000E+00  0.00000000000E+00  0.99999998245E-14  0.12500000000E+03  0.12500000000E+03 0.  0.
        -11    1    3    3    0    0 -0.26279425992E+02  0.25795283067E+02  0.28525508060E+02  0.46580140289E+02  0.51100000000E-03 0. -1.
         23    2    1    0    0    0 -0.19753070649E+02  0.54648790269E+01 -0.17968998660E+02  0.97743191388E+02  0.93865850271E+02 0.  0.
         11    1    3    3    0    0  0.65263553431E+01 -0.20330404040E+02 -0.46494506719E+02  0.51163051100E+02  0.51100000000E-03 0.  1.
         22    1    1    0    0    0  0.19753070649E+02 -0.54648790269E+01  0.17968998660E+02  0.27256808612E+02  0.00000000000E+00 0.  1.
</event>
<event>
 5    1  0.3190780E-003  0.9118800E+02  0.7818608E-02  0.1130116E+00
         25   -1    0    0    0    0  0.00000000000E+00  0.00000000000E+00  0.99999998245E-14  0.12500000000E+03  0.12500000000E+03 0.  0.
        -11    1    3    3    0    0 -0.14035759096E+02 -0.29552810516E+02  0.45429224188E+02  0.55983797240E+02  0.51100000000E-03 0. -1.
         23    2    1    0    0    0  0.16722169200E+01 -0.27795554543E+02  0.89318139228E+01  0.95756770669E+02  0.91182194902E+02 0.  0.
         11    1    3    3    0    0  0.15707976016E+02  0.17572559732E+01 -0.36497410265E+02  0.39772973429E+02  0.51100000000E-03 0.  1.
         22    1    1    0    0    0 -0.16722169200E+01  0.27795554543E+02 -0.89318139228E+01  0.29243229331E+02  0.00000000000E+00 0. -1.
</event>
<event>
 5    1  0.3190780E-003  0.9118800E+02  0.7818608E-02  0.1130116E+00
         25   -1    0    0    0    0  0.00000000000E+00  0.00000000000E+00  0.99999998245E-14  0.12500000000E+03  0.12500000000E+03 0.  0.
        -11    1    3    3    0    0  0.31919058892E+02 -0.11758923508E+02 -0.17359464949E+02  0.38189653392E+02  0.51100000000E-03 0. -1.
         23    2    1    0    0    0  0.14603081879E+02  0.56362132822E+01  0.29791580393E+02  0.91346543077E+02  0.84921350491E+02 0.  0.
         11    1    3    3    0    0 -0.17315977013E+02  0.17395136790E+02  0.47151045342E+02  0.53156889685E+02  0.51100000000E-03 0.  1.
         22    1    1    0    0    0 -0.14603081879E+02 -0.56362132822E+01 -0.29791580393E+02  0.33653456923E+02  0.00000000000E+00 0.  1.
</event>
<event>
 5    1  0.3190780E-003  0.9118800E+02  0.7818608E-02  0.1130116E+00
         25   -1    0    0    0    0  0.00000000000E+00  0.00000000000E+00  0.99999998245E-14  0.12500000000E+03  0.12500000000E+03 0.  0.
        -11    1    3    3    0    0 -0.16223605082E+02 -0.54290933760E+02  0.19500950281E+02  0.59924935648E+02  0.51100000000E-03 0.  1.
         23    2    1    0    0    0 -0.17563956481E+02 -0.22738806975E+02  0.16067844123E+01  0.96222792595E+02  0.91818833300E+02 0.  0.
         11    1    3    3    0    0 -0.13403513990E+01  0.31552126785E+02 -0.17894165868E+02  0.36297856946E+02  0.51100000000E-03 0. -1.
         22    1    1    0    0    0  0.17563956481E+02  0.22738806975E+02 -0.16067844123E+01  0.28777207405E+02  0.00000000000E+00 0.  1.
</event>
<event>
 5    1  0.3190780E-003  0.9118800E+02  0.7818608E-02  0.1130116E+00
         25   -1    0    0    0    0  0.00000000000E+00  0.00000000000E+00  0.99999998245E-14  0.12500000000E+03  0.12500000000E+03 0.  0.
        -11    1    3    3    0    0  0.25045004750E+02 -0.54896590188E+02  0.14250517629E+02  0.61999718791E+02  0.51100000000E-03 0.  1.
         23    2    1    0    0    0  0.74176682903E+01 -0.25942115667E+02  0.10265941148E+02  0.96131250186E+02  0.91694124929E+02 0.  0.
         11    1    3    3    0    0 -0.17627336460E+02  0.28954474520E+02 -0.39845764804E+01  0.34131531396E+02  0.51100000000E-03 0. -1.
         22    1    1    0    0    0 -0.74176682903E+01  0.25942115667E+02 -0.10265941148E+02  0.28868749814E+02  0.00000000000E+00 0.  1.
</event>
<event>
 5    1  0.3190780E-003  0.9118800E+02  0.7818608E-02  0.1130116E+00
         25   -1    0    0    0    0  0.00000000000E+00  0.00000000000E+00  0.99999998245E-14  0.12500000000E+03  0.12500000000E+03 0.  0.
        -11    1    3    3    0    0 -0.14619850519E+02  0.23580546707E+02  0.47158536804E+02  0.54714804267E+02  0.51100000000E-03 0.  1.
         23    2    1    0    0    0 -0.12201324177E+02  0.26454024727E+02  0.70131618931E+01  0.95035484725E+02  0.90187976922E+02 0.  0.
         11    1    3    3    0    0  0.24185263414E+01  0.28734780204E+01 -0.40145374911E+02  0.40320680458E+02  0.51100000000E-03 0. -1.
         22    1    1    0    0    0  0.12201324177E+02 -0.26454024727E+02 -0.70131618931E+01  0.29964515275E+02  0.00000000000E+00 0.  1.
</event>
<event>
 5    1  0.3190780E-003  0.9118800E+02  0.7818608E-02  0.1130116E+00
         25   -1    0    0    0    0  0.00000000000E+00  0.00000000000E+00  0.99999998245E-14  0.12500000000E+03  0.12500000000E+03 0.  0.
        -11    1    3    3    0    0 -0.35530754864E+02  0.26586900537E+02 -0.41648878697E+02  0.60859895813E+02  0.51100000000E-03 0.  1.
         23    2    1    0    0    0 -0.24324282368E+02  0.16047550627E+02 -0.13619474812E+02  0.92833484989E+02  0.87082554207E+02 0.  0.
         11    1    3    3    0    0  0.11206472496E+02 -0.10539349910E+02  0.28029403885E+02  0.31973589176E+02  0.51100000000E-03 0. -1.
         22    1    1    0    0    0  0.24324282368E+02 -0.16047550627E+02  0.13619474812E+02  0.32166515011E+02  0.00000000000E+00 0.  1.
</event>
<event>
 5    1  0.3190780E-003  0.9118800E+02  0.7818608E-02  0.1130116E+00
         25   -1    0    0    0    0  0.00000000000E+00  0.00000000000E+00  0.99999998245E-14  0.12500000000E+03  0.12500000000E+03 0.  0.
        -11    1    3    3    0    0  0.31970225539E+01  0.47365770763E+02 -0.15666316141E+02  0.49991705861E+02  0.51100000000E-03 0. -1.
         23    2    1    0    0    0  0.25800104930E+02  0.10749831457E+02 -0.15535783568E+02  0.93022431896E+02  0.87353351247E+02 0.  0.
         11    1    3    3    0    0  0.22603082376E+02 -0.36615939306E+02  0.13053257318E+00  0.43030726036E+02  0.51100000000E-03 0.  1.
         22    1    1    0    0    0 -0.25800104930E+02 -0.10749831457E+02  0.15535783568E+02  0.31977568104E+02  0.00000000000E+00 0.  1.
</event>
<event>
 5    1  0.3190780E-003  0.9118800E+02  0.7818608E-02  0.1130116E+00
         25   -1    0    0    0    0  0.00000000000E+00  0.00000000000E+00  0.99999998245E-14  0.12500000000E+03  0.12500000000E+03 0.  0.
        -11    1    3    3    0    0 -0.37722555325E+02  0.13794125323E+02  0.79991474713E+01  0.40954309104E+02  0.51100000000E-03 0.  1.
         23    2    1    0    0    0  0.16593573935E+02  0.18369019121E+02  0.15223357853E+02  0.95939404966E+02  0.91432222118E+02 0.  0.
         11    1    3    3    0    0  0.54316129260E+02  0.45748937989E+01  0.72242103813E+01  0.54985095862E+02  0.51100000000E-03 0. -1.
         22    1    1    0    0    0 -0.16593573935E+02 -0.18369019121E+02 -0.15223357853E+02  0.29060595034E+02  0.00000000000E+00 0. -1.
</event>
<event>
 5    1  0.3190780E-003  0.9118800E+02  0.7818608E-02  0.1130116E+00
         25   -1    0    0    0    0  0.00000000000E+00  0.00000000000E+00  0.99999998245E-14  0.12500000000E+03  0.12500000000E+03 0.  0.
        -11    1    3    3    0    0 -0.15935732760E+02 -0.20884031890E+02  0.47963342095E+02  0.54686127599E+02  0.51100000000E-03 0.  1.
         23    2    1    0    0    0  0.10058943269E+01  0.11115945272E+02  0.25157399511E+02  0.97477812353E+02  0.93511780479E+02 0.  0.
         11    1    3    3    0    0  0.16941627087E+02  0.31999977162E+02 -0.22805942583E+02  0.42791684754E+02  0.51100000000E-03 0. -1.
         22    1    1    0    0    0 -0.10058943269E+01 -0.11115945272E+02 -0.25157399511E+02  0.27522187647E+02  0.00000000000E+00 0.  1.
</event>
<event>
 5    1  0.3190780E-003  0.9118800E+02  0.7818608E-02  0.1130116E+00
         25   -1    0    0    0    0  0.00000000000E+00  0.00000000000E+00  0.99999998245E-14  0.12500000000E+03  0.12500000000E+03 0.  0.
        -11    1    3    3    0    0 -0.19298634945E+02 -0.55667454351E+02 -0.16710032190E+02  0.61241554200E+02  0.51100000000E-03 0. -1.
         23    2    1    0    0    0 -0.17048270736E+02 -0.22253088227E+02 -0.80870279553E+01  0.95823922610E+02  0.91274205844E+02 0.  0.
         11    1    3    3    0    0  0.22503642094E+01  0.33414366125E+02  0.86230042349E+01  0.34582368411E+02  0.51100000000E-03 0.  1.
         22    1    1    0    0    0  0.17048270736E+02  0.22253088227E+02  0.80870279553E+01  0.29176077390E+02  0.00000000000E+00 0. -1.
</event>
<event>
 5    1  0.3190780E-003  0.9118800E+02  0.7818608E-02  0.1130116E+00
         25   -1    0    0    0    0  0.00000000000E+00  0.00000000000E+00  0.99999998245E-14  0.12500000000E+03  0.12500000000E+03 0.  0.
        -11    1    3    3    0    0 -0.12411686788E+02  0.13166448651E+01  0.37807095108E+02  0.39814067406E+02  0.51100000000E-03 0.  1.
         23    2    1    0    0    0 -0.17258443359E+02  0.15860554202E+02 -0.16559726693E+02  0.96300947839E+02  0.91925170436E+02 0.  0.
         11    1    3    3    0    0 -0.48467565715E+01  0.14543909337E+02 -0.54366821801E+02  0.56486880433E+02  0.51100000000E-03 0. -1.
         22    1    1    0    0    0  0.17258443359E+02 -0.15860554202E+02  0.16559726693E+02  0.28699052161E+02  0.00000000000E+00 0. -1.
</event>
<event>
 5    1  0.3190780E-003  0.9118800E+02  0.7818608E-02  0.1130116E+00
         25   -1    0    0    0    0  0.00000000000E+00  0.00000000000E+00  0.99999998245E-14  0.12500000000E+03  0.12500000000E+03 0.  0.
        -11    1    3    3    0    0 -0.17133558872E+02 -0.12743839727E+02  0.47777062454E+02  0.52331749327E+02  0.51100000000E-03 0.  1.
         23    2    1    0    0    0 -0.19142150239E+02  0.15287492331E+02  0.12309445196E+02  0.97583731498E+02  0.93653258750E+02 0.  0.
         11    1    3    3    0    0 -0.20085913666E+01  0.28031332058E+02 -0.35467617258E+02  0.45251982172E+02  0.51100000000E-03 0. -1.
         22    1    1    0    0    0  0.19142150239E+02 -0.15287492331E+02 -0.12309445196E+02  0.27416268502E+02  0.00000000000E+00 0.  1.
</event>
<event>
 5    1  0.3190780E-003  0.9118800E+02  0.7818608E-02  0.1130116E+00
         25   -1    0    0    0    0  0.00000000000E+00  0.00000000000E+00  0.99999998245E-14  0.12500000000E+03  0.12500000000E+03 0.  0.
        -11    1    3    3    0    0  0.45254982715E+02 -0.19199431637E+01  0.33972032325E+02  0.56619772367E+02  0.51100000000E-03 0.  1.
         23    2    1    0    0    0  0.74063479779E+01  0.73128891583E+01  0.26822486361E+02  0.96228866675E+02  0.91827102039E+02 0.  0.
         11    1    3    3    0    0 -0.37848634738E+02  0.92328323220E+01 -0.71495459644E+01  0.39609094309E+02  0.51100000000E-03 0. -1.
         22    1    1    0    0    0 -0.74063479779E+01 -0.73128891583E+01 -0.26822486361E+02  0.28771133325E+02  0.00000000000E+00 0.  1.
</event>
<event>
 5    1  0.3190780E-003  0.9118800E+02  0.7818608E-02  0.1130116E+00
         25   -1    0    0    0    0  0.00000000000E+00  0.00000000000E+00  0.99999998245E-14  0.12500000000E+03  0.12500000000E+03 0.  0.
        -11    1    3    3    0    0  0.43543985983E+02 -0.34610642670E+02 -0.27413008667E+02  0.62011679107E+02  0.51100000000E-03 0.  1.
         23    2    1    0    0    0  0.18377643806E+02 -0.13252362926E+02 -0.17167675166E+02  0.96573041218E+02  0.92294421849E+02 0.  0.
         11    1    3    3    0    0 -0.25166342176E+02  0.21358279744E+02  0.10245333501E+02  0.34561362111E+02  0.51100000000E-03 0. -1.
         22    1    1    0    0    0 -0.18377643806E+02  0.13252362926E+02  0.17167675166E+02  0.28426958782E+02  0.00000000000E+00 0.  1.
</event>
<event>
 5    1  0.3190780E-003  0.9118800E+02  0.7818608E-02  0.1130116E+00
         25   -1    0    0    0    0  0.00000000000E+00  0.00000000000E+00  0.99999998245E-14  0.12500000000E+03  0.12500000000E+03 0.  0.
        -11    1    3    3    0    0  0.48072391073E+00  0.42964567125E+02  0.11674489902E+02  0.44525036086E+02  0.51100000000E-03 0.  1.
         23    2    1    0    0    0 -0.19691726099E-01  0.84194821731E+01 -0.27196245833E+02  0.96530299348E+02  0.92236515746E+02 0.  0.
         11    1    3    3    0    0 -0.50041563683E+00 -0.34545084952E+02 -0.38870735735E+02  0.52005263262E+02  0.51100000000E-03 0. -1.
         22    1    1    0    0    0  0.19691726099E-01 -0.84194821731E+01  0.27196245833E+02  0.28469700652E+02  0.00000000000E+00 0. -1.
</event>
<event>
 5    1  0.3190780E-003  0.9118800E+02  0.7818608E-02  0.1130116E+00
         25   -1    0    0    0    0  0.00000000000E+00  0.00000000000E+00  0.99999998245E-14  0.12500000000E+03  0.12500000000E+03 0.  0.
        -11    1    3    3    0    0  0.27871461448E+02  0.44003706591E+02 -0.33970756757E+02  0.62186468560E+02  0.51100000000E-03 0.  1.
         23    2    1    0    0    0  0.11772262431E+02  0.17294326507E+02 -0.18827305685E+02  0.96854887966E+02  0.92675358060E+02 0.  0.
         11    1    3    3    0    0 -0.16099199016E+02 -0.26709380085E+02  0.15143451073E+02  0.34668419406E+02  0.51100000000E-03 0. -1.
         22    1    1    0    0    0 -0.11772262431E+02 -0.17294326507E+02  0.18827305685E+02  0.28145112034E+02  0.00000000000E+00 0.  1.
</event>
<event>
 5    1  0.3190780E-003  0.9118800E+02  0.7818608E-02  0.1130116E+00
         25   -1    0    0    0    0  0.00000000000E+00  0.00000000000E+00  0.99999998245E-14  0.12500000000E+03  0.12500000000E+03 0.  0.
        -11    1    3    3    0    0  0.14589052977E+01 -0.19489099442E+02 -0.40321677955E+02  0.44808382197E+02  0.51100000000E-03 0. -1.
         23    2    1    0    0    0 -0.19665136753E+02 -0.16551294601E+02  0.83717469424E+01  0.97967628602E+02  0.94164256226E+02 0.  0.
         11    1    3    3    0    0 -0.21124042051E+02  0.29378048401E+01  0.48693424898E+02  0.53159246405E+02  0.51100000000E-03 0.  1.
         22    1    1    0    0    0  0.19665136753E+02  0.16551294601E+02 -0.83717469424E+01  0.27032371398E+02  0.00000000000E+00 0.  1.
</event>
<event>
 5    1  0.3190780E-003  0.9118800E+02  0.7818608E-02  0.1130116E+00
         25   -1    0    0    0    0  0.00000000000E+00  0.00000000000E+00  0.99999998245E-14  0.12500000000E+03  0.12500000000E+03 0.  0.
        -11    1    3    3    0    0 -0.15873222454E+02 -0.28778231674E+02  0.29906615688E+02  0.44435925461E+02  0.51100000000E-03 0. -1.
         23    2    1    0    0    0  0.25720774035E+01  0.18289086767E+02  0.23068678265E+02  0.95448854611E+02  0.90759096804E+02 0.  0.
         11    1    3    3    0    0  0.18445299857E+02  0.47067318441E+02 -0.68379374231E+01  0.51012929150E+02  0.51100000000E-03 0.  1.
         22    1    1    0    0    0 -0.25720774035E+01 -0.18289086767E+02 -0.23068678265E+02  0.29551145389E+02  0.00000000000E+00 0.  1.
</event>
<event>
 5    1  0.3190780E-003  0.9118800E+02  0.7818608E-02  0.1130116E+00
         25   -1    0    0    0    0  0.00000000000E+00  0.00000000000E+00  0.99999998245E-14  0.12500000000E+03  0.12500000000E+03 0.  0.
        -11    1    3    3    0    0 -0.11581625032E+02 -0.30915227355E+02 -0.45836731760E+02  0.56487974822E+02  0.51100000000E-03 0.  1.
         23    2    1    0    0    0  0.10640229147E+02 -0.22367373909E+02 -0.13062834293E+02  0.96997294208E+02  0.92867236160E+02 0.  0.
         11    1    3    3    0    0  0.22221854179E+02  0.85478534456E+01  0.32773897467E+02  0.40509319386E+02  0.51100000000E-03 0. -1.
         22    1    1    0    0    0 -0.10640229147E+02  0.22367373909E+02  0.13062834293E+02  0.28002705792E+02  0.00000000000E+00 0.  1.
</event>
<event>
 5    1  0.3190780E-003  0.9118800E+02  0.7818608E-02  0.1130116E+00
         25   -1    0    0    0    0  0.00000000000E+00  0.00000000000E+00  0.99999998245E-14  0.12500000000E+03  0.12500000000E+03 0.  0.
        -11    1    3    3    0    0 -0.40415545595E+01 -0.46307068292E+02  0.15268136936E+01  0.46508170222E+02  0.51100000000E-03 0.  1.
         23    2    1    0    0    0 -0.22611981771E+02 -0.77312926979E+01  0.20667810736E+02  0.93405174364E+02  0.87899337830E+02 0.  0.
         11    1    3    3    0    0 -0.18570427211E+02  0.38575775594E+02  0.19140997042E+02  0.46897004142E+02  0.51100000000E-03 0. -1.
         22    1    1    0    0    0  0.22611981771E+02  0.77312926979E+01 -0.20667810736E+02  0.31594825636E+02  0.00000000000E+00 0.  1.
</event>
<event>
 5    1  0.3190780E-003  0.9118800E+02  0.7818608E-02  0.1130116E+00
         25   -1    0    0    0    0  0.00000000000E+00  0.00000000000E+00  0.99999998245E-14  0.12500000000E+03  0.12500000000E+03 0.  0.
        -11    1    3    3    0    0  0.12850120526E+02 -0.23317733906E+02 -0.51367263699E+02  0.57857048769E+02  0.51100000000E-03 0.  1.
         23    2    1    0    0    0  0.39571238863E+01  0.52266193974E+01 -0.29192402724E+02  0.95080562228E+02  0.90250432448E+02 0.  0.
         11    1    3    3    0    0 -0.88929966396E+01  0.28544353304E+02  0.22174860974E+02  0.37223513459E+02  0.51100000000E-03 0. -1.
         22    1    1    0    0    0 -0.39571238863E+01 -0.52266193974E+01  0.29192402724E+02  0.29919437772E+02  0.00000000000E+00 0.  1.
</event>
<event>
 5    1  0.3190780E-003  0.9118800E+02  0.7818608E-02  0.1130116E+00
         25   -1    0    0    0    0  0.00000000000E+00  0.00000000000E+00  0.99999998245E-14  0.12500000000E+03  0.12500000000E+03 0.  0.
        -11    1    3    3    0    0 -0.37920023467E+02  0.40152912947E+02  0.27256760942E+02  0.61588274982E+02  0.51100000000E-03 0. -1.
         23    2    1    0    0    0 -0.12195389140E+02  0.23840405753E+02  0.13489360591E+02  0.95015748935E+02  0.90160619085E+02 0.  0.
         11    1    3    3    0    0  0.25724634328E+02 -0.16312507194E+02 -0.13767400351E+02  0.33427473954E+02  0.51100000000E-03 0.  1.
         22    1    1    0    0    0  0.12195389140E+02 -0.23840405753E+02 -0.13489360591E+02  0.29984251065E+02  0.00000000000E+00 0. -1.
</event>
<event>
 5    1  0.3190780E-003  0.9118800E+02  0.7818608E-02  0.1130116E+00
         25   -1    0    0    0    0  0.00000000000E+00  0.00000000000E+00  0.99999998245E-14  0.12500000000E+03  0.12500000000E+03 0.  0.
        -11    1    3    3    0    0  0.56979550760E+02  0.21875311430E+02 -0.57733879395E+01  0.61306854947E+02  0.51100000000E-03 0.  1.
         23    2    1    0    0    0  0.20865043036E+02  0.13133980485E+02 -0.93411373235E+01  0.98635093196E+02  0.95046164042E+02 0.  0.
         11    1    3    3    0    0 -0.36114507724E+02 -0.87413309450E+01 -0.35677493840E+01  0.37328238249E+02  0.51100000000E-03 0. -1.
         22    1    1    0    0    0 -0.20865043036E+02 -0.13133980485E+02  0.93411373235E+01  0.26364906804E+02  0.00000000000E+00 0.  1.
</event>
<event>
 5    1  0.3190780E-003  0.9118800E+02  0.7818608E-02  0.1130116E+00
         25   -1    0    0    0    0  0.00000000000E+00  0.00000000000E+00  0.99999998245E-14  0.12500000000E+03  0.12500000000E+03 0.  0.
        -11    1    3    3    0    0  0.45143695086E+01 -0.31124153570E+01  0.59781419507E+02  0.60032364437E+02  0.51100000000E-03 0.  1.
         23    2    1    0    0    0 -0.94938844573E+01 -0.58356056134E+01  0.27537104039E+02  0.95293431134E+02  0.90544783303E+02 0.  0.
         11    1    3    3    0    0 -0.14008253966E+02 -0.27231902563E+01 -0.32244315468E+02  0.35261066697E+02  0.51100000000E-03 0. -1.
         22    1    1    0    0    0  0.94938844573E+01  0.58356056134E+01 -0.27537104039E+02  0.29706568866E+02  0.00000000000E+00 0.  1.
</event>
<event>
 5    1  0.3190780E-003  0.9118800E+02  0.7818608E-02  0.1130116E+00
         25   -1    0    0    0    0  0.00000000000E+00  0.00000000000E+00  0.99999998245E-14  0.12500000000E+03  0.12500000000E+03 0.  0.
        -11    1    3    3    0    0 -0.31410867586E+02 -0.21749120350E+02 -0.16953836926E+01  0.38243184551E+02  0.51100000000E-03 0.  1.
         23    2    1    0    0    0  0.20337766534E+02 -0.75815088085E+01  0.19394583292E+02  0.95892374118E+02  0.91367902075E+02 0.  0.
         11    1    3    3    0    0  0.51748634120E+02  0.14167611542E+02  0.21089966984E+02  0.57649189567E+02  0.51100000000E-03 0. -1.
         22    1    1    0    0    0 -0.20337766534E+02  0.75815088085E+01 -0.19394583292E+02  0.29107625882E+02  0.00000000000E+00 0. -1.
</event>
<event>
 5    1  0.3190780E-003  0.9118800E+02  0.7818608E-02  0.1130116E+00
         25   -1    0    0    0    0  0.00000000000E+00  0.00000000000E+00  0.99999998245E-14  0.12500000000E+03  0.12500000000E+03 0.  0.
        -11    1    3    3    0    0  0.26107300185E+02 -0.24244504380E+02 -0.87482862196E+01  0.36686777286E+02  0.51100000000E-03 0. -1.
         23    2    1    0    0    0 -0.63527583108E+01  0.11339936099E+02  0.25901031798E+02  0.96020435871E+02  0.91542935106E+02 0.  0.
         11    1    3    3    0    0 -0.32460058496E+02  0.35584440480E+02  0.34649318018E+02  0.59333658585E+02  0.51100000000E-03 0.  1.
         22    1    1    0    0    0  0.63527583108E+01 -0.11339936099E+02 -0.25901031798E+02  0.28979564129E+02  0.00000000000E+00 0.  1.
</event>
<event>
 5    1  0.3190780E-003  0.9118800E+02  0.7818608E-02  0.1130116E+00
         25   -1    0    0    0    0  0.00000000000E+00  0.00000000000E+00  0.99999998245E-14  0.12500000000E+03  0.12500000000E+03 0.  0.
        -11    1    3    3    0    0 -0.33616621855E+02  0.22058482693E+02  0.12141131010E+02  0.42000726019E+02  0.51100000000E-03 0.  1.
         23    2    1    0    0    0 -0.13525059421E+02 -0.25631409879E+02  0.11684806108E+02  0.93752102495E+02  0.88391320975E+02 0.  0.
         11    1    3    3    0    0  0.20091562434E+02 -0.47689892571E+02 -0.45632490160E+00  0.51751376476E+02  0.51100000000E-03 0. -1.
         22    1    1    0    0    0  0.13525059421E+02  0.25631409879E+02 -0.11684806108E+02  0.31247897505E+02  0.00000000000E+00 0. -1.
</event>
<event>
 5    1  0.3190780E-003  0.9118800E+02  0.7818608E-02  0.1130116E+00
         25   -1    0    0    0    0  0.00000000000E+00  0.00000000000E+00  0.99999998245E-14  0.12500000000E+03  0.12500000000E+03 0.  0.
        -11    1    3    3    0    0  0.50858734582E+02  0.15337668145E+02 -0.55121532182E+01  0.53406355247E+02  0.51100000000E-03 0. -1.
         23    2    1    0    0    0  0.13325065612E+02  0.22058703805E+02  0.13382277985E+02  0.95961591793E+02  0.91462549430E+02 0.  0.
         11    1    3    3    0    0 -0.37533668970E+02  0.67210356597E+01  0.18894431204E+02  0.42555236546E+02  0.51100000000E-03 0.  1.
         22    1    1    0    0    0 -0.13325065612E+02 -0.22058703805E+02 -0.13382277985E+02  0.29038408207E+02  0.00000000000E+00 0. -1.
</event>
<event>
 5    1  0.3190780E-003  0.9118800E+02  0.7818608E-02  0.1130116E+00
         25   -1    0    0    0    0  0.00000000000E+00  0.00000000000E+00  0.99999998245E-14  0.12500000000E+03  0.12500000000E+03 0.  0.
        -11    1    3    3    0    0  0.20179572819E+02 -0.49242668921E+02 -0.20946419983E+02  0.57190979288E+02  0.51100000000E-03 0. -1.
         23    2    1    0    0    0  0.37839430994E+01 -0.16281719491E+02 -0.25733049945E+02  0.94314458218E+02  0.89183039612E+02 0.  0.
         11    1    3    3    0    0 -0.16395629720E+02  0.32960949429E+02 -0.47866299618E+01  0.37123478930E+02  0.51100000000E-03 0.  1.
         22    1    1    0    0    0 -0.37839430994E+01  0.16281719491E+02  0.25733049945E+02  0.30685541782E+02  0.00000000000E+00 0. -1.
</event>
<event>
 5    1  0.3190780E-003  0.9118800E+02  0.7818608E-02  0.1130116E+00
         25   -1    0    0    0    0  0.00000000000E+00  0.00000000000E+00  0.99999998245E-14  0.12500000000E+03  0.12500000000E+03 0.  0.
        -11    1    3    3    0    0  0.36192445295E+02 -0.14872815102E+02  0.33201993895E+01  0.39269803281E+02  0.51100000000E-03 0.  1.
         23    2    1    0    0    0  0.13997748735E+02  0.27622234103E+02 -0.14998562928E+02  0.90592418330E+02  0.83803965195E+02 0.  0.
         11    1    3    3    0    0 -0.22194696560E+02  0.42495049205E+02 -0.18318762317E+02  0.51322615049E+02  0.51100000000E-03 0. -1.
         22    1    1    0    0    0 -0.13997748735E+02 -0.27622234103E+02  0.14998562928E+02  0.34407581670E+02  0.00000000000E+00 0. -1.
</event>
<event>
 5    1  0.3190780E-003  0.9118800E+02  0.7818608E-02  0.1130116E+00
         25   -1    0    0    0    0  0.00000000000E+00  0.00000000000E+00  0.99999998245E-14  0.12500000000E+03  0.12500000000E+03 0.  0.
        -11    1    3    3    0    0  0.42014133648E+02 -0.37218047963E+02 -0.17098405148E+02  0.58674747373E+02  0.51100000000E-03 0. -1.
         23    2    1    0    0    0  0.28152852189E+02 -0.50230818558E+01 -0.38612320484E+01  0.96143050220E+02  0.91710209655E+02 0.  0.
         11    1    3    3    0    0 -0.13861281460E+02  0.32194966107E+02  0.13237173099E+02  0.37468302847E+02  0.51100000000E-03 0.  1.
         22    1    1    0    0    0 -0.28152852189E+02  0.50230818558E+01  0.38612320484E+01  0.28856949780E+02  0.00000000000E+00 0. -1.
</event>
<event>
 5    1  0.3190780E-003  0.9118800E+02  0.7818608E-02  0.1130116E+00
         25   -1    0    0    0    0  0.00000000000E+00  0.00000000000E+00  0.99999998245E-14  0.12500000000E+03  0.12500000000E+03 0.  0.
        -11    1    3    3    0    0 -0.81708772242E+01  0.43329814120E+02 -0.51094726707E+01  0.44388542863E+02  0.51100000000E-03 0. -1.
         23    2    1    0    0    0  0.10125120700E+02  0.58452587801E+01  0.26045611176E+02  0.96450762166E+02  0.92128662975E+02 0.  0.
         11    1    3    3    0    0  0.18295997924E+02 -0.37484555339E+02  0.31155083846E+02  0.52062219303E+02  0.51100000000E-03 0.  1.
         22    1    1    0    0    0 -0.10125120700E+02 -0.58452587801E+01 -0.26045611176E+02  0.28549237834E+02  0.00000000000E+00 0.  1.
</event>
<event>
 5    1  0.3190780E-003  0.9118800E+02  0.7818608E-02  0.1130116E+00
         25   -1    0    0    0    0  0.00000000000E+00  0.00000000000E+00  0.99999998245E-14  0.12500000000E+03  0.12500000000E+03 0.  0.
        -11    1    3    3    0    0  0.13616392421E+02  0.24077026567E+02 -0.31508883731E+02  0.41927545899E+02  0.51100000000E-03 0.  1.
         23    2    1    0    0    0 -0.31664644959E+01  0.20802142850E+02  0.19858999903E+02  0.96066705654E+02  0.91606093758E+02 0.  0.
         11    1    3    3    0    0 -0.16782856917E+02 -0.32748837172E+01  0.51367883634E+02  0.54139159755E+02  0.51100000000E-03 0. -1.
         22    1    1    0    0    0  0.31664644959E+01 -0.20802142850E+02 -0.19858999903E+02  0.28933294346E+02  0.00000000000E+00 0. -1.
</event>
<event>
 5    1  0.3190780E-003  0.9118800E+02  0.7818608E-02  0.1130116E+00
         25   -1    0    0    0    0  0.00000000000E+00  0.00000000000E+00  0.99999998245E-14  0.12500000000E+03  0.12500000000E+03 0.  0.
        -11    1    3    3    0    0  0.14650220026E+02  0.16183990919E+02 -0.53068929363E+02  0.57383462538E+02  0.51100000000E-03 0.  1.
         23    2    1    0    0    0 -0.35106667934E+01  0.21398013961E+02 -0.19837759927E+02  0.95610605625E+02  0.90981599273E+02 0.  0.
         11    1    3    3    0    0 -0.18160886819E+02  0.52140230420E+01  0.33231169435E+02  0.38227143087E+02  0.51100000000E-03 0. -1.
         22    1    1    0    0    0  0.35106667934E+01 -0.21398013961E+02  0.19837759927E+02  0.29389394375E+02  0.00000000000E+00 0. -1.
</event>
<event>
 5    1  0.3190780E-003  0.9118800E+02  0.7818608E-02  0.1130116E+00
         25   -1    0    0    0    0  0.00000000000E+00  0.00000000000E+00  0.99999998245E-14  0.12500000000E+03  0.12500000000E+03 0.  0.
        -11    1    3    3    0    0  0.41235376165E+02  0.38494906088E+02 -0.22547809220E+02  0.60750454674E+02  0.51100000000E-03 0.  1.
         23    2    1    0    0    0  0.19945735880E+02  0.21841802050E+02 -0.22593332641E+02  0.87779637611E+02  0.79497857849E+02 0.  0.
         11    1    3    3    0    0 -0.21289640285E+02 -0.16653104038E+02 -0.45523421059E-01  0.27029182937E+02  0.51100000000E-03 0. -1.
         22    1    1    0    0    0 -0.19945735880E+02 -0.21841802050E+02  0.22593332641E+02  0.37220362389E+02  0.00000000000E+00 0.  1.
</event>
<event>
 5    1  0.3190780E-003  0.9118800E+02  0.7818608E-02  0.1130116E+00
         25   -1    0    0    0    0  0.00000000000E+00  0.00000000000E+00  0.99999998245E-14  0.12500000000E+03  0.12500000000E+03 0.  0.
        -11    1    3    3    0    0 -0.21933115222E+02  0.33402332818E+02 -0.20655376327E+02  0.44982462721E+02  0.51100000000E-03 0.  1.
         23    2    1    0    0    0 -0.24385653981E+02 -0.14954552234E+02 -0.10982814091E+02  0.94358182855E+02  0.89244303536E+02 0.  0.
         11    1    3    3    0    0 -0.24525387593E+01 -0.48356885051E+02  0.96725622359E+01  0.49375720133E+02  0.51100000000E-03 0. -1.
         22    1    1    0    0    0  0.24385653981E+02  0.14954552234E+02  0.10982814091E+02  0.30641817145E+02  0.00000000000E+00 0.  1.
</event>
<event>
 5    1  0.3190780E-003  0.9118800E+02  0.7818608E-02  0.1130116E+00
         25   -1    0    0    0    0  0.00000000000E+00  0.00000000000E+00  0.99999998245E-14  0.12500000000E+03  0.12500000000E+03 0.  0.
        -11    1    3    3    0    0  0.37089841913E+02  0.37144567067E+01  0.19292419511E+02  0.41972026548E+02  0.51100000000E-03 0. -1.
         23    2    1    0    0    0 -0.16509715009E+02  0.15792827228E+02  0.16180531393E+02  0.97003684570E+02  0.92875837237E+02 0.  0.
         11    1    3    3    0    0 -0.53599556922E+02  0.12078370521E+02 -0.31118881176E+01  0.55031658021E+02  0.51100000000E-03 0.  1.
         22    1    1    0    0    0  0.16509715009E+02 -0.15792827228E+02 -0.16180531393E+02  0.27996315430E+02  0.00000000000E+00 0.  1.
</event>
<event>
 5    1  0.3190780E-003  0.9118800E+02  0.7818608E-02  0.1130116E+00
         25   -1    0    0    0    0  0.00000000000E+00  0.00000000000E+00  0.99999998245E-14  0.12500000000E+03  0.12500000000E+03 0.  0.
        -11    1    3    3    0    0  0.22704075437E+02  0.33452589649E+02  0.23532573197E+02  0.46779619464E+02  0.51100000000E-03 0.  1.
         23    2    1    0    0    0  0.27264500000E+02 -0.44405469286E+01 -0.79497287586E+01  0.96255094284E+02  0.91862797535E+02 0.  0.
         11    1    3    3    0    0  0.45604245636E+01 -0.37893136578E+02 -0.31482301956E+02  0.49475474819E+02  0.51100000000E-03 0. -1.
         22    1    1    0    0    0 -0.27264500000E+02  0.44405469286E+01  0.79497287586E+01  0.28744905716E+02  0.00000000000E+00 0. -1.
</event>
<event>
 5    1  0.3190780E-003  0.9118800E+02  0.7818608E-02  0.1130116E+00
         25   -1    0    0    0    0  0.00000000000E+00  0.00000000000E+00  0.99999998245E-14  0.12500000000E+03  0.12500000000E+03 0.  0.
        -11    1    3    3    0    0  0.13991413281E+02 -0.33914258483E+02 -0.39819281388E+02  0.54143436764E+02  0.51100000000E-03 0.  1.
         23    2    1    0    0    0  0.69442760917E+01 -0.28546695502E+02  0.69272083829E+00  0.95612644612E+02  0.90984400603E+02 0.  0.
         11    1    3    3    0    0 -0.70471371892E+01  0.53675629811E+01  0.40512002226E+02  0.41469207848E+02  0.51100000000E-03 0. -1.
         22    1    1    0    0    0 -0.69442760917E+01  0.28546695502E+02 -0.69272083829E+00  0.29387355388E+02  0.00000000000E+00 0.  1.
</event>
<event>
 5    1  0.3190780E-003  0.9118800E+02  0.7818608E-02  0.1130116E+00
         25   -1    0    0    0    0  0.00000000000E+00  0.00000000000E+00  0.99999998245E-14  0.12500000000E+03  0.12500000000E+03 0.  0.
        -11    1    3    3    0    0 -0.14259486361E+02  0.17855612975E+02  0.56617436185E+02  0.61054811001E+02  0.51100000000E-03 0.  1.
         23    2    1    0    0    0  0.27347028095E+01  0.70957205898E+01  0.27667819703E+02  0.96306166215E+02  0.91932266120E+02 0.  0.
         11    1    3    3    0    0  0.16994189171E+02 -0.10759892386E+02 -0.28949616482E+02  0.35251355214E+02  0.51100000000E-03 0. -1.
         22    1    1    0    0    0 -0.27347028095E+01 -0.70957205898E+01 -0.27667819703E+02  0.28693833785E+02  0.00000000000E+00 0.  1.
</event>
<event>
 5    1  0.3190780E-003  0.9118800E+02  0.7818608E-02  0.1130116E+00
         25   -1    0    0    0    0  0.00000000000E+00  0.00000000000E+00  0.99999998245E-14  0.12500000000E+03  0.12500000000E+03 0.  0.
        -11    1    3    3    0    0  0.17843128657E+02 -0.24215043441E+02  0.22960162699E+02  0.37840647994E+02  0.51100000000E-03 0. -1.
         23    2    1    0    0    0 -0.24468657593E+02  0.13020557425E+02  0.77216509917E+01  0.96227200100E+02  0.91824833378E+02 0.  0.
         11    1    3    3    0    0 -0.42311786250E+02  0.37235600867E+02 -0.15238511707E+02  0.58386552106E+02  0.51100000000E-03 0.  1.
         22    1    1    0    0    0  0.24468657593E+02 -0.13020557425E+02 -0.77216509917E+01  0.28772799900E+02  0.00000000000E+00 0.  1.
</event>
<event>
 5    1  0.3190780E-003  0.9118800E+02  0.7818608E-02  0.1130116E+00
         25   -1    0    0    0    0  0.00000000000E+00  0.00000000000E+00  0.99999998245E-14  0.12500000000E+03  0.12500000000E+03 0.  0.
        -11    1    3    3    0    0  0.31283502203E+02 -0.59116589051E+01  0.18106867065E+01  0.31888615645E+02  0.51100000000E-03 0.  1.
         23    2    1    0    0    0 -0.12997518118E+02  0.29657755631E+02  0.13569539084E+02  0.89890879572E+02  0.82750951009E+02 0.  0.
         11    1    3    3    0    0 -0.44281020321E+02  0.35569414536E+02  0.11758852377E+02  0.58002263927E+02  0.51100000000E-03 0. -1.
         22    1    1    0    0    0  0.12997518118E+02 -0.29657755631E+02 -0.13569539084E+02  0.35109120428E+02  0.00000000000E+00 0. -1.
</event>
<event>
 5    1  0.3190780E-003  0.9118800E+02  0.7818608E-02  0.1130116E+00
         25   -1    0    0    0    0  0.00000000000E+00  0.00000000000E+00  0.99999998245E-14  0.12500000000E+03  0.12500000000E+03 0.  0.
        -11    1    3    3    0    0 -0.12750350050E+02  0.29092530532E+02 -0.23919090974E+02  0.39762666817E+02  0.51100000000E-03 0. -1.
         23    2    1    0    0    0 -0.12894868243E+02 -0.24763315123E+02 -0.69557219375E+01  0.96227070525E+02  0.91824656989E+02 0.  0.
         11    1    3    3    0    0 -0.14451819369E+00 -0.53855845655E+02  0.16963369036E+02  0.56464403708E+02  0.51100000000E-03 0.  1.
         22    1    1    0    0    0  0.12894868243E+02  0.24763315123E+02  0.69557219375E+01  0.28772929475E+02  0.00000000000E+00 0.  1.
</event>
<event>
 5    1  0.3190780E-003  0.9118800E+02  0.7818608E-02  0.1130116E+00
         25   -1    0    0    0    0  0.00000000000E+00  0.00000000000E+00  0.99999998245E-14  0.12500000000E+03  0.12500000000E+03 0.  0.
        -11    1    3    3    0    0 -0.40831657413E+02  0.11301513591E+02 -0.17664193485E+02  0.45901766722E+02  0.51100000000E-03 0.  1.
         23    2    1    0    0    0  0.22080246830E+01 -0.13898772499E+02 -0.24998256199E+02  0.96312649774E+02  0.91941081370E+02 0.  0.
         11    1    3    3    0    0  0.43039682096E+02 -0.25200286090E+02 -0.73340627145E+01  0.50410883052E+02  0.51100000000E-03 0. -1.
         22    1    1    0    0    0 -0.22080246830E+01  0.13898772499E+02  0.24998256199E+02  0.28687350226E+02  0.00000000000E+00 0. -1.
</event>
<event>
 5    1  0.3190780E-003  0.9118800E+02  0.7818608E-02  0.1130116E+00
         25   -1    0    0    0    0  0.00000000000E+00  0.00000000000E+00  0.99999998245E-14  0.12500000000E+03  0.12500000000E+03 0.  0.
        -11    1    3    3    0    0 -0.24982888914E+02  0.17559485370E+02  0.50533029794E+02  0.59042928157E+02  0.51100000000E-03 0.  1.
         23    2    1    0    0    0  0.52782938223E+00  0.36442616454E+01  0.30359315249E+02  0.94418187281E+02  0.89328309177E+02 0.  0.
         11    1    3    3    0    0  0.25510718297E+02 -0.13915223725E+02 -0.20173714545E+02  0.35375259124E+02  0.51100000000E-03 0. -1.
         22    1    1    0    0    0 -0.52782938223E+00 -0.36442616454E+01 -0.30359315249E+02  0.30581812719E+02  0.00000000000E+00 0.  1.
</event>
<event>
 5    1  0.3190780E-003  0.9118800E+02  0.7818608E-02  0.1130116E+00
         25   -1    0    0    0    0  0.00000000000E+00  0.00000000000E+00  0.99999998245E-14  0.12500000000E+03  0.12500000000E+03 0.  0.
        -11    1    3    3    0    0  0.20478329729E+02  0.20304976672E+01  0.38482712908E+02  0.43639478712E+02  0.51100000000E-03 0.  1.
         23    2    1    0    0    0  0.14627650470E+02 -0.12150957226E+02 -0.15942301744E+02  0.10018526839E+03  0.97063469434E+02 0.  0.
         11    1    3    3    0    0 -0.58506792588E+01 -0.14181454894E+02 -0.54425014652E+02  0.56545789682E+02  0.51100000000E-03 0. -1.
         22    1    1    0    0    0 -0.14627650470E+02  0.12150957226E+02  0.15942301744E+02  0.24814731606E+02  0.00000000000E+00 0. -1.
</event>
<event>
 5    1  0.3190780E-003  0.9118800E+02  0.7818608E-02  0.1130116E+00
         25   -1    0    0    0    0  0.00000000000E+00  0.00000000000E+00  0.99999998245E-14  0.12500000000E+03  0.12500000000E+03 0.  0.
        -11    1    3    3    0    0  0.39278697618E+01 -0.34317932648E+02  0.35575972266E+02  0.49586272950E+02  0.51100000000E-03 0.  1.
         23    2    1    0    0    0 -0.18503615522E+02  0.49587933598E+01  0.19697692746E+02  0.97523236753E+02  0.93572480935E+02 0.  0.
         11    1    3    3    0    0 -0.22431485284E+02  0.39276726008E+02 -0.15878279519E+02  0.47936963804E+02  0.51100000000E-03 0. -1.
         22    1    1    0    0    0  0.18503615522E+02 -0.49587933598E+01 -0.19697692746E+02  0.27476763247E+02  0.00000000000E+00 0. -1.
</event>
<event>
 5    1  0.3190780E-003  0.9118800E+02  0.7818608E-02  0.1130116E+00
         25   -1    0    0    0    0  0.00000000000E+00  0.00000000000E+00  0.99999998245E-14  0.12500000000E+03  0.12500000000E+03 0.  0.
        -11    1    3    3    0    0  0.26303437271E+02  0.50275443526E+02 -0.13792120472E+02  0.58392753158E+02  0.51100000000E-03 0.  1.
         23    2    1    0    0    0  0.24966431407E+02  0.13688191353E+02 -0.76662720091E+01  0.95513375808E+02  0.90847916608E+02 0.  0.
         11    1    3    3    0    0 -0.13370058639E+01 -0.36587252173E+02  0.61258484630E+01  0.37120622650E+02  0.51100000000E-03 0. -1.
         22    1    1    0    0    0 -0.24966431407E+02 -0.13688191353E+02  0.76662720091E+01  0.29486624192E+02  0.00000000000E+00 0.  1.
</event>
<event>
 5    1  0.3190780E-003  0.9118800E+02  0.7818608E-02  0.1130116E+00
         25   -1    0    0    0    0  0.00000000000E+00  0.00000000000E+00  0.99999998245E-14  0.12500000000E+03  0.12500000000E+03 0.  0.
        -11    1    3    3    0    0  0.33792928417E+02 -0.95558487650E+01 -0.35811202728E+02  0.50156938679E+02  0.51100000000E-03 0. -1.
         23    2    1    0    0    0  0.13955032635E+02 -0.24714881454E+02  0.31625255331E+01  0.96441816079E+02  0.92116524140E+02 0.  0.
         11    1    3    3    0    0 -0.19837895781E+02 -0.15159032689E+02  0.38973728261E+02  0.46284877400E+02  0.51100000000E-03 0.  1.
         22    1    1    0    0    0 -0.13955032635E+02  0.24714881454E+02 -0.31625255331E+01  0.28558183921E+02  0.00000000000E+00 0. -1.
</event>
<event>
 5    1  0.3190780E-003  0.9118800E+02  0.7818608E-02  0.1130116E+00
         25   -1    0    0    0    0  0.00000000000E+00  0.00000000000E+00  0.99999998245E-14  0.12500000000E+03  0.12500000000E+03 0.  0.
        -11    1    3    3    0    0 -0.35500728067E+02 -0.33349882878E+02 -0.34763006659E+02  0.59841315272E+02  0.51100000000E-03 0.  1.
         23    2    1    0    0    0 -0.13428599428E+02 -0.73010355032E+01 -0.25586426793E+02  0.95195677527E+02  0.90409730570E+02 0.  0.
         11    1    3    3    0    0  0.22072128639E+02  0.26048847375E+02  0.91765798657E+01  0.35354362255E+02  0.51100000000E-03 0. -1.
         22    1    1    0    0    0  0.13428599428E+02  0.73010355032E+01  0.25586426793E+02  0.29804322473E+02  0.00000000000E+00 0.  1.
</event>
<event>
 5    1  0.3190780E-003  0.9118800E+02  0.7818608E-02  0.1130116E+00
         25   -1    0    0    0    0  0.00000000000E+00  0.00000000000E+00  0.99999998245E-14  0.12500000000E+03  0.12500000000E+03 0.  0.
        -11    1    3    3    0    0  0.17236737727E+02  0.28651412463E+02  0.37854776976E+02  0.50507352967E+02  0.51100000000E-03 0.  1.
         23    2    1    0    0    0  0.21408618788E+02 -0.11091075248E+02  0.16120581758E+02  0.95996309462E+02  0.91509985060E+02 0.  0.
         11    1    3    3    0    0  0.41718810610E+01 -0.39742487711E+02 -0.21734195218E+02  0.45488956495E+02  0.51100000000E-03 0. -1.
         22    1    1    0    0    0 -0.21408618788E+02  0.11091075248E+02 -0.16120581758E+02  0.29003690538E+02  0.00000000000E+00 0.  1.
</event>
<event>
 5    1  0.3190780E-003  0.9118800E+02  0.7818608E-02  0.1130116E+00
         25   -1    0    0    0    0  0.00000000000E+00  0.00000000000E+00  0.99999998245E-14  0.12500000000E+03  0.12500000000E+03 0.  0.
        -11    1    3    3    0    0 -0.25521102225E+02 -0.55343880415E+02  0.25694313519E+01  0.60998965040E+02  0.51100000000E-03 0. -1.
         23    2    1    0    0    0 -0.61245906240E+01 -0.27627841221E+02  0.87322937513E+01  0.95384781362E+02  0.90670807543E+02 0.  0.
         11    1    3    3    0    0  0.19396511601E+02  0.27716039194E+02  0.61628623994E+01  0.34385816322E+02  0.51100000000E-03 0.  1.
         22    1    1    0    0    0  0.61245906240E+01  0.27627841221E+02 -0.87322937513E+01  0.29615218638E+02  0.00000000000E+00 0. -1.
</event>
<event>
 5    1  0.3190780E-003  0.9118800E+02  0.7818608E-02  0.1130116E+00
         25   -1    0    0    0    0  0.00000000000E+00  0.00000000000E+00  0.99999998245E-14  0.12500000000E+03  0.12500000000E+03 0.  0.
        -11    1    3    3    0    0 -0.47796289196E+02 -0.92344531689E+01 -0.38040525161E+01  0.48828590006E+02  0.51100000000E-03 0.  1.
         23    2    1    0    0    0 -0.14781829910E+02  0.20133936650E+02  0.13882853688E+02  0.96423584427E+02  0.92091780885E+02 0.  0.
         11    1    3    3    0    0  0.33014459286E+02  0.29368389819E+02  0.17686906204E+02  0.47594994420E+02  0.51100000000E-03 0. -1.
         22    1    1    0    0    0  0.14781829910E+02 -0.20133936650E+02 -0.13882853688E+02  0.28576415573E+02  0.00000000000E+00 0.  1.
</event>
<event>
 5    1  0.3190780E-003  0.9118800E+02  0.7818608E-02  0.1130116E+00
         25   -1    0    0    0    0  0.00000000000E+00  0.00000000000E+00  0.99999998245E-14  0.12500000000E+03  0.12500000000E+03 0.  0.
        -11    1    3    3    0    0 -0.29433200429E+02  0.22139643001E+02 -0.13972739413E+02  0.39391807862E+02  0.51100000000E-03 0.  1.
         23    2    1    0    0    0  0.20740093873E+02 -0.11424959972E+01 -0.21372551156E+02  0.95196598619E+02  0.90411004058E+02 0.  0.
         11    1    3    3    0    0  0.50173294302E+02 -0.23282138998E+02 -0.73998117427E+01  0.55804790757E+02  0.51100000000E-03 0. -1.
         22    1    1    0    0    0 -0.20740093873E+02  0.11424959972E+01  0.21372551156E+02  0.29803401381E+02  0.00000000000E+00 0. -1.
</event>
<event>
 5    1  0.3190780E-003  0.9118800E+02  0.7818608E-02  0.1130116E+00
         25   -1    0    0    0    0  0.00000000000E+00  0.00000000000E+00  0.99999998245E-14  0.12500000000E+03  0.12500000000E+03 0.  0.
        -11    1    3    3    0    0 -0.20376889385E+02  0.53091634469E+02  0.26230257994E+01  0.56928196320E+02  0.51100000000E-03 0. -1.
         23    2    1    0    0    0 -0.46725017877E+01  0.19777541824E+02 -0.16860517284E+02  0.98594309768E+02  0.94992512557E+02 0.  0.
         11    1    3    3    0    0  0.15704387597E+02 -0.33314092645E+02 -0.19483543083E+02  0.41666113448E+02  0.51100000000E-03 0.  1.
         22    1    1    0    0    0  0.46725017877E+01 -0.19777541824E+02  0.16860517284E+02  0.26405690232E+02  0.00000000000E+00 0. -1.
</event>
<event>
 5    1  0.3190780E-003  0.9118800E+02  0.7818608E-02  0.1130116E+00
         25   -1    0    0    0    0  0.00000000000E+00  0.00000000000E+00  0.99999998245E-14  0.12500000000E+03  0.12500000000E+03 0.  0.
        -11    1    3    3    0    0 -0.23741597795E+02 -0.22152820915E+02 -0.27052372755E+01  0.32584187105E+02  0.51100000000E-03 0.  1.
         23    2    1    0    0    0  0.22770794786E+02  0.12816341868E+02  0.16774128083E+02  0.93949410843E+02  0.88669908710E+02 0.  0.
         11    1    3    3    0    0  0.46512392581E+02  0.34969162783E+02  0.19479365358E+02  0.61365223738E+02  0.51100000000E-03 0. -1.
         22    1    1    0    0    0 -0.22770794786E+02 -0.12816341868E+02 -0.16774128083E+02  0.31050589157E+02  0.00000000000E+00 0. -1.
</event>
<event>
 5    1  0.3190780E-003  0.9118800E+02  0.7818608E-02  0.1130116E+00
         25   -1    0    0    0    0  0.00000000000E+00  0.00000000000E+00  0.99999998245E-14  0.12500000000E+03  0.12500000000E+03 0.  0.
        -11    1    3    3    0    0  0.92005594660E+01  0.13199753541E+02 -0.53643978563E+02  0.56005001780E+02  0.51100000000E-03 0.  1.
         23    2    1    0    0    0  0.16358626578E+02 -0.99341799132E+01 -0.22319768272E+02  0.95598220296E+02  0.90964581426E+02 0.  0.
         11    1    3    3    0    0  0.71580671118E+01 -0.23133933454E+02  0.31324210291E+02  0.39593218516E+02  0.51100000000E-03 0. -1.
         22    1    1    0    0    0 -0.16358626578E+02  0.99341799132E+01  0.22319768272E+02  0.29401779704E+02  0.00000000000E+00 0.  1.
</event>
<event>
 5    1  0.3190780E-003  0.9118800E+02  0.7818608E-02  0.1130116E+00
         25   -1    0    0    0    0  0.00000000000E+00  0.00000000000E+00  0.99999998245E-14  0.12500000000E+03  0.12500000000E+03 0.  0.
        -11    1    3    3    0    0  0.25586529214E+02 -0.14219434752E+02 -0.20100023053E+02  0.35508783827E+02  0.51100000000E-03 0. -1.
         23    2    1    0    0    0 -0.17046051093E+02 -0.17707961244E+02  0.19365265572E+02  0.93708575297E+02  0.88329744845E+02 0.  0.
         11    1    3    3    0    0 -0.42632580306E+02 -0.34885264918E+01  0.39465288625E+02  0.58199791470E+02  0.51100000000E-03 0.  1.
         22    1    1    0    0    0  0.17046051093E+02  0.17707961244E+02 -0.19365265572E+02  0.31291424703E+02  0.00000000000E+00 0.  1.
</event>
<event>
 5    1  0.3190780E-003  0.9118800E+02  0.7818608E-02  0.1130116E+00
         25   -1    0    0    0    0  0.00000000000E+00  0.00000000000E+00  0.99999998245E-14  0.12500000000E+03  0.12500000000E+03 0.  0.
        -11    1    3    3    0    0  0.58299435659E+02 -0.12272774006E+02  0.12785224532E+02  0.60933629029E+02  0.51100000000E-03 0.  1.
         23    2    1    0    0    0  0.29612581579E+02 -0.20446976153E+01 -0.28719800048E+01  0.95178295736E+02  0.90385695405E+02 0.  0.
         11    1    3    3    0    0 -0.28686854081E+02  0.10228076391E+02 -0.15657204537E+02  0.34244666707E+02  0.51100000000E-03 0. -1.
         22    1    1    0    0    0 -0.29612581579E+02  0.20446976153E+01  0.28719800048E+01  0.29821704264E+02  0.00000000000E+00 0.  1.
</event>
<event>
 5    1  0.3190780E-003  0.9118800E+02  0.7818608E-02  0.1130116E+00
         25   -1    0    0    0    0  0.00000000000E+00  0.00000000000E+00  0.99999998245E-14  0.12500000000E+03  0.12500000000E+03 0.  0.
        -11    1    3    3    0    0 -0.58770805622E+00  0.16866384343E+02 -0.29076303339E+02  0.33619216792E+02  0.51100000000E-03 0.  1.
         23    2    1    0    0    0  0.12015096931E+02  0.22085047560E+00  0.28073114893E+02  0.94462955136E+02  0.89390932337E+02 0.  0.
         11    1    3    3    0    0  0.12602804987E+02 -0.16645533867E+02  0.57149418232E+02  0.60843738345E+02  0.51100000000E-03 0. -1.
         22    1    1    0    0    0 -0.12015096931E+02 -0.22085047560E+00 -0.28073114893E+02  0.30537044864E+02  0.00000000000E+00 0. -1.
</event>
<event>
 5    1  0.3190780E-003  0.9118800E+02  0.7818608E-02  0.1130116E+00
         25   -1    0    0    0    0  0.00000000000E+00  0.00000000000E+00  0.99999998245E-14  0.12500000000E+03  0.12500000000E+03 0.  0.
        -11    1    3    3    0    0 -0.33341514878E+02 -0.95722261265E+01 -0.16158350826E+02  0.38267171689E+02  0.51100000000E-03 0.  1.
         23    2    1    0    0    0  0.93721123714E+01  0.26492889905E+02  0.14017759038E+01  0.96863285880E+02  0.92686684426E+02 0.  0.
         11    1    3    3    0    0  0.42713627250E+02  0.36065116031E+02  0.17560126730E+02  0.58596114190E+02  0.51100000000E-03 0. -1.
         22    1    1    0    0    0 -0.93721123714E+01 -0.26492889905E+02 -0.14017759038E+01  0.28136714120E+02  0.00000000000E+00 0. -1.
</event>
<event>
 5    1  0.3190780E-003  0.9118800E+02  0.7818608E-02  0.1130116E+00
         25   -1    0    0    0    0  0.00000000000E+00  0.00000000000E+00  0.99999998245E-14  0.12500000000E+03  0.12500000000E+03 0.  0.
        -11    1    3    3    0    0 -0.19661780503E+02  0.57000829222E+02  0.41022151571E+01  0.60435985257E+02  0.51100000000E-03 0.  1.
         23    2    1    0    0    0 -0.81784370261E+01  0.28781708935E+02 -0.92242901585E+01  0.93689280903E+02  0.88302436126E+02 0.  0.
         11    1    3    3    0    0  0.11483343477E+02 -0.28219120286E+02 -0.13326505316E+02  0.33253295646E+02  0.51100000000E-03 0. -1.
         22    1    1    0    0    0  0.81784370261E+01 -0.28781708935E+02  0.92242901585E+01  0.31310719097E+02  0.00000000000E+00 0.  1.
</event>
<event>
 5    1  0.3190780E-003  0.9118800E+02  0.7818608E-02  0.1130116E+00
         25   -1    0    0    0    0  0.00000000000E+00  0.00000000000E+00  0.99999998245E-14  0.12500000000E+03  0.12500000000E+03 0.  0.
        -11    1    3    3    0    0 -0.57979304838E+02  0.15469980322E+02  0.51078768540E+01  0.60224666764E+02  0.51100000000E-03 0.  1.
         23    2    1    0    0    0 -0.30883484315E+02 -0.29650132158E+01 -0.25175281073E+01  0.93872538578E+02  0.88561473817E+02 0.  0.
         11    1    3    3    0    0  0.27095820523E+02 -0.18434993537E+02 -0.76254049613E+01  0.33647871814E+02  0.51100000000E-03 0. -1.
         22    1    1    0    0    0  0.30883484315E+02  0.29650132158E+01  0.25175281073E+01  0.31127461422E+02  0.00000000000E+00 0.  1.
</event>
<event>
 5    1  0.3190780E-003  0.9118800E+02  0.7818608E-02  0.1130116E+00
         25   -1    0    0    0    0  0.00000000000E+00  0.00000000000E+00  0.99999998245E-14  0.12500000000E+03  0.12500000000E+03 0.  0.
        -11    1    3    3    0    0  0.34095489684E+02 -0.26516182726E+02 -0.53900890974E+01  0.43527731665E+02  0.51100000000E-03 0. -1.
         23    2    1    0    0    0  0.21174364260E+01 -0.35163080474E+01  0.28935047348E+02  0.95775268618E+02  0.91207549877E+02 0.  0.
         11    1    3    3    0    0 -0.31978053258E+02  0.22999874678E+02  0.34325136446E+02  0.52247536953E+02  0.51100000000E-03 0.  1.
         22    1    1    0    0    0 -0.21174364260E+01  0.35163080474E+01 -0.28935047348E+02  0.29224731382E+02  0.00000000000E+00 0.  1.
</event>
<event>
 5    1  0.3190780E-003  0.9118800E+02  0.7818608E-02  0.1130116E+00
         25   -1    0    0    0    0  0.00000000000E+00  0.00000000000E+00  0.99999998245E-14  0.12500000000E+03  0.12500000000E+03 0.  0.
        -11    1    3    3    0    0  0.17514566034E+02  0.14059687200E+02 -0.40505748206E+02  0.46315769081E+02  0.51100000000E-03 0.  1.
         23    2    1    0    0    0 -0.12251003561E+02  0.27019467125E+02 -0.41710250363E+01  0.95041092446E+02  0.90195748855E+02 0.  0.
         11    1    3    3    0    0 -0.29765569595E+02  0.12959779925E+02  0.36334723170E+02  0.48725323366E+02  0.51100000000E-03 0. -1.
         22    1    1    0    0    0  0.12251003561E+02 -0.27019467125E+02  0.41710250363E+01  0.29958907554E+02  0.00000000000E+00 0.  1.
</event>
<event>
 5    1  0.3190780E-003  0.9118800E+02  0.7818608E-02  0.1130116E+00
         25   -1    0    0    0    0  0.00000000000E+00  0.00000000000E+00  0.99999998245E-14  0.12500000000E+03  0.12500000000E+03 0.  0.
        -11    1    3    3    0    0  0.19415503131E+02 -0.35044507311E+01  0.36591441297E+02  0.41571342452E+02  0.51100000000E-03 0.  1.
         23    2    1    0    0    0  0.18951554755E+02 -0.11709844654E+02 -0.17740784809E+02  0.96521633911E+02  0.92224771498E+02 0.  0.
         11    1    3    3    0    0 -0.46394837698E+00 -0.82053939230E+01 -0.54332226107E+02  0.54950291459E+02  0.51100000000E-03 0. -1.
         22    1    1    0    0    0 -0.18951554755E+02  0.11709844654E+02  0.17740784809E+02  0.28478366089E+02  0.00000000000E+00 0. -1.
</event>
<event>
 5    1  0.3190780E-003  0.9118800E+02  0.7818608E-02  0.1130116E+00
         25   -1    0    0    0    0  0.00000000000E+00  0.00000000000E+00  0.99999998245E-14  0.12500000000E+03  0.12500000000E+03 0.  0.
        -11    1    3    3    0    0 -0.33377966779E+02 -0.48115277575E+01  0.22329154830E+02  0.40445402969E+02  0.51100000000E-03 0. -1.
         23    2    1    0    0    0  0.59021719065E+00 -0.35356767968E+02  0.50812576099E+01  0.89275098652E+02  0.81815491583E+02 0.  0.
         11    1    3    3    0    0  0.33968183969E+02 -0.30545240210E+02 -0.17247897220E+02  0.48829695683E+02  0.51100000000E-03 0.  1.
         22    1    1    0    0    0 -0.59021719065E+00  0.35356767968E+02 -0.50812576099E+01  0.35724901348E+02  0.00000000000E+00 0. -1.
</event>
<event>
 5    1  0.3190780E-003  0.9118800E+02  0.7818608E-02  0.1130116E+00
         25   -1    0    0    0    0  0.00000000000E+00  0.00000000000E+00  0.99999998245E-14  0.12500000000E+03  0.12500000000E+03 0.  0.
        -11    1    3    3    0    0 -0.17817945108E+02  0.20314446566E+02 -0.16324045062E+02  0.31569452872E+02  0.51100000000E-03 0.  1.
         23    2    1    0    0    0  0.23728869292E+02 -0.20466628124E+02  0.43818509969E+01  0.93359160523E+02  0.87833878035E+02 0.  0.
         11    1    3    3    0    0  0.41546814401E+02 -0.40781074691E+02  0.20705896059E+02  0.61789707651E+02  0.51100000000E-03 0. -1.
         22    1    1    0    0    0 -0.23728869292E+02  0.20466628124E+02 -0.43818509969E+01  0.31640839477E+02  0.00000000000E+00 0. -1.
</event>
<event>
 5    1  0.3190780E-003  0.9118800E+02  0.7818608E-02  0.1130116E+00
         25   -1    0    0    0    0  0.00000000000E+00  0.00000000000E+00  0.99999998245E-14  0.12500000000E+03  0.12500000000E+03 0.  0.
        -11    1    3    3    0    0  0.20427742828E+02 -0.19758782577E+02  0.28108309433E+02  0.39972230678E+02  0.51100000000E-03 0. -1.
         23    2    1    0    0    0 -0.25289035338E+02 -0.12361834572E+02 -0.43384043518E+01  0.96518918303E+02  0.92221090732E+02 0.  0.
         11    1    3    3    0    0 -0.45716778166E+02  0.73969480049E+01 -0.32446713785E+02  0.56546687625E+02  0.51100000000E-03 0.  1.
         22    1    1    0    0    0  0.25289035338E+02  0.12361834572E+02  0.43384043518E+01  0.28481081697E+02  0.00000000000E+00 0.  1.
</event>
<event>
 5    1  0.3190780E-003  0.9118800E+02  0.7818608E-02  0.1130116E+00
         25   -1    0    0    0    0  0.00000000000E+00  0.00000000000E+00  0.99999998245E-14  0.12500000000E+03  0.12500000000E+03 0.  0.
        -11    1    3    3    0    0 -0.30666641605E+02  0.22813529269E+02  0.99019130632E+01  0.39483514378E+02  0.51100000000E-03 0.  1.
         23    2    1    0    0    0 -0.71042072524E+01 -0.27240174688E+02  0.10892823634E+02  0.94814730671E+02  0.89881492354E+02 0.  0.
         11    1    3    3    0    0  0.23562434353E+02 -0.50053703957E+02  0.99091057058E+00  0.55331216293E+02  0.51100000000E-03 0. -1.
         22    1    1    0    0    0  0.71042072524E+01  0.27240174688E+02 -0.10892823634E+02  0.30185269329E+02  0.00000000000E+00 0. -1.
</event>
<event>
 5    1  0.3190780E-003  0.9118800E+02  0.7818608E-02  0.1130116E+00
         25   -1    0    0    0    0  0.00000000000E+00  0.00000000000E+00  0.99999998245E-14  0.12500000000E+03  0.12500000000E+03 0.  0.
        -11    1    3    3    0    0  0.34111950030E+02  0.36140241545E+01  0.10173931271E+01  0.34317945663E+02  0.51100000000E-03 0.  1.
         23    2    1    0    0    0 -0.27107027933E+02  0.35212128745E+01  0.93693220957E+01  0.96104081603E+02  0.91657080473E+02 0.  0.
         11    1    3    3    0    0 -0.61218977963E+02 -0.92811280028E-01  0.83519289687E+01  0.61786135941E+02  0.51100000000E-03 0. -1.
         22    1    1    0    0    0  0.27107027933E+02 -0.35212128745E+01 -0.93693220957E+01  0.28895918397E+02  0.00000000000E+00 0. -1.
</event>
<event>
 5    1  0.3190780E-003  0.9118800E+02  0.7818608E-02  0.1130116E+00
         25   -1    0    0    0    0  0.00000000000E+00  0.00000000000E+00  0.99999998245E-14  0.12500000000E+03  0.12500000000E+03 0.  0.
        -11    1    3    3    0    0 -0.27489641077E+02  0.20693425579E+02 -0.20699291168E+02  0.40154188871E+02  0.51100000000E-03 0.  1.
         23    2    1    0    0    0 -0.12975448712E+01  0.10035528713E+02  0.27311821567E+02  0.95873876733E+02  0.91342592383E+02 0.  0.
         11    1    3    3    0    0  0.26192096206E+02 -0.10657896865E+02  0.48011112734E+02  0.55719687863E+02  0.51100000000E-03 0. -1.
         22    1    1    0    0    0  0.12975448712E+01 -0.10035528713E+02 -0.27311821567E+02  0.29126123267E+02  0.00000000000E+00 0. -1.
</event>
<event>
 5    1  0.3190780E-003  0.9118800E+02  0.7818608E-02  0.1130116E+00
         25   -1    0    0    0    0  0.00000000000E+00  0.00000000000E+00  0.99999998245E-14  0.12500000000E+03  0.12500000000E+03 0.  0.
        -11    1    3    3    0    0 -0.27412942868E+01 -0.61200844962E+00  0.37830249564E+02  0.37934377958E+02  0.51100000000E-03 0.  1.
         23    2    1    0    0    0  0.30325353331E+02 -0.64849042061E+01 -0.62649259310E+01  0.93362516944E+02  0.87838654566E+02 0.  0.
         11    1    3    3    0    0  0.33066647618E+02 -0.58728957564E+01 -0.44095175495E+02  0.55428138986E+02  0.51100000000E-03 0. -1.
         22    1    1    0    0    0 -0.30325353331E+02  0.64849042061E+01  0.62649259310E+01  0.31637483056E+02  0.00000000000E+00 0. -1.
</event>
<event>
 5    1  0.3190780E-003  0.9118800E+02  0.7818608E-02  0.1130116E+00
         25   -1    0    0    0    0  0.00000000000E+00  0.00000000000E+00  0.99999998245E-14  0.12500000000E+03  0.12500000000E+03 0.  0.
        -11    1    3    3    0    0  0.30028529831E+02  0.90920441067E+01  0.17411954890E+02  0.35882503302E+02  0.51100000000E-03 0.  1.
         23    2    1    0    0    0 -0.10936482452E+01 -0.75632256497E+01 -0.29463210502E+02  0.94561878807E+02  0.89529155596E+02 0.  0.
         11    1    3    3    0    0 -0.31122178076E+02 -0.16655269756E+02 -0.46875165392E+02  0.58679375505E+02  0.51100000000E-03 0. -1.
         22    1    1    0    0    0  0.10936482452E+01  0.75632256497E+01  0.29463210502E+02  0.30438121193E+02  0.00000000000E+00 0. -1.
</event>
<event>
 5    1  0.3190780E-003  0.9118800E+02  0.7818608E-02  0.1130116E+00
         25   -1    0    0    0    0  0.00000000000E+00  0.00000000000E+00  0.99999998245E-14  0.12500000000E+03  0.12500000000E+03 0.  0.
        -11    1    3    3    0    0  0.23457264673E+02  0.37450770509E+02  0.13450041093E+01  0.44210999921E+02  0.51100000000E-03 0.  1.
         23    2    1    0    0    0 -0.99426467821E+01  0.58970172710E+01  0.26137144814E+02  0.96420612729E+02  0.92087747189E+02 0.  0.
         11    1    3    3    0    0 -0.33399911455E+02 -0.31553753238E+02  0.24792140705E+02  0.52209612809E+02  0.51100000000E-03 0. -1.
         22    1    1    0    0    0  0.99426467821E+01 -0.58970172710E+01 -0.26137144814E+02  0.28579387271E+02  0.00000000000E+00 0. -1.
</event>
<event>
 5    1  0.3190780E-003  0.9118800E+02  0.7818608E-02  0.1130116E+00
         25   -1    0    0    0    0  0.00000000000E+00  0.00000000000E+00  0.99999998245E-14  0.12500000000E+03  0.12500000000E+03 0.  0.
        -11    1    3    3    0    0  0.19752922511E+02  0.12883135869E+01 -0.47436052466E+02  0.51400552268E+02  0.51100000000E-03 0.  1.
         23    2    1    0    0    0 -0.14983301004E+02 -0.10811870075E+02 -0.22714465722E+02  0.95719583396E+02  0.91131201292E+02 0.  0.
         11    1    3    3    0    0 -0.34736223515E+02 -0.12100183662E+02  0.24721586744E+02  0.44319031128E+02  0.51100000000E-03 0. -1.
         22    1    1    0    0    0  0.14983301004E+02  0.10811870075E+02  0.22714465722E+02  0.29280416604E+02  0.00000000000E+00 0.  1.
</event>
<event>
 5    1  0.3190780E-003  0.9118800E+02  0.7818608E-02  0.1130116E+00
         25   -1    0    0    0    0  0.00000000000E+00  0.00000000000E+00  0.99999998245E-14  0.12500000000E+03  0.12500000000E+03 0.  0.
        -11    1    3    3    0    0 -0.47856328764E+01  0.49850960788E+02  0.56083489304E+01  0.50393195488E+02  0.51100000000E-03 0.  1.
         23    2    1    0    0    0  0.15335323261E+02  0.94598371138E+01 -0.16432610624E+02  0.10061370570E+03  0.97613659009E+02 0.  0.
         11    1    3    3    0    0  0.20120956138E+02 -0.40391123675E+02 -0.22040959554E+02  0.50220510212E+02  0.51100000000E-03 0. -1.
         22    1    1    0    0    0 -0.15335323261E+02 -0.94598371138E+01  0.16432610624E+02  0.24386294300E+02  0.00000000000E+00 0.  1.
</event>
<event>
 5    1  0.3190780E-003  0.9118800E+02  0.7818608E-02  0.1130116E+00
         25   -1    0    0    0    0  0.00000000000E+00  0.00000000000E+00  0.99999998245E-14  0.12500000000E+03  0.12500000000E+03 0.  0.
        -11    1    3    3    0    0 -0.42704931957E+02 -0.13220428127E+02  0.42928241458E+02  0.61978422441E+02  0.51100000000E-03 0. -1.
         23    2    1    0    0    0 -0.18311377751E+02 -0.11312637434E+02  0.17583870783E+02  0.97206568536E+02  0.93148495070E+02 0.  0.
         11    1    3    3    0    0  0.24393554206E+02  0.19077906924E+01 -0.25344370675E+02  0.35228146095E+02  0.51100000000E-03 0.  1.
         22    1    1    0    0    0  0.18311377751E+02  0.11312637434E+02 -0.17583870783E+02  0.27793431464E+02  0.00000000000E+00 0. -1.
</event>
<event>
 5    1  0.3190780E-003  0.9118800E+02  0.7818608E-02  0.1130116E+00
         25   -1    0    0    0    0  0.00000000000E+00  0.00000000000E+00  0.99999998245E-14  0.12500000000E+03  0.12500000000E+03 0.  0.
        -11    1    3    3    0    0 -0.42369527890E+02 -0.97848348863E+01  0.57995103077E+01  0.43869741365E+02  0.51100000000E-03 0. -1.
         23    2    1    0    0    0 -0.24886177795E+01  0.17029438892E+02  0.24178798478E+02  0.95321568382E+02  0.90583619356E+02 0.  0.
         11    1    3    3    0    0  0.39880910111E+02  0.26814273778E+02  0.18379288171E+02  0.51451827017E+02  0.51100000000E-03 0.  1.
         22    1    1    0    0    0  0.24886177795E+01 -0.17029438892E+02 -0.24178798478E+02  0.29678431618E+02  0.00000000000E+00 0.  1.
</event>
<event>
 5    1  0.3190780E-003  0.9118800E+02  0.7818608E-02  0.1130116E+00
         25   -1    0    0    0    0  0.00000000000E+00  0.00000000000E+00  0.99999998245E-14  0.12500000000E+03  0.12500000000E+03 0.  0.
        -11    1    3    3    0    0  0.26005276154E+02 -0.18031070578E+02  0.20894260681E+01  0.31713713053E+02  0.51100000000E-03 0. -1.
         23    2    1    0    0    0 -0.29404295818E+02  0.71947855980E+01 -0.86085321473E+01  0.93528038223E+02  0.88073886911E+02 0.  0.
         11    1    3    3    0    0 -0.55409571972E+02  0.25225856176E+02 -0.10697958215E+02  0.61814325170E+02  0.51100000000E-03 0.  1.
         22    1    1    0    0    0  0.29404295818E+02 -0.71947855980E+01  0.86085321473E+01  0.31471961777E+02  0.00000000000E+00 0.  1.
</event>
<event>
 5    1  0.3190780E-003  0.9118800E+02  0.7818608E-02  0.1130116E+00
         25   -1    0    0    0    0  0.00000000000E+00  0.00000000000E+00  0.99999998245E-14  0.12500000000E+03  0.12500000000E+03 0.  0.
        -11    1    3    3    0    0 -0.26255570044E+01 -0.60673174351E+02 -0.48627009928E+01  0.60924325984E+02  0.51100000000E-03 0. -1.
         23    2    1    0    0    0 -0.90875032471E+01 -0.24877938498E+02 -0.77252355689E+01  0.97410621541E+02  0.93421921331E+02 0.  0.
         11    1    3    3    0    0 -0.64619462426E+01  0.35795235853E+02 -0.28625345761E+01  0.36486295557E+02  0.51100000000E-03 0.  1.
         22    1    1    0    0    0  0.90875032471E+01  0.24877938498E+02  0.77252355689E+01  0.27589378459E+02  0.00000000000E+00 0. -1.
</event>
<event>
 5    1  0.3190780E-003  0.9118800E+02  0.7818608E-02  0.1130116E+00
         25   -1    0    0    0    0  0.00000000000E+00  0.00000000000E+00  0.99999998245E-14  0.12500000000E+03  0.12500000000E+03 0.  0.
        -11    1    3    3    0    0  0.14401225671E+02  0.62721507316E+01 -0.56175349477E+02  0.58330138563E+02  0.51100000000E-03 0.  1.
         23    2    1    0    0    0  0.18786030307E+00 -0.11904667445E+02 -0.26721812597E+02  0.95745741046E+02  0.91167073341E+02 0.  0.
         11    1    3    3    0    0 -0.14213365368E+02 -0.18176818177E+02  0.29453536881E+02  0.37415602483E+02  0.51100000000E-03 0. -1.
         22    1    1    0    0    0 -0.18786030307E+00  0.11904667445E+02  0.26721812597E+02  0.29254258954E+02  0.00000000000E+00 0.  1.
</event>
<event>
 5    1  0.3190780E-003  0.9118800E+02  0.7818608E-02  0.1130116E+00
         25   -1    0    0    0    0  0.00000000000E+00  0.00000000000E+00  0.99999998245E-14  0.12500000000E+03  0.12500000000E+03 0.  0.
        -11    1    3    3    0    0 -0.44223931962E+02  0.20459601726E+02 -0.37923357823E+02  0.61745708594E+02  0.51100000000E-03 0.  1.
         23    2    1    0    0    0 -0.25955153558E+02  0.70757354199E+01 -0.14058010773E+02  0.94646026705E+02  0.89646565334E+02 0.  0.
         11    1    3    3    0    0  0.18268778404E+02 -0.13383866306E+02  0.23865347050E+02  0.32900318110E+02  0.51100000000E-03 0. -1.
         22    1    1    0    0    0  0.25955153558E+02 -0.70757354199E+01  0.14058010773E+02  0.30353973295E+02  0.00000000000E+00 0.  1.
</event>
<event>
 4    1  0.3190780E-003  0.9118800E+02  0.7818608E-02  0.1130116E+00
         25   -1    0    0    0    0  0.00000000000E+00  0.00000000000E+00  0.99999998245E-14  0.12500000000E+03  0.12500000000E+03 0.  0.
        -11    1    1    0    0    0 -0.17237760459E+02  0.21953060981E+01 -0.91935457380E+01  0.19659120988E+02  0.51100000000E-03 0.  1.
         11    1    1    0    0    0  0.27606262164E+02  0.46127147016E+02 -0.48131582532E+01  0.53972084406E+02  0.51100000000E-03 0. -1.
         22    1    1    0    0    0 -0.10368501705E+02 -0.48322453114E+02  0.14006703991E+02  0.51368794606E+02  0.00000000000E+00 0. -1.
</event>
<event>
 5    1  0.3190780E-003  0.9118800E+02  0.7818608E-02  0.1130116E+00
         25   -1    0    0    0    0  0.00000000000E+00  0.00000000000E+00  0.99999998245E-14  0.12500000000E+03  0.12500000000E+03 0.  0.
        -11    1    3    3    0    0 -0.14892876292E+02  0.17459552920E+02  0.31452833841E+02  0.38934746812E+02  0.51100000000E-03 0.  1.
         23    2    1    0    0    0 -0.18468747884E+02 -0.13411985569E+02 -0.17029197740E+02  0.96522472351E+02  0.92225907899E+02 0.  0.
         11    1    3    3    0    0 -0.35758715928E+01 -0.30871538489E+02 -0.48482031581E+02  0.57587725539E+02  0.51100000000E-03 0. -1.
         22    1    1    0    0    0  0.18468747884E+02  0.13411985569E+02  0.17029197740E+02  0.28477527649E+02  0.00000000000E+00 0. -1.
</event>
<event>
 5    1  0.3190780E-003  0.9118800E+02  0.7818608E-02  0.1130116E+00
         25   -1    0    0    0    0  0.00000000000E+00  0.00000000000E+00  0.99999998245E-14  0.12500000000E+03  0.12500000000E+03 0.  0.
        -11    1    3    3    0    0  0.31492764199E+01  0.44901458058E+02 -0.22244639293E+01  0.45066696326E+02  0.51100000000E-03 0. -1.
         23    2    1    0    0    0  0.29469730752E+02  0.19665480355E+01 -0.32481151520E+00  0.95462941171E+02  0.90778495761E+02 0.  0.
         11    1    3    3    0    0  0.26320454332E+02 -0.42934910023E+02  0.18996524141E+01  0.50396244845E+02  0.51100000000E-03 0.  1.
         22    1    1    0    0    0 -0.29469730752E+02 -0.19665480355E+01  0.32481151520E+00  0.29537058829E+02  0.00000000000E+00 0.  1.
</event>
<event>
 5    1  0.3190780E-003  0.9118800E+02  0.7818608E-02  0.1130116E+00
         25   -1    0    0    0    0  0.00000000000E+00  0.00000000000E+00  0.99999998245E-14  0.12500000000E+03  0.12500000000E+03 0.  0.
        -11    1    3    3    0    0  0.22088391597E+02 -0.16331633355E+02  0.20288522614E+02  0.34150306609E+02  0.51100000000E-03 0. -1.
         23    2    1    0    0    0 -0.17285369668E+02  0.16885168977E+02 -0.14970006471E+02  0.96574764211E+02  0.92296755374E+02 0.  0.
         11    1    3    3    0    0 -0.39373761266E+02  0.33216802331E+02 -0.35258529085E+02  0.62424457601E+02  0.51100000000E-03 0.  1.
         22    1    1    0    0    0  0.17285369668E+02 -0.16885168977E+02  0.14970006471E+02  0.28425235789E+02  0.00000000000E+00 0.  1.
</event>
<event>
 5    1  0.3190780E-003  0.9118800E+02  0.7818608E-02  0.1130116E+00
         25   -1    0    0    0    0  0.00000000000E+00  0.00000000000E+00  0.99999998245E-14  0.12500000000E+03  0.12500000000E+03 0.  0.
        -11    1    3    3    0    0  0.13049454715E+02  0.18132176873E+02 -0.40419760924E+02  0.46182476979E+02  0.51100000000E-03 0. -1.
         23    2    1    0    0    0 -0.20747152361E+02 -0.66944762995E+01 -0.19121821988E+01  0.10311583255E+03  0.10076685040E+03 0.  0.
         11    1    3    3    0    0 -0.33796607076E+02 -0.24826653172E+02  0.38507578725E+02  0.56933355576E+02  0.51100000000E-03 0.  1.
         22    1    1    0    0    0  0.20747152361E+02  0.66944762995E+01  0.19121821988E+01  0.21884167445E+02  0.00000000000E+00 0.  1.
</event>
<event>
 5    1  0.3190780E-003  0.9118800E+02  0.7818608E-02  0.1130116E+00
         25   -1    0    0    0    0  0.00000000000E+00  0.00000000000E+00  0.99999998245E-14  0.12500000000E+03  0.12500000000E+03 0.  0.
        -11    1    3    3    0    0 -0.12142723933E+01 -0.35174474648E+02  0.41213298954E+02  0.54196440245E+02  0.51100000000E-03 0.  1.
         23    2    1    0    0    0  0.21387831450E+02 -0.19426292657E+02  0.28062548982E+02  0.84721881425E+02  0.74535027714E+02 0.  0.
         11    1    3    3    0    0  0.22602103843E+02  0.15748181992E+02 -0.13150749972E+02  0.30525441181E+02  0.51100000000E-03 0. -1.
         22    1    1    0    0    0 -0.21387831450E+02  0.19426292657E+02 -0.28062548982E+02  0.40278118575E+02  0.00000000000E+00 0.  1.
</event>
<event>
 5    1  0.3190780E-003  0.9118800E+02  0.7818608E-02  0.1130116E+00
         25   -1    0    0    0    0  0.00000000000E+00  0.00000000000E+00  0.99999998245E-14  0.12500000000E+03  0.12500000000E+03 0.  0.
        -11    1    3    3    0    0 -0.27526832962E+02 -0.43402440126E+01 -0.47645675103E+02  0.55196690184E+02  0.51100000000E-03 0. -1.
         23    2    1    0    0    0  0.75615483321E+01 -0.76455600863E+01 -0.26750801538E+02  0.96168819221E+02  0.91745325795E+02 0.  0.
         11    1    3    3    0    0  0.35088381294E+02 -0.33053160737E+01  0.20894873565E+02  0.40972129036E+02  0.51100000000E-03 0.  1.
         22    1    1    0    0    0 -0.75615483321E+01  0.76455600863E+01  0.26750801538E+02  0.28831180779E+02  0.00000000000E+00 0.  1.
</event>
<event>
 5    1  0.3190780E-003  0.9118800E+02  0.7818608E-02  0.1130116E+00
         25   -1    0    0    0    0  0.00000000000E+00  0.00000000000E+00  0.99999998245E-14  0.12500000000E+03  0.12500000000E+03 0.  0.
        -11    1    3    3    0    0  0.15697256064E+02 -0.16489972485E+02 -0.32889712159E+02  0.40000702577E+02  0.51100000000E-03 0. -1.
         23    2    1    0    0    0 -0.23892701803E+02 -0.22136779195E+02  0.99025322919E+00  0.92413518232E+02  0.86477624609E+02 0.  0.
         11    1    3    3    0    0 -0.39589957866E+02 -0.56468067098E+01  0.33879965388E+02  0.52412815655E+02  0.51100000000E-03 0.  1.
         22    1    1    0    0    0  0.23892701803E+02  0.22136779195E+02 -0.99025322919E+00  0.32586481768E+02  0.00000000000E+00 0.  1.
</event>
<event>
 5    1  0.3190780E-003  0.9118800E+02  0.7818608E-02  0.1130116E+00
         25   -1    0    0    0    0  0.00000000000E+00  0.00000000000E+00  0.99999998245E-14  0.12500000000E+03  0.12500000000E+03 0.  0.
        -11    1    3    3    0    0  0.18956683536E+02  0.57176922542E+02 -0.16166085818E+02  0.62369052045E+02  0.51100000000E-03 0.  1.
         23    2    1    0    0    0  0.10565124857E+02  0.25644863074E+02 -0.95765139379E+01  0.95657360641E+02  0.91045813525E+02 0.  0.
         11    1    3    3    0    0 -0.83915586799E+01 -0.31532059468E+02  0.65895718801E+01  0.33288308596E+02  0.51100000000E-03 0. -1.
         22    1    1    0    0    0 -0.10565124857E+02 -0.25644863074E+02  0.95765139379E+01  0.29342639359E+02  0.00000000000E+00 0.  1.
</event>
<event>
 5    1  0.3190780E-003  0.9118800E+02  0.7818608E-02  0.1130116E+00
         25   -1    0    0    0    0  0.00000000000E+00  0.00000000000E+00  0.99999998245E-14  0.12500000000E+03  0.12500000000E+03 0.  0.
        -11    1    3    3    0    0  0.27549258983E+02  0.14088736832E+02 -0.20354093195E+02  0.37037052880E+02  0.51100000000E-03 0.  1.
         23    2    1    0    0    0 -0.27303511445E+02 -0.65662051363E+00  0.87464297497E+00  0.97674592627E+02  0.93774453647E+02 0.  0.
         11    1    3    3    0    0 -0.54852770428E+02 -0.14745357345E+02  0.21228736170E+02  0.60637539747E+02  0.51100000000E-03 0. -1.
         22    1    1    0    0    0  0.27303511445E+02  0.65662051363E+00 -0.87464297497E+00  0.27325407373E+02  0.00000000000E+00 0. -1.
</event>
<event>
 5    1  0.3190780E-003  0.9118800E+02  0.7818608E-02  0.1130116E+00
         25   -1    0    0    0    0  0.00000000000E+00  0.00000000000E+00  0.99999998245E-14  0.12500000000E+03  0.12500000000E+03 0.  0.
        -11    1    3    3    0    0 -0.19683621135E+02  0.29167680482E+02  0.16672505857E+02  0.38938040237E+02  0.51100000000E-03 0. -1.
         23    2    1    0    0    0  0.28162974103E+02 -0.39872819957E+00  0.64704844453E+01  0.96100531779E+02  0.91652239169E+02 0.  0.
         11    1    3    3    0    0  0.47846595238E+02 -0.29566408682E+02 -0.10202021411E+02  0.57162491542E+02  0.51100000000E-03 0.  1.
         22    1    1    0    0    0 -0.28162974103E+02  0.39872819957E+00 -0.64704844453E+01  0.28899468221E+02  0.00000000000E+00 0.  1.
</event>
<event>
 5    1  0.3190780E-003  0.9118800E+02  0.7818608E-02  0.1130116E+00
         25   -1    0    0    0    0  0.00000000000E+00  0.00000000000E+00  0.99999998245E-14  0.12500000000E+03  0.12500000000E+03 0.  0.
        -11    1    3    3    0    0 -0.89492638749E+01  0.64545709132E+01  0.33112814096E+02  0.34902854714E+02  0.51100000000E-03 0. -1.
         23    2    1    0    0    0  0.10883118207E+02 -0.11336457320E+02 -0.23071909683E+02  0.97084582344E+02  0.92984652422E+02 0.  0.
         11    1    3    3    0    0  0.19832382082E+02 -0.17791028233E+02 -0.56184723779E+02  0.62181727630E+02  0.51100000000E-03 0.  1.
         22    1    1    0    0    0 -0.10883118207E+02  0.11336457320E+02  0.23071909683E+02  0.27915417656E+02  0.00000000000E+00 0.  1.
</event>
<event>
 5    1  0.3190780E-003  0.9118800E+02  0.7818608E-02  0.1130116E+00
         25   -1    0    0    0    0  0.00000000000E+00  0.00000000000E+00  0.99999998245E-14  0.12500000000E+03  0.12500000000E+03 0.  0.
        -11    1    3    3    0    0  0.13300427334E+02 -0.16684065627E+02 -0.36628926770E+02  0.42390301836E+02  0.51100000000E-03 0.  1.
         23    2    1    0    0    0  0.21180554580E+02 -0.16382854313E+02  0.14789602677E+02  0.94410031790E+02  0.89316896203E+02 0.  0.
         11    1    3    3    0    0  0.78801272464E+01  0.30121131389E+00  0.51418529448E+02  0.52019729954E+02  0.51100000000E-03 0. -1.
         22    1    1    0    0    0 -0.21180554580E+02  0.16382854313E+02 -0.14789602677E+02  0.30589968210E+02  0.00000000000E+00 0. -1.
</event>
<event>
 5    1  0.3190780E-003  0.9118800E+02  0.7818608E-02  0.1130116E+00
         25   -1    0    0    0    0  0.00000000000E+00  0.00000000000E+00  0.99999998245E-14  0.12500000000E+03  0.12500000000E+03 0.  0.
        -11    1    3    3    0    0 -0.17552709664E+02 -0.47121115769E+02  0.30595484016E+02  0.58860689856E+02  0.51100000000E-03 0.  1.
         23    2    1    0    0    0 -0.12371512160E+02 -0.30318782787E+02  0.23009246017E+01  0.92173529632E+02  0.86130031974E+02 0.  0.
         11    1    3    3    0    0  0.51811975037E+01  0.16802332982E+02 -0.28294559414E+02  0.33312839776E+02  0.51100000000E-03 0. -1.
         22    1    1    0    0    0  0.12371512160E+02  0.30318782787E+02 -0.23009246017E+01  0.32826470368E+02  0.00000000000E+00 0.  1.
</event>
<event>
 5    1  0.3190780E-003  0.9118800E+02  0.7818608E-02  0.1130116E+00
         25   -1    0    0    0    0  0.00000000000E+00  0.00000000000E+00  0.99999998245E-14  0.12500000000E+03  0.12500000000E+03 0.  0.
        -11    1    3    3    0    0 -0.57171107238E+02  0.17573140528E+02  0.51759459204E+01  0.60034499975E+02  0.51100000000E-03 0.  1.
         23    2    1    0    0    0 -0.24292101645E+02  0.13964603675E+02 -0.83390194325E+01  0.95765506619E+02  0.91194170070E+02 0.  0.
         11    1    3    3    0    0  0.32879005593E+02 -0.36085368529E+01 -0.13514965353E+02  0.35731006644E+02  0.51100000000E-03 0. -1.
         22    1    1    0    0    0  0.24292101645E+02 -0.13964603675E+02  0.83390194325E+01  0.29234493381E+02  0.00000000000E+00 0.  1.
</event>
<event>
 5    1  0.3190780E-003  0.9118800E+02  0.7818608E-02  0.1130116E+00
         25   -1    0    0    0    0  0.00000000000E+00  0.00000000000E+00  0.99999998245E-14  0.12500000000E+03  0.12500000000E+03 0.  0.
        -11    1    3    3    0    0  0.10053317480E+02  0.45958025476E+02 -0.67819012227E+01  0.47531079121E+02  0.51100000000E-03 0.  1.
         23    2    1    0    0    0  0.23731116659E+02  0.37022537414E+00 -0.16481195871E+02  0.96104796556E+02  0.91658055506E+02 0.  0.
         11    1    3    3    0    0  0.13677799179E+02 -0.45587800102E+02 -0.96992946485E+01  0.48573717435E+02  0.51100000000E-03 0. -1.
         22    1    1    0    0    0 -0.23731116659E+02 -0.37022537414E+00  0.16481195871E+02  0.28895203444E+02  0.00000000000E+00 0. -1.
</event>
<event>
 5    1  0.3190780E-003  0.9118800E+02  0.7818608E-02  0.1130116E+00
         25   -1    0    0    0    0  0.00000000000E+00  0.00000000000E+00  0.99999998245E-14  0.12500000000E+03  0.12500000000E+03 0.  0.
        -11    1    3    3    0    0 -0.21103836997E+02  0.20498129916E+02 -0.24515406595E+02  0.38295566673E+02  0.51100000000E-03 0.  1.
         23    2    1    0    0    0  0.10440989293E+02  0.13933977312E+02  0.23274874635E+02  0.95933012361E+02  0.91423482160E+02 0.  0.
         11    1    3    3    0    0  0.31544826290E+02 -0.65641526038E+01  0.47790281230E+02  0.57637445688E+02  0.51100000000E-03 0. -1.
         22    1    1    0    0    0 -0.10440989293E+02 -0.13933977312E+02 -0.23274874635E+02  0.29066987639E+02  0.00000000000E+00 0. -1.
</event>
<event>
 5    1  0.3190780E-003  0.9118800E+02  0.7818608E-02  0.1130116E+00
         25   -1    0    0    0    0  0.00000000000E+00  0.00000000000E+00  0.99999998245E-14  0.12500000000E+03  0.12500000000E+03 0.  0.
        -11    1    3    3    0    0  0.32934839641E+01  0.38270600258E+02  0.66444533174E+01  0.38982491466E+02  0.51100000000E-03 0. -1.
         23    2    1    0    0    0  0.16120048220E+02 -0.66618775455E+01 -0.24344566948E+02  0.95051802943E+02  0.90210591040E+02 0.  0.
         11    1    3    3    0    0  0.12826564256E+02 -0.44932477804E+02 -0.30989020266E+02  0.56069311477E+02  0.51100000000E-03 0.  1.
         22    1    1    0    0    0 -0.16120048220E+02  0.66618775455E+01  0.24344566948E+02  0.29948197057E+02  0.00000000000E+00 0.  1.
</event>
<event>
 5    1  0.3190780E-003  0.9118800E+02  0.7818608E-02  0.1130116E+00
         25   -1    0    0    0    0  0.00000000000E+00  0.00000000000E+00  0.99999998245E-14  0.12500000000E+03  0.12500000000E+03 0.  0.
        -11    1    3    3    0    0  0.15414484931E+02  0.11527303519E+02 -0.34119850544E+01  0.19548061653E+02  0.51100000000E-03 0. -1.
         23    2    1    0    0    0 -0.21786756560E+02 -0.31544276451E+02 -0.23653480069E+02  0.79953454543E+02  0.66055761564E+02 0.  0.
         11    1    3    3    0    0 -0.37201241491E+02 -0.43071579970E+02 -0.20241495014E+02  0.60405392891E+02  0.51100000000E-03 0.  1.
         22    1    1    0    0    0  0.21786756560E+02  0.31544276451E+02  0.23653480069E+02  0.45046545457E+02  0.00000000000E+00 0.  1.
</event>
<event>
 5    1  0.3190780E-003  0.9118800E+02  0.7818608E-02  0.1130116E+00
         25   -1    0    0    0    0  0.00000000000E+00  0.00000000000E+00  0.99999998245E-14  0.12500000000E+03  0.12500000000E+03 0.  0.
        -11    1    3    3    0    0  0.25359359883E+02 -0.92173228178E+01  0.19226817171E+02  0.33131958475E+02  0.51100000000E-03 0.  1.
         23    2    1    0    0    0 -0.10357915425E+02  0.88169457836E+01 -0.27300998164E+02  0.94498041938E+02  0.89439982583E+02 0.  0.
         11    1    3    3    0    0 -0.35717275308E+02  0.18034268601E+02 -0.46527815335E+02  0.61366083462E+02  0.51100000000E-03 0. -1.
         22    1    1    0    0    0  0.10357915425E+02 -0.88169457836E+01  0.27300998164E+02  0.30501958062E+02  0.00000000000E+00 0. -1.
</event>
<event>
 5    1  0.3190780E-003  0.9118800E+02  0.7818608E-02  0.1130116E+00
         25   -1    0    0    0    0  0.00000000000E+00  0.00000000000E+00  0.99999998245E-14  0.12500000000E+03  0.12500000000E+03 0.  0.
        -11    1    3    3    0    0  0.24659619077E+02 -0.23259599835E+02 -0.36453253745E+02  0.49778966506E+02  0.51100000000E-03 0. -1.
         23    2    1    0    0    0 -0.17051855915E+02 -0.74535180418E+01 -0.20892636917E+02  0.97021025775E+02  0.92899173536E+02 0.  0.
         11    1    3    3    0    0 -0.41711474992E+02  0.15806081793E+02  0.15560616827E+02  0.47242059269E+02  0.51100000000E-03 0.  1.
         22    1    1    0    0    0  0.17051855915E+02  0.74535180418E+01  0.20892636917E+02  0.27978974225E+02  0.00000000000E+00 0. -1.
</event>
<event>
 5    1  0.3190780E-003  0.9118800E+02  0.7818608E-02  0.1130116E+00
         25   -1    0    0    0    0  0.00000000000E+00  0.00000000000E+00  0.99999998245E-14  0.12500000000E+03  0.12500000000E+03 0.  0.
        -11    1    3    3    0    0 -0.52350618274E+01  0.20246120407E+02 -0.38614581077E+02  0.43913518828E+02  0.51100000000E-03 0.  1.
         23    2    1    0    0    0 -0.27303999482E+02 -0.12618769360E+02 -0.82345490446E+01  0.93814273684E+02  0.88479197673E+02 0.  0.
         11    1    3    3    0    0 -0.22068937655E+02 -0.32864889767E+02  0.30380032032E+02  0.49900754856E+02  0.51100000000E-03 0. -1.
         22    1    1    0    0    0  0.27303999482E+02  0.12618769360E+02  0.82345490446E+01  0.31185726316E+02  0.00000000000E+00 0. -1.
</event>
<event>
 5    1  0.3190780E-003  0.9118800E+02  0.7818608E-02  0.1130116E+00
         25   -1    0    0    0    0  0.00000000000E+00  0.00000000000E+00  0.99999998245E-14  0.12500000000E+03  0.12500000000E+03 0.  0.
        -11    1    3    3    0    0  0.11418772531E+02  0.37267434986E+02 -0.79307898042E+01  0.39776217816E+02  0.51100000000E-03 0.  1.
         23    2    1    0    0    0  0.13118416363E+02 -0.99240678617E+01 -0.29136250324E+02  0.91541054205E+02  0.85207180162E+02 0.  0.
         11    1    3    3    0    0  0.16996438314E+01 -0.47191502848E+02 -0.21205460520E+02  0.51764836389E+02  0.51100000000E-03 0. -1.
         22    1    1    0    0    0 -0.13118416363E+02  0.99240678617E+01  0.29136250324E+02  0.33458945795E+02  0.00000000000E+00 0. -1.
</event>
<event>
 5    1  0.3190780E-003  0.9118800E+02  0.7818608E-02  0.1130116E+00
         25   -1    0    0    0    0  0.00000000000E+00  0.00000000000E+00  0.99999998245E-14  0.12500000000E+03  0.12500000000E+03 0.  0.
        -11    1    3    3    0    0 -0.42617677463E+02 -0.26159390837E+02  0.92036378111E+01  0.50845718704E+02  0.51100000000E-03 0.  1.
         23    2    1    0    0    0 -0.65214025987E+01 -0.21937715866E+02 -0.17704140181E+02  0.96065096357E+02  0.91603897785E+02 0.  0.
         11    1    3    3    0    0  0.36096274864E+02  0.42216749712E+01 -0.26907777992E+02  0.45219377653E+02  0.51100000000E-03 0. -1.
         22    1    1    0    0    0  0.65214025987E+01  0.21937715866E+02  0.17704140181E+02  0.28934903643E+02  0.00000000000E+00 0. -1.
</event>
<event>
 5    1  0.3190780E-003  0.9118800E+02  0.7818608E-02  0.1130116E+00
         25   -1    0    0    0    0  0.00000000000E+00  0.00000000000E+00  0.99999998245E-14  0.12500000000E+03  0.12500000000E+03 0.  0.
        -11    1    3    3    0    0 -0.25155486986E+02 -0.16180557169E+02 -0.30000160483E+02  0.42362938815E+02  0.51100000000E-03 0. -1.
         23    2    1    0    0    0 -0.48097170630E+01  0.27867963939E+02 -0.13930688893E+02  0.93475075172E+02  0.87998686314E+02 0.  0.
         11    1    3    3    0    0  0.20345769923E+02  0.44048521108E+02  0.16069471589E+02  0.51112136357E+02  0.51100000000E-03 0.  1.
         22    1    1    0    0    0  0.48097170630E+01 -0.27867963939E+02  0.13930688893E+02  0.31524924828E+02  0.00000000000E+00 0.  1.
</event>
<event>
 5    1  0.3190780E-003  0.9118800E+02  0.7818608E-02  0.1130116E+00
         25   -1    0    0    0    0  0.00000000000E+00  0.00000000000E+00  0.99999998245E-14  0.12500000000E+03  0.12500000000E+03 0.  0.
        -11    1    3    3    0    0 -0.23637047607E+00 -0.28021880486E+02 -0.12956538062E+02  0.30873184737E+02  0.51100000000E-03 0.  1.
         23    2    1    0    0    0  0.94849599734E+01  0.57753685871E+01  0.33824851437E+02  0.89398877507E+02  0.82004386327E+02 0.  0.
         11    1    3    3    0    0  0.97213304495E+01  0.33797249073E+02  0.46781389499E+02  0.58525692771E+02  0.51100000000E-03 0. -1.
         22    1    1    0    0    0 -0.94849599734E+01 -0.57753685871E+01 -0.33824851437E+02  0.35601122493E+02  0.00000000000E+00 0. -1.
</event>
<event>
 5    1  0.3190780E-003  0.9118800E+02  0.7818608E-02  0.1130116E+00
         25   -1    0    0    0    0  0.00000000000E+00  0.00000000000E+00  0.99999998245E-14  0.12500000000E+03  0.12500000000E+03 0.  0.
        -11    1    3    3    0    0  0.29555556592E+02 -0.49849371339E+02 -0.18493863090E+02  0.60831847914E+02  0.51100000000E-03 0.  1.
         23    2    1    0    0    0  0.12992788448E+02 -0.31529010097E+02 -0.13957560206E+01  0.90870259828E+02  0.84217367312E+02 0.  0.
         11    1    3    3    0    0 -0.16562768144E+02  0.18320361243E+02  0.17098107070E+02  0.30038411913E+02  0.51100000000E-03 0. -1.
         22    1    1    0    0    0 -0.12992788448E+02  0.31529010097E+02  0.13957560206E+01  0.34129740172E+02  0.00000000000E+00 0.  1.
</event>
<event>
 5    1  0.3190780E-003  0.9118800E+02  0.7818608E-02  0.1130116E+00
         25   -1    0    0    0    0  0.00000000000E+00  0.00000000000E+00  0.99999998245E-14  0.12500000000E+03  0.12500000000E+03 0.  0.
        -11    1    3    3    0    0 -0.15477597012E+02  0.16609511348E+02 -0.17040932027E+02  0.28387061156E+02  0.51100000000E-03 0.  1.
         23    2    1    0    0    0 -0.81070410397E+01 -0.25139016399E+02  0.25386066249E+02  0.88364680709E+02  0.80412500131E+02 0.  0.
         11    1    3    3    0    0  0.73705559725E+01 -0.41748527746E+02  0.42426998276E+02  0.59977619553E+02  0.51100000000E-03 0. -1.
         22    1    1    0    0    0  0.81070410397E+01  0.25139016399E+02 -0.25386066249E+02  0.36635319291E+02  0.00000000000E+00 0. -1.
</event>
<event>
 5    1  0.3190780E-003  0.9118800E+02  0.7818608E-02  0.1130116E+00
         25   -1    0    0    0    0  0.00000000000E+00  0.00000000000E+00  0.99999998245E-14  0.12500000000E+03  0.12500000000E+03 0.  0.
        -11    1    3    3    0    0 -0.47970246361E+01  0.24284870109E+02  0.30918085459E+02  0.39606746525E+02  0.51100000000E-03 0.  1.
         23    2    1    0    0    0  0.45931658694E+01 -0.24584070598E+02  0.24859535248E+02  0.89737127278E+02  0.82518372618E+02 0.  0.
         11    1    3    3    0    0  0.93901905055E+01 -0.48868940707E+02 -0.60585502108E+01  0.50130380753E+02  0.51100000000E-03 0. -1.
         22    1    1    0    0    0 -0.45931658694E+01  0.24584070598E+02 -0.24859535248E+02  0.35262872722E+02  0.00000000000E+00 0.  1.
</event>
<event>
 4    1  0.3190780E-003  0.9118800E+02  0.7818608E-02  0.1130116E+00
         25   -1    0    0    0    0  0.00000000000E+00  0.00000000000E+00  0.99999998245E-14  0.12500000000E+03  0.12500000000E+03 0.  0.
        -11    1    1    0    0    0  0.67451771898E+00  0.20260019044E+02 -0.19148825459E+02  0.27885495558E+02  0.51100000000E-03 0.  1.
         11    1    1    0    0    0  0.18904746687E+02  0.28444778410E+02  0.27642820299E+02  0.43938825433E+02  0.51100000000E-03 0. -1.
         22    1    1    0    0    0 -0.19579264406E+02 -0.48704797454E+02 -0.84939948404E+01  0.53175679009E+02  0.00000000000E+00 0.  1.
</event>
<event>
 5    1  0.3190780E-003  0.9118800E+02  0.7818608E-02  0.1130116E+00
         25   -1    0    0    0    0  0.00000000000E+00  0.00000000000E+00  0.99999998245E-14  0.12500000000E+03  0.12500000000E+03 0.  0.
        -11    1    3    3    0    0 -0.18580936303E+02 -0.40366056896E+02 -0.41390275090E+02  0.60727461791E+02  0.51100000000E-03 0.  1.
         23    2    1    0    0    0 -0.27435122527E+01 -0.26537232484E+02 -0.30743822630E+02  0.84294543397E+02  0.73814875528E+02 0.  0.
         11    1    3    3    0    0  0.15837424050E+02  0.13828824413E+02  0.10646452460E+02  0.23567081606E+02  0.51100000000E-03 0. -1.
         22    1    1    0    0    0  0.27435122527E+01  0.26537232484E+02  0.30743822630E+02  0.40705456603E+02  0.00000000000E+00 0.  1.
</event>
<event>
 5    1  0.3190780E-003  0.9118800E+02  0.7818608E-02  0.1130116E+00
         25   -1    0    0    0    0  0.00000000000E+00  0.00000000000E+00  0.99999998245E-14  0.12500000000E+03  0.12500000000E+03 0.  0.
        -11    1    3    3    0    0 -0.18429802387E+02  0.10609291730E+02  0.38632029908E+02  0.44098168013E+02  0.51100000000E-03 0.  1.
         23    2    1    0    0    0 -0.17526142982E+02  0.14136373249E+02 -0.15058474859E+02  0.97911987863E+02  0.94090365956E+02 0.  0.
         11    1    3    3    0    0  0.90365940502E+00  0.35270815195E+01 -0.53690504767E+02  0.53813819849E+02  0.51100000000E-03 0. -1.
         22    1    1    0    0    0  0.17526142982E+02 -0.14136373249E+02  0.15058474859E+02  0.27088012137E+02  0.00000000000E+00 0. -1.
</event>
<event>
 5    1  0.3190780E-003  0.9118800E+02  0.7818608E-02  0.1130116E+00
         25   -1    0    0    0    0  0.00000000000E+00  0.00000000000E+00  0.99999998245E-14  0.12500000000E+03  0.12500000000E+03 0.  0.
        -11    1    3    3    0    0  0.19477981131E+02  0.49438705216E+02  0.21263514610E+02  0.57233856905E+02  0.51100000000E-03 0. -1.
         23    2    1    0    0    0  0.14630035405E+02  0.24117450297E+02 -0.74516468203E+01  0.95824387151E+02  0.91274842030E+02 0.  0.
         11    1    3    3    0    0 -0.48479457263E+01 -0.25321254918E+02 -0.28715161431E+02  0.38590530246E+02  0.51100000000E-03 0.  1.
         22    1    1    0    0    0 -0.14630035405E+02 -0.24117450297E+02  0.74516468203E+01  0.29175612849E+02  0.00000000000E+00 0. -1.
</event>
<event>
 5    1  0.3190780E-003  0.9118800E+02  0.7818608E-02  0.1130116E+00
         25   -1    0    0    0    0  0.00000000000E+00  0.00000000000E+00  0.99999998245E-14  0.12500000000E+03  0.12500000000E+03 0.  0.
        -11    1    3    3    0    0  0.10548769890E+02 -0.11923644936E+00 -0.34719642492E+02  0.36286972023E+02  0.51100000000E-03 0.  1.
         23    2    1    0    0    0  0.27872627303E+02 -0.12173078232E+02  0.15574239335E+02  0.90829484680E+02  0.84156824856E+02 0.  0.
         11    1    3    3    0    0  0.17323857413E+02 -0.12053841782E+02  0.50293881827E+02  0.54542512657E+02  0.51100000000E-03 0. -1.
         22    1    1    0    0    0 -0.27872627303E+02  0.12173078232E+02 -0.15574239335E+02  0.34170515320E+02  0.00000000000E+00 0. -1.
</event>
<event>
 5    1  0.3190780E-003  0.9118800E+02  0.7818608E-02  0.1130116E+00
         25   -1    0    0    0    0  0.00000000000E+00  0.00000000000E+00  0.99999998245E-14  0.12500000000E+03  0.12500000000E+03 0.  0.
        -11    1    3    3    0    0 -0.30700561004E+02 -0.38733756998E+02  0.15760366443E+02  0.51876946015E+02  0.51100000000E-03 0.  1.
         23    2    1    0    0    0 -0.60784591699E+01 -0.18977511396E+02 -0.18035347565E+02  0.98123107202E+02  0.94370423336E+02 0.  0.
         11    1    3    3    0    0  0.24622101834E+02  0.19756245602E+02 -0.33795714008E+02  0.46246161187E+02  0.51100000000E-03 0. -1.
         22    1    1    0    0    0  0.60784591699E+01  0.18977511396E+02  0.18035347565E+02  0.26876892798E+02  0.00000000000E+00 0. -1.
</event>
<event>
 5    1  0.3190780E-003  0.9118800E+02  0.7818608E-02  0.1130116E+00
         25   -1    0    0    0    0  0.00000000000E+00  0.00000000000E+00  0.99999998245E-14  0.12500000000E+03  0.12500000000E+03 0.  0.
        -11    1    3    3    0    0 -0.19140345193E+02  0.47302520147E+01  0.27948101638E+02  0.34202697024E+02  0.51100000000E-03 0.  1.
         23    2    1    0    0    0  0.17842248450E+02 -0.54048308403E+01 -0.21348360376E+02  0.96657266948E+02  0.92408423517E+02 0.  0.
         11    1    3    3    0    0  0.36982593643E+02 -0.10135082855E+02 -0.49296462014E+02  0.62454569924E+02  0.51100000000E-03 0. -1.
         22    1    1    0    0    0 -0.17842248450E+02  0.54048308403E+01  0.21348360376E+02  0.28342733052E+02  0.00000000000E+00 0. -1.
</event>
<event>
 5    1  0.3190780E-003  0.9118800E+02  0.7818608E-02  0.1130116E+00
         25   -1    0    0    0    0  0.00000000000E+00  0.00000000000E+00  0.99999998245E-14  0.12500000000E+03  0.12500000000E+03 0.  0.
        -11    1    3    3    0    0 -0.59546851077E+01  0.12760220730E+02  0.53197644045E+02  0.55029726876E+02  0.51100000000E-03 0.  1.
         23    2    1    0    0    0  0.13420201902E+02 -0.41325645924E+01  0.37030967809E+02  0.85396054665E+02  0.75657211595E+02 0.  0.
         11    1    3    3    0    0  0.19374887010E+02 -0.16892785323E+02 -0.16166676236E+02  0.30366327789E+02  0.51100000000E-03 0. -1.
         22    1    1    0    0    0 -0.13420201902E+02  0.41325645924E+01 -0.37030967809E+02  0.39603945335E+02  0.00000000000E+00 0.  1.
</event>
<event>
 5    1  0.3190780E-003  0.9118800E+02  0.7818608E-02  0.1130116E+00
         25   -1    0    0    0    0  0.00000000000E+00  0.00000000000E+00  0.99999998245E-14  0.12500000000E+03  0.12500000000E+03 0.  0.
        -11    1    3    3    0    0 -0.28927521799E+02 -0.46703591075E+01  0.44001548371E+02  0.52865395401E+02  0.51100000000E-03 0. -1.
         23    2    1    0    0    0  0.65300690967E+01 -0.17359462943E+02  0.20948884524E+02  0.97020569718E+02  0.92898559890E+02 0.  0.
         11    1    3    3    0    0  0.35457590896E+02 -0.12689103835E+02 -0.23052663847E+02  0.44155174317E+02  0.51100000000E-03 0.  1.
         22    1    1    0    0    0 -0.65300690967E+01  0.17359462943E+02 -0.20948884524E+02  0.27979430282E+02  0.00000000000E+00 0.  1.
</event>
<event>
 5    1  0.3190780E-003  0.9118800E+02  0.7818608E-02  0.1130116E+00
         25   -1    0    0    0    0  0.00000000000E+00  0.00000000000E+00  0.99999998245E-14  0.12500000000E+03  0.12500000000E+03 0.  0.
        -11    1    3    3    0    0 -0.34049053865E+02 -0.59949702043E+01 -0.40986008511E+02  0.53620244598E+02  0.51100000000E-03 0. -1.
         23    2    1    0    0    0 -0.23187283518E+02 -0.19066555414E+02 -0.35026294871E+01  0.94776630472E+02  0.89828490013E+02 0.  0.
         11    1    3    3    0    0  0.10861770347E+02 -0.13071585210E+02  0.37483379023E+02  0.41156385874E+02  0.51100000000E-03 0.  1.
         22    1    1    0    0    0  0.23187283518E+02  0.19066555414E+02  0.35026294871E+01  0.30223369528E+02  0.00000000000E+00 0. -1.
</event>
<event>
 5    1  0.3190780E-003  0.9118800E+02  0.7818608E-02  0.1130116E+00
         25   -1    0    0    0    0  0.00000000000E+00  0.00000000000E+00  0.99999998245E-14  0.12500000000E+03  0.12500000000E+03 0.  0.
        -11    1    3    3    0    0  0.31723607462E+02  0.39363398811E+01  0.35108898622E+02  0.47481752335E+02  0.51100000000E-03 0. -1.
         23    2    1    0    0    0 -0.12274378323E+02 -0.96117506787E+01  0.26408248602E+02  0.94333377941E+02  0.89209553778E+02 0.  0.
         11    1    3    3    0    0 -0.43997985785E+02 -0.13548090560E+02 -0.87006500201E+01  0.46851625606E+02  0.51100000000E-03 0.  1.
         22    1    1    0    0    0  0.12274378323E+02  0.96117506787E+01 -0.26408248602E+02  0.30666622059E+02  0.00000000000E+00 0.  1.
</event>
<event>
 5    1  0.3190780E-003  0.9118800E+02  0.7818608E-02  0.1130116E+00
         25   -1    0    0    0    0  0.00000000000E+00  0.00000000000E+00  0.99999998245E-14  0.12500000000E+03  0.12500000000E+03 0.  0.
        -11    1    3    3    0    0 -0.10968956877E+02 -0.28237891655E+01  0.35298275815E+02  0.37071013960E+02  0.51100000000E-03 0.  1.
         23    2    1    0    0    0 -0.11414499462E+02  0.13739974849E+02 -0.21967944021E+02  0.96686252961E+02  0.92447624309E+02 0.  0.
         11    1    3    3    0    0 -0.44554258565E+00  0.16563764015E+02 -0.57266219837E+02  0.59615239001E+02  0.51100000000E-03 0. -1.
         22    1    1    0    0    0  0.11414499462E+02 -0.13739974849E+02  0.21967944021E+02  0.28313747039E+02  0.00000000000E+00 0. -1.
</event>
<event>
 5    1  0.3190780E-003  0.9118800E+02  0.7818608E-02  0.1130116E+00
         25   -1    0    0    0    0  0.00000000000E+00  0.00000000000E+00  0.99999998245E-14  0.12500000000E+03  0.12500000000E+03 0.  0.
        -11    1    3    3    0    0 -0.12563443556E+02 -0.42230573437E+01 -0.30301229372E+02  0.33073234330E+02  0.51100000000E-03 0.  1.
         23    2    1    0    0    0  0.21453909734E+02  0.50171330266E+01  0.20499333563E+02  0.94905739032E+02  0.90007970525E+02 0.  0.
         11    1    3    3    0    0  0.34017353290E+02  0.92401903704E+01  0.50800562935E+02  0.61832504702E+02  0.51100000000E-03 0. -1.
         22    1    1    0    0    0 -0.21453909734E+02 -0.50171330266E+01 -0.20499333563E+02  0.30094260968E+02  0.00000000000E+00 0. -1.
</event>
<event>
 5    1  0.3190780E-003  0.9118800E+02  0.7818608E-02  0.1130116E+00
         25   -1    0    0    0    0  0.00000000000E+00  0.00000000000E+00  0.99999998245E-14  0.12500000000E+03  0.12500000000E+03 0.  0.
        -11    1    3    3    0    0 -0.35047753538E+02  0.79686783488E+01 -0.26882920327E+01  0.36042638319E+02  0.51100000000E-03 0.  1.
         23    2    1    0    0    0  0.23098735599E+02  0.41686316690E+01 -0.16967861465E+02  0.96037310226E+02  0.91565973792E+02 0.  0.
         11    1    3    3    0    0  0.58146489137E+02 -0.38000466798E+01 -0.14279569432E+02  0.59994671907E+02  0.51100000000E-03 0. -1.
         22    1    1    0    0    0 -0.23098735599E+02 -0.41686316690E+01  0.16967861465E+02  0.28962689774E+02  0.00000000000E+00 0. -1.
</event>
<event>
 5    1  0.3190780E-003  0.9118800E+02  0.7818608E-02  0.1130116E+00
         25   -1    0    0    0    0  0.00000000000E+00  0.00000000000E+00  0.99999998245E-14  0.12500000000E+03  0.12500000000E+03 0.  0.
        -11    1    3    3    0    0 -0.27083687622E+01 -0.23057371274E+02 -0.27186365513E+02  0.35750190230E+02  0.51100000000E-03 0. -1.
         23    2    1    0    0    0 -0.19597638413E+00 -0.11086016504E+02  0.29366095002E+02  0.93610420449E+02  0.88190731443E+02 0.  0.
         11    1    3    3    0    0  0.25123923781E+01  0.11971354769E+02  0.56552460515E+02  0.57860230220E+02  0.51100000000E-03 0.  1.
         22    1    1    0    0    0  0.19597638413E+00  0.11086016504E+02 -0.29366095002E+02  0.31389579551E+02  0.00000000000E+00 0.  1.
</event>
<event>
 5    1  0.3190780E-003  0.9118800E+02  0.7818608E-02  0.1130116E+00
         25   -1    0    0    0    0  0.00000000000E+00  0.00000000000E+00  0.99999998245E-14  0.12500000000E+03  0.12500000000E+03 0.  0.
        -11    1    3    3    0    0  0.16516064103E+02 -0.24770152393E+02  0.51270737358E+02  0.59287682806E+02  0.51100000000E-03 0.  1.
         23    2    1    0    0    0 -0.58625129925E+01 -0.15881167671E+02  0.23378835015E+02  0.96135653968E+02  0.91700128091E+02 0.  0.
         11    1    3    3    0    0 -0.22378577096E+02  0.88889847216E+01 -0.27891902342E+02  0.36847971162E+02  0.51100000000E-03 0. -1.
         22    1    1    0    0    0  0.58625129925E+01  0.15881167671E+02 -0.23378835015E+02  0.28864346032E+02  0.00000000000E+00 0.  1.
</event>
<event>
 5    1  0.3190780E-003  0.9118800E+02  0.7818608E-02  0.1130116E+00
         25   -1    0    0    0    0  0.00000000000E+00  0.00000000000E+00  0.99999998245E-14  0.12500000000E+03  0.12500000000E+03 0.  0.
        -11    1    3    3    0    0 -0.28510939713E+02 -0.10648749234E+02 -0.39929781675E+02  0.50206145126E+02  0.51100000000E-03 0.  1.
         23    2    1    0    0    0  0.13807161810E+02 -0.74011958760E+01 -0.25571100532E+02  0.95011725623E+02  0.90155040934E+02 0.  0.
         11    1    3    3    0    0  0.42318101523E+02  0.32475533579E+01  0.14358681142E+02  0.44805580498E+02  0.51100000000E-03 0. -1.
         22    1    1    0    0    0 -0.13807161810E+02  0.74011958760E+01  0.25571100532E+02  0.29988274377E+02  0.00000000000E+00 0.  1.
</event>
<event>
 5    1  0.3190780E-003  0.9118800E+02  0.7818608E-02  0.1130116E+00
         25   -1    0    0    0    0  0.00000000000E+00  0.00000000000E+00  0.99999998245E-14  0.12500000000E+03  0.12500000000E+03 0.  0.
        -11    1    3    3    0    0 -0.23331089350E+02 -0.26362617017E+02 -0.23937724541E+01  0.35285371658E+02  0.51100000000E-03 0.  1.
         23    2    1    0    0    0  0.21938498147E+01  0.27382216603E+02 -0.11013104830E+02  0.95404607773E+02  0.90698136382E+02 0.  0.
         11    1    3    3    0    0  0.25524939164E+02  0.53744833620E+02 -0.86193323764E+01  0.60119236115E+02  0.51100000000E-03 0. -1.
         22    1    1    0    0    0 -0.21938498147E+01 -0.27382216603E+02  0.11013104830E+02  0.29595392227E+02  0.00000000000E+00 0. -1.
</event>
<event>
 5    1  0.3190780E-003  0.9118800E+02  0.7818608E-02  0.1130116E+00
         25   -1    0    0    0    0  0.00000000000E+00  0.00000000000E+00  0.99999998245E-14  0.12500000000E+03  0.12500000000E+03 0.  0.
        -11    1    3    3    0    0 -0.37805250873E+02 -0.14841599537E+02  0.99718906767E+00  0.40626400982E+02  0.51100000000E-03 0.  1.
         23    2    1    0    0    0  0.16216700600E+02 -0.17465702482E+02  0.15433943402E+02  0.96605656365E+02  0.92338583979E+02 0.  0.
         11    1    3    3    0    0  0.54021951474E+02 -0.26241029447E+01  0.14436754334E+02  0.55979255383E+02  0.51100000000E-03 0. -1.
         22    1    1    0    0    0 -0.16216700600E+02  0.17465702482E+02 -0.15433943402E+02  0.28394343635E+02  0.00000000000E+00 0. -1.
</event>
<event>
 5    1  0.3190780E-003  0.9118800E+02  0.7818608E-02  0.1130116E+00
         25   -1    0    0    0    0  0.00000000000E+00  0.00000000000E+00  0.99999998245E-14  0.12500000000E+03  0.12500000000E+03 0.  0.
        -11    1    3    3    0    0 -0.10427673956E+02  0.86866160561E+01  0.30932957420E+02  0.33779306353E+02  0.51100000000E-03 0.  1.
         23    2    1    0    0    0  0.14296731908E+02  0.10550062749E+02 -0.24633790057E+02  0.94626920146E+02  0.89619919865E+02 0.  0.
         11    1    3    3    0    0  0.24724405865E+02  0.18634466926E+01 -0.55566747477E+02  0.60847613793E+02  0.51100000000E-03 0. -1.
         22    1    1    0    0    0 -0.14296731908E+02 -0.10550062749E+02  0.24633790057E+02  0.30373079854E+02  0.00000000000E+00 0. -1.
</event>
<event>
 5    1  0.3190780E-003  0.9118800E+02  0.7818608E-02  0.1130116E+00
         25   -1    0    0    0    0  0.00000000000E+00  0.00000000000E+00  0.99999998245E-14  0.12500000000E+03  0.12500000000E+03 0.  0.
        -11    1    3    3    0    0  0.26817582699E+02  0.16163080315E+02  0.35979514222E+02  0.47696471054E+02  0.51100000000E-03 0.  1.
         23    2    1    0    0    0  0.11932898634E+02  0.26805161054E+02 -0.73680812014E+01  0.94747738108E+02  0.89788276112E+02 0.  0.
         11    1    3    3    0    0 -0.14884684065E+02  0.10642080740E+02 -0.43347595423E+02  0.47051267055E+02  0.51100000000E-03 0. -1.
         22    1    1    0    0    0 -0.11932898634E+02 -0.26805161054E+02  0.73680812014E+01  0.30252261892E+02  0.00000000000E+00 0.  1.
</event>
<event>
 5    1  0.3190780E-003  0.9118800E+02  0.7818608E-02  0.1130116E+00
         25   -1    0    0    0    0  0.00000000000E+00  0.00000000000E+00  0.99999998245E-14  0.12500000000E+03  0.12500000000E+03 0.  0.
        -11    1    3    3    0    0 -0.42085043421E+02  0.44553278981E+02  0.10618472254E+02  0.62200462224E+02  0.51100000000E-03 0.  1.
         23    2    1    0    0    0 -0.17489657142E+02  0.22702273850E+02  0.16806289719E+01  0.96292755990E+02  0.91914030472E+02 0.  0.
         11    1    3    3    0    0  0.24595386279E+02 -0.21851005131E+02 -0.89378432821E+01  0.34092293766E+02  0.51100000000E-03 0. -1.
         22    1    1    0    0    0  0.17489657142E+02 -0.22702273850E+02 -0.16806289719E+01  0.28707244010E+02  0.00000000000E+00 0.  1.
</event>
<event>
 5    1  0.3190780E-003  0.9118800E+02  0.7818608E-02  0.1130116E+00
         25   -1    0    0    0    0  0.00000000000E+00  0.00000000000E+00  0.99999998245E-14  0.12500000000E+03  0.12500000000E+03 0.  0.
        -11    1    3    3    0    0 -0.42121889041E+02 -0.37881370302E+02 -0.14375064015E+02  0.58445651832E+02  0.51100000000E-03 0.  1.
         23    2    1    0    0    0 -0.22600607498E+02 -0.17453613637E+02  0.89392176005E+01  0.95078006424E+02  0.90246892500E+02 0.  0.
         11    1    3    3    0    0  0.19521281543E+02  0.20427756664E+02  0.23314281616E+02  0.36632354592E+02  0.51100000000E-03 0. -1.
         22    1    1    0    0    0  0.22600607498E+02  0.17453613637E+02 -0.89392176005E+01  0.29921993576E+02  0.00000000000E+00 0.  1.
</event>
<event>
 5    1  0.3190780E-003  0.9118800E+02  0.7818608E-02  0.1130116E+00
         25   -1    0    0    0    0  0.00000000000E+00  0.00000000000E+00  0.99999998245E-14  0.12500000000E+03  0.12500000000E+03 0.  0.
        -11    1    3    3    0    0  0.33045429978E+02  0.20987444707E+02 -0.46574667910E+02  0.60841375469E+02  0.51100000000E-03 0.  1.
         23    2    1    0    0    0  0.22978400229E+02  0.38178448048E+01 -0.18508107062E+02  0.95248817787E+02  0.90483172175E+02 0.  0.
         11    1    3    3    0    0 -0.10067029748E+02 -0.17169599902E+02  0.28066560849E+02  0.34407442318E+02  0.51100000000E-03 0. -1.
         22    1    1    0    0    0 -0.22978400229E+02 -0.38178448048E+01  0.18508107062E+02  0.29751182213E+02  0.00000000000E+00 0.  1.
</event>
<event>
 5    1  0.3190780E-003  0.9118800E+02  0.7818608E-02  0.1130116E+00
         25   -1    0    0    0    0  0.00000000000E+00  0.00000000000E+00  0.99999998245E-14  0.12500000000E+03  0.12500000000E+03 0.  0.
        -11    1    3    3    0    0 -0.12951991422E+02  0.26171892842E+02  0.31371886413E+02  0.42859273373E+02  0.51100000000E-03 0.  1.
         23    2    1    0    0    0  0.21550703149E+02  0.20014450561E+02 -0.69373913429E+01  0.94781819444E+02  0.89835710389E+02 0.  0.
         11    1    3    3    0    0  0.34502694571E+02 -0.61574422810E+01 -0.38309277756E+02  0.51922546071E+02  0.51100000000E-03 0. -1.
         22    1    1    0    0    0 -0.21550703149E+02 -0.20014450561E+02  0.69373913429E+01  0.30218180556E+02  0.00000000000E+00 0. -1.
</event>
<event>
 5    1  0.3190780E-003  0.9118800E+02  0.7818608E-02  0.1130116E+00
         25   -1    0    0    0    0  0.00000000000E+00  0.00000000000E+00  0.99999998245E-14  0.12500000000E+03  0.12500000000E+03 0.  0.
        -11    1    3    3    0    0 -0.50520876324E+02 -0.34864430012E+02  0.74973562376E+01  0.61839289900E+02  0.51100000000E-03 0.  1.
         23    2    1    0    0    0 -0.25375423429E+02 -0.17594816955E+02 -0.27007861482E+01  0.94003484975E+02  0.88746105514E+02 0.  0.
         11    1    3    3    0    0  0.25145452895E+02  0.17269613057E+02 -0.10198142386E+02  0.32164195075E+02  0.51100000000E-03 0. -1.
         22    1    1    0    0    0  0.25375423429E+02  0.17594816955E+02  0.27007861482E+01  0.30996515025E+02  0.00000000000E+00 0.  1.
</event>
<event>
 5    1  0.3190780E-003  0.9118800E+02  0.7818608E-02  0.1130116E+00
         25   -1    0    0    0    0  0.00000000000E+00  0.00000000000E+00  0.99999998245E-14  0.12500000000E+03  0.12500000000E+03 0.  0.
        -11    1    3    3    0    0  0.45296606181E+02  0.15310171577E+02  0.20397932945E+02  0.51983262247E+02  0.51100000000E-03 0. -1.
         23    2    1    0    0    0  0.25686348037E+02 -0.67683854971E+01 -0.12027975190E+02  0.95840581198E+02  0.91297016925E+02 0.  0.
         11    1    3    3    0    0 -0.19610258144E+02 -0.22078557074E+02 -0.32425908134E+02  0.43857318951E+02  0.51100000000E-03 0.  1.
         22    1    1    0    0    0 -0.25686348037E+02  0.67683854971E+01  0.12027975190E+02  0.29159418802E+02  0.00000000000E+00 0.  1.
</event>
<event>
 5    1  0.3190780E-003  0.9118800E+02  0.7818608E-02  0.1130116E+00
         25   -1    0    0    0    0  0.00000000000E+00  0.00000000000E+00  0.99999998245E-14  0.12500000000E+03  0.12500000000E+03 0.  0.
        -11    1    3    3    0    0 -0.35876750128E+02 -0.20365987020E+02 -0.16593482452E+02  0.44466372544E+02  0.51100000000E-03 0.  1.
         23    2    1    0    0    0 -0.16021279508E+00 -0.18170874769E+02  0.21579198736E+02  0.96788864325E+02  0.92586262919E+02 0.  0.
         11    1    3    3    0    0  0.35716537333E+02  0.21951122511E+01  0.38172681188E+02  0.52322491781E+02  0.51100000000E-03 0. -1.
         22    1    1    0    0    0  0.16021279508E+00  0.18170874769E+02 -0.21579198736E+02  0.28211135675E+02  0.00000000000E+00 0. -1.
</event>
<event>
 5    1  0.3190780E-003  0.9118800E+02  0.7818608E-02  0.1130116E+00
         25   -1    0    0    0    0  0.00000000000E+00  0.00000000000E+00  0.99999998245E-14  0.12500000000E+03  0.12500000000E+03 0.  0.
        -11    1    3    3    0    0 -0.21601960790E+02  0.33647629619E+02 -0.41602618616E+02  0.57702561164E+02  0.51100000000E-03 0.  1.
         23    2    1    0    0    0 -0.17526327492E+02  0.23718752215E+02 -0.59782115502E+01  0.94908632877E+02  0.90011989308E+02 0.  0.
         11    1    3    3    0    0  0.40756332976E+01 -0.99288774038E+01  0.35624407066E+02  0.37206071713E+02  0.51100000000E-03 0. -1.
         22    1    1    0    0    0  0.17526327492E+02 -0.23718752215E+02  0.59782115502E+01  0.30091367123E+02  0.00000000000E+00 0.  1.
</event>
<event>
 5    1  0.3190780E-003  0.9118800E+02  0.7818608E-02  0.1130116E+00
         25   -1    0    0    0    0  0.00000000000E+00  0.00000000000E+00  0.99999998245E-14  0.12500000000E+03  0.12500000000E+03 0.  0.
        -11    1    3    3    0    0  0.27647651153E+01 -0.49324675138E+02  0.19324028091E+02  0.53047012786E+02  0.51100000000E-03 0.  1.
         23    2    1    0    0    0 -0.42262022480E+00 -0.76219753355E+01  0.28184865000E+02  0.95799662144E+02  0.91240975093E+02 0.  0.
         11    1    3    3    0    0 -0.31873853401E+01  0.41702699803E+02  0.88608369089E+01  0.42752649358E+02  0.51100000000E-03 0. -1.
         22    1    1    0    0    0  0.42262022480E+00  0.76219753355E+01 -0.28184865000E+02  0.29200337856E+02  0.00000000000E+00 0.  1.
</event>
<event>
 5    1  0.3190780E-003  0.9118800E+02  0.7818608E-02  0.1130116E+00
         25   -1    0    0    0    0  0.00000000000E+00  0.00000000000E+00  0.99999998245E-14  0.12500000000E+03  0.12500000000E+03 0.  0.
        -11    1    3    3    0    0 -0.17428010330E+02 -0.20000229080E+02  0.39261610540E+02  0.47383739508E+02  0.51100000000E-03 0.  1.
         23    2    1    0    0    0  0.12806342694E+01  0.21249449929E+02  0.88189862821E+01  0.10195756815E+03  0.99319645781E+02 0.  0.
         11    1    3    3    0    0  0.18708644599E+02  0.41249679008E+02 -0.30442624258E+02  0.54573828645E+02  0.51100000000E-03 0. -1.
         22    1    1    0    0    0 -0.12806342694E+01 -0.21249449929E+02 -0.88189862821E+01  0.23042431847E+02  0.00000000000E+00 0. -1.
</event>
<event>
 5    1  0.3190780E-003  0.9118800E+02  0.7818608E-02  0.1130116E+00
         25   -1    0    0    0    0  0.00000000000E+00  0.00000000000E+00  0.99999998245E-14  0.12500000000E+03  0.12500000000E+03 0.  0.
        -11    1    3    3    0    0 -0.29349253684E+02  0.38463828842E+02  0.52579968658E+01  0.48667148594E+02  0.51100000000E-03 0.  1.
         23    2    1    0    0    0  0.13199559829E+02  0.24236620908E+02  0.13491664515E+02  0.94280833604E+02  0.89135898498E+02 0.  0.
         11    1    3    3    0    0  0.42548813513E+02 -0.14227207934E+02  0.82336676492E+01  0.45613685010E+02  0.51100000000E-03 0. -1.
         22    1    1    0    0    0 -0.13199559829E+02 -0.24236620908E+02 -0.13491664515E+02  0.30719166396E+02  0.00000000000E+00 0. -1.
</event>
<event>
 5    1  0.3190780E-003  0.9118800E+02  0.7818608E-02  0.1130116E+00
         25   -1    0    0    0    0  0.00000000000E+00  0.00000000000E+00  0.99999998245E-14  0.12500000000E+03  0.12500000000E+03 0.  0.
        -11    1    3    3    0    0 -0.23741851538E+02 -0.19897891398E+02  0.38295535103E+02  0.49255960102E+02  0.51100000000E-03 0.  1.
         23    2    1    0    0    0 -0.26806987321E+02  0.78244593704E+01 -0.53981742085E+00  0.97069225996E+02  0.92964006470E+02 0.  0.
         11    1    3    3    0    0 -0.30651357828E+01  0.27722350768E+02 -0.38835352524E+02  0.47813265893E+02  0.51100000000E-03 0. -1.
         22    1    1    0    0    0  0.26806987321E+02 -0.78244593704E+01  0.53981742085E+00  0.27930774004E+02  0.00000000000E+00 0.  1.
</event>
<event>
 5    1  0.3190780E-003  0.9118800E+02  0.7818608E-02  0.1130116E+00
         25   -1    0    0    0    0  0.00000000000E+00  0.00000000000E+00  0.99999998245E-14  0.12500000000E+03  0.12500000000E+03 0.  0.
        -11    1    3    3    0    0  0.13484937133E+02 -0.37595432752E+02  0.13459299840E+02  0.42147512925E+02  0.51100000000E-03 0.  1.
         23    2    1    0    0    0  0.38887236050E+01 -0.38814837510E+01 -0.28015348208E+02  0.96450957588E+02  0.92128928123E+02 0.  0.
         11    1    3    3    0    0 -0.95962135281E+01  0.33713949001E+02 -0.41474648048E+02  0.54303444664E+02  0.51100000000E-03 0. -1.
         22    1    1    0    0    0 -0.38887236050E+01  0.38814837510E+01  0.28015348208E+02  0.28549042412E+02  0.00000000000E+00 0.  1.
</event>
<event>
 5    1  0.3190780E-003  0.9118800E+02  0.7818608E-02  0.1130116E+00
         25   -1    0    0    0    0  0.00000000000E+00  0.00000000000E+00  0.99999998245E-14  0.12500000000E+03  0.12500000000E+03 0.  0.
        -11    1    3    3    0    0  0.83874593509E+01 -0.23286031386E+02 -0.44732912433E+02  0.51123597165E+02  0.51100000000E-03 0.  1.
         23    2    1    0    0    0  0.25666799412E+02  0.18555985655E+01 -0.98986067579E+01  0.97428089406E+02  0.93445290686E+02 0.  0.
         11    1    3    3    0    0  0.17279340061E+02  0.25141629952E+02  0.34834305675E+02  0.46304492241E+02  0.51100000000E-03 0. -1.
         22    1    1    0    0    0 -0.25666799412E+02 -0.18555985655E+01  0.98986067579E+01  0.27571910594E+02  0.00000000000E+00 0.  1.
</event>
<event>
 5    1  0.3190780E-003  0.9118800E+02  0.7818608E-02  0.1130116E+00
         25   -1    0    0    0    0  0.00000000000E+00  0.00000000000E+00  0.99999998245E-14  0.12500000000E+03  0.12500000000E+03 0.  0.
        -11    1    3    3    0    0  0.31937079462E+02 -0.31375288488E+02  0.12422050491E+02  0.46461738140E+02  0.51100000000E-03 0.  1.
         23    2    1    0    0    0 -0.92839417674E+01 -0.77035745226E+01  0.26371009921E+02  0.96000572429E+02  0.91515807964E+02 0.  0.
         11    1    3    3    0    0 -0.41221021230E+02  0.23671713966E+02  0.13948959430E+02  0.49538834289E+02  0.51100000000E-03 0. -1.
         22    1    1    0    0    0  0.92839417674E+01  0.77035745226E+01 -0.26371009921E+02  0.28999427571E+02  0.00000000000E+00 0.  1.
</event>
<event>
 5    1  0.3190780E-003  0.9118800E+02  0.7818608E-02  0.1130116E+00
         25   -1    0    0    0    0  0.00000000000E+00  0.00000000000E+00  0.99999998245E-14  0.12500000000E+03  0.12500000000E+03 0.  0.
        -11    1    3    3    0    0  0.27016767846E+02 -0.18701755393E+02  0.52464713766E+02  0.61904826875E+02  0.51100000000E-03 0. -1.
         23    2    1    0    0    0  0.14558285317E+02 -0.29138368345E+01  0.24546039920E+02  0.96313030969E+02  0.91941599628E+02 0.  0.
         11    1    3    3    0    0 -0.12458482530E+02  0.15787918558E+02 -0.27918673846E+02  0.34408204093E+02  0.51100000000E-03 0.  1.
         22    1    1    0    0    0 -0.14558285317E+02  0.29138368345E+01 -0.24546039920E+02  0.28686969031E+02  0.00000000000E+00 0. -1.
</event>
<event>
 5    1  0.3190780E-003  0.9118800E+02  0.7818608E-02  0.1130116E+00
         25   -1    0    0    0    0  0.00000000000E+00  0.00000000000E+00  0.99999998245E-14  0.12500000000E+03  0.12500000000E+03 0.  0.
        -11    1    3    3    0    0  0.16983574018E+02  0.88772183840E+01  0.39356465688E+02  0.43774172572E+02  0.51100000000E-03 0.  1.
         23    2    1    0    0    0 -0.23409909437E+01 -0.23675221801E+02 -0.34967721809E+01  0.10095371585E+03  0.98048095145E+02 0.  0.
         11    1    3    3    0    0 -0.19324564961E+02 -0.32552440185E+02 -0.42853237869E+02  0.57179543274E+02  0.51100000000E-03 0. -1.
         22    1    1    0    0    0  0.23409909437E+01  0.23675221801E+02  0.34967721809E+01  0.24046284154E+02  0.00000000000E+00 0. -1.
</event>
<event>
 5    1  0.3190780E-003  0.9118800E+02  0.7818608E-02  0.1130116E+00
         25   -1    0    0    0    0  0.00000000000E+00  0.00000000000E+00  0.99999998245E-14  0.12500000000E+03  0.12500000000E+03 0.  0.
        -11    1    3    3    0    0  0.54542102778E+02  0.21539244485E+02  0.17505178458E+02  0.61198131520E+02  0.51100000000E-03 0.  1.
         23    2    1    0    0    0  0.23314470476E+02  0.18184690192E+02  0.49553770516E+01  0.95019952424E+02  0.90166446674E+02 0.  0.
         11    1    3    3    0    0 -0.31227632302E+02 -0.33545542927E+01 -0.12549801406E+02  0.33821820904E+02  0.51100000000E-03 0. -1.
         22    1    1    0    0    0 -0.23314470476E+02 -0.18184690192E+02 -0.49553770516E+01  0.29980047576E+02  0.00000000000E+00 0.  1.
</event>
<event>
 5    1  0.3190780E-003  0.9118800E+02  0.7818608E-02  0.1130116E+00
         25   -1    0    0    0    0  0.00000000000E+00  0.00000000000E+00  0.99999998245E-14  0.12500000000E+03  0.12500000000E+03 0.  0.
        -11    1    3    3    0    0  0.37070775553E+02 -0.50293396264E+01  0.18032349739E+02  0.41529535207E+02  0.51100000000E-03 0. -1.
         23    2    1    0    0    0  0.12820660081E+02  0.27168784925E+02 -0.12866755367E+02  0.92318727184E+02  0.86340499164E+02 0.  0.
         11    1    3    3    0    0 -0.24250115471E+02  0.32198124552E+02 -0.30899105106E+02  0.50789191977E+02  0.51100000000E-03 0.  1.
         22    1    1    0    0    0 -0.12820660081E+02 -0.27168784925E+02  0.12866755367E+02  0.32681272816E+02  0.00000000000E+00 0. -1.
</event>
<event>
 5    1  0.3190780E-003  0.9118800E+02  0.7818608E-02  0.1130116E+00
         25   -1    0    0    0    0  0.00000000000E+00  0.00000000000E+00  0.99999998245E-14  0.12500000000E+03  0.12500000000E+03 0.  0.
        -11    1    3    3    0    0 -0.47351024928E+02 -0.20859007747E+01 -0.39802800789E+02  0.61892919585E+02  0.51100000000E-03 0.  1.
         23    2    1    0    0    0 -0.22673302469E+02  0.46760933746E+01 -0.15838916341E+02  0.96949763549E+02  0.92803237483E+02 0.  0.
         11    1    3    3    0    0  0.24677722459E+02  0.67619941493E+01  0.23963884449E+02  0.35056843965E+02  0.51100000000E-03 0. -1.
         22    1    1    0    0    0  0.22673302469E+02 -0.46760933746E+01  0.15838916341E+02  0.28050236451E+02  0.00000000000E+00 0.  1.
</event>
<event>
 5    1  0.3190780E-003  0.9118800E+02  0.7818608E-02  0.1130116E+00
         25   -1    0    0    0    0  0.00000000000E+00  0.00000000000E+00  0.99999998245E-14  0.12500000000E+03  0.12500000000E+03 0.  0.
        -11    1    3    3    0    0 -0.56909324606E+02  0.48061939277E+01  0.16898853336E+02  0.59559566583E+02  0.51100000000E-03 0. -1.
         23    2    1    0    0    0 -0.22255058586E+02  0.28658578819E+01  0.20694715186E+02  0.94475059202E+02  0.89407856481E+02 0.  0.
         11    1    3    3    0    0  0.34654266021E+02 -0.19403360458E+01  0.37958618500E+01  0.34915492619E+02  0.51100000000E-03 0.  1.
         22    1    1    0    0    0  0.22255058586E+02 -0.28658578819E+01 -0.20694715186E+02  0.30524940798E+02  0.00000000000E+00 0. -1.
</event>
<event>
 5    1  0.3190780E-003  0.9118800E+02  0.7818608E-02  0.1130116E+00
         25   -1    0    0    0    0  0.00000000000E+00  0.00000000000E+00  0.99999998245E-14  0.12500000000E+03  0.12500000000E+03 0.  0.
        -11    1    3    3    0    0 -0.29989085892E+02  0.62410603774E+01 -0.39038231200E+02  0.49621362363E+02  0.51100000000E-03 0. -1.
         23    2    1    0    0    0  0.14467396140E+02  0.64663831370E+01 -0.23380643050E+02  0.96755104331E+02  0.92540672587E+02 0.  0.
         11    1    3    3    0    0  0.44456482032E+02  0.22532275955E+00  0.15657588150E+02  0.47133741968E+02  0.51100000000E-03 0.  1.
         22    1    1    0    0    0 -0.14467396140E+02 -0.64663831370E+01  0.23380643050E+02  0.28244895669E+02  0.00000000000E+00 0. -1.
</event>
<event>
 5    1  0.3190780E-003  0.9118800E+02  0.7818608E-02  0.1130116E+00
         25   -1    0    0    0    0  0.00000000000E+00  0.00000000000E+00  0.99999998245E-14  0.12500000000E+03  0.12500000000E+03 0.  0.
        -11    1    3    3    0    0 -0.30959022968E+02  0.21288071570E+02 -0.16549290429E+02  0.41055110623E+02  0.51100000000E-03 0.  1.
         23    2    1    0    0    0 -0.38424906891E+01  0.47089035710E+00  0.27733184280E+02  0.96997928956E+02  0.92868090532E+02 0.  0.
         11    1    3    3    0    0  0.27116532279E+02 -0.20817181213E+02  0.44282474709E+02  0.55942818333E+02  0.51100000000E-03 0. -1.
         22    1    1    0    0    0  0.38424906891E+01 -0.47089035710E+00 -0.27733184280E+02  0.28002071044E+02  0.00000000000E+00 0. -1.
</event>
<event>
 5    1  0.3190780E-003  0.9118800E+02  0.7818608E-02  0.1130116E+00
         25   -1    0    0    0    0  0.00000000000E+00  0.00000000000E+00  0.99999998245E-14  0.12500000000E+03  0.12500000000E+03 0.  0.
        -11    1    3    3    0    0  0.34443080928E+02  0.39716283386E+02 -0.97549580868E+01  0.53468385026E+02  0.51100000000E-03 0.  1.
         23    2    1    0    0    0  0.22519626667E+02 -0.18828001019E+01 -0.16165901034E+02  0.97214844292E+02  0.93159600005E+02 0.  0.
         11    1    3    3    0    0 -0.11923454260E+02 -0.41599083488E+02 -0.64109429477E+01  0.43746459266E+02  0.51100000000E-03 0. -1.
         22    1    1    0    0    0 -0.22519626667E+02  0.18828001019E+01  0.16165901034E+02  0.27785155708E+02  0.00000000000E+00 0.  1.
</event>
<event>
 5    1  0.3190780E-003  0.9118800E+02  0.7818608E-02  0.1130116E+00
         25   -1    0    0    0    0  0.00000000000E+00  0.00000000000E+00  0.99999998245E-14  0.12500000000E+03  0.12500000000E+03 0.  0.
        -11    1    3    3    0    0  0.31181279733E+02 -0.14672840629E+02 -0.23825002393E+02  0.41895049793E+02  0.51100000000E-03 0. -1.
         23    2    1    0    0    0  0.11884501219E+02  0.25255756117E+02  0.73895933082E+01  0.96126124688E+02  0.91687137440E+02 0.  0.
         11    1    3    3    0    0 -0.19296778514E+02  0.39928596747E+02  0.31214595701E+02  0.54231074894E+02  0.51100000000E-03 0.  1.
         22    1    1    0    0    0 -0.11884501219E+02 -0.25255756117E+02 -0.73895933082E+01  0.28873875312E+02  0.00000000000E+00 0. -1.
</event>
<event>
 5    1  0.3190780E-003  0.9118800E+02  0.7818608E-02  0.1130116E+00
         25   -1    0    0    0    0  0.00000000000E+00  0.00000000000E+00  0.99999998245E-14  0.12500000000E+03  0.12500000000E+03 0.  0.
        -11    1    3    3    0    0  0.10279658105E+02  0.24691826031E+02  0.11847529577E+02  0.29252719546E+02  0.51100000000E-03 0. -1.
         23    2    1    0    0    0 -0.23779466287E+02 -0.22396646578E+02 -0.92023425346E+01  0.91062470583E+02  0.84502175390E+02 0.  0.
         11    1    3    3    0    0 -0.34059124393E+02 -0.47088472609E+02 -0.21049872112E+02  0.61809751036E+02  0.51100000000E-03 0.  1.
         22    1    1    0    0    0  0.23779466287E+02  0.22396646578E+02  0.92023425346E+01  0.33937529417E+02  0.00000000000E+00 0.  1.
</event>
<event>
 5    1  0.3190780E-003  0.9118800E+02  0.7818608E-02  0.1130116E+00
         25   -1    0    0    0    0  0.00000000000E+00  0.00000000000E+00  0.99999998245E-14  0.12500000000E+03  0.12500000000E+03 0.  0.
        -11    1    3    3    0    0 -0.13347275830E+02  0.45093659237E+02 -0.11916740529E+02  0.48513880288E+02  0.51100000000E-03 0.  1.
         23    2    1    0    0    0 -0.27544207609E+02  0.13687234216E+02  0.13572184491E+02  0.91381137063E+02  0.84972255859E+02 0.  0.
         11    1    3    3    0    0 -0.14196931780E+02 -0.31406425021E+02  0.25488925020E+02  0.42867256775E+02  0.51100000000E-03 0. -1.
         22    1    1    0    0    0  0.27544207609E+02 -0.13687234216E+02 -0.13572184491E+02  0.33618862937E+02  0.00000000000E+00 0.  1.
</event>
<event>
 5    1  0.3190780E-003  0.9118800E+02  0.7818608E-02  0.1130116E+00
         25   -1    0    0    0    0  0.00000000000E+00  0.00000000000E+00  0.99999998245E-14  0.12500000000E+03  0.12500000000E+03 0.  0.
        -11    1    3    3    0    0 -0.25312553196E+02  0.47295742366E+02  0.16622034184E+02  0.56159635112E+02  0.51100000000E-03 0.  1.
         23    2    1    0    0    0 -0.26547897613E+02  0.16707227234E+02 -0.44416035112E+01  0.93319562010E+02  0.87777505675E+02 0.  0.
         11    1    3    3    0    0 -0.12353444171E+01 -0.30588515133E+02 -0.21063637695E+02  0.37159926898E+02  0.51100000000E-03 0. -1.
         22    1    1    0    0    0  0.26547897613E+02 -0.16707227234E+02  0.44416035112E+01  0.31680437990E+02  0.00000000000E+00 0.  1.
</event>
<event>
 5    1  0.3190780E-003  0.9118800E+02  0.7818608E-02  0.1130116E+00
         25   -1    0    0    0    0  0.00000000000E+00  0.00000000000E+00  0.99999998245E-14  0.12500000000E+03  0.12500000000E+03 0.  0.
        -11    1    3    3    0    0 -0.26314432369E+02  0.53809898360E+02  0.58132457647E+01  0.60180963261E+02  0.51100000000E-03 0. -1.
         23    2    1    0    0    0 -0.53002205784E+01  0.29671967867E+02  0.11599366924E+02  0.92703509040E+02  0.86895783903E+02 0.  0.
         11    1    3    3    0    0  0.21014211790E+02 -0.24137930493E+02  0.57861211589E+01  0.32522545780E+02  0.51100000000E-03 0.  1.
         22    1    1    0    0    0  0.53002205784E+01 -0.29671967867E+02 -0.11599366924E+02  0.32296490960E+02  0.00000000000E+00 0. -1.
</event>
<event>
 5    1  0.3190780E-003  0.9118800E+02  0.7818608E-02  0.1130116E+00
         25   -1    0    0    0    0  0.00000000000E+00  0.00000000000E+00  0.99999998245E-14  0.12500000000E+03  0.12500000000E+03 0.  0.
        -11    1    3    3    0    0 -0.44611739665E+01  0.48863769824E+02  0.34039294822E+02  0.59718034687E+02  0.51100000000E-03 0.  1.
         23    2    1    0    0    0  0.88503355641E+01  0.28725360940E+02  0.11280353647E+02  0.92895153339E+02  0.87171029216E+02 0.  0.
         11    1    3    3    0    0  0.13311509531E+02 -0.20138408884E+02 -0.22758941175E+02  0.33177118652E+02  0.51100000000E-03 0. -1.
         22    1    1    0    0    0 -0.88503355641E+01 -0.28725360940E+02 -0.11280353647E+02  0.32104846661E+02  0.00000000000E+00 0.  1.
</event>
<event>
 5    1  0.3190780E-003  0.9118800E+02  0.7818608E-02  0.1130116E+00
         25   -1    0    0    0    0  0.00000000000E+00  0.00000000000E+00  0.99999998245E-14  0.12500000000E+03  0.12500000000E+03 0.  0.
        -11    1    3    3    0    0  0.56089392589E+02 -0.12179702229E+02  0.20016426923E+02  0.60786696360E+02  0.51100000000E-03 0.  1.
         23    2    1    0    0    0  0.22651036642E+02 -0.62302924481E+01  0.19034341319E+02  0.94764389300E+02  0.89811454308E+02 0.  0.
         11    1    3    3    0    0 -0.33438355946E+02  0.59494097807E+01 -0.98208560420E+00  0.33977692940E+02  0.51100000000E-03 0. -1.
         22    1    1    0    0    0 -0.22651036642E+02  0.62302924481E+01 -0.19034341319E+02  0.30235610700E+02  0.00000000000E+00 0.  1.
</event>
<event>
 5    1  0.3190780E-003  0.9118800E+02  0.7818608E-02  0.1130116E+00
         25   -1    0    0    0    0  0.00000000000E+00  0.00000000000E+00  0.99999998245E-14  0.12500000000E+03  0.12500000000E+03 0.  0.
        -11    1    3    3    0    0  0.46772769458E+01 -0.12357200181E+00 -0.52256328965E+02  0.52465380079E+02  0.51100000000E-03 0. -1.
         23    2    1    0    0    0 -0.13909329966E+01 -0.24278671919E+02 -0.18354155970E+02  0.94532580579E+02  0.89488240260E+02 0.  0.
         11    1    3    3    0    0 -0.60682099424E+01 -0.24155099918E+02  0.33902172995E+02  0.42067200501E+02  0.51100000000E-03 0.  1.
         22    1    1    0    0    0  0.13909329966E+01  0.24278671919E+02  0.18354155970E+02  0.30467419421E+02  0.00000000000E+00 0.  1.
</event>
<event>
 5    1  0.3190780E-003  0.9118800E+02  0.7818608E-02  0.1130116E+00
         25   -1    0    0    0    0  0.00000000000E+00  0.00000000000E+00  0.99999998245E-14  0.12500000000E+03  0.12500000000E+03 0.  0.
        -11    1    3    3    0    0 -0.11522775078E+01 -0.42372226601E+02  0.51204859197E+01  0.42696050250E+02  0.51100000000E-03 0.  1.
         23    2    1    0    0    0 -0.94811419176E+01  0.10603510818E+02  0.21899759868E+02  0.98886287587E+02  0.95375950305E+02 0.  0.
         11    1    3    3    0    0 -0.83288644097E+01  0.52975737420E+02  0.16779273948E+02  0.56190237337E+02  0.51100000000E-03 0. -1.
         22    1    1    0    0    0  0.94811419176E+01 -0.10603510818E+02 -0.21899759868E+02  0.26113712413E+02  0.00000000000E+00 0.  1.
</event>
<event>
 5    1  0.3190780E-003  0.9118800E+02  0.7818608E-02  0.1130116E+00
         25   -1    0    0    0    0  0.00000000000E+00  0.00000000000E+00  0.99999998245E-14  0.12500000000E+03  0.12500000000E+03 0.  0.
        -11    1    3    3    0    0  0.14127295142E+02 -0.17316783342E+02  0.34308689900E+02  0.40945545011E+02  0.51100000000E-03 0. -1.
         23    2    1    0    0    0 -0.27266354972E+02  0.68473347802E+01  0.73305252311E+01  0.95947001752E+02  0.91442607344E+02 0.  0.
         11    1    3    3    0    0 -0.41393650115E+02  0.24164118122E+02 -0.26978164668E+02  0.55001456741E+02  0.51100000000E-03 0.  1.
         22    1    1    0    0    0  0.27266354972E+02 -0.68473347802E+01 -0.73305252311E+01  0.29052998248E+02  0.00000000000E+00 0. -1.
</event>
<event>
 5    1  0.3190780E-003  0.9118800E+02  0.7818608E-02  0.1130116E+00
         25   -1    0    0    0    0  0.00000000000E+00  0.00000000000E+00  0.99999998245E-14  0.12500000000E+03  0.12500000000E+03 0.  0.
        -11    1    3    3    0    0  0.37299176979E+02 -0.44218454496E+02  0.13652439927E+02  0.59438114350E+02  0.51100000000E-03 0. -1.
         23    2    1    0    0    0  0.11760214872E+02 -0.25657695164E+02 -0.53301321654E+01  0.96276659598E+02  0.91892137311E+02 0.  0.
         11    1    3    3    0    0 -0.25538962107E+02  0.18560759332E+02 -0.18982572092E+02  0.36838545248E+02  0.51100000000E-03 0.  1.
         22    1    1    0    0    0 -0.11760214872E+02  0.25657695164E+02  0.53301321654E+01  0.28723340402E+02  0.00000000000E+00 0. -1.
</event>
<event>
 5    1  0.3190780E-003  0.9118800E+02  0.7818608E-02  0.1130116E+00
         25   -1    0    0    0    0  0.00000000000E+00  0.00000000000E+00  0.99999998245E-14  0.12500000000E+03  0.12500000000E+03 0.  0.
        -11    1    3    3    0    0  0.69780025644E+01 -0.25849925994E+02  0.24118944046E+02  0.36036573864E+02  0.51100000000E-03 0.  1.
         23    2    1    0    0    0  0.17751719679E+02  0.24668660995E+02 -0.31467689994E+01  0.94445646104E+02  0.89366724938E+02 0.  0.
         11    1    3    3    0    0  0.10773717115E+02  0.50518586989E+02 -0.27265713046E+02  0.58409072240E+02  0.51100000000E-03 0. -1.
         22    1    1    0    0    0 -0.17751719679E+02 -0.24668660995E+02  0.31467689994E+01  0.30554353896E+02  0.00000000000E+00 0. -1.
</event>
<event>
 5    1  0.3190780E-003  0.9118800E+02  0.7818608E-02  0.1130116E+00
         25   -1    0    0    0    0  0.00000000000E+00  0.00000000000E+00  0.99999998245E-14  0.12500000000E+03  0.12500000000E+03 0.  0.
        -11    1    3    3    0    0 -0.16442621506E+02 -0.44810355478E+02  0.83738356764E+01  0.48460797396E+02  0.51100000000E-03 0. -1.
         23    2    1    0    0    0 -0.51392609961E+01 -0.10425722623E+02 -0.24833386469E+02  0.97580941312E+02  0.93649534585E+02 0.  0.
         11    1    3    3    0    0  0.11303360510E+02  0.34384632855E+02 -0.33207222146E+02  0.49120143916E+02  0.51100000000E-03 0.  1.
         22    1    1    0    0    0  0.51392609961E+01  0.10425722623E+02  0.24833386469E+02  0.27419058688E+02  0.00000000000E+00 0.  1.
</event>
<event>
 5    1  0.3190780E-003  0.9118800E+02  0.7818608E-02  0.1130116E+00
         25   -1    0    0    0    0  0.00000000000E+00  0.00000000000E+00  0.99999998245E-14  0.12500000000E+03  0.12500000000E+03 0.  0.
        -11    1    3    3    0    0  0.92881225879E+01  0.76309069043E+01  0.49855968628E+02  0.51284671876E+02  0.51100000000E-03 0.  1.
         23    2    1    0    0    0  0.26577240170E+02  0.95635686167E+01  0.95518782466E+01  0.95183059886E+02  0.90392283804E+02 0.  0.
         11    1    3    3    0    0  0.17289117582E+02  0.19326617123E+01 -0.40304090381E+02  0.43898388009E+02  0.51100000000E-03 0. -1.
         22    1    1    0    0    0 -0.26577240170E+02 -0.95635686167E+01 -0.95518782466E+01  0.29816940114E+02  0.00000000000E+00 0.  1.
</event>
<event>
 5    1  0.3190780E-003  0.9118800E+02  0.7818608E-02  0.1130116E+00
         25   -1    0    0    0    0  0.00000000000E+00  0.00000000000E+00  0.99999998245E-14  0.12500000000E+03  0.12500000000E+03 0.  0.
        -11    1    3    3    0    0  0.37644872088E+02  0.37763603076E+02 -0.16753214253E+02  0.55891826772E+02  0.51100000000E-03 0. -1.
         23    2    1    0    0    0  0.19672894208E+02  0.16845737279E+02  0.12625720923E+02  0.96186627066E+02  0.91769585193E+02 0.  0.
         11    1    3    3    0    0 -0.17971977879E+02 -0.20917865798E+02  0.29378935176E+02  0.40294800295E+02  0.51100000000E-03 0.  1.
         22    1    1    0    0    0 -0.19672894208E+02 -0.16845737279E+02 -0.12625720923E+02  0.28813372934E+02  0.00000000000E+00 0. -1.
</event>
<event>
 5    1  0.3190780E-003  0.9118800E+02  0.7818608E-02  0.1130116E+00
         25   -1    0    0    0    0  0.00000000000E+00  0.00000000000E+00  0.99999998245E-14  0.12500000000E+03  0.12500000000E+03 0.  0.
        -11    1    3    3    0    0 -0.21659441788E+02 -0.15474553934E+02  0.43016945879E+02  0.50587062290E+02  0.51100000000E-03 0. -1.
         23    2    1    0    0    0  0.22854161594E+01 -0.26706412581E+02  0.37436342114E+01  0.97935809691E+02  0.94122008174E+02 0.  0.
         11    1    3    3    0    0  0.23944857948E+02 -0.11231858648E+02 -0.39273311668E+02  0.47348747401E+02  0.51100000000E-03 0.  1.
         22    1    1    0    0    0 -0.22854161594E+01  0.26706412581E+02 -0.37436342114E+01  0.27064190309E+02  0.00000000000E+00 0. -1.
</event>
<event>
 5    1  0.3190780E-003  0.9118800E+02  0.7818608E-02  0.1130116E+00
         25   -1    0    0    0    0  0.00000000000E+00  0.00000000000E+00  0.99999998245E-14  0.12500000000E+03  0.12500000000E+03 0.  0.
        -11    1    3    3    0    0  0.23372256961E+02  0.26886455920E+02  0.44390966341E+02  0.56918378406E+02  0.51100000000E-03 0. -1.
         23    2    1    0    0    0  0.21810239929E+02 -0.25451608197E+01  0.21847656702E+02  0.94024452987E+02  0.88775634308E+02 0.  0.
         11    1    3    3    0    0 -0.15620170317E+01 -0.29431616740E+02 -0.22543309639E+02  0.37106074582E+02  0.51100000000E-03 0.  1.
         22    1    1    0    0    0 -0.21810239929E+02  0.25451608197E+01 -0.21847656702E+02  0.30975547013E+02  0.00000000000E+00 0. -1.
</event>
<event>
 5    1  0.3190780E-003  0.9118800E+02  0.7818608E-02  0.1130116E+00
         25   -1    0    0    0    0  0.00000000000E+00  0.00000000000E+00  0.99999998245E-14  0.12500000000E+03  0.12500000000E+03 0.  0.
        -11    1    3    3    0    0 -0.29075984871E+02 -0.31100685660E+02 -0.24873094453E+02  0.49308583154E+02  0.51100000000E-03 0.  1.
         23    2    1    0    0    0 -0.24248173869E+02  0.12673358997E+02 -0.77120651427E+01  0.96573534989E+02  0.92295090592E+02 0.  0.
         11    1    3    3    0    0  0.48278110023E+01  0.43774044657E+02  0.17161029310E+02  0.47264951835E+02  0.51100000000E-03 0. -1.
         22    1    1    0    0    0  0.24248173869E+02 -0.12673358997E+02  0.77120651427E+01  0.28426465011E+02  0.00000000000E+00 0.  1.
</event>
<event>
 5    1  0.3190780E-003  0.9118800E+02  0.7818608E-02  0.1130116E+00
         25   -1    0    0    0    0  0.00000000000E+00  0.00000000000E+00  0.99999998245E-14  0.12500000000E+03  0.12500000000E+03 0.  0.
        -11    1    3    3    0    0  0.10387737165E+02  0.50714972261E+02  0.23766679433E+02  0.56962869893E+02  0.51100000000E-03 0. -1.
         23    2    1    0    0    0 -0.52949671333E+01  0.28679859638E+02 -0.38085564870E+01  0.95587823468E+02  0.90950293387E+02 0.  0.
         11    1    3    3    0    0 -0.15682704298E+02 -0.22035112623E+02 -0.27575235920E+02  0.38624953576E+02  0.51100000000E-03 0.  1.
         22    1    1    0    0    0  0.52949671333E+01 -0.28679859638E+02  0.38085564870E+01  0.29412176532E+02  0.00000000000E+00 0. -1.
</event>
<event>
 5    1  0.3190780E-003  0.9118800E+02  0.7818608E-02  0.1130116E+00
         25   -1    0    0    0    0  0.00000000000E+00  0.00000000000E+00  0.99999998245E-14  0.12500000000E+03  0.12500000000E+03 0.  0.
        -11    1    3    3    0    0 -0.32798531020E+02 -0.23907779157E+02 -0.45903475315E+02  0.61273604330E+02  0.51100000000E-03 0.  1.
         23    2    1    0    0    0 -0.22293030782E+02 -0.10939282170E+02 -0.16182090439E+02  0.95360378430E+02  0.90637159088E+02 0.  0.
         11    1    3    3    0    0  0.10505500238E+02  0.12968496987E+02  0.29721384876E+02  0.34086774100E+02  0.51100000000E-03 0. -1.
         22    1    1    0    0    0  0.22293030782E+02  0.10939282170E+02  0.16182090439E+02  0.29639621570E+02  0.00000000000E+00 0.  1.
</event>
<event>
 5    1  0.3190780E-003  0.9118800E+02  0.7818608E-02  0.1130116E+00
         25   -1    0    0    0    0  0.00000000000E+00  0.00000000000E+00  0.99999998245E-14  0.12500000000E+03  0.12500000000E+03 0.  0.
        -11    1    3    3    0    0  0.22634685690E+01  0.33078734238E+02 -0.44965329644E+02  0.55867761894E+02  0.51100000000E-03 0. -1.
         23    2    1    0    0    0  0.16008624362E+02  0.14775193447E+01 -0.23699309334E+02  0.96362325858E+02  0.92008594514E+02 0.  0.
         11    1    3    3    0    0  0.13745155793E+02 -0.31601214894E+02  0.21266020310E+02  0.40494563964E+02  0.51100000000E-03 0.  1.
         22    1    1    0    0    0 -0.16008624362E+02 -0.14775193447E+01  0.23699309334E+02  0.28637674142E+02  0.00000000000E+00 0. -1.
</event>
<event>
 5    1  0.3190780E-003  0.9118800E+02  0.7818608E-02  0.1130116E+00
         25   -1    0    0    0    0  0.00000000000E+00  0.00000000000E+00  0.99999998245E-14  0.12500000000E+03  0.12500000000E+03 0.  0.
        -11    1    3    3    0    0  0.14408985366E+02  0.23636295893E+02 -0.42692831826E+02  0.50881934244E+02  0.51100000000E-03 0. -1.
         23    2    1    0    0    0  0.25939719498E+02 -0.57647719572E+01 -0.92910795298E+01  0.96849941347E+02  0.92668685848E+02 0.  0.
         11    1    3    3    0    0  0.11530734132E+02 -0.29401067850E+02  0.33401752296E+02  0.45968007103E+02  0.51100000000E-03 0.  1.
         22    1    1    0    0    0 -0.25939719498E+02  0.57647719572E+01  0.92910795298E+01  0.28150058653E+02  0.00000000000E+00 0.  1.
</event>
<event>
 5    1  0.3190780E-003  0.9118800E+02  0.7818608E-02  0.1130116E+00
         25   -1    0    0    0    0  0.00000000000E+00  0.00000000000E+00  0.99999998245E-14  0.12500000000E+03  0.12500000000E+03 0.  0.
        -11    1    3    3    0    0 -0.65126545266E+01  0.13521518853E+02 -0.55071011602E+02  0.57079439908E+02  0.51100000000E-03 0.  1.
         23    2    1    0    0    0  0.84455105650E+01 -0.83130791516E+01 -0.26190960492E+02  0.96252820223E+02  0.91859703111E+02 0.  0.
         11    1    3    3    0    0  0.14958165092E+02 -0.21834598005E+02  0.28880051110E+02  0.39173380315E+02  0.51100000000E-03 0. -1.
         22    1    1    0    0    0 -0.84455105650E+01  0.83130791516E+01  0.26190960492E+02  0.28747179777E+02  0.00000000000E+00 0.  1.
</event>
<event>
 5    1  0.3190780E-003  0.9118800E+02  0.7818608E-02  0.1130116E+00
         25   -1    0    0    0    0  0.00000000000E+00  0.00000000000E+00  0.99999998245E-14  0.12500000000E+03  0.12500000000E+03 0.  0.
        -11    1    3    3    0    0 -0.13164440248E+02 -0.68197937521E+01 -0.60062236444E+02  0.61865049267E+02  0.51100000000E-03 0. -1.
         23    2    1    0    0    0 -0.18036039981E+01 -0.74523649583E+01 -0.30755261419E+02  0.93303362390E+02  0.87754433491E+02 0.  0.
         11    1    3    3    0    0  0.11360836249E+02 -0.63257120621E+00  0.29306975025E+02  0.31438313123E+02  0.51100000000E-03 0.  1.
         22    1    1    0    0    0  0.18036039981E+01  0.74523649583E+01  0.30755261419E+02  0.31696637610E+02  0.00000000000E+00 0. -1.
</event>
<event>
 5    1  0.3190780E-003  0.9118800E+02  0.7818608E-02  0.1130116E+00
         25   -1    0    0    0    0  0.00000000000E+00  0.00000000000E+00  0.99999998245E-14  0.12500000000E+03  0.12500000000E+03 0.  0.
        -11    1    3    3    0    0 -0.32105536001E+02 -0.98423518586E+01 -0.80625719492E+01  0.34534655040E+02  0.51100000000E-03 0.  1.
         23    2    1    0    0    0 -0.38979054492E+01  0.57678444488E+01  0.35553044231E+02  0.88771825183E+02  0.81042928722E+02 0.  0.
         11    1    3    3    0    0  0.28207630552E+02  0.15610196307E+02  0.43615616180E+02  0.54237170143E+02  0.51100000000E-03 0. -1.
         22    1    1    0    0    0  0.38979054492E+01 -0.57678444488E+01 -0.35553044231E+02  0.36228174817E+02  0.00000000000E+00 0. -1.
</event>
<event>
 5    1  0.3190780E-003  0.9118800E+02  0.7818608E-02  0.1130116E+00
         25   -1    0    0    0    0  0.00000000000E+00  0.00000000000E+00  0.99999998245E-14  0.12500000000E+03  0.12500000000E+03 0.  0.
        -11    1    3    3    0    0  0.44638436755E+00 -0.34180696124E+02  0.24162770191E+02  0.41861183812E+02  0.51100000000E-03 0.  1.
         23    2    1    0    0    0 -0.24641664832E+02 -0.90976406185E+01 -0.15038826745E+02  0.94732112390E+02  0.89766519914E+02 0.  0.
         11    1    3    3    0    0 -0.25088049199E+02  0.25083055505E+02 -0.39201596936E+02  0.52870928578E+02  0.51100000000E-03 0. -1.
         22    1    1    0    0    0  0.24641664832E+02  0.90976406185E+01  0.15038826745E+02  0.30267887610E+02  0.00000000000E+00 0. -1.
</event>
<event>
 5    1  0.3190780E-003  0.9118800E+02  0.7818608E-02  0.1130116E+00
         25   -1    0    0    0    0  0.00000000000E+00  0.00000000000E+00  0.99999998245E-14  0.12500000000E+03  0.12500000000E+03 0.  0.
        -11    1    3    3    0    0  0.52107877363E+02  0.30139810178E+01 -0.12725580187E+02  0.53723880689E+02  0.51100000000E-03 0. -1.
         23    2    1    0    0    0  0.24078060110E+02 -0.63190449871E+01  0.16384146051E+02  0.95198598187E+02  0.90413768568E+02 0.  0.
         11    1    3    3    0    0 -0.28029817254E+02 -0.93330260049E+01  0.29109726238E+02  0.41474717498E+02  0.51100000000E-03 0.  1.
         22    1    1    0    0    0 -0.24078060110E+02  0.63190449871E+01 -0.16384146051E+02  0.29801401813E+02  0.00000000000E+00 0. -1.
</event>
<event>
 5    1  0.3190780E-003  0.9118800E+02  0.7818608E-02  0.1130116E+00
         25   -1    0    0    0    0  0.00000000000E+00  0.00000000000E+00  0.99999998245E-14  0.12500000000E+03  0.12500000000E+03 0.  0.
        -11    1    3    3    0    0 -0.39038679625E+02  0.12013516400E+02  0.52946190212E+01  0.41187086253E+02  0.51100000000E-03 0.  1.
         23    2    1    0    0    0  0.89467252756E+00 -0.92983751473E+01 -0.26762845328E+02  0.96653746115E+02  0.92403660797E+02 0.  0.
         11    1    3    3    0    0  0.39933352153E+02 -0.21311891547E+02 -0.32057464349E+02  0.55466659862E+02  0.51100000000E-03 0. -1.
         22    1    1    0    0    0 -0.89467252756E+00  0.92983751473E+01  0.26762845328E+02  0.28346253885E+02  0.00000000000E+00 0. -1.
</event>
<event>
 5    1  0.3190780E-003  0.9118800E+02  0.7818608E-02  0.1130116E+00
         25   -1    0    0    0    0  0.00000000000E+00  0.00000000000E+00  0.99999998245E-14  0.12500000000E+03  0.12500000000E+03 0.  0.
        -11    1    3    3    0    0 -0.13323845316E+01 -0.30818443994E+02  0.15614951712E+02  0.34574245559E+02  0.51100000000E-03 0. -1.
         23    2    1    0    0    0  0.16651515957E+02  0.15258285188E+02 -0.19441504062E+02  0.95199658882E+02  0.90415235003E+02 0.  0.
         11    1    3    3    0    0  0.17983900489E+02  0.46076729182E+02 -0.35056455774E+02  0.60625413323E+02  0.51100000000E-03 0.  1.
         22    1    1    0    0    0 -0.16651515957E+02 -0.15258285188E+02  0.19441504062E+02  0.29800341118E+02  0.00000000000E+00 0.  1.
</event>
<event>
 5    1  0.3190780E-003  0.9118800E+02  0.7818608E-02  0.1130116E+00
         25   -1    0    0    0    0  0.00000000000E+00  0.00000000000E+00  0.99999998245E-14  0.12500000000E+03  0.12500000000E+03 0.  0.
        -11    1    3    3    0    0 -0.10890731018E+02 -0.20924079416E+02  0.50467459285E+02  0.55708074535E+02  0.51100000000E-03 0.  1.
         23    2    1    0    0    0  0.15212842747E+02 -0.12935661182E+02  0.18117118259E+02  0.98037212891E+02  0.94256581854E+02 0.  0.
         11    1    3    3    0    0  0.26103573765E+02  0.79884182345E+01 -0.32350341025E+02  0.42329138356E+02  0.51100000000E-03 0. -1.
         22    1    1    0    0    0 -0.15212842747E+02  0.12935661182E+02 -0.18117118259E+02  0.26962787109E+02  0.00000000000E+00 0.  1.
</event>
<event>
 5    1  0.3190780E-003  0.9118800E+02  0.7818608E-02  0.1130116E+00
         25   -1    0    0    0    0  0.00000000000E+00  0.00000000000E+00  0.99999998245E-14  0.12500000000E+03  0.12500000000E+03 0.  0.
        -11    1    3    3    0    0 -0.25220991418E+02  0.25733773457E+02  0.20573682947E+02  0.41492191250E+02  0.51100000000E-03 0. -1.
         23    2    1    0    0    0 -0.65202147421E+00 -0.22047371484E+02  0.20003993668E+02  0.95222970531E+02  0.90447457856E+02 0.  0.
         11    1    3    3    0    0  0.24568969944E+02 -0.47781144941E+02 -0.56968927912E+00  0.53730779281E+02  0.51100000000E-03 0.  1.
         22    1    1    0    0    0  0.65202147421E+00  0.22047371484E+02 -0.20003993668E+02  0.29777029469E+02  0.00000000000E+00 0.  1.
</event>
<event>
 5    1  0.3190780E-003  0.9118800E+02  0.7818608E-02  0.1130116E+00
         25   -1    0    0    0    0  0.00000000000E+00  0.00000000000E+00  0.99999998245E-14  0.12500000000E+03  0.12500000000E+03 0.  0.
        -11    1    3    3    0    0  0.49430147214E+02 -0.24119794271E+02 -0.21087603818E+02  0.58904931579E+02  0.51100000000E-03 0.  1.
         23    2    1    0    0    0  0.27066569675E+02  0.22672337155E+01 -0.37983604270E+01  0.97574335293E+02  0.93640716695E+02 0.  0.
         11    1    3    3    0    0 -0.22363577539E+02  0.26387027986E+02  0.17289243391E+02  0.38669403714E+02  0.51100000000E-03 0. -1.
         22    1    1    0    0    0 -0.27066569675E+02 -0.22672337155E+01  0.37983604270E+01  0.27425664707E+02  0.00000000000E+00 0.  1.
</event>
<event>
 5    1  0.3190780E-003  0.9118800E+02  0.7818608E-02  0.1130116E+00
         25   -1    0    0    0    0  0.00000000000E+00  0.00000000000E+00  0.99999998245E-14  0.12500000000E+03  0.12500000000E+03 0.  0.
        -11    1    3    3    0    0  0.18634355605E+02 -0.65807933651E+01 -0.55224115742E+02  0.58653635948E+02  0.51100000000E-03 0.  1.
         23    2    1    0    0    0 -0.45130549292E+01 -0.11601455219E+02 -0.25175853784E+02  0.96914682808E+02  0.92755973943E+02 0.  0.
         11    1    3    3    0    0 -0.23147410534E+02 -0.50206618536E+01  0.30048261958E+02  0.38261046860E+02  0.51100000000E-03 0. -1.
         22    1    1    0    0    0  0.45130549292E+01  0.11601455219E+02  0.25175853784E+02  0.28085317192E+02  0.00000000000E+00 0.  1.
</event>
<event>
 5    1  0.3190780E-003  0.9118800E+02  0.7818608E-02  0.1130116E+00
         25   -1    0    0    0    0  0.00000000000E+00  0.00000000000E+00  0.99999998245E-14  0.12500000000E+03  0.12500000000E+03 0.  0.
        -11    1    3    3    0    0 -0.10575508311E+02  0.39058981069E+02  0.20697883069E+02  0.45451597793E+02  0.51100000000E-03 0. -1.
         23    2    1    0    0    0 -0.13342483776E+02 -0.36552449609E+01 -0.17411251823E+02  0.10276187105E+03  0.10032680481E+03 0.  0.
         11    1    3    3    0    0 -0.27669754654E+01 -0.42714226030E+02 -0.38109134892E+02  0.57310273259E+02  0.51100000000E-03 0.  1.
         22    1    1    0    0    0  0.13342483776E+02  0.36552449609E+01  0.17411251823E+02  0.22238128947E+02  0.00000000000E+00 0. -1.
</event>
<event>
 5    1  0.3190780E-003  0.9118800E+02  0.7818608E-02  0.1130116E+00
         25   -1    0    0    0    0  0.00000000000E+00  0.00000000000E+00  0.99999998245E-14  0.12500000000E+03  0.12500000000E+03 0.  0.
        -11    1    3    3    0    0 -0.56932613155E+02 -0.15887266939E+02  0.92994733625E+01  0.59834838485E+02  0.51100000000E-03 0.  1.
         23    2    1    0    0    0 -0.19908139089E+02 -0.12648631547E+02  0.14424568754E+02  0.97352394937E+02  0.93343980707E+02 0.  0.
         11    1    3    3    0    0  0.37024474066E+02  0.32386353922E+01  0.51250953910E+01  0.37517556452E+02  0.51100000000E-03 0. -1.
         22    1    1    0    0    0  0.19908139089E+02  0.12648631547E+02 -0.14424568754E+02  0.27647605063E+02  0.00000000000E+00 0.  1.
</event>
<event>
 5    1  0.3190780E-003  0.9118800E+02  0.7818608E-02  0.1130116E+00
         25   -1    0    0    0    0  0.00000000000E+00  0.00000000000E+00  0.99999998245E-14  0.12500000000E+03  0.12500000000E+03 0.  0.
        -11    1    3    3    0    0 -0.43199881337E+02 -0.10957631971E+02  0.27467415014E+02  0.52352252423E+02  0.51100000000E-03 0. -1.
         23    2    1    0    0    0 -0.14386992377E+02 -0.28251757025E+02  0.46848944640E+01  0.92951668361E+02  0.87252032013E+02 0.  0.
         11    1    3    3    0    0  0.28812888960E+02 -0.17294125055E+02 -0.22782520550E+02  0.40599415938E+02  0.51100000000E-03 0.  1.
         22    1    1    0    0    0  0.14386992377E+02  0.28251757025E+02 -0.46848944640E+01  0.32048331639E+02  0.00000000000E+00 0. -1.
</event>
<event>
 5    1  0.3190780E-003  0.9118800E+02  0.7818608E-02  0.1130116E+00
         25   -1    0    0    0    0  0.00000000000E+00  0.00000000000E+00  0.99999998245E-14  0.12500000000E+03  0.12500000000E+03 0.  0.
        -11    1    3    3    0    0 -0.29584233644E+02 -0.17149542585E+02  0.70409183084E+01  0.34912866139E+02  0.51100000000E-03 0.  1.
         23    2    1    0    0    0  0.10725658783E+02  0.27025852696E+02 -0.37550185041E+01  0.95682144788E+02  0.91079834195E+02 0.  0.
         11    1    3    3    0    0  0.40309892426E+02  0.44175395281E+02 -0.10795936812E+02  0.60769278649E+02  0.51100000000E-03 0. -1.
         22    1    1    0    0    0 -0.10725658783E+02 -0.27025852696E+02  0.37550185041E+01  0.29317855212E+02  0.00000000000E+00 0. -1.
</event>
<event>
 5    1  0.3190780E-003  0.9118800E+02  0.7818608E-02  0.1130116E+00
         25   -1    0    0    0    0  0.00000000000E+00  0.00000000000E+00  0.99999998245E-14  0.12500000000E+03  0.12500000000E+03 0.  0.
        -11    1    3    3    0    0 -0.82583742937E+01 -0.39159000354E+02  0.30362262094E+02  0.50234400707E+02  0.51100000000E-03 0.  1.
         23    2    1    0    0    0 -0.95375114269E+01 -0.23900890017E+02 -0.12963077839E+02  0.96185801158E+02  0.91768460211E+02 0.  0.
         11    1    3    3    0    0 -0.12791371332E+01  0.15258110337E+02 -0.43325339933E+02  0.45951400451E+02  0.51100000000E-03 0. -1.
         22    1    1    0    0    0  0.95375114269E+01  0.23900890017E+02  0.12963077839E+02  0.28814198842E+02  0.00000000000E+00 0. -1.
</event>
<event>
 5    1  0.3190780E-003  0.9118800E+02  0.7818608E-02  0.1130116E+00
         25   -1    0    0    0    0  0.00000000000E+00  0.00000000000E+00  0.99999998245E-14  0.12500000000E+03  0.12500000000E+03 0.  0.
        -11    1    3    3    0    0  0.16045141946E+02 -0.30651479654E+01  0.41994768956E+02  0.45059985930E+02  0.51100000000E-03 0.  1.
         23    2    1    0    0    0  0.20036049574E+02 -0.22319135380E+02 -0.36746596250E+01  0.94782617420E+02  0.89836820708E+02 0.  0.
         11    1    3    3    0    0  0.39909076271E+01 -0.19253987415E+02 -0.45669428581E+02  0.49722631489E+02  0.51100000000E-03 0. -1.
         22    1    1    0    0    0 -0.20036049574E+02  0.22319135380E+02  0.36746596250E+01  0.30217382580E+02  0.00000000000E+00 0.  1.
</event>
<event>
 5    1  0.3190780E-003  0.9118800E+02  0.7818608E-02  0.1130116E+00
         25   -1    0    0    0    0  0.00000000000E+00  0.00000000000E+00  0.99999998245E-14  0.12500000000E+03  0.12500000000E+03 0.  0.
        -11    1    3    3    0    0  0.34775239569E+02 -0.10243658557E+02 -0.35466882177E+01  0.36425661631E+02  0.51100000000E-03 0. -1.
         23    2    1    0    0    0 -0.10230815522E+02  0.19202134252E+02  0.20286007777E+02  0.95252501658E+02  0.90488261198E+02 0.  0.
         11    1    3    3    0    0 -0.45006055090E+02  0.29445792809E+02  0.23832695994E+02  0.58826840027E+02  0.51100000000E-03 0.  1.
         22    1    1    0    0    0  0.10230815522E+02 -0.19202134252E+02 -0.20286007777E+02  0.29747498342E+02  0.00000000000E+00 0.  1.
</event>
<event>
 5    1  0.3190780E-003  0.9118800E+02  0.7818608E-02  0.1130116E+00
         25   -1    0    0    0    0  0.00000000000E+00  0.00000000000E+00  0.99999998245E-14  0.12500000000E+03  0.12500000000E+03 0.  0.
        -11    1    3    3    0    0 -0.27781432387E+02 -0.52563852659E+02 -0.66198362102E+01  0.59821307437E+02  0.51100000000E-03 0. -1.
         23    2    1    0    0    0 -0.62090513086E+01 -0.27925914304E+02  0.74107320686E+01  0.95447877273E+02  0.90757750734E+02 0.  0.
         11    1    3    3    0    0  0.21572381079E+02  0.24637938355E+02  0.14030568279E+02  0.35626569836E+02  0.51100000000E-03 0.  1.
         22    1    1    0    0    0  0.62090513086E+01  0.27925914304E+02 -0.74107320686E+01  0.29552122727E+02  0.00000000000E+00 0. -1.
</event>
<event>
 5    1  0.3190780E-003  0.9118800E+02  0.7818608E-02  0.1130116E+00
         25   -1    0    0    0    0  0.00000000000E+00  0.00000000000E+00  0.99999998245E-14  0.12500000000E+03  0.12500000000E+03 0.  0.
        -11    1    3    3    0    0 -0.33549861850E+02  0.13075225348E+02 -0.40871677692E+02  0.54470623144E+02  0.51100000000E-03 0.  1.
         23    2    1    0    0    0 -0.44305873725E+01  0.25107856850E+02 -0.13810311945E+02  0.96004150365E+02  0.91520694879E+02 0.  0.
         11    1    3    3    0    0  0.29119274478E+02  0.12032631501E+02  0.27061365747E+02  0.41533527220E+02  0.51100000000E-03 0. -1.
         22    1    1    0    0    0  0.44305873725E+01 -0.25107856850E+02  0.13810311945E+02  0.28995849635E+02  0.00000000000E+00 0.  1.
</event>
<event>
 5    1  0.3190780E-003  0.9118800E+02  0.7818608E-02  0.1130116E+00
         25   -1    0    0    0    0  0.00000000000E+00  0.00000000000E+00  0.99999998245E-14  0.12500000000E+03  0.12500000000E+03 0.  0.
        -11    1    3    3    0    0  0.11209612804E+02 -0.25960052751E+02 -0.23900478775E+02  0.37024487086E+02  0.51100000000E-03 0.  1.
         23    2    1    0    0    0 -0.45373472266E+01 -0.13210135193E+02  0.28530326453E+02  0.93234063540E+02  0.87655666588E+02 0.  0.
         11    1    3    3    0    0 -0.15746960031E+02  0.12749917558E+02  0.52430805228E+02  0.56209576454E+02  0.51100000000E-03 0. -1.
         22    1    1    0    0    0  0.45373472266E+01  0.13210135193E+02 -0.28530326453E+02  0.31765936460E+02  0.00000000000E+00 0. -1.
</event>
<event>
 5    1  0.3190780E-003  0.9118800E+02  0.7818608E-02  0.1130116E+00
         25   -1    0    0    0    0  0.00000000000E+00  0.00000000000E+00  0.99999998245E-14  0.12500000000E+03  0.12500000000E+03 0.  0.
        -11    1    3    3    0    0 -0.50216781905E+02 -0.12500326307E+02 -0.28804732671E+02  0.59225804909E+02  0.51100000000E-03 0. -1.
         23    2    1    0    0    0 -0.15274883737E+02 -0.15880912711E+02 -0.19580530902E+02  0.95522506007E+02  0.90860478216E+02 0.  0.
         11    1    3    3    0    0  0.34941898168E+02 -0.33805864040E+01  0.92242017694E+01  0.36296701097E+02  0.51100000000E-03 0.  1.
         22    1    1    0    0    0  0.15274883737E+02  0.15880912711E+02  0.19580530902E+02  0.29477493993E+02  0.00000000000E+00 0. -1.
</event>
<event>
 5    1  0.3190780E-003  0.9118800E+02  0.7818608E-02  0.1130116E+00
         25   -1    0    0    0    0  0.00000000000E+00  0.00000000000E+00  0.99999998245E-14  0.12500000000E+03  0.12500000000E+03 0.  0.
        -11    1    3    3    0    0  0.15129379086E+02 -0.11483637923E+02  0.44401763078E+02  0.48293774093E+02  0.51100000000E-03 0. -1.
         23    2    1    0    0    0  0.28608532948E+02 -0.42661822758E+01 -0.85388941875E+00  0.96062522643E+02  0.91600385703E+02 0.  0.
         11    1    3    3    0    0  0.13479153862E+02  0.72174556475E+01 -0.45255652497E+02  0.47768748550E+02  0.51100000000E-03 0.  1.
         22    1    1    0    0    0 -0.28608532948E+02  0.42661822758E+01  0.85388941875E+00  0.28937477357E+02  0.00000000000E+00 0.  1.
</event>
<event>
 5    1  0.3190780E-003  0.9118800E+02  0.7818608E-02  0.1130116E+00
         25   -1    0    0    0    0  0.00000000000E+00  0.00000000000E+00  0.99999998245E-14  0.12500000000E+03  0.12500000000E+03 0.  0.
        -11    1    3    3    0    0  0.71093304082E+01  0.19555442122E+02 -0.39377585625E+02  0.44537087302E+02  0.51100000000E-03 0.  1.
         23    2    1    0    0    0 -0.15913291615E+02 -0.19236052130E+02 -0.12041211198E+02  0.97282689187E+02  0.93250588721E+02 0.  0.
         11    1    3    3    0    0 -0.23022622023E+02 -0.38791494252E+02  0.27336374427E+02  0.52745601885E+02  0.51100000000E-03 0. -1.
         22    1    1    0    0    0  0.15913291615E+02  0.19236052130E+02  0.12041211198E+02  0.27717310813E+02  0.00000000000E+00 0. -1.
</event>
<event>
 5    1  0.3190780E-003  0.9118800E+02  0.7818608E-02  0.1130116E+00
         25   -1    0    0    0    0  0.00000000000E+00  0.00000000000E+00  0.99999998245E-14  0.12500000000E+03  0.12500000000E+03 0.  0.
        -11    1    3    3    0    0  0.27042602696E+02  0.71764920152E+01  0.50665291484E+02  0.57877250796E+02  0.51100000000E-03 0. -1.
         23    2    1    0    0    0  0.27606844818E+02  0.34170457136E+01  0.15681691393E+02  0.93066795852E+02  0.87416811673E+02 0.  0.
         11    1    3    3    0    0  0.56424212182E+00 -0.37594463016E+01 -0.34983600091E+02  0.35189545056E+02  0.51100000000E-03 0.  1.
         22    1    1    0    0    0 -0.27606844818E+02 -0.34170457136E+01 -0.15681691393E+02  0.31933204148E+02  0.00000000000E+00 0. -1.
</event>
<event>
 5    1  0.3190780E-003  0.9118800E+02  0.7818608E-02  0.1130116E+00
         25   -1    0    0    0    0  0.00000000000E+00  0.00000000000E+00  0.99999998245E-14  0.12500000000E+03  0.12500000000E+03 0.  0.
        -11    1    3    3    0    0  0.44831595839E+02  0.43524722826E+01 -0.98678206301E+00  0.45053187895E+02  0.51100000000E-03 0.  1.
         23    2    1    0    0    0 -0.16017624335E+01  0.21261533479E+02 -0.17772382773E+02  0.97242549861E+02  0.93196767462E+02 0.  0.
         11    1    3    3    0    0 -0.46433358272E+02  0.16909061196E+02 -0.16785600710E+02  0.52189361966E+02  0.51100000000E-03 0. -1.
         22    1    1    0    0    0  0.16017624335E+01 -0.21261533479E+02  0.17772382773E+02  0.27757450139E+02  0.00000000000E+00 0.  1.
</event>
<event>
 5    1  0.3190780E-003  0.9118800E+02  0.7818608E-02  0.1130116E+00
         25   -1    0    0    0    0  0.00000000000E+00  0.00000000000E+00  0.99999998245E-14  0.12500000000E+03  0.12500000000E+03 0.  0.
        -11    1    3    3    0    0 -0.10351934095E+02  0.47841032852E+02  0.44402579402E+01  0.49149189766E+02  0.51100000000E-03 0. -1.
         23    2    1    0    0    0 -0.21436547384E+02  0.27292906394E+02 -0.21599186743E+02  0.84122705922E+02  0.73523305697E+02 0.  0.
         11    1    3    3    0    0 -0.11084613289E+02 -0.20548126458E+02 -0.26039444683E+02  0.34973516156E+02  0.51100000000E-03 0.  1.
         22    1    1    0    0    0  0.21436547384E+02 -0.27292906394E+02  0.21599186743E+02  0.40877294078E+02  0.00000000000E+00 0. -1.
</event>
<event>
 5    1  0.3190780E-003  0.9118800E+02  0.7818608E-02  0.1130116E+00
         25   -1    0    0    0    0  0.00000000000E+00  0.00000000000E+00  0.99999998245E-14  0.12500000000E+03  0.12500000000E+03 0.  0.
        -11    1    3    3    0    0 -0.31777861607E+02 -0.26073241048E+02 -0.27733183871E+01  0.41198758261E+02  0.51100000000E-03 0.  1.
         23    2    1    0    0    0 -0.15838215052E+02  0.24628105375E+02 -0.81166987123E+01  0.94614585269E+02  0.89602713783E+02 0.  0.
         11    1    3    3    0    0  0.15939646555E+02  0.50701346423E+02 -0.53433803252E+01  0.53415827008E+02  0.51100000000E-03 0. -1.
         22    1    1    0    0    0  0.15838215052E+02 -0.24628105375E+02  0.81166987123E+01  0.30385414731E+02  0.00000000000E+00 0. -1.
</event>
<event>
 5    1  0.3190780E-003  0.9118800E+02  0.7818608E-02  0.1130116E+00
         25   -1    0    0    0    0  0.00000000000E+00  0.00000000000E+00  0.99999998245E-14  0.12500000000E+03  0.12500000000E+03 0.  0.
        -11    1    3    3    0    0 -0.46028836771E+02 -0.15913847985E+02 -0.34596218570E+01  0.48824925559E+02  0.51100000000E-03 0. -1.
         23    2    1    0    0    0 -0.55530676861E+01 -0.25840955468E+02  0.15225591817E+02  0.94497374106E+02  0.89439049227E+02 0.  0.
         11    1    3    3    0    0  0.40475769085E+02 -0.99271074828E+01  0.18685213674E+02  0.45672448547E+02  0.51100000000E-03 0.  1.
         22    1    1    0    0    0  0.55530676861E+01  0.25840955468E+02 -0.15225591817E+02  0.30502625894E+02  0.00000000000E+00 0.  1.
</event>
<event>
 5    1  0.3190780E-003  0.9118800E+02  0.7818608E-02  0.1130116E+00
         25   -1    0    0    0    0  0.00000000000E+00  0.00000000000E+00  0.99999998245E-14  0.12500000000E+03  0.12500000000E+03 0.  0.
        -11    1    3    3    0    0 -0.18835153164E+02  0.20136451149E+01  0.42554856690E+02  0.46580399199E+02  0.51100000000E-03 0.  1.
         23    2    1    0    0    0  0.14062244494E+02  0.22616825236E+02  0.13020811132E+02  0.95355286703E+02  0.90630136686E+02 0.  0.
         11    1    3    3    0    0  0.32897397657E+02  0.20603180121E+02 -0.29534045559E+02  0.48774887504E+02  0.51100000000E-03 0. -1.
         22    1    1    0    0    0 -0.14062244494E+02 -0.22616825236E+02 -0.13020811132E+02  0.29644713297E+02  0.00000000000E+00 0.  1.
</event>
<event>
 5    1  0.3190780E-003  0.9118800E+02  0.7818608E-02  0.1130116E+00
         25   -1    0    0    0    0  0.00000000000E+00  0.00000000000E+00  0.99999998245E-14  0.12500000000E+03  0.12500000000E+03 0.  0.
        -11    1    3    3    0    0  0.60953777706E+01 -0.36259601877E+02 -0.25157171017E+02  0.44551045019E+02  0.51100000000E-03 0. -1.
         23    2    1    0    0    0  0.14115197968E+02  0.12191960426E+02 -0.25183255258E+02  0.93661859371E+02  0.88263609957E+02 0.  0.
         11    1    3    3    0    0  0.80198201972E+01  0.48451562303E+02 -0.26084241608E-01  0.49110814352E+02  0.51100000000E-03 0.  1.
         22    1    1    0    0    0 -0.14115197968E+02 -0.12191960426E+02  0.25183255258E+02  0.31338140629E+02  0.00000000000E+00 0.  1.
</event>
<event>
 5    1  0.3190780E-003  0.9118800E+02  0.7818608E-02  0.1130116E+00
         25   -1    0    0    0    0  0.00000000000E+00  0.00000000000E+00  0.99999998245E-14  0.12500000000E+03  0.12500000000E+03 0.  0.
        -11    1    3    3    0    0 -0.21536284355E+02 -0.22197072360E+02  0.28886790227E+02  0.42319832408E+02  0.51100000000E-03 0.  1.
         23    2    1    0    0    0  0.18523273152E+02 -0.22862874333E+02 -0.54368719229E+01  0.95077061519E+02  0.90245583713E+02 0.  0.
         11    1    3    3    0    0  0.40059557507E+02 -0.66580197364E+00 -0.34323662149E+02  0.52757229111E+02  0.51100000000E-03 0. -1.
         22    1    1    0    0    0 -0.18523273152E+02  0.22862874333E+02  0.54368719229E+01  0.29922938481E+02  0.00000000000E+00 0. -1.
</event>
<event>
 5    1  0.3190780E-003  0.9118800E+02  0.7818608E-02  0.1130116E+00
         25   -1    0    0    0    0  0.00000000000E+00  0.00000000000E+00  0.99999998245E-14  0.12500000000E+03  0.12500000000E+03 0.  0.
        -11    1    3    3    0    0  0.15689651332E+02 -0.85669235834E+01  0.29028775105E+02  0.34091452344E+02  0.51100000000E-03 0. -1.
         23    2    1    0    0    0  0.44276370506E+01 -0.69290956619E+00 -0.29983946373E+02  0.94682989368E+02  0.89698089958E+02 0.  0.
         11    1    3    3    0    0 -0.11262014282E+02  0.78740140172E+01 -0.59012721478E+02  0.60591537024E+02  0.51100000000E-03 0.  1.
         22    1    1    0    0    0 -0.44276370506E+01  0.69290956619E+00  0.29983946373E+02  0.30317010632E+02  0.00000000000E+00 0.  1.
</event>
<event>
 5    1  0.3190780E-003  0.9118800E+02  0.7818608E-02  0.1130116E+00
         25   -1    0    0    0    0  0.00000000000E+00  0.00000000000E+00  0.99999998245E-14  0.12500000000E+03  0.12500000000E+03 0.  0.
        -11    1    3    3    0    0 -0.44339551879E+02 -0.57866129005E+00 -0.47745063968E+01  0.44599625798E+02  0.51100000000E-03 0.  1.
         23    2    1    0    0    0 -0.37900661332E+00 -0.77584869439E+01 -0.28773545861E+02  0.95196397749E+02  0.90410726340E+02 0.  0.
         11    1    3    3    0    0  0.43960545265E+02 -0.71798256539E+01 -0.23999039465E+02  0.50596771952E+02  0.51100000000E-03 0. -1.
         22    1    1    0    0    0  0.37900661332E+00  0.77584869439E+01  0.28773545861E+02  0.29803602251E+02  0.00000000000E+00 0. -1.
</event>
<event>
 5    1  0.3190780E-003  0.9118800E+02  0.7818608E-02  0.1130116E+00
         25   -1    0    0    0    0  0.00000000000E+00  0.00000000000E+00  0.99999998245E-14  0.12500000000E+03  0.12500000000E+03 0.  0.
        -11    1    3    3    0    0 -0.18260406833E+02  0.13237557358E+02  0.32331020463E+02  0.39420429563E+02  0.51100000000E-03 0.  1.
         23    2    1    0    0    0 -0.65441165371E+01 -0.25263116157E+02 -0.92738305873E+01  0.97304252438E+02  0.93279489222E+02 0.  0.
         11    1    3    3    0    0  0.11716290296E+02 -0.38500673515E+02 -0.41604851051E+02  0.57883822875E+02  0.51100000000E-03 0. -1.
         22    1    1    0    0    0  0.65441165371E+01  0.25263116157E+02  0.92738305873E+01  0.27695747562E+02  0.00000000000E+00 0. -1.
</event>
<event>
 5    1  0.3190780E-003  0.9118800E+02  0.7818608E-02  0.1130116E+00
         25   -1    0    0    0    0  0.00000000000E+00  0.00000000000E+00  0.99999998245E-14  0.12500000000E+03  0.12500000000E+03 0.  0.
        -11    1    3    3    0    0  0.27776472643E+02  0.35154345486E+02  0.64645441769E+01  0.45267546550E+02  0.51100000000E-03 0.  1.
         23    2    1    0    0    0 -0.37456475465E+01  0.53525309807E+00  0.27959192530E+02  0.96785946439E+02  0.92582323419E+02 0.  0.
         11    1    3    3    0    0 -0.31522120189E+02 -0.34619092388E+02  0.21494648353E+02  0.51518399888E+02  0.51100000000E-03 0. -1.
         22    1    1    0    0    0  0.37456475465E+01 -0.53525309807E+00 -0.27959192530E+02  0.28214053561E+02  0.00000000000E+00 0. -1.
</event>
<event>
 5    1  0.3190780E-003  0.9118800E+02  0.7818608E-02  0.1130116E+00
         25   -1    0    0    0    0  0.00000000000E+00  0.00000000000E+00  0.99999998245E-14  0.12500000000E+03  0.12500000000E+03 0.  0.
        -11    1    3    3    0    0 -0.17941578234E+02 -0.26291625958E+02  0.52240404067E+02  0.61173602496E+02  0.51100000000E-03 0.  1.
         23    2    1    0    0    0 -0.88855163879E+01 -0.19742137529E+02  0.19164670168E+02  0.96086526007E+02  0.91633135392E+02 0.  0.
         11    1    3    3    0    0  0.90560618462E+01  0.65494884288E+01 -0.33075733899E+02  0.34912923511E+02  0.51100000000E-03 0. -1.
         22    1    1    0    0    0  0.88855163879E+01  0.19742137529E+02 -0.19164670168E+02  0.28913473993E+02  0.00000000000E+00 0.  1.
</event>
<event>
 5    1  0.3190780E-003  0.9118800E+02  0.7818608E-02  0.1130116E+00
         25   -1    0    0    0    0  0.00000000000E+00  0.00000000000E+00  0.99999998245E-14  0.12500000000E+03  0.12500000000E+03 0.  0.
        -11    1    3    3    0    0 -0.33707031584E+02 -0.77106993280E+01  0.71040698060E+01  0.35299952839E+02  0.51100000000E-03 0. -1.
         23    2    1    0    0    0  0.23244102632E+02  0.10317607178E+02  0.14872230903E+02  0.95539440313E+02  0.90883772359E+02 0.  0.
         11    1    3    3    0    0  0.56951134216E+02  0.18028306506E+02  0.77681610973E+01  0.60239487474E+02  0.51100000000E-03 0.  1.
         22    1    1    0    0    0 -0.23244102632E+02 -0.10317607178E+02 -0.14872230903E+02  0.29460559687E+02  0.00000000000E+00 0.  1.
</event>
<event>
 5    1  0.3190780E-003  0.9118800E+02  0.7818608E-02  0.1130116E+00
         25   -1    0    0    0    0  0.00000000000E+00  0.00000000000E+00  0.99999998245E-14  0.12500000000E+03  0.12500000000E+03 0.  0.
        -11    1    3    3    0    0  0.74903922772E+01  0.24680731532E+02  0.31793731070E+02  0.40940027126E+02  0.51100000000E-03 0.  1.
         23    2    1    0    0    0  0.85655238626E+01  0.16921134380E+02 -0.22372879296E+02  0.95670173615E+02  0.91063403208E+02 0.  0.
         11    1    3    3    0    0  0.10751315854E+01 -0.77595971521E+01 -0.54166610366E+02  0.54730146489E+02  0.51100000000E-03 0. -1.
         22    1    1    0    0    0 -0.85655238626E+01 -0.16921134380E+02  0.22372879296E+02  0.29329826385E+02  0.00000000000E+00 0.  1.
</event>
<event>
 5    1  0.3190780E-003  0.9118800E+02  0.7818608E-02  0.1130116E+00
         25   -1    0    0    0    0  0.00000000000E+00  0.00000000000E+00  0.99999998245E-14  0.12500000000E+03  0.12500000000E+03 0.  0.
        -11    1    3    3    0    0 -0.26219105658E+02 -0.25577109537E+02  0.56935158321E+01  0.37068128582E+02  0.51100000000E-03 0.  1.
         23    2    1    0    0    0  0.43318377840E+01  0.20976993187E+02 -0.17452453549E+02  0.97370537526E+02  0.93368272884E+02 0.  0.
         11    1    3    3    0    0  0.30550943442E+02  0.46554102723E+02 -0.23145969381E+02  0.60302408944E+02  0.51100000000E-03 0. -1.
         22    1    1    0    0    0 -0.43318377840E+01 -0.20976993187E+02  0.17452453549E+02  0.27629462474E+02  0.00000000000E+00 0. -1.
</event>
<event>
 5    1  0.3190780E-003  0.9118800E+02  0.7818608E-02  0.1130116E+00
         25   -1    0    0    0    0  0.00000000000E+00  0.00000000000E+00  0.99999998245E-14  0.12500000000E+03  0.12500000000E+03 0.  0.
        -11    1    3    3    0    0  0.18115856990E+02 -0.58760598082E+00  0.54977091817E+02  0.57887910484E+02  0.51100000000E-03 0. -1.
         23    2    1    0    0    0  0.16804341983E+02  0.13176812034E+02  0.19052033600E+02  0.96381924084E+02  0.92035216200E+02 0.  0.
         11    1    3    3    0    0 -0.13115150076E+01  0.13764418015E+02 -0.35925058217E+02  0.38494013600E+02  0.51100000000E-03 0.  1.
         22    1    1    0    0    0 -0.16804341983E+02 -0.13176812034E+02 -0.19052033600E+02  0.28618075916E+02  0.00000000000E+00 0. -1.
</event>
<event>
 5    1  0.3190780E-003  0.9118800E+02  0.7818608E-02  0.1130116E+00
         25   -1    0    0    0    0  0.00000000000E+00  0.00000000000E+00  0.99999998245E-14  0.12500000000E+03  0.12500000000E+03 0.  0.
        -11    1    3    3    0    0  0.90464976723E+01  0.35628747545E+02 -0.16758634308E+02  0.40399240041E+02  0.51100000000E-03 0. -1.
         23    2    1    0    0    0  0.30948805114E+01 -0.22850258595E+02 -0.10969995910E+02  0.99464663435E+02  0.96130982824E+02 0.  0.
         11    1    3    3    0    0 -0.59516171609E+01 -0.58479006140E+02  0.57886383975E+01  0.59065423394E+02  0.51100000000E-03 0.  1.
         22    1    1    0    0    0 -0.30948805114E+01  0.22850258595E+02  0.10969995910E+02  0.25535336565E+02  0.00000000000E+00 0.  1.
</event>
<event>
 5    1  0.3190780E-003  0.9118800E+02  0.7818608E-02  0.1130116E+00
         25   -1    0    0    0    0  0.00000000000E+00  0.00000000000E+00  0.99999998245E-14  0.12500000000E+03  0.12500000000E+03 0.  0.
        -11    1    3    3    0    0  0.38271645111E+02  0.84516245077E+01  0.19877403991E+01  0.39244106417E+02  0.51100000000E-03 0.  1.
         23    2    1    0    0    0 -0.74963481101E+01 -0.77368373672E+01 -0.27099484763E+02  0.95837764800E+02  0.91293160752E+02 0.  0.
         11    1    3    3    0    0 -0.45767993221E+02 -0.16188461875E+02 -0.29087225162E+02  0.56593658383E+02  0.51100000000E-03 0. -1.
         22    1    1    0    0    0  0.74963481101E+01  0.77368373672E+01  0.27099484763E+02  0.29162235200E+02  0.00000000000E+00 0. -1.
</event>
<event>
 5    1  0.3190780E-003  0.9118800E+02  0.7818608E-02  0.1130116E+00
         25   -1    0    0    0    0  0.00000000000E+00  0.00000000000E+00  0.99999998245E-14  0.12500000000E+03  0.12500000000E+03 0.  0.
        -11    1    3    3    0    0  0.45235245088E+02 -0.13047256157E+02 -0.41037948414E+02  0.62454555492E+02  0.51100000000E-03 0.  1.
         23    2    1    0    0    0  0.20903472672E+02 -0.77805688460E+01 -0.19396972524E+02  0.95440991823E+02  0.90748266957E+02 0.  0.
         11    1    3    3    0    0 -0.24331772416E+02  0.52666873110E+01  0.21640975890E+02  0.32986436331E+02  0.51100000000E-03 0. -1.
         22    1    1    0    0    0 -0.20903472672E+02  0.77805688460E+01  0.19396972524E+02  0.29559008177E+02  0.00000000000E+00 0.  1.
</event>
<event>
 5    1  0.3190780E-003  0.9118800E+02  0.7818608E-02  0.1130116E+00
         25   -1    0    0    0    0  0.00000000000E+00  0.00000000000E+00  0.99999998245E-14  0.12500000000E+03  0.12500000000E+03 0.  0.
        -11    1    3    3    0    0 -0.11534279967E+02 -0.32188554114E+02 -0.15817920818E+02  0.37674251812E+02  0.51100000000E-03 0.  1.
         23    2    1    0    0    0  0.30684202441E+01 -0.16334152427E+01  0.30083518184E+02  0.94716319337E+02  0.89744525372E+02 0.  0.
         11    1    3    3    0    0  0.14602700211E+02  0.30555138871E+02  0.45901439002E+02  0.57042067526E+02  0.51100000000E-03 0. -1.
         22    1    1    0    0    0 -0.30684202441E+01  0.16334152427E+01 -0.30083518184E+02  0.30283680663E+02  0.00000000000E+00 0. -1.
</event>
<event>
 5    1  0.3190780E-003  0.9118800E+02  0.7818608E-02  0.1130116E+00
         25   -1    0    0    0    0  0.00000000000E+00  0.00000000000E+00  0.99999998245E-14  0.12500000000E+03  0.12500000000E+03 0.  0.
        -11    1    3    3    0    0 -0.10138790081E+02  0.31250129602E+02  0.22977604139E+02  0.40091594589E+02  0.51100000000E-03 0.  1.
         23    2    1    0    0    0  0.28950024950E+00 -0.24320741516E+02  0.12708811446E+02  0.97557402334E+02  0.93618110339E+02 0.  0.
         11    1    3    3    0    0  0.10428290330E+02 -0.55570871119E+02 -0.10268792693E+02  0.57465807745E+02  0.51100000000E-03 0. -1.
         22    1    1    0    0    0 -0.28950024950E+00  0.24320741516E+02 -0.12708811446E+02  0.27442597666E+02  0.00000000000E+00 0. -1.
</event>
<event>
 5    1  0.3190780E-003  0.9118800E+02  0.7818608E-02  0.1130116E+00
         25   -1    0    0    0    0  0.00000000000E+00  0.00000000000E+00  0.99999998245E-14  0.12500000000E+03  0.12500000000E+03 0.  0.
        -11    1    3    3    0    0 -0.52723699207E+02  0.34449154898E+01  0.12906829622E+02  0.54389724691E+02  0.51100000000E-03 0. -1.
         23    2    1    0    0    0 -0.18207255339E+02  0.19206983990E+02 -0.75245916334E+01  0.97485788031E+02  0.93522441199E+02 0.  0.
         11    1    3    3    0    0  0.34516443867E+02  0.15762068501E+02 -0.20431421256E+02  0.43096063341E+02  0.51100000000E-03 0.  1.
         22    1    1    0    0    0  0.18207255339E+02 -0.19206983990E+02  0.75245916334E+01  0.27514211969E+02  0.00000000000E+00 0.  1.
</event>
<event>
 5    1  0.3190780E-003  0.9118800E+02  0.7818608E-02  0.1130116E+00
         25   -1    0    0    0    0  0.00000000000E+00  0.00000000000E+00  0.99999998245E-14  0.12500000000E+03  0.12500000000E+03 0.  0.
        -11    1    3    3    0    0  0.10170420970E+02 -0.38258694199E+02 -0.94673682856E+01  0.40703761583E+02  0.51100000000E-03 0.  1.
         23    2    1    0    0    0 -0.27496707692E+02  0.18995894769E+01 -0.97515241753E+01  0.95763557026E+02  0.91191497720E+02 0.  0.
         11    1    3    3    0    0 -0.37667128661E+02  0.40158283676E+02 -0.28415588973E+00  0.55059795443E+02  0.51100000000E-03 0. -1.
         22    1    1    0    0    0  0.27496707692E+02 -0.18995894769E+01  0.97515241753E+01  0.29236442974E+02  0.00000000000E+00 0.  1.
</event>
<event>
 5    1  0.3190780E-003  0.9118800E+02  0.7818608E-02  0.1130116E+00
         25   -1    0    0    0    0  0.00000000000E+00  0.00000000000E+00  0.99999998245E-14  0.12500000000E+03  0.12500000000E+03 0.  0.
        -11    1    3    3    0    0  0.24008439231E+02 -0.13276796858E+02  0.39373108626E+02  0.47988750476E+02  0.51100000000E-03 0.  1.
         23    2    1    0    0    0  0.19159249093E+02 -0.13741539668E+02 -0.11271161015E+02  0.98866768113E+02  0.95350364594E+02 0.  0.
         11    1    3    3    0    0 -0.48491901380E+01 -0.46474280997E+00 -0.50644269641E+02  0.50878017637E+02  0.51100000000E-03 0. -1.
         22    1    1    0    0    0 -0.19159249093E+02  0.13741539668E+02  0.11271161015E+02  0.26133231887E+02  0.00000000000E+00 0.  1.
</event>
<event>
 5    1  0.3190780E-003  0.9118800E+02  0.7818608E-02  0.1130116E+00
         25   -1    0    0    0    0  0.00000000000E+00  0.00000000000E+00  0.99999998245E-14  0.12500000000E+03  0.12500000000E+03 0.  0.
        -11    1    3    3    0    0  0.13127968612E+02  0.12094737528E+02  0.29277411080E+02  0.34289838664E+02  0.51100000000E-03 0.  1.
         23    2    1    0    0    0 -0.21170620585E+02 -0.14742983543E+02 -0.13966970682E+02  0.95663554923E+02  0.91054317475E+02 0.  0.
         11    1    3    3    0    0 -0.34298589198E+02 -0.26837721071E+02 -0.43244381762E+02  0.61373716259E+02  0.51100000000E-03 0. -1.
         22    1    1    0    0    0  0.21170620585E+02  0.14742983543E+02  0.13966970682E+02  0.29336445077E+02  0.00000000000E+00 0. -1.
</event>
<event>
 5    1  0.3190780E-003  0.9118800E+02  0.7818608E-02  0.1130116E+00
         25   -1    0    0    0    0  0.00000000000E+00  0.00000000000E+00  0.99999998245E-14  0.12500000000E+03  0.12500000000E+03 0.  0.
        -11    1    3    3    0    0  0.71499201734E+00  0.20206507699E+02 -0.32797620344E+02  0.38529184620E+02  0.51100000000E-03 0. -1.
         23    2    1    0    0    0 -0.19777035691E+02 -0.19753231117E+02  0.42249977144E+01  0.96730371669E+02  0.92507258727E+02 0.  0.
         11    1    3    3    0    0 -0.20492027708E+02 -0.39959738816E+02  0.37022618058E+02  0.58201187050E+02  0.51100000000E-03 0.  1.
         22    1    1    0    0    0  0.19777035691E+02  0.19753231117E+02 -0.42249977144E+01  0.28269628331E+02  0.00000000000E+00 0.  1.
</event>
<event>
 5    1  0.3190780E-003  0.9118800E+02  0.7818608E-02  0.1130116E+00
         25   -1    0    0    0    0  0.00000000000E+00  0.00000000000E+00  0.99999998245E-14  0.12500000000E+03  0.12500000000E+03 0.  0.
        -11    1    3    3    0    0 -0.15878106891E+02  0.45840092127E+02  0.20696130169E+02  0.52742375078E+02  0.51100000000E-03 0. -1.
         23    2    1    0    0    0 -0.25227069680E+02  0.39869597542E+01  0.13105798502E+02  0.96293505141E+02  0.91915049286E+02 0.  0.
         11    1    3    3    0    0 -0.93489627897E+01 -0.41853132373E+02 -0.75903316676E+01  0.43551130063E+02  0.51100000000E-03 0.  1.
         22    1    1    0    0    0  0.25227069680E+02 -0.39869597542E+01 -0.13105798502E+02  0.28706494859E+02  0.00000000000E+00 0. -1.
</event>
<event>
 5    1  0.3190780E-003  0.9118800E+02  0.7818608E-02  0.1130116E+00
         25   -1    0    0    0    0  0.00000000000E+00  0.00000000000E+00  0.99999998245E-14  0.12500000000E+03  0.12500000000E+03 0.  0.
        -11    1    3    3    0    0 -0.59503130417E+00  0.31308521066E+02  0.19869518987E+02  0.37086053156E+02  0.51100000000E-03 0.  1.
         23    2    1    0    0    0 -0.14560622367E+02 -0.51156927940E+01 -0.24423906838E+02  0.96108664591E+02  0.91663330443E+02 0.  0.
         11    1    3    3    0    0 -0.13965591063E+02 -0.36424213860E+02 -0.44293425825E+02  0.59022611436E+02  0.51100000000E-03 0. -1.
         22    1    1    0    0    0  0.14560622367E+02  0.51156927940E+01  0.24423906838E+02  0.28891335409E+02  0.00000000000E+00 0. -1.
</event>
<event>
 5    1  0.3190780E-003  0.9118800E+02  0.7818608E-02  0.1130116E+00
         25   -1    0    0    0    0  0.00000000000E+00  0.00000000000E+00  0.99999998245E-14  0.12500000000E+03  0.12500000000E+03 0.  0.
        -11    1    3    3    0    0  0.10369033770E+02  0.25891918523E+02  0.25497738888E+02  0.37789456133E+02  0.51100000000E-03 0. -1.
         23    2    1    0    0    0  0.15268444530E+01 -0.28291254023E+02  0.60769503197E+01  0.96023188006E+02  0.91546693012E+02 0.  0.
         11    1    3    3    0    0 -0.88421893173E+01 -0.54183172545E+02 -0.19420788568E+02  0.58233731873E+02  0.51100000000E-03 0.  1.
         22    1    1    0    0    0 -0.15268444530E+01  0.28291254023E+02 -0.60769503197E+01  0.28976811994E+02  0.00000000000E+00 0.  1.
</event>
<event>
 5    1  0.3190780E-003  0.9118800E+02  0.7818608E-02  0.1130116E+00
         25   -1    0    0    0    0  0.00000000000E+00  0.00000000000E+00  0.99999998245E-14  0.12500000000E+03  0.12500000000E+03 0.  0.
        -11    1    3    3    0    0 -0.22248949811E+02 -0.26283080196E+02 -0.22640650001E+02  0.41211832100E+02  0.51100000000E-03 0.  1.
         23    2    1    0    0    0  0.22057531080E+02 -0.15152336924E+02  0.89821359864E+01  0.96772234264E+02  0.92563808078E+02 0.  0.
         11    1    3    3    0    0  0.44306480891E+02  0.11130743272E+02  0.31622785988E+02  0.55560402164E+02  0.51100000000E-03 0. -1.
         22    1    1    0    0    0 -0.22057531080E+02  0.15152336924E+02 -0.89821359864E+01  0.28227765736E+02  0.00000000000E+00 0. -1.
</event>
<event>
 5    1  0.3190780E-003  0.9118800E+02  0.7818608E-02  0.1130116E+00
         25   -1    0    0    0    0  0.00000000000E+00  0.00000000000E+00  0.99999998245E-14  0.12500000000E+03  0.12500000000E+03 0.  0.
        -11    1    3    3    0    0 -0.24596750519E+02 -0.19625695500E+02  0.17369741425E+02  0.35942676270E+02  0.51100000000E-03 0.  1.
         23    2    1    0    0    0 -0.18142679483E+02  0.86463636078E+01 -0.28449410405E+02  0.90167753807E+02  0.83168133631E+02 0.  0.
         11    1    3    3    0    0  0.64540710360E+01  0.28272059108E+02 -0.45819151831E+02  0.54225077537E+02  0.51100000000E-03 0. -1.
         22    1    1    0    0    0  0.18142679483E+02 -0.86463636078E+01  0.28449410405E+02  0.34832246193E+02  0.00000000000E+00 0. -1.
</event>
<event>
 5    1  0.3190780E-003  0.9118800E+02  0.7818608E-02  0.1130116E+00
         25   -1    0    0    0    0  0.00000000000E+00  0.00000000000E+00  0.99999998245E-14  0.12500000000E+03  0.12500000000E+03 0.  0.
        -11    1    3    3    0    0  0.22253274906E+02  0.22657799843E+02  0.13277921585E+02  0.34422192545E+02  0.51100000000E-03 0.  1.
         23    2    1    0    0    0 -0.90664785372E+01 -0.28143650203E+02  0.64347523233E+00  0.95425008197E+02  0.90726247851E+02 0.  0.
         11    1    3    3    0    0 -0.31319753443E+02 -0.50801450045E+02 -0.12634446353E+02  0.61002815651E+02  0.51100000000E-03 0. -1.
         22    1    1    0    0    0  0.90664785372E+01  0.28143650203E+02 -0.64347523233E+00  0.29574991803E+02  0.00000000000E+00 0. -1.
</event>
<event>
 5    1  0.3190780E-003  0.9118800E+02  0.7818608E-02  0.1130116E+00
         25   -1    0    0    0    0  0.00000000000E+00  0.00000000000E+00  0.99999998245E-14  0.12500000000E+03  0.12500000000E+03 0.  0.
        -11    1    3    3    0    0  0.89076490902E+01  0.23408993293E+02  0.55309974805E+02  0.60716723334E+02  0.51100000000E-03 0.  1.
         23    2    1    0    0    0  0.14226480270E+02  0.11722795208E+02  0.22736260758E+02  0.95729635779E+02  0.91144988589E+02 0.  0.
         11    1    3    3    0    0  0.53188311799E+01 -0.11686198086E+02 -0.32573714047E+02  0.35012912445E+02  0.51100000000E-03 0. -1.
         22    1    1    0    0    0 -0.14226480270E+02 -0.11722795208E+02 -0.22736260758E+02  0.29270364221E+02  0.00000000000E+00 0.  1.
</event>
<event>
 5    1  0.3190780E-003  0.9118800E+02  0.7818608E-02  0.1130116E+00
         25   -1    0    0    0    0  0.00000000000E+00  0.00000000000E+00  0.99999998245E-14  0.12500000000E+03  0.12500000000E+03 0.  0.
        -11    1    3    3    0    0 -0.47552123559E+02 -0.37362752943E+02 -0.89544452767E+01  0.61133966442E+02  0.51100000000E-03 0. -1.
         23    2    1    0    0    0 -0.20266939265E+02 -0.18133627058E+02 -0.13177718261E+02  0.94780312443E+02  0.89833613479E+02 0.  0.
         11    1    3    3    0    0  0.27285184294E+02  0.19229125885E+02 -0.42232729848E+01  0.33646346001E+02  0.51100000000E-03 0.  1.
         22    1    1    0    0    0  0.20266939265E+02  0.18133627058E+02  0.13177718261E+02  0.30219687557E+02  0.00000000000E+00 0. -1.
</event>
<event>
 5    1  0.3190780E-003  0.9118800E+02  0.7818608E-02  0.1130116E+00
         25   -1    0    0    0    0  0.00000000000E+00  0.00000000000E+00  0.99999998245E-14  0.12500000000E+03  0.12500000000E+03 0.  0.
        -11    1    3    3    0    0  0.39608622892E+02  0.95820245897E+01  0.13287075043E+02  0.42862624349E+02  0.51100000000E-03 0. -1.
         23    2    1    0    0    0 -0.50706154146E+01 -0.18361426740E+02  0.21587061081E+02  0.96210169526E+02  0.91801646943E+02 0.  0.
         11    1    3    3    0    0 -0.44679238307E+02 -0.27943451329E+02  0.82999860383E+01  0.53347545177E+02  0.51100000000E-03 0.  1.
         22    1    1    0    0    0  0.50706154146E+01  0.18361426740E+02 -0.21587061081E+02  0.28789830474E+02  0.00000000000E+00 0.  1.
</event>
<event>
 5    1  0.3190780E-003  0.9118800E+02  0.7818608E-02  0.1130116E+00
         25   -1    0    0    0    0  0.00000000000E+00  0.00000000000E+00  0.99999998245E-14  0.12500000000E+03  0.12500000000E+03 0.  0.
        -11    1    3    3    0    0 -0.42049259282E+02 -0.64134991447E+01  0.27151546783E+02  0.50462656197E+02  0.51100000000E-03 0.  1.
         23    2    1    0    0    0 -0.12963157271E+02 -0.25179931977E+02 -0.31991479630E+01  0.96499000571E+02  0.92194089521E+02 0.  0.
         11    1    3    3    0    0  0.29086102012E+02 -0.18766432832E+02 -0.30350694746E+02  0.46036344374E+02  0.51100000000E-03 0. -1.
         22    1    1    0    0    0  0.12963157271E+02  0.25179931977E+02  0.31991479630E+01  0.28500999429E+02  0.00000000000E+00 0. -1.
</event>
<event>
 5    1  0.3190780E-003  0.9118800E+02  0.7818608E-02  0.1130116E+00
         25   -1    0    0    0    0  0.00000000000E+00  0.00000000000E+00  0.99999998245E-14  0.12500000000E+03  0.12500000000E+03 0.  0.
        -11    1    3    3    0    0  0.53251396104E+02  0.12308846885E+02  0.98181029631E+00  0.54664273985E+02  0.51100000000E-03 0. -1.
         23    2    1    0    0    0  0.22446706389E+02 -0.31031116210E+01  0.20661156508E+02  0.94334590860E+02  0.89211253298E+02 0.  0.
         11    1    3    3    0    0 -0.30804689714E+02 -0.15411958506E+02  0.19679346212E+02  0.39670316875E+02  0.51100000000E-03 0.  1.
         22    1    1    0    0    0 -0.22446706389E+02  0.31031116210E+01 -0.20661156508E+02  0.30665409140E+02  0.00000000000E+00 0. -1.
</event>
<event>
 5    1  0.3190780E-003  0.9118800E+02  0.7818608E-02  0.1130116E+00
         25   -1    0    0    0    0  0.00000000000E+00  0.00000000000E+00  0.99999998245E-14  0.12500000000E+03  0.12500000000E+03 0.  0.
        -11    1    3    3    0    0  0.23057962437E+02 -0.43801391252E+02  0.35024301503E+02  0.60637720961E+02  0.51100000000E-03 0.  1.
         23    2    1    0    0    0  0.20325933348E+02 -0.15521724334E+02  0.15912445339E+02  0.94879020443E+02  0.89970857008E+02 0.  0.
         11    1    3    3    0    0 -0.27320290884E+01  0.28279666918E+02 -0.19111856164E+02  0.34241299482E+02  0.51100000000E-03 0. -1.
         22    1    1    0    0    0 -0.20325933348E+02  0.15521724334E+02 -0.15912445339E+02  0.30120979557E+02  0.00000000000E+00 0.  1.
</event>
<event>
 5    1  0.3190780E-003  0.9118800E+02  0.7818608E-02  0.1130116E+00
         25   -1    0    0    0    0  0.00000000000E+00  0.00000000000E+00  0.99999998245E-14  0.12500000000E+03  0.12500000000E+03 0.  0.
        -11    1    3    3    0    0 -0.75584239451E+00  0.44073485128E+02  0.35244055330E+02  0.56437459417E+02  0.51100000000E-03 0.  1.
         23    2    1    0    0    0  0.16777092603E+02  0.19338697906E+02  0.56978587655E+01  0.98771739146E+02  0.95225704442E+02 0.  0.
         11    1    3    3    0    0  0.17532934997E+02 -0.24734787222E+02 -0.29546196564E+02  0.42334279730E+02  0.51100000000E-03 0. -1.
         22    1    1    0    0    0 -0.16777092603E+02 -0.19338697906E+02 -0.56978587655E+01  0.26228260854E+02  0.00000000000E+00 0.  1.
</event>
<event>
 5    1  0.3190780E-003  0.9118800E+02  0.7818608E-02  0.1130116E+00
         25   -1    0    0    0    0  0.00000000000E+00  0.00000000000E+00  0.99999998245E-14  0.12500000000E+03  0.12500000000E+03 0.  0.
        -11    1    3    3    0    0 -0.41502542877E+02  0.45296761579E+02 -0.18920418140E+00  0.61435278735E+02  0.51100000000E-03 0.  1.
         23    2    1    0    0    0 -0.15938610781E+02  0.23075377934E+02  0.70731585777E+01  0.96076965016E+02  0.91620091978E+02 0.  0.
         11    1    3    3    0    0  0.25563932096E+02 -0.22221383645E+02  0.72623627591E+01  0.34641686281E+02  0.51100000000E-03 0. -1.
         22    1    1    0    0    0  0.15938610781E+02 -0.23075377934E+02 -0.70731585777E+01  0.28923034984E+02  0.00000000000E+00 0.  1.
</event>
<event>
 5    1  0.3190780E-003  0.9118800E+02  0.7818608E-02  0.1130116E+00
         25   -1    0    0    0    0  0.00000000000E+00  0.00000000000E+00  0.99999998245E-14  0.12500000000E+03  0.12500000000E+03 0.  0.
        -11    1    3    3    0    0  0.19346307404E+02  0.22661834890E+02  0.46374168243E+02  0.55121700366E+02  0.51100000000E-03 0. -1.
         23    2    1    0    0    0  0.26228867449E+02  0.30095232345E+01  0.10527108862E+02  0.96577636644E+02  0.92300645507E+02 0.  0.
         11    1    3    3    0    0  0.68825600448E+01 -0.19652311655E+02 -0.35847059381E+02  0.41455936278E+02  0.51100000000E-03 0.  1.
         22    1    1    0    0    0 -0.26228867449E+02 -0.30095232345E+01 -0.10527108862E+02  0.28422363356E+02  0.00000000000E+00 0. -1.
</event>
<event>
 5    1  0.3190780E-003  0.9118800E+02  0.7818608E-02  0.1130116E+00
         25   -1    0    0    0    0  0.00000000000E+00  0.00000000000E+00  0.99999998245E-14  0.12500000000E+03  0.12500000000E+03 0.  0.
        -11    1    3    3    0    0  0.70937627049E+01 -0.13581073407E+02 -0.50765342359E+02  0.53027228942E+02  0.51100000000E-03 0.  1.
         23    2    1    0    0    0 -0.18500736406E+02  0.39309421756E+01 -0.12293677435E+02  0.10244198460E+03  0.99927454435E+02 0.  0.
         11    1    3    3    0    0 -0.25594499110E+02  0.17512015582E+02  0.38471664924E+02  0.49414755658E+02  0.51100000000E-03 0. -1.
         22    1    1    0    0    0  0.18500736406E+02 -0.39309421756E+01  0.12293677435E+02  0.22558015400E+02  0.00000000000E+00 0. -1.
</event>
<event>
 5    1  0.3190780E-003  0.9118800E+02  0.7818608E-02  0.1130116E+00
         25   -1    0    0    0    0  0.00000000000E+00  0.00000000000E+00  0.99999998245E-14  0.12500000000E+03  0.12500000000E+03 0.  0.
        -11    1    3    3    0    0  0.46002749593E+00 -0.44323277250E+02 -0.38390949328E+02  0.58639828803E+02  0.51100000000E-03 0. -1.
         23    2    1    0    0    0  0.28638339961E+01 -0.10873324863E+02 -0.29639869966E+02  0.93299012156E+02  0.87748236671E+02 0.  0.
         11    1    3    3    0    0  0.24038065002E+01  0.33449952387E+02  0.87510793619E+01  0.34659183353E+02  0.51100000000E-03 0.  1.
         22    1    1    0    0    0 -0.28638339961E+01  0.10873324863E+02  0.29639869966E+02  0.31700987844E+02  0.00000000000E+00 0. -1.
</event>
<event>
 5    1  0.3190780E-003  0.9118800E+02  0.7818608E-02  0.1130116E+00
         25   -1    0    0    0    0  0.00000000000E+00  0.00000000000E+00  0.99999998245E-14  0.12500000000E+03  0.12500000000E+03 0.  0.
        -11    1    3    3    0    0  0.32252013906E+02 -0.17032334681E+02  0.11606398660E+02  0.38275335607E+02  0.51100000000E-03 0.  1.
         23    2    1    0    0    0 -0.74325067797E+00  0.29011896957E+02  0.72390922647E+01  0.95089348997E+02  0.90262601609E+02 0.  0.
         11    1    3    3    0    0 -0.32995264584E+02  0.46044231638E+02 -0.43673063958E+01  0.56814013390E+02  0.51100000000E-03 0. -1.
         22    1    1    0    0    0  0.74325067797E+00 -0.29011896957E+02 -0.72390922647E+01  0.29910651003E+02  0.00000000000E+00 0. -1.
</event>
<event>
 5    1  0.3190780E-003  0.9118800E+02  0.7818608E-02  0.1130116E+00
         25   -1    0    0    0    0  0.00000000000E+00  0.00000000000E+00  0.99999998245E-14  0.12500000000E+03  0.12500000000E+03 0.  0.
        -11    1    3    3    0    0 -0.17496677840E+02  0.52481018137E+02  0.16281754034E+01  0.55344755448E+02  0.51100000000E-03 0.  1.
         23    2    1    0    0    0  0.99009053131E+01  0.22239754269E+02 -0.11315226286E+02  0.98154722168E+02  0.94412290206E+02 0.  0.
         11    1    3    3    0    0  0.27397583153E+02 -0.30241263868E+02 -0.12943401690E+02  0.42809966720E+02  0.51100000000E-03 0. -1.
         22    1    1    0    0    0 -0.99009053131E+01 -0.22239754269E+02  0.11315226286E+02  0.26845277832E+02  0.00000000000E+00 0.  1.
</event>
<event>
 5    1  0.3190780E-003  0.9118800E+02  0.7818608E-02  0.1130116E+00
         25   -1    0    0    0    0  0.00000000000E+00  0.00000000000E+00  0.99999998245E-14  0.12500000000E+03  0.12500000000E+03 0.  0.
        -11    1    3    3    0    0 -0.18207473117E+02  0.15895306699E+02  0.21732905989E+02  0.32503723715E+02  0.51100000000E-03 0. -1.
         23    2    1    0    0    0  0.85563575815E+01 -0.32944517899E+02  0.54387801672E+01  0.90530697072E+02  0.83711852613E+02 0.  0.
         11    1    3    3    0    0  0.26763830698E+02 -0.48839824598E+02 -0.16294125821E+02  0.58026973357E+02  0.51100000000E-03 0.  1.
         22    1    1    0    0    0 -0.85563575815E+01  0.32944517899E+02 -0.54387801672E+01  0.34469302928E+02  0.00000000000E+00 0.  1.
</event>
<event>
 5    1  0.3190780E-003  0.9118800E+02  0.7818608E-02  0.1130116E+00
         25   -1    0    0    0    0  0.00000000000E+00  0.00000000000E+00  0.99999998245E-14  0.12500000000E+03  0.12500000000E+03 0.  0.
        -11    1    3    3    0    0  0.14046181231E+02 -0.18098211418E+02 -0.35778251701E+02  0.42484394296E+02  0.51100000000E-03 0.  1.
         23    2    1    0    0    0  0.25658436322E+02  0.11995110662E+02  0.67709777799E+01  0.95878115199E+02  0.91348392431E+02 0.  0.
         11    1    3    3    0    0  0.11612255092E+02  0.30093322079E+02  0.42549229481E+02  0.53393720902E+02  0.51100000000E-03 0. -1.
         22    1    1    0    0    0 -0.25658436322E+02 -0.11995110662E+02 -0.67709777799E+01  0.29121884801E+02  0.00000000000E+00 0. -1.
</event>
<event>
 5    1  0.3190780E-003  0.9118800E+02  0.7818608E-02  0.1130116E+00
         25   -1    0    0    0    0  0.00000000000E+00  0.00000000000E+00  0.99999998245E-14  0.12500000000E+03  0.12500000000E+03 0.  0.
        -11    1    3    3    0    0  0.21558654816E+02 -0.24125631910E+02  0.22741426789E+02  0.39547366602E+02  0.51100000000E-03 0. -1.
         23    2    1    0    0    0  0.18718561753E+02  0.16624307055E+02 -0.15543056420E+02  0.95532412009E+02  0.90874105234E+02 0.  0.
         11    1    3    3    0    0 -0.28400930632E+01  0.40749938965E+02 -0.38284483210E+02  0.55985045406E+02  0.51100000000E-03 0.  1.
         22    1    1    0    0    0 -0.18718561753E+02 -0.16624307055E+02  0.15543056420E+02  0.29467587991E+02  0.00000000000E+00 0.  1.
</event>
<event>
 5    1  0.3190780E-003  0.9118800E+02  0.7818608E-02  0.1130116E+00
         25   -1    0    0    0    0  0.00000000000E+00  0.00000000000E+00  0.99999998245E-14  0.12500000000E+03  0.12500000000E+03 0.  0.
        -11    1    3    3    0    0  0.13983672613E+02 -0.84391110550E+01 -0.37932665805E+02  0.41299501577E+02  0.51100000000E-03 0.  1.
         23    2    1    0    0    0 -0.81690622295E+01 -0.26073886993E+02  0.91027739268E+01  0.96199971288E+02  0.91787759652E+02 0.  0.
         11    1    3    3    0    0 -0.22152734843E+02 -0.17634775938E+02  0.47035439732E+02  0.54900469711E+02  0.51100000000E-03 0. -1.
         22    1    1    0    0    0  0.81690622295E+01  0.26073886993E+02 -0.91027739268E+01  0.28800028712E+02  0.00000000000E+00 0. -1.
</event>
<event>
 5    1  0.3190780E-003  0.9118800E+02  0.7818608E-02  0.1130116E+00
         25   -1    0    0    0    0  0.00000000000E+00  0.00000000000E+00  0.99999998245E-14  0.12500000000E+03  0.12500000000E+03 0.  0.
        -11    1    3    3    0    0  0.14138654828E+02 -0.50253774497E+02 -0.17721642504E+02  0.55130753893E+02  0.51100000000E-03 0. -1.
         23    2    1    0    0    0 -0.10574114305E+02 -0.31256123176E+02  0.18756896248E+01  0.91950410881E+02  0.85805610075E+02 0.  0.
         11    1    3    3    0    0 -0.24712769133E+02  0.18997651321E+02  0.19597332128E+02  0.36819656989E+02  0.51100000000E-03 0.  1.
         22    1    1    0    0    0  0.10574114305E+02  0.31256123176E+02 -0.18756896248E+01  0.33049589119E+02  0.00000000000E+00 0. -1.
</event>
<event>
 5    1  0.3190780E-003  0.9118800E+02  0.7818608E-02  0.1130116E+00
         25   -1    0    0    0    0  0.00000000000E+00  0.00000000000E+00  0.99999998245E-14  0.12500000000E+03  0.12500000000E+03 0.  0.
        -11    1    3    3    0    0  0.37331641149E+02 -0.35704382364E+02  0.23920611678E+02  0.56926707389E+02  0.51100000000E-03 0. -1.
         23    2    1    0    0    0  0.26908723293E+02 -0.40016524448E+00  0.95158741881E+01  0.96455449153E+02  0.92135022050E+02 0.  0.
         11    1    3    3    0    0 -0.10422917855E+02  0.35304217119E+02 -0.14404737490E+02  0.39528741764E+02  0.51100000000E-03 0.  1.
         22    1    1    0    0    0 -0.26908723293E+02  0.40016524448E+00 -0.95158741881E+01  0.28544550847E+02  0.00000000000E+00 0. -1.
</event>
<event>
 5    1  0.3190780E-003  0.9118800E+02  0.7818608E-02  0.1130116E+00
         25   -1    0    0    0    0  0.00000000000E+00  0.00000000000E+00  0.99999998245E-14  0.12500000000E+03  0.12500000000E+03 0.  0.
        -11    1    3    3    0    0  0.46635856688E+02 -0.36547178553E+01 -0.26304287201E+02  0.53667267651E+02  0.51100000000E-03 0.  1.
         23    2    1    0    0    0 -0.11139196204E+00  0.12321840098E+01 -0.24254534663E+02  0.10071393121E+03  0.97741919371E+02 0.  0.
         11    1    3    3    0    0 -0.46747248651E+02  0.48869018651E+01  0.20497525382E+01  0.47046663558E+02  0.51100000000E-03 0. -1.
         22    1    1    0    0    0  0.11139196204E+00 -0.12321840098E+01  0.24254534663E+02  0.24286068791E+02  0.00000000000E+00 0.  1.
</event>
<event>
 5    1  0.3190780E-003  0.9118800E+02  0.7818608E-02  0.1130116E+00
         25   -1    0    0    0    0  0.00000000000E+00  0.00000000000E+00  0.99999998245E-14  0.12500000000E+03  0.12500000000E+03 0.  0.
        -11    1    3    3    0    0  0.39401254941E+02 -0.20487992512E+02  0.15407274983E+02  0.47006391594E+02  0.51100000000E-03 0.  1.
         23    2    1    0    0    0  0.20325360666E+02  0.21514866344E+02  0.81361165512E+00  0.95391357277E+02  0.90679872734E+02 0.  0.
         11    1    3    3    0    0 -0.19075894275E+02  0.42002858856E+02 -0.14593663328E+02  0.48384965682E+02  0.51100000000E-03 0. -1.
         22    1    1    0    0    0 -0.20325360666E+02 -0.21514866344E+02 -0.81361165512E+00  0.29608642723E+02  0.00000000000E+00 0.  1.
</event>
<event>
 5    1  0.3190780E-003  0.9118800E+02  0.7818608E-02  0.1130116E+00
         25   -1    0    0    0    0  0.00000000000E+00  0.00000000000E+00  0.99999998245E-14  0.12500000000E+03  0.12500000000E+03 0.  0.
        -11    1    3    3    0    0 -0.31144199961E+02 -0.12320405169E+02  0.14194508749E+02  0.36376333702E+02  0.51100000000E-03 0.  1.
         23    2    1    0    0    0  0.26902979862E+02  0.32088708238E+00  0.11192636212E+02  0.95859849016E+02  0.91323393794E+02 0.  0.
         11    1    3    3    0    0  0.58047179823E+02  0.12641292251E+02 -0.30018725369E+01  0.59483515314E+02  0.51100000000E-03 0. -1.
         22    1    1    0    0    0 -0.26902979862E+02 -0.32088708238E+00 -0.11192636212E+02  0.29140150984E+02  0.00000000000E+00 0. -1.
</event>
<event>
 5    1  0.3190780E-003  0.9118800E+02  0.7818608E-02  0.1130116E+00
         25   -1    0    0    0    0  0.00000000000E+00  0.00000000000E+00  0.99999998245E-14  0.12500000000E+03  0.12500000000E+03 0.  0.
        -11    1    3    3    0    0  0.22905699684E+02  0.39455908022E+02  0.94031716443E+01  0.46581749571E+02  0.51100000000E-03 0.  1.
         23    2    1    0    0    0 -0.21719633826E+02  0.18576211984E+02  0.30719941728E+01  0.96255343220E+02  0.91863136268E+02 0.  0.
         11    1    3    3    0    0 -0.44625333511E+02 -0.20879696038E+02 -0.63311774715E+01  0.49673593649E+02  0.51100000000E-03 0. -1.
         22    1    1    0    0    0  0.21719633826E+02 -0.18576211984E+02 -0.30719941728E+01  0.28744656780E+02  0.00000000000E+00 0. -1.
</event>
<event>
 4    1  0.3190780E-003  0.9118800E+02  0.7818608E-02  0.1130116E+00
         25   -1    0    0    0    0  0.00000000000E+00  0.00000000000E+00  0.99999998245E-14  0.12500000000E+03  0.12500000000E+03 0.  0.
        -11    1    1    0    0    0 -0.28328227937E+02 -0.33619005369E+02 -0.32938498873E+01  0.44086000810E+02  0.51100000000E-03 0. -1.
         11    1    1    0    0    0  0.98882481471E+00 -0.56946053298E+01 -0.24753512880E+02  0.25419337217E+02  0.51100000000E-03 0.  1.
         22    1    1    0    0    0  0.27339403123E+02  0.39313610699E+02  0.28047362768E+02  0.55494661973E+02  0.00000000000E+00 0.  1.
</event>
<event>
 5    1  0.3190780E-003  0.9118800E+02  0.7818608E-02  0.1130116E+00
         25   -1    0    0    0    0  0.00000000000E+00  0.00000000000E+00  0.99999998245E-14  0.12500000000E+03  0.12500000000E+03 0.  0.
        -11    1    3    3    0    0 -0.98262930921E+00  0.36884339999E+01 -0.36418101669E+02  0.36617594612E+02  0.51100000000E-03 0. -1.
         23    2    1    0    0    0  0.17574111334E+02 -0.16932614180E+02  0.15926318621E+02  0.95858784566E+02  0.91321936803E+02 0.  0.
         11    1    3    3    0    0  0.18556740644E+02 -0.20621048180E+02  0.52344420290E+02  0.59241189954E+02  0.51100000000E-03 0.  1.
         22    1    1    0    0    0 -0.17574111334E+02  0.16932614180E+02 -0.15926318621E+02  0.29141215434E+02  0.00000000000E+00 0.  1.
</event>
<event>
 5    1  0.3190780E-003  0.9118800E+02  0.7818608E-02  0.1130116E+00
         25   -1    0    0    0    0  0.00000000000E+00  0.00000000000E+00  0.99999998245E-14  0.12500000000E+03  0.12500000000E+03 0.  0.
        -11    1    3    3    0    0 -0.14861334120E+02 -0.22640887149E+02  0.25832298693E+02  0.37426951235E+02  0.51100000000E-03 0. -1.
         23    2    1    0    0    0  0.26096348704E+02 -0.49504410253E+01 -0.11934305026E+02  0.95880351676E+02  0.91351452747E+02 0.  0.
         11    1    3    3    0    0  0.40957682824E+02  0.17690446124E+02 -0.37766603719E+02  0.58453400441E+02  0.51100000000E-03 0.  1.
         22    1    1    0    0    0 -0.26096348704E+02  0.49504410253E+01  0.11934305026E+02  0.29119648324E+02  0.00000000000E+00 0.  1.
</event>
<event>
 5    1  0.3190780E-003  0.9118800E+02  0.7818608E-02  0.1130116E+00
         25   -1    0    0    0    0  0.00000000000E+00  0.00000000000E+00  0.99999998245E-14  0.12500000000E+03  0.12500000000E+03 0.  0.
        -11    1    3    3    0    0  0.18865602468E+02  0.23404744591E+02  0.81456146284E+01  0.31145530398E+02  0.51100000000E-03 0. -1.
         23    2    1    0    0    0 -0.19133279102E+02 -0.25130812604E+02 -0.63113746083E+00  0.93408253517E+02  0.87903716527E+02 0.  0.
         11    1    3    3    0    0 -0.37998881569E+02 -0.48535557195E+02 -0.87767520893E+01  0.62262723119E+02  0.51100000000E-03 0.  1.
         22    1    1    0    0    0  0.19133279102E+02  0.25130812604E+02  0.63113746083E+00  0.31591746483E+02  0.00000000000E+00 0.  1.
</event>
<event>
 5    1  0.3190780E-003  0.9118800E+02  0.7818608E-02  0.1130116E+00
         25   -1    0    0    0    0  0.00000000000E+00  0.00000000000E+00  0.99999998245E-14  0.12500000000E+03  0.12500000000E+03 0.  0.
        -11    1    3    3    0    0 -0.22805407571E+02 -0.33089126389E+02  0.64534233976E+01  0.40701640919E+02  0.51100000000E-03 0.  1.
         23    2    1    0    0    0  0.10857219896E+02  0.20072810153E+01  0.28752080064E+02  0.94200803436E+02  0.89023597204E+02 0.  0.
         11    1    3    3    0    0  0.33662627467E+02  0.35096407405E+02  0.22298656667E+02  0.53499162517E+02  0.51100000000E-03 0. -1.
         22    1    1    0    0    0 -0.10857219896E+02 -0.20072810153E+01 -0.28752080064E+02  0.30799196564E+02  0.00000000000E+00 0. -1.
</event>
<event>
 5    1  0.3190780E-003  0.9118800E+02  0.7818608E-02  0.1130116E+00
         25   -1    0    0    0    0  0.00000000000E+00  0.00000000000E+00  0.99999998245E-14  0.12500000000E+03  0.12500000000E+03 0.  0.
        -11    1    3    3    0    0  0.33765366098E+01 -0.25864715729E+02 -0.37071126303E+02  0.45328279527E+02  0.51100000000E-03 0.  1.
         23    2    1    0    0    0 -0.26308201920E+02 -0.38925768229E+01  0.10226312158E+01  0.98385729069E+02  0.94717644962E+02 0.  0.
         11    1    3    3    0    0 -0.29684738530E+02  0.21972138906E+02  0.38093757519E+02  0.53057449542E+02  0.51100000000E-03 0. -1.
         22    1    1    0    0    0  0.26308201920E+02  0.38925768229E+01 -0.10226312158E+01  0.26614270931E+02  0.00000000000E+00 0. -1.
</event>
<event>
 5    1  0.3190780E-003  0.9118800E+02  0.7818608E-02  0.1130116E+00
         25   -1    0    0    0    0  0.00000000000E+00  0.00000000000E+00  0.99999998245E-14  0.12500000000E+03  0.12500000000E+03 0.  0.
        -11    1    3    3    0    0 -0.42381668080E+02 -0.38342801976E+00  0.24201170677E+02  0.48806244156E+02  0.51100000000E-03 0.  1.
         23    2    1    0    0    0  0.42020216630E+01  0.37828619915E+01  0.28659715359E+02  0.95787908063E+02  0.91224870599E+02 0.  0.
         11    1    3    3    0    0  0.46583689743E+02  0.41662900113E+01  0.44585446816E+01  0.46981663907E+02  0.51100000000E-03 0. -1.
         22    1    1    0    0    0 -0.42020216630E+01 -0.37828619915E+01 -0.28659715359E+02  0.29212091937E+02  0.00000000000E+00 0.  1.
</event>
<event>
 5    1  0.3190780E-003  0.9118800E+02  0.7818608E-02  0.1130116E+00
         25   -1    0    0    0    0  0.00000000000E+00  0.00000000000E+00  0.99999998245E-14  0.12500000000E+03  0.12500000000E+03 0.  0.
        -11    1    3    3    0    0 -0.20664385528E+02 -0.60805039739E+01  0.26359010188E+02  0.34040957333E+02  0.51100000000E-03 0. -1.
         23    2    1    0    0    0 -0.89179204132E+00 -0.19217458979E+02 -0.26655185255E+02  0.92127444218E+02  0.86063122501E+02 0.  0.
         11    1    3    3    0    0  0.19772593486E+02 -0.13136955005E+02 -0.53014195443E+02  0.58086486885E+02  0.51100000000E-03 0.  1.
         22    1    1    0    0    0  0.89179204132E+00  0.19217458979E+02  0.26655185255E+02  0.32872555782E+02  0.00000000000E+00 0.  1.
</event>
<event>
 5    1  0.3190780E-003  0.9118800E+02  0.7818608E-02  0.1130116E+00
         25   -1    0    0    0    0  0.00000000000E+00  0.00000000000E+00  0.99999998245E-14  0.12500000000E+03  0.12500000000E+03 0.  0.
        -11    1    3    3    0    0  0.12126202725E+02 -0.42038261235E+02  0.22597159534E+02  0.49243190590E+02  0.51100000000E-03 0.  1.
         23    2    1    0    0    0  0.12495950221E+02  0.49517378954E+01  0.25341234210E+02  0.96314696595E+02  0.91943864117E+02 0.  0.
         11    1    3    3    0    0  0.36974749673E+00  0.46989999131E+02  0.27440746765E+01  0.47071506005E+02  0.51100000000E-03 0. -1.
         22    1    1    0    0    0 -0.12495950221E+02 -0.49517378954E+01 -0.25341234210E+02  0.28685303405E+02  0.00000000000E+00 0. -1.
</event>
<event>
 5    1  0.3190780E-003  0.9118800E+02  0.7818608E-02  0.1130116E+00
         25   -1    0    0    0    0  0.00000000000E+00  0.00000000000E+00  0.99999998245E-14  0.12500000000E+03  0.12500000000E+03 0.  0.
        -11    1    3    3    0    0  0.21062032604E+02 -0.26911837263E+02  0.47401808857E+02  0.58436184727E+02  0.51100000000E-03 0. -1.
         23    2    1    0    0    0  0.26693811425E+02 -0.94832904036E+01  0.30753223049E+02  0.83187883416E+02  0.71916415748E+02 0.  0.
         11    1    3    3    0    0  0.56317788213E+01  0.17428546860E+02 -0.16648585808E+02  0.24751698689E+02  0.51100000000E-03 0.  1.
         22    1    1    0    0    0 -0.26693811425E+02  0.94832904036E+01 -0.30753223049E+02  0.41812116584E+02  0.00000000000E+00 0. -1.
</event>
<event>
 5    1  0.3190780E-003  0.9118800E+02  0.7818608E-02  0.1130116E+00
         25   -1    0    0    0    0  0.00000000000E+00  0.00000000000E+00  0.99999998245E-14  0.12500000000E+03  0.12500000000E+03 0.  0.
        -11    1    3    3    0    0 -0.30872540976E+02  0.20839638661E+02 -0.81644835122E+01  0.38132179549E+02  0.51100000000E-03 0.  1.
         23    2    1    0    0    0  0.20624680185E+02  0.13668403098E+02  0.16069838118E+02  0.95496739619E+02  0.90825023560E+02 0.  0.
         11    1    3    3    0    0  0.51497221162E+02 -0.71712355634E+01  0.24234321630E+02  0.57364560070E+02  0.51100000000E-03 0. -1.
         22    1    1    0    0    0 -0.20624680185E+02 -0.13668403098E+02 -0.16069838118E+02  0.29503260381E+02  0.00000000000E+00 0. -1.
</event>
<event>
 5    1  0.3190780E-003  0.9118800E+02  0.7818608E-02  0.1130116E+00
         25   -1    0    0    0    0  0.00000000000E+00  0.00000000000E+00  0.99999998245E-14  0.12500000000E+03  0.12500000000E+03 0.  0.
        -11    1    3    3    0    0 -0.33214087298E+02 -0.44010381924E+01  0.10243478275E+02  0.35035319031E+02  0.51100000000E-03 0.  1.
         23    2    1    0    0    0  0.21226329519E+02  0.53931960824E+01 -0.17545510037E+02  0.96937773586E+02  0.92787086367E+02 0.  0.
         11    1    3    3    0    0  0.54440416817E+02  0.97942342748E+01 -0.27788988312E+02  0.61902454555E+02  0.51100000000E-03 0. -1.
         22    1    1    0    0    0 -0.21226329519E+02 -0.53931960824E+01  0.17545510037E+02  0.28062226414E+02  0.00000000000E+00 0. -1.
</event>
<event>
 5    1  0.3190780E-003  0.9118800E+02  0.7818608E-02  0.1130116E+00
         25   -1    0    0    0    0  0.00000000000E+00  0.00000000000E+00  0.99999998245E-14  0.12500000000E+03  0.12500000000E+03 0.  0.
        -11    1    3    3    0    0 -0.28115585492E+02  0.32499708802E+02 -0.23059561368E+02  0.48769463710E+02  0.51100000000E-03 0.  1.
         23    2    1    0    0    0 -0.26912849908E+02 -0.77031377807E+01  0.32310253878E+01  0.96820586470E+02  0.92629080841E+02 0.  0.
         11    1    3    3    0    0  0.12027355838E+01 -0.40202846583E+02  0.26290586756E+02  0.48051122760E+02  0.51100000000E-03 0. -1.
         22    1    1    0    0    0  0.26912849908E+02  0.77031377807E+01 -0.32310253878E+01  0.28179413530E+02  0.00000000000E+00 0. -1.
</event>
<event>
 5    1  0.3190780E-003  0.9118800E+02  0.7818608E-02  0.1130116E+00
         25   -1    0    0    0    0  0.00000000000E+00  0.00000000000E+00  0.99999998245E-14  0.12500000000E+03  0.12500000000E+03 0.  0.
        -11    1    3    3    0    0  0.25888652550E+01  0.27383625862E+02 -0.33662409552E+02  0.43470944385E+02  0.51100000000E-03 0.  1.
         23    2    1    0    0    0 -0.28558330843E+02  0.12387635277E+02  0.28359770315E+01  0.93741808529E+02  0.88376762400E+02 0.  0.
         11    1    3    3    0    0 -0.31147196098E+02 -0.14995990584E+02  0.36498386583E+02  0.50270864144E+02  0.51100000000E-03 0. -1.
         22    1    1    0    0    0  0.28558330843E+02 -0.12387635277E+02 -0.28359770315E+01  0.31258191471E+02  0.00000000000E+00 0. -1.
</event>
<event>
 5    1  0.3190780E-003  0.9118800E+02  0.7818608E-02  0.1130116E+00
         25   -1    0    0    0    0  0.00000000000E+00  0.00000000000E+00  0.99999998245E-14  0.12500000000E+03  0.12500000000E+03 0.  0.
        -11    1    3    3    0    0 -0.30213971979E+02 -0.35983822442E+02 -0.25101885495E+02  0.53271232724E+02  0.51100000000E-03 0.  1.
         23    2    1    0    0    0 -0.19675435200E+02 -0.17797678102E+02  0.11975277935E+02  0.95891798789E+02  0.91367114966E+02 0.  0.
         11    1    3    3    0    0  0.10538536780E+02  0.18186144340E+02  0.37077163430E+02  0.42620566065E+02  0.51100000000E-03 0. -1.
         22    1    1    0    0    0  0.19675435200E+02  0.17797678102E+02 -0.11975277935E+02  0.29108201211E+02  0.00000000000E+00 0.  1.
</event>
<event>
 5    1  0.3190780E-003  0.9118800E+02  0.7818608E-02  0.1130116E+00
         25   -1    0    0    0    0  0.00000000000E+00  0.00000000000E+00  0.99999998245E-14  0.12500000000E+03  0.12500000000E+03 0.  0.
        -11    1    3    3    0    0 -0.49776896576E+02  0.46620606205E+00  0.34927849502E+02  0.60810455120E+02  0.51100000000E-03 0.  1.
         23    2    1    0    0    0 -0.22637424937E+02  0.10416854970E+02  0.17231361592E+02  0.94703404522E+02  0.89726535264E+02 0.  0.
         11    1    3    3    0    0  0.27139471639E+02  0.99506489079E+01 -0.17696487910E+02  0.33892949402E+02  0.51100000000E-03 0. -1.
         22    1    1    0    0    0  0.22637424937E+02 -0.10416854970E+02 -0.17231361592E+02  0.30296595478E+02  0.00000000000E+00 0.  1.
</event>
<event>
 5    1  0.3190780E-003  0.9118800E+02  0.7818608E-02  0.1130116E+00
         25   -1    0    0    0    0  0.00000000000E+00  0.00000000000E+00  0.99999998245E-14  0.12500000000E+03  0.12500000000E+03 0.  0.
        -11    1    3    3    0    0 -0.48407479268E+02  0.21140777548E+02  0.49773090110E+01  0.53056480563E+02  0.51100000000E-03 0.  1.
         23    2    1    0    0    0 -0.25358005915E+02 -0.12179512155E+02 -0.82622539751E+01  0.95680487367E+02  0.91077559485E+02 0.  0.
         11    1    3    3    0    0  0.23049473354E+02 -0.33320289702E+02 -0.13239562986E+02  0.42624006804E+02  0.51100000000E-03 0. -1.
         22    1    1    0    0    0  0.25358005915E+02  0.12179512155E+02  0.82622539751E+01  0.29319512633E+02  0.00000000000E+00 0.  1.
</event>
<event>
 5    1  0.3190780E-003  0.9118800E+02  0.7818608E-02  0.1130116E+00
         25   -1    0    0    0    0  0.00000000000E+00  0.00000000000E+00  0.99999998245E-14  0.12500000000E+03  0.12500000000E+03 0.  0.
        -11    1    3    3    0    0 -0.36992713540E+02  0.26759575552E+02  0.26940948048E+02  0.53012738288E+02  0.51100000000E-03 0. -1.
         23    2    1    0    0    0 -0.26200010833E+02  0.83322437346E+01 -0.10051801181E+02  0.95727050707E+02  0.91141443245E+02 0.  0.
         11    1    3    3    0    0  0.10792702707E+02 -0.18427331817E+02 -0.36992749229E+02  0.42714312419E+02  0.51100000000E-03 0.  1.
         22    1    1    0    0    0  0.26200010833E+02 -0.83322437346E+01  0.10051801181E+02  0.29272949293E+02  0.00000000000E+00 0. -1.
</event>
<event>
 5    1  0.3190780E-003  0.9118800E+02  0.7818608E-02  0.1130116E+00
         25   -1    0    0    0    0  0.00000000000E+00  0.00000000000E+00  0.99999998245E-14  0.12500000000E+03  0.12500000000E+03 0.  0.
        -11    1    3    3    0    0  0.14660446244E+02 -0.15975809598E+02 -0.24451675323E+02  0.32680875184E+02  0.51100000000E-03 0. -1.
         23    2    1    0    0    0  0.68514613595E+01  0.33712027363E+02  0.38328102507E+01  0.90385931385E+02  0.83495406139E+02 0.  0.
         11    1    3    3    0    0 -0.78089848841E+01  0.49687836961E+02  0.28284485574E+02  0.57705056202E+02  0.51100000000E-03 0.  1.
         22    1    1    0    0    0 -0.68514613595E+01 -0.33712027363E+02 -0.38328102507E+01  0.34614068615E+02  0.00000000000E+00 0.  1.
</event>
<event>
 5    1  0.3190780E-003  0.9118800E+02  0.7818608E-02  0.1130116E+00
         25   -1    0    0    0    0  0.00000000000E+00  0.00000000000E+00  0.99999998245E-14  0.12500000000E+03  0.12500000000E+03 0.  0.
        -11    1    3    3    0    0 -0.23683467124E+02  0.24632485019E+02  0.79816471583E+01  0.35090919407E+02  0.51100000000E-03 0.  1.
         23    2    1    0    0    0  0.12144253308E+02 -0.23660815868E+02  0.12933367898E+02  0.95426547359E+02  0.90728368440E+02 0.  0.
         11    1    3    3    0    0  0.35827720432E+02 -0.48293300886E+02  0.49517207393E+01  0.60335627952E+02  0.51100000000E-03 0. -1.
         22    1    1    0    0    0 -0.12144253308E+02  0.23660815868E+02 -0.12933367898E+02  0.29573452641E+02  0.00000000000E+00 0. -1.
</event>
<event>
 5    1  0.3190780E-003  0.9118800E+02  0.7818608E-02  0.1130116E+00
         25   -1    0    0    0    0  0.00000000000E+00  0.00000000000E+00  0.99999998245E-14  0.12500000000E+03  0.12500000000E+03 0.  0.
        -11    1    3    3    0    0  0.78837094437E+01  0.29070418224E+02 -0.17893577321E+02  0.35034585767E+02  0.51100000000E-03 0.  1.
         23    2    1    0    0    0  0.53685240338E+01 -0.17333126589E+02  0.22141386740E+02  0.96373101208E+02  0.92023232404E+02 0.  0.
         11    1    3    3    0    0 -0.25151854099E+01 -0.46403544813E+02  0.40034964061E+02  0.61338515441E+02  0.51100000000E-03 0. -1.
         22    1    1    0    0    0 -0.53685240338E+01  0.17333126589E+02 -0.22141386740E+02  0.28626898792E+02  0.00000000000E+00 0. -1.
</event>
<event>
 5    1  0.3190780E-003  0.9118800E+02  0.7818608E-02  0.1130116E+00
         25   -1    0    0    0    0  0.00000000000E+00  0.00000000000E+00  0.99999998245E-14  0.12500000000E+03  0.12500000000E+03 0.  0.
        -11    1    3    3    0    0 -0.41166503758E+02 -0.35349816156E+02 -0.19565066369E+02  0.57680866466E+02  0.51100000000E-03 0.  1.
         23    2    1    0    0    0 -0.15792890321E+02 -0.21906991746E+02 -0.26438625021E+02  0.87206712699E+02  0.78591845472E+02 0.  0.
         11    1    3    3    0    0  0.25373613437E+02  0.13442824410E+02 -0.68735586517E+01  0.29525846233E+02  0.51100000000E-03 0. -1.
         22    1    1    0    0    0  0.15792890321E+02  0.21906991746E+02  0.26438625021E+02  0.37793287301E+02  0.00000000000E+00 0.  1.
</event>
<event>
 5    1  0.3190780E-003  0.9118800E+02  0.7818608E-02  0.1130116E+00
         25   -1    0    0    0    0  0.00000000000E+00  0.00000000000E+00  0.99999998245E-14  0.12500000000E+03  0.12500000000E+03 0.  0.
        -11    1    3    3    0    0  0.14504611694E+02 -0.11401304901E+02  0.30096256091E+02  0.35300965210E+02  0.51100000000E-03 0. -1.
         23    2    1    0    0    0 -0.17842417856E+02 -0.84321181257E+01 -0.21212196048E+02  0.96027431039E+02  0.91552486365E+02 0.  0.
         11    1    3    3    0    0 -0.32347029550E+02  0.29691867749E+01 -0.51308452139E+02  0.60726465828E+02  0.51100000000E-03 0.  1.
         22    1    1    0    0    0  0.17842417856E+02  0.84321181257E+01  0.21212196048E+02  0.28972568961E+02  0.00000000000E+00 0.  1.
</event>
<event>
 5    1  0.3190780E-003  0.9118800E+02  0.7818608E-02  0.1130116E+00
         25   -1    0    0    0    0  0.00000000000E+00  0.00000000000E+00  0.99999998245E-14  0.12500000000E+03  0.12500000000E+03 0.  0.
        -11    1    3    3    0    0 -0.17113457169E+02  0.35291866253E+02 -0.29017180850E+02  0.48789169132E+02  0.51100000000E-03 0.  1.
         23    2    1    0    0    0  0.15195068588E+02  0.26192824720E+02  0.22152696515E+01  0.94637826233E+02  0.89635130157E+02 0.  0.
         11    1    3    3    0    0  0.32308525757E+02 -0.90990415329E+01  0.31232450501E+02  0.45848657101E+02  0.51100000000E-03 0. -1.
         22    1    1    0    0    0 -0.15195068588E+02 -0.26192824720E+02 -0.22152696515E+01  0.30362173767E+02  0.00000000000E+00 0.  1.
</event>
<event>
 5    1  0.3190780E-003  0.9118800E+02  0.7818608E-02  0.1130116E+00
         25   -1    0    0    0    0  0.00000000000E+00  0.00000000000E+00  0.99999998245E-14  0.12500000000E+03  0.12500000000E+03 0.  0.
        -11    1    3    3    0    0  0.64900256421E+01  0.86957076360E+01 -0.31433144677E+02  0.33253245687E+02  0.51100000000E-03 0.  1.
         23    2    1    0    0    0  0.71081639993E+01 -0.26252158580E+02  0.16958800299E+02  0.92948436339E+02  0.87247401593E+02 0.  0.
         11    1    3    3    0    0  0.61813835719E+00 -0.34947866216E+02  0.48391944977E+02  0.59695190652E+02  0.51100000000E-03 0. -1.
         22    1    1    0    0    0 -0.71081639993E+01  0.26252158580E+02 -0.16958800299E+02  0.32051563661E+02  0.00000000000E+00 0. -1.
</event>
<event>
 5    1  0.3190780E-003  0.9118800E+02  0.7818608E-02  0.1130116E+00
         25   -1    0    0    0    0  0.00000000000E+00  0.00000000000E+00  0.99999998245E-14  0.12500000000E+03  0.12500000000E+03 0.  0.
        -11    1    3    3    0    0  0.14212445299E+02  0.47101778893E+02  0.36218586247E+02  0.61093020602E+02  0.51100000000E-03 0.  1.
         23    2    1    0    0    0  0.14739905023E+02  0.20407156699E+02  0.12117509426E+02  0.97061659331E+02  0.92953831727E+02 0.  0.
         11    1    3    3    0    0  0.52745972428E+00 -0.26694622194E+02 -0.24101076822E+02  0.35968638729E+02  0.51100000000E-03 0. -1.
         22    1    1    0    0    0 -0.14739905023E+02 -0.20407156699E+02 -0.12117509426E+02  0.27938340669E+02  0.00000000000E+00 0.  1.
</event>
<event>
 5    1  0.3190780E-003  0.9118800E+02  0.7818608E-02  0.1130116E+00
         25   -1    0    0    0    0  0.00000000000E+00  0.00000000000E+00  0.99999998245E-14  0.12500000000E+03  0.12500000000E+03 0.  0.
        -11    1    3    3    0    0 -0.12016336795E+02 -0.33032789952E+02 -0.24740778594E+02  0.42984458676E+02  0.51100000000E-03 0. -1.
         23    2    1    0    0    0  0.28598050905E+02 -0.70663457766E+01 -0.47924234751E+01  0.95154580235E+02  0.90352891812E+02 0.  0.
         11    1    3    3    0    0  0.40614387699E+02  0.25966444175E+02  0.19948355119E+02  0.52170121559E+02  0.51100000000E-03 0.  1.
         22    1    1    0    0    0 -0.28598050905E+02  0.70663457766E+01  0.47924234751E+01  0.29845419765E+02  0.00000000000E+00 0. -1.
</event>
<event>
 5    1  0.3190780E-003  0.9118800E+02  0.7818608E-02  0.1130116E+00
         25   -1    0    0    0    0  0.00000000000E+00  0.00000000000E+00  0.99999998245E-14  0.12500000000E+03  0.12500000000E+03 0.  0.
        -11    1    3    3    0    0 -0.37076811758E-01  0.13351174175E+02  0.34325861685E+02  0.36830965331E+02  0.51100000000E-03 0. -1.
         23    2    1    0    0    0 -0.92604035710E+01 -0.19387887013E+02 -0.16445454726E+02  0.97942686419E+02  0.94131140462E+02 0.  0.
         11    1    3    3    0    0 -0.92233267592E+01 -0.32739061187E+02 -0.50771316411E+02  0.61111721088E+02  0.51100000000E-03 0.  1.
         22    1    1    0    0    0  0.92604035710E+01  0.19387887013E+02  0.16445454726E+02  0.27057313581E+02  0.00000000000E+00 0.  1.
</event>
<event>
 5    1  0.3190780E-003  0.9118800E+02  0.7818608E-02  0.1130116E+00
         25   -1    0    0    0    0  0.00000000000E+00  0.00000000000E+00  0.99999998245E-14  0.12500000000E+03  0.12500000000E+03 0.  0.
        -11    1    3    3    0    0  0.14849905479E+02  0.71393680361E+01  0.42694171191E+02  0.45763331638E+02  0.51100000000E-03 0. -1.
         23    2    1    0    0    0 -0.11362958129E+01 -0.27877429285E+02  0.13938441780E+02  0.93811502265E+02  0.88475282233E+02 0.  0.
         11    1    3    3    0    0 -0.15986201292E+02 -0.35016797321E+02 -0.28755729411E+02  0.48048170627E+02  0.51100000000E-03 0.  1.
         22    1    1    0    0    0  0.11362958129E+01  0.27877429285E+02 -0.13938441780E+02  0.31188497735E+02  0.00000000000E+00 0.  1.
</event>
<event>
 5    1  0.3190780E-003  0.9118800E+02  0.7818608E-02  0.1130116E+00
         25   -1    0    0    0    0  0.00000000000E+00  0.00000000000E+00  0.99999998245E-14  0.12500000000E+03  0.12500000000E+03 0.  0.
        -11    1    3    3    0    0 -0.42848294879E+02  0.40991963708E+02 -0.15921330747E+02  0.61398747836E+02  0.51100000000E-03 0.  1.
         23    2    1    0    0    0 -0.21510505082E+02  0.13995449760E+02 -0.13768705540E+02  0.95876955944E+02  0.91346806107E+02 0.  0.
         11    1    3    3    0    0  0.21337789798E+02 -0.26996513948E+02  0.21526252076E+01  0.34478208108E+02  0.51100000000E-03 0. -1.
         22    1    1    0    0    0  0.21510505082E+02 -0.13995449760E+02  0.13768705540E+02  0.29123044056E+02  0.00000000000E+00 0.  1.
</event>
<event>
 5    1  0.3190780E-003  0.9118800E+02  0.7818608E-02  0.1130116E+00
         25   -1    0    0    0    0  0.00000000000E+00  0.00000000000E+00  0.99999998245E-14  0.12500000000E+03  0.12500000000E+03 0.  0.
        -11    1    3    3    0    0  0.34045083634E+02  0.50942433172E+02 -0.48592469380E+01  0.61463904027E+02  0.51100000000E-03 0. -1.
         23    2    1    0    0    0  0.20938342351E+02  0.17395897273E+02 -0.22259381167E+00  0.97777197603E+02  0.93911125011E+02 0.  0.
         11    1    3    3    0    0 -0.13106741283E+02 -0.33546535899E+02  0.46366531263E+01  0.36313293576E+02  0.51100000000E-03 0.  1.
         22    1    1    0    0    0 -0.20938342351E+02 -0.17395897273E+02  0.22259381167E+00  0.27222802397E+02  0.00000000000E+00 0. -1.
</event>
<event>
 5    1  0.3190780E-003  0.9118800E+02  0.7818608E-02  0.1130116E+00
         25   -1    0    0    0    0  0.00000000000E+00  0.00000000000E+00  0.99999998245E-14  0.12500000000E+03  0.12500000000E+03 0.  0.
        -11    1    3    3    0    0  0.46006350064E+02 -0.14966154040E+02 -0.90373195524E+01  0.49216289558E+02  0.51100000000E-03 0. -1.
         23    2    1    0    0    0  0.17824851184E+02  0.49563803135E+01  0.22432536529E+02  0.95922350152E+02  0.91408902948E+02 0.  0.
         11    1    3    3    0    0 -0.28181498880E+02  0.19922534353E+02  0.31469856082E+02  0.46706060594E+02  0.51100000000E-03 0.  1.
         22    1    1    0    0    0 -0.17824851184E+02 -0.49563803135E+01 -0.22432536529E+02  0.29077649848E+02  0.00000000000E+00 0. -1.
</event>
<event>
 5    1  0.3190780E-003  0.9118800E+02  0.7818608E-02  0.1130116E+00
         25   -1    0    0    0    0  0.00000000000E+00  0.00000000000E+00  0.99999998245E-14  0.12500000000E+03  0.12500000000E+03 0.  0.
        -11    1    3    3    0    0 -0.36769191431E+02 -0.26609598724E+02  0.35732727878E+02  0.57765664755E+02  0.51100000000E-03 0. -1.
         23    2    1    0    0    0 -0.45368711130E+01  0.19652959318E+01  0.21207687523E+02  0.10322359998E+03  0.10090044596E+03 0.  0.
         11    1    3    3    0    0  0.32232320318E+02  0.28574894655E+02 -0.14525040354E+02  0.45457935228E+02  0.51100000000E-03 0.  1.
         22    1    1    0    0    0  0.45368711130E+01 -0.19652959318E+01 -0.21207687523E+02  0.21776400016E+02  0.00000000000E+00 0. -1.
</event>
<event>
 5    1  0.3190780E-003  0.9118800E+02  0.7818608E-02  0.1130116E+00
         25   -1    0    0    0    0  0.00000000000E+00  0.00000000000E+00  0.99999998245E-14  0.12500000000E+03  0.12500000000E+03 0.  0.
        -11    1    3    3    0    0  0.24014096093E+02  0.11552421327E+02  0.11202826588E+02  0.28907413815E+02  0.51100000000E-03 0. -1.
         23    2    1    0    0    0 -0.27954338000E+02 -0.95406655303E+01 -0.16180216103E+02  0.91321094066E+02  0.84883882549E+02 0.  0.
         11    1    3    3    0    0 -0.51968434092E+02 -0.21093086857E+02 -0.27383042691E+02  0.62413680251E+02  0.51100000000E-03 0.  1.
         22    1    1    0    0    0  0.27954338000E+02  0.95406655303E+01  0.16180216103E+02  0.33678905934E+02  0.00000000000E+00 0.  1.
</event>
<event>
 5    1  0.3190780E-003  0.9118800E+02  0.7818608E-02  0.1130116E+00
         25   -1    0    0    0    0  0.00000000000E+00  0.00000000000E+00  0.99999998245E-14  0.12500000000E+03  0.12500000000E+03 0.  0.
        -11    1    3    3    0    0 -0.31098653018E+02 -0.96823447528E+01  0.46317312038E+02  0.56623029009E+02  0.51100000000E-03 0.  1.
         23    2    1    0    0    0 -0.21127790103E+02 -0.17617718486E+02  0.90005529987E+01  0.96055614127E+02  0.91590957696E+02 0.  0.
         11    1    3    3    0    0  0.99708629152E+01 -0.79353737337E+01 -0.37316759040E+02  0.39432585118E+02  0.51100000000E-03 0. -1.
         22    1    1    0    0    0  0.21127790103E+02  0.17617718486E+02 -0.90005529987E+01  0.28944385873E+02  0.00000000000E+00 0.  1.
</event>
<event>
 5    1  0.3190780E-003  0.9118800E+02  0.7818608E-02  0.1130116E+00
         25   -1    0    0    0    0  0.00000000000E+00  0.00000000000E+00  0.99999998245E-14  0.12500000000E+03  0.12500000000E+03 0.  0.
        -11    1    3    3    0    0 -0.21544565251E+02 -0.16497610746E+02 -0.18927221487E+02  0.33084424820E+02  0.51100000000E-03 0. -1.
         23    2    1    0    0    0  0.18981543118E+02  0.12486116387E+02  0.18743369433E+02  0.95546375787E+02  0.90893310792E+02 0.  0.
         11    1    3    3    0    0  0.40526108369E+02  0.28983727133E+02  0.37670590920E+02  0.62461950967E+02  0.51100000000E-03 0.  1.
         22    1    1    0    0    0 -0.18981543118E+02 -0.12486116387E+02 -0.18743369433E+02  0.29453624213E+02  0.00000000000E+00 0.  1.
</event>
<event>
 5    1  0.3190780E-003  0.9118800E+02  0.7818608E-02  0.1130116E+00
         25   -1    0    0    0    0  0.00000000000E+00  0.00000000000E+00  0.99999998245E-14  0.12500000000E+03  0.12500000000E+03 0.  0.
        -11    1    3    3    0    0  0.20764573157E+02  0.94921566372E+01  0.34600635556E+02  0.41454463175E+02  0.51100000000E-03 0. -1.
         23    2    1    0    0    0 -0.22261422972E+02 -0.14271021899E+02  0.78400446600E+01  0.97419221929E+02  0.93433428077E+02 0.  0.
         11    1    3    3    0    0 -0.43025996129E+02 -0.23763178536E+02 -0.26760590896E+02  0.55964758754E+02  0.51100000000E-03 0.  1.
         22    1    1    0    0    0  0.22261422972E+02  0.14271021899E+02 -0.78400446600E+01  0.27580778071E+02  0.00000000000E+00 0.  1.
</event>
<event>
 5    1  0.3190780E-003  0.9118800E+02  0.7818608E-02  0.1130116E+00
         25   -1    0    0    0    0  0.00000000000E+00  0.00000000000E+00  0.99999998245E-14  0.12500000000E+03  0.12500000000E+03 0.  0.
        -11    1    3    3    0    0 -0.45450607156E+02  0.21525512938E+02  0.69584897593E+01  0.50769340927E+02  0.51100000000E-03 0. -1.
         23    2    1    0    0    0 -0.11457429633E+02 -0.46530611639E+00  0.26795412428E+02  0.95854102677E+02  0.91315528084E+02 0.  0.
         11    1    3    3    0    0  0.33993177524E+02 -0.21990819055E+02  0.19836922669E+02  0.45084761750E+02  0.51100000000E-03 0.  1.
         22    1    1    0    0    0  0.11457429633E+02  0.46530611639E+00 -0.26795412428E+02  0.29145897323E+02  0.00000000000E+00 0.  1.
</event>
<event>
 5    1  0.3190780E-003  0.9118800E+02  0.7818608E-02  0.1130116E+00
         25   -1    0    0    0    0  0.00000000000E+00  0.00000000000E+00  0.99999998245E-14  0.12500000000E+03  0.12500000000E+03 0.  0.
        -11    1    3    3    0    0 -0.12238178834E+02  0.37694280358E+02  0.11332369706E+02  0.41219587532E+02  0.51100000000E-03 0.  1.
         23    2    1    0    0    0  0.20564447537E+02 -0.55343196038E+01  0.19534808077E+02  0.96101316249E+02  0.91653309063E+02 0.  0.
         11    1    3    3    0    0  0.32802626370E+02 -0.43228599962E+02  0.82024383713E+01  0.54881728717E+02  0.51100000000E-03 0. -1.
         22    1    1    0    0    0 -0.20564447537E+02  0.55343196038E+01 -0.19534808077E+02  0.28898683751E+02  0.00000000000E+00 0. -1.
</event>
<event>
 5    1  0.3190780E-003  0.9118800E+02  0.7818608E-02  0.1130116E+00
         25   -1    0    0    0    0  0.00000000000E+00  0.00000000000E+00  0.99999998245E-14  0.12500000000E+03  0.12500000000E+03 0.  0.
        -11    1    3    3    0    0  0.17717442783E+02 -0.14990331410E+02  0.25080744454E+02  0.34171063156E+02  0.51100000000E-03 0.  1.
         23    2    1    0    0    0 -0.26742790648E+02 -0.14264165984E+02 -0.12327589006E+02  0.92279780966E+02  0.86284096110E+02 0.  0.
         11    1    3    3    0    0 -0.44460233432E+02  0.72616542598E+00 -0.37408333460E+02  0.58108717811E+02  0.51100000000E-03 0. -1.
         22    1    1    0    0    0  0.26742790648E+02  0.14264165984E+02  0.12327589006E+02  0.32720219034E+02  0.00000000000E+00 0. -1.
</event>
<event>
 5    1  0.3190780E-003  0.9118800E+02  0.7818608E-02  0.1130116E+00
         25   -1    0    0    0    0  0.00000000000E+00  0.00000000000E+00  0.99999998245E-14  0.12500000000E+03  0.12500000000E+03 0.  0.
        -11    1    3    3    0    0  0.25401497901E+02 -0.28495999394E+02  0.45539340405E+02  0.59422972005E+02  0.51100000000E-03 0. -1.
         23    2    1    0    0    0  0.21623677221E+01 -0.66503850554E+01  0.28640508707E+02  0.95518103953E+02  0.90854421952E+02 0.  0.
         11    1    3    3    0    0 -0.23239130179E+02  0.21845614339E+02 -0.16898831698E+02  0.36095131948E+02  0.51100000000E-03 0.  1.
         22    1    1    0    0    0 -0.21623677221E+01  0.66503850554E+01 -0.28640508707E+02  0.29481896047E+02  0.00000000000E+00 0. -1.
</event>
<event>
 5    1  0.3190780E-003  0.9118800E+02  0.7818608E-02  0.1130116E+00
         25   -1    0    0    0    0  0.00000000000E+00  0.00000000000E+00  0.99999998245E-14  0.12500000000E+03  0.12500000000E+03 0.  0.
        -11    1    3    3    0    0  0.16872935734E+02  0.41519888009E+01 -0.58257293239E+02  0.60793479807E+02  0.51100000000E-03 0. -1.
         23    2    1    0    0    0  0.26349487672E+01 -0.68073447463E+01 -0.28725241777E+02  0.95361808209E+02  0.90639130911E+02 0.  0.
         11    1    3    3    0    0 -0.14237986967E+02 -0.10959333547E+02  0.29532051462E+02  0.34568328402E+02  0.51100000000E-03 0.  1.
         22    1    1    0    0    0 -0.26349487672E+01  0.68073447463E+01  0.28725241777E+02  0.29638191791E+02  0.00000000000E+00 0. -1.
</event>
<event>
 5    1  0.3190780E-003  0.9118800E+02  0.7818608E-02  0.1130116E+00
         25   -1    0    0    0    0  0.00000000000E+00  0.00000000000E+00  0.99999998245E-14  0.12500000000E+03  0.12500000000E+03 0.  0.
        -11    1    3    3    0    0  0.26828430892E+02 -0.23532595669E+02  0.23211100698E+02  0.42571151721E+02  0.51100000000E-03 0. -1.
         23    2    1    0    0    0 -0.16014268866E+02 -0.68124375514E+01  0.31223845132E+02  0.89253746804E+02  0.81782863125E+02 0.  0.
         11    1    3    3    0    0 -0.42842699758E+02  0.16720158117E+02  0.80127444345E+01  0.46682595083E+02  0.51100000000E-03 0.  1.
         22    1    1    0    0    0  0.16014268866E+02  0.68124375514E+01 -0.31223845132E+02  0.35746253196E+02  0.00000000000E+00 0.  1.
</event>
<event>
 5    1  0.3190780E-003  0.9118800E+02  0.7818608E-02  0.1130116E+00
         25   -1    0    0    0    0  0.00000000000E+00  0.00000000000E+00  0.99999998245E-14  0.12500000000E+03  0.12500000000E+03 0.  0.
        -11    1    3    3    0    0  0.21529292290E+02  0.48836639255E+02 -0.98730897361E+01  0.54277119134E+02  0.51100000000E-03 0.  1.
         23    2    1    0    0    0 -0.10020580649E+02  0.25624821951E+02  0.64968419328E+01  0.96728946046E+02  0.92505332340E+02 0.  0.
         11    1    3    3    0    0 -0.31549872939E+02 -0.23211817304E+02  0.16369931669E+02  0.42451826912E+02  0.51100000000E-03 0. -1.
         22    1    1    0    0    0  0.10020580649E+02 -0.25624821951E+02 -0.64968419328E+01  0.28271053954E+02  0.00000000000E+00 0.  1.
</event>
<event>
 5    1  0.3190780E-003  0.9118800E+02  0.7818608E-02  0.1130116E+00
         25   -1    0    0    0    0  0.00000000000E+00  0.00000000000E+00  0.99999998245E-14  0.12500000000E+03  0.12500000000E+03 0.  0.
        -11    1    3    3    0    0  0.15003687328E+02 -0.17783298264E+02  0.16127882068E+02  0.28310155613E+02  0.51100000000E-03 0. -1.
         23    2    1    0    0    0 -0.22335654753E+02  0.18265841375E+02 -0.18520204796E+02  0.90714136731E+02  0.83985321234E+02 0.  0.
         11    1    3    3    0    0 -0.37339342081E+02  0.36049139639E+02 -0.34648086864E+02  0.62403981118E+02  0.51100000000E-03 0.  1.
         22    1    1    0    0    0  0.22335654753E+02 -0.18265841375E+02  0.18520204796E+02  0.34285863269E+02  0.00000000000E+00 0.  1.
</event>
<event>
 5    1  0.3190780E-003  0.9118800E+02  0.7818608E-02  0.1130116E+00
         25   -1    0    0    0    0  0.00000000000E+00  0.00000000000E+00  0.99999998245E-14  0.12500000000E+03  0.12500000000E+03 0.  0.
        -11    1    3    3    0    0  0.34505076753E+02 -0.96943771684E+01  0.25243189836E+02  0.43838338288E+02  0.51100000000E-03 0.  1.
         23    2    1    0    0    0 -0.47004444659E+01 -0.31345693662E+02  0.53037697842E+01  0.92863157229E+02  0.87125135910E+02 0.  0.
         11    1    3    3    0    0 -0.39205521219E+02 -0.21651316494E+02 -0.19939420052E+02  0.49024818942E+02  0.51100000000E-03 0. -1.
         22    1    1    0    0    0  0.47004444659E+01  0.31345693662E+02 -0.53037697842E+01  0.32136842771E+02  0.00000000000E+00 0. -1.
</event>
<event>
 5    1  0.3190780E-003  0.9118800E+02  0.7818608E-02  0.1130116E+00
         25   -1    0    0    0    0  0.00000000000E+00  0.00000000000E+00  0.99999998245E-14  0.12500000000E+03  0.12500000000E+03 0.  0.
        -11    1    3    3    0    0  0.29916750282E+02 -0.15204550506E+02 -0.28282757484E+01  0.33677729250E+02  0.51100000000E-03 0.  1.
         23    2    1    0    0    0 -0.19201116000E+02  0.21320377023E+02  0.64637088077E+01  0.95588762971E+02  0.90951584608E+02 0.  0.
         11    1    3    3    0    0 -0.49117866282E+02  0.36524927528E+02  0.92919845561E+01  0.61911033720E+02  0.51100000000E-03 0. -1.
         22    1    1    0    0    0  0.19201116000E+02 -0.21320377023E+02 -0.64637088077E+01  0.29411237029E+02  0.00000000000E+00 0. -1.
</event>
<event>
 5    1  0.3190780E-003  0.9118800E+02  0.7818608E-02  0.1130116E+00
         25   -1    0    0    0    0  0.00000000000E+00  0.00000000000E+00  0.99999998245E-14  0.12500000000E+03  0.12500000000E+03 0.  0.
        -11    1    3    3    0    0 -0.32756149071E+02  0.64661845599E+01 -0.32929379343E+02  0.46894785093E+02  0.51100000000E-03 0.  1.
         23    2    1    0    0    0  0.10714860920E+01 -0.24757371512E+02 -0.12110348685E+02  0.97418555660E+02  0.93432536704E+02 0.  0.
         11    1    3    3    0    0  0.33827635163E+02 -0.31223556072E+02  0.20819030658E+02  0.50523770567E+02  0.51100000000E-03 0. -1.
         22    1    1    0    0    0 -0.10714860920E+01  0.24757371512E+02  0.12110348685E+02  0.27581444340E+02  0.00000000000E+00 0.  1.
</event>
<event>
 5    1  0.3190780E-003  0.9118800E+02  0.7818608E-02  0.1130116E+00
         25   -1    0    0    0    0  0.00000000000E+00  0.00000000000E+00  0.99999998245E-14  0.12500000000E+03  0.12500000000E+03 0.  0.
        -11    1    3    3    0    0  0.16458904671E+02  0.11817665001E+02 -0.46363445237E+02  0.50597646225E+02  0.51100000000E-03 0. -1.
         23    2    1    0    0    0  0.30851865559E+01 -0.21660740544E+02 -0.20971083994E+02  0.94693360119E+02  0.89712541095E+02 0.  0.
         11    1    3    3    0    0 -0.13373718115E+02 -0.33478405545E+02  0.25392361243E+02  0.44095713894E+02  0.51100000000E-03 0.  1.
         22    1    1    0    0    0 -0.30851865559E+01  0.21660740544E+02  0.20971083994E+02  0.30306639881E+02  0.00000000000E+00 0.  1.
</event>
<event>
 5    1  0.3190780E-003  0.9118800E+02  0.7818608E-02  0.1130116E+00
         25   -1    0    0    0    0  0.00000000000E+00  0.00000000000E+00  0.99999998245E-14  0.12500000000E+03  0.12500000000E+03 0.  0.
        -11    1    3    3    0    0  0.11351543192E+02 -0.39418600968E+00  0.43965232139E+02  0.45408749738E+02  0.51100000000E-03 0.  1.
         23    2    1    0    0    0 -0.10481872306E+02 -0.28443192939E+02  0.15458217824E+02  0.90972931805E+02  0.84369621022E+02 0.  0.
         11    1    3    3    0    0 -0.21833415497E+02 -0.28049006930E+02 -0.28507014315E+02  0.45564182067E+02  0.51100000000E-03 0. -1.
         22    1    1    0    0    0  0.10481872306E+02  0.28443192939E+02 -0.15458217824E+02  0.34027068195E+02  0.00000000000E+00 0.  1.
</event>
<event>
 5    1  0.3190780E-003  0.9118800E+02  0.7818608E-02  0.1130116E+00
         25   -1    0    0    0    0  0.00000000000E+00  0.00000000000E+00  0.99999998245E-14  0.12500000000E+03  0.12500000000E+03 0.  0.
        -11    1    3    3    0    0  0.24412290145E+02 -0.97669976626E+01 -0.24605763504E+02  0.36011078175E+02  0.51100000000E-03 0.  1.
         23    2    1    0    0    0 -0.25758970234E+02  0.12453246362E+02  0.57104332739E+00  0.96382977392E+02  0.92036646766E+02 0.  0.
         11    1    3    3    0    0 -0.50171260379E+02  0.22220244024E+02  0.25176806832E+02  0.60371899217E+02  0.51100000000E-03 0. -1.
         22    1    1    0    0    0  0.25758970234E+02 -0.12453246362E+02 -0.57104332739E+00  0.28617022608E+02  0.00000000000E+00 0. -1.
</event>
<event>
 5    1  0.3190780E-003  0.9118800E+02  0.7818608E-02  0.1130116E+00
         25   -1    0    0    0    0  0.00000000000E+00  0.00000000000E+00  0.99999998245E-14  0.12500000000E+03  0.12500000000E+03 0.  0.
        -11    1    3    3    0    0  0.43855331493E+02 -0.24217714852E+02  0.12081068881E+02  0.51533872731E+02  0.51100000000E-03 0.  1.
         23    2    1    0    0    0  0.20038343856E+02  0.13820306572E+02  0.14828409105E+02  0.96497056032E+02  0.92191453010E+02 0.  0.
         11    1    3    3    0    0 -0.23816987638E+02  0.38038021424E+02  0.27473402242E+01  0.44963183301E+02  0.51100000000E-03 0. -1.
         22    1    1    0    0    0 -0.20038343856E+02 -0.13820306572E+02 -0.14828409105E+02  0.28502943968E+02  0.00000000000E+00 0.  1.
</event>
<event>
 5    1  0.3190780E-003  0.9118800E+02  0.7818608E-02  0.1130116E+00
         25   -1    0    0    0    0  0.00000000000E+00  0.00000000000E+00  0.99999998245E-14  0.12500000000E+03  0.12500000000E+03 0.  0.
        -11    1    3    3    0    0  0.25086132386E+02  0.60079893193E+01 -0.43632244364E+02  0.50687106075E+02  0.51100000000E-03 0.  1.
         23    2    1    0    0    0 -0.36573617666E+01  0.24995030051E+02 -0.14048515085E+02  0.96095180360E+02  0.91644940340E+02 0.  0.
         11    1    3    3    0    0 -0.28743494153E+02  0.18987040732E+02  0.29583729280E+02  0.45408074284E+02  0.51100000000E-03 0. -1.
         22    1    1    0    0    0  0.36573617666E+01 -0.24995030051E+02  0.14048515085E+02  0.28904819640E+02  0.00000000000E+00 0. -1.
</event>
<event>
 5    1  0.3190780E-003  0.9118800E+02  0.7818608E-02  0.1130116E+00
         25   -1    0    0    0    0  0.00000000000E+00  0.00000000000E+00  0.99999998245E-14  0.12500000000E+03  0.12500000000E+03 0.  0.
        -11    1    3    3    0    0 -0.33313372440E+02  0.53594799678E+01  0.50168079071E+00  0.33745466254E+02  0.51100000000E-03 0.  1.
         23    2    1    0    0    0  0.25021710797E+02 -0.93952237040E+01 -0.12792807444E+02  0.95368729998E+02  0.90648676214E+02 0.  0.
         11    1    3    3    0    0  0.58335083237E+02 -0.14754703672E+02 -0.13294488235E+02  0.61623263743E+02  0.51100000000E-03 0. -1.
         22    1    1    0    0    0 -0.25021710797E+02  0.93952237040E+01  0.12792807444E+02  0.29631270002E+02  0.00000000000E+00 0. -1.
</event>
<event>
 5    1  0.3190780E-003  0.9118800E+02  0.7818608E-02  0.1130116E+00
         25   -1    0    0    0    0  0.00000000000E+00  0.00000000000E+00  0.99999998245E-14  0.12500000000E+03  0.12500000000E+03 0.  0.
        -11    1    3    3    0    0 -0.15272691226E+02  0.30239773586E+02  0.31519132188E+02  0.46272612828E+02  0.51100000000E-03 0. -1.
         23    2    1    0    0    0 -0.12300658998E+02  0.20379110552E+02 -0.16920678525E+02  0.95795142178E+02  0.91234782536E+02 0.  0.
         11    1    3    3    0    0  0.29720322284E+01 -0.98606630333E+01 -0.48439810713E+02  0.49522529350E+02  0.51100000000E-03 0.  1.
         22    1    1    0    0    0  0.12300658998E+02 -0.20379110552E+02  0.16920678525E+02  0.29204857822E+02  0.00000000000E+00 0.  1.
</event>
<event>
 5    1  0.3190780E-003  0.9118800E+02  0.7818608E-02  0.1130116E+00
         25   -1    0    0    0    0  0.00000000000E+00  0.00000000000E+00  0.99999998245E-14  0.12500000000E+03  0.12500000000E+03 0.  0.
        -11    1    3    3    0    0  0.50560369317E+02 -0.13925049465E+02 -0.31273510921E+02  0.61059728411E+02  0.51100000000E-03 0.  1.
         23    2    1    0    0    0  0.28086128590E+02 -0.12806778723E+02 -0.27054345352E+02  0.83953906363E+02  0.73235760327E+02 0.  0.
         11    1    3    3    0    0 -0.22474240728E+02  0.11182707414E+01  0.42191655683E+01  0.22894177952E+02  0.51100000000E-03 0. -1.
         22    1    1    0    0    0 -0.28086128590E+02  0.12806778723E+02  0.27054345352E+02  0.41046093637E+02  0.00000000000E+00 0.  1.
</event>
<event>
 5    1  0.3190780E-003  0.9118800E+02  0.7818608E-02  0.1130116E+00
         25   -1    0    0    0    0  0.00000000000E+00  0.00000000000E+00  0.99999998245E-14  0.12500000000E+03  0.12500000000E+03 0.  0.
        -11    1    3    3    0    0  0.17692758418E+02 -0.69875014627E+01 -0.23469261386E+02  0.30210347687E+02  0.51100000000E-03 0.  1.
         23    2    1    0    0    0 -0.33313312468E+02 -0.36617046081E+00  0.83019249565E+01  0.90665864998E+02  0.83913444986E+02 0.  0.
         11    1    3    3    0    0 -0.51006070886E+02  0.66213310018E+01  0.31771186342E+02  0.60455517311E+02  0.51100000000E-03 0. -1.
         22    1    1    0    0    0  0.33313312468E+02  0.36617046081E+00 -0.83019249565E+01  0.34334135002E+02  0.00000000000E+00 0. -1.
</event>
<event>
 5    1  0.3190780E-003  0.9118800E+02  0.7818608E-02  0.1130116E+00
         25   -1    0    0    0    0  0.00000000000E+00  0.00000000000E+00  0.99999998245E-14  0.12500000000E+03  0.12500000000E+03 0.  0.
        -11    1    3    3    0    0  0.20276549504E+02 -0.42644028234E+02  0.16130429949E+02  0.49898320357E+02  0.51100000000E-03 0.  1.
         23    2    1    0    0    0  0.35768632285E+01 -0.22412146662E+02 -0.20136642223E+02  0.94658895396E+02  0.89664507187E+02 0.  0.
         11    1    3    3    0    0 -0.16699686276E+02  0.20231881572E+02 -0.36267072173E+02  0.44760575040E+02  0.51100000000E-03 0. -1.
         22    1    1    0    0    0 -0.35768632285E+01  0.22412146662E+02  0.20136642223E+02  0.30341104604E+02  0.00000000000E+00 0.  1.
</event>
<event>
 5    1  0.3190780E-003  0.9118800E+02  0.7818608E-02  0.1130116E+00
         25   -1    0    0    0    0  0.00000000000E+00  0.00000000000E+00  0.99999998245E-14  0.12500000000E+03  0.12500000000E+03 0.  0.
        -11    1    3    3    0    0 -0.38976725556E+02 -0.19393318207E+02  0.20319755762E+02  0.48043505291E+02  0.51100000000E-03 0.  1.
         23    2    1    0    0    0  0.10723665610E+02 -0.17813027998E+02  0.17457040310E+02  0.97851349445E+02  0.94009772691E+02 0.  0.
         11    1    3    3    0    0  0.49700391167E+02  0.15802902092E+01 -0.28627154523E+01  0.49807844154E+02  0.51100000000E-03 0. -1.
         22    1    1    0    0    0 -0.10723665610E+02  0.17813027998E+02 -0.17457040310E+02  0.27148650555E+02  0.00000000000E+00 0.  1.
</event>
<event>
 5    1  0.3190780E-003  0.9118800E+02  0.7818608E-02  0.1130116E+00
         25   -1    0    0    0    0  0.00000000000E+00  0.00000000000E+00  0.99999998245E-14  0.12500000000E+03  0.12500000000E+03 0.  0.
        -11    1    3    3    0    0  0.34729459242E+01  0.27216045270E+02  0.20186284749E+02  0.34062597754E+02  0.51100000000E-03 0.  1.
         23    2    1    0    0    0 -0.72367221544E+01 -0.29172513406E+02 -0.11313606791E+00  0.94943079237E+02  0.90059812399E+02 0.  0.
         11    1    3    3    0    0 -0.10709668079E+02 -0.56388558676E+02 -0.20299420817E+02  0.60880481483E+02  0.51100000000E-03 0. -1.
         22    1    1    0    0    0  0.72367221544E+01  0.29172513406E+02  0.11313606791E+00  0.30056920763E+02  0.00000000000E+00 0. -1.
</event>
<event>
 5    1  0.3190780E-003  0.9118800E+02  0.7818608E-02  0.1130116E+00
         25   -1    0    0    0    0  0.00000000000E+00  0.00000000000E+00  0.99999998245E-14  0.12500000000E+03  0.12500000000E+03 0.  0.
        -11    1    3    3    0    0  0.23915553660E+02 -0.47598141285E+02  0.32254368330E+02  0.62272634738E+02  0.51100000000E-03 0. -1.
         23    2    1    0    0    0  0.97803994203E+01 -0.20024942517E+02  0.17872486373E+02  0.96432880706E+02  0.92104398247E+02 0.  0.
         11    1    3    3    0    0 -0.14135154240E+02  0.27573198768E+02 -0.14381881957E+02  0.34160245968E+02  0.51100000000E-03 0.  1.
         22    1    1    0    0    0 -0.97803994203E+01  0.20024942517E+02 -0.17872486373E+02  0.28567119294E+02  0.00000000000E+00 0. -1.
</event>
<event>
 5    1  0.3190780E-003  0.9118800E+02  0.7818608E-02  0.1130116E+00
         25   -1    0    0    0    0  0.00000000000E+00  0.00000000000E+00  0.99999998245E-14  0.12500000000E+03  0.12500000000E+03 0.  0.
        -11    1    3    3    0    0  0.71594230186E+01  0.38313303435E+01  0.52439891330E+02  0.53064853087E+02  0.51100000000E-03 0.  1.
         23    2    1    0    0    0 -0.20705991818E+02  0.51386970572E+01  0.21963033862E+02  0.94381065318E+02  0.89276348097E+02 0.  0.
         11    1    3    3    0    0 -0.27865414836E+02  0.13073667137E+01 -0.30476857468E+02  0.41316212231E+02  0.51100000000E-03 0. -1.
         22    1    1    0    0    0  0.20705991818E+02 -0.51386970572E+01 -0.21963033862E+02  0.30618934682E+02  0.00000000000E+00 0.  1.
</event>
<event>
 5    1  0.3190780E-003  0.9118800E+02  0.7818608E-02  0.1130116E+00
         25   -1    0    0    0    0  0.00000000000E+00  0.00000000000E+00  0.99999998245E-14  0.12500000000E+03  0.12500000000E+03 0.  0.
        -11    1    3    3    0    0  0.20163923209E+01 -0.37815076072E+02 -0.27755762816E+02  0.46951338491E+02  0.51100000000E-03 0.  1.
         23    2    1    0    0    0  0.26647094549E+02  0.10532602643E+01 -0.70162589293E+01  0.97424559941E+02  0.93440569268E+02 0.  0.
         11    1    3    3    0    0  0.24630702228E+02  0.38868336336E+02  0.20739503887E+02  0.50473221450E+02  0.51100000000E-03 0. -1.
         22    1    1    0    0    0 -0.26647094549E+02 -0.10532602643E+01  0.70162589293E+01  0.27575440059E+02  0.00000000000E+00 0. -1.
</event>
<event>
 5    1  0.3190780E-003  0.9118800E+02  0.7818608E-02  0.1130116E+00
         25   -1    0    0    0    0  0.00000000000E+00  0.00000000000E+00  0.99999998245E-14  0.12500000000E+03  0.12500000000E+03 0.  0.
        -11    1    3    3    0    0 -0.30757026514E+02 -0.18666546988E+02  0.11161983754E+02  0.37669942103E+02  0.51100000000E-03 0.  1.
         23    2    1    0    0    0  0.94854917908E+01  0.12624445779E+02 -0.21582975369E+02  0.98257225059E+02  0.94547904603E+02 0.  0.
         11    1    3    3    0    0  0.40242518304E+02  0.31290992768E+02 -0.32744959123E+02  0.60587282957E+02  0.51100000000E-03 0. -1.
         22    1    1    0    0    0 -0.94854917908E+01 -0.12624445779E+02  0.21582975369E+02  0.26742774941E+02  0.00000000000E+00 0. -1.
</event>
<event>
 5    1  0.3190780E-003  0.9118800E+02  0.7818608E-02  0.1130116E+00
         25   -1    0    0    0    0  0.00000000000E+00  0.00000000000E+00  0.99999998245E-14  0.12500000000E+03  0.12500000000E+03 0.  0.
        -11    1    3    3    0    0  0.33032903796E+02  0.51621607626E+01  0.15774445397E+02  0.36968280522E+02  0.51100000000E-03 0. -1.
         23    2    1    0    0    0 -0.20354200614E+02 -0.19141496510E+02  0.56232860824E+01  0.96498917255E+02  0.92193976559E+02 0.  0.
         11    1    3    3    0    0 -0.53387104410E+02 -0.24303657272E+02 -0.10151159315E+02  0.59530636733E+02  0.51100000000E-03 0.  1.
         22    1    1    0    0    0  0.20354200614E+02  0.19141496510E+02 -0.56232860824E+01  0.28501082745E+02  0.00000000000E+00 0.  1.
</event>
<event>
 5    1  0.3190780E-003  0.9118800E+02  0.7818608E-02  0.1130116E+00
         25   -1    0    0    0    0  0.00000000000E+00  0.00000000000E+00  0.99999998245E-14  0.12500000000E+03  0.12500000000E+03 0.  0.
        -11    1    3    3    0    0 -0.14324323418E+02 -0.57636313414E+02  0.11960238717E+02  0.60581995476E+02  0.51100000000E-03 0. -1.
         23    2    1    0    0    0 -0.10320075241E+02 -0.25904409089E+02 -0.48229029857E+01  0.96701541447E+02  0.92468293819E+02 0.  0.
         11    1    3    3    0    0  0.40042481769E+01  0.31731904325E+02 -0.16783141702E+02  0.36119545972E+02  0.51100000000E-03 0.  1.
         22    1    1    0    0    0  0.10320075241E+02  0.25904409089E+02  0.48229029857E+01  0.28298458553E+02  0.00000000000E+00 0. -1.
</event>
<event>
 5    1  0.3190780E-003  0.9118800E+02  0.7818608E-02  0.1130116E+00
         25   -1    0    0    0    0  0.00000000000E+00  0.00000000000E+00  0.99999998245E-14  0.12500000000E+03  0.12500000000E+03 0.  0.
        -11    1    3    3    0    0  0.16363352121E+01 -0.22709557484E+02 -0.42557654698E+02  0.48265469725E+02  0.51100000000E-03 0.  1.
         23    2    1    0    0    0  0.25414029045E+02 -0.15585587371E+02 -0.29051985302E+01  0.95046309335E+02  0.90202978519E+02 0.  0.
         11    1    3    3    0    0  0.23777693833E+02  0.71239701136E+01  0.39652456168E+02  0.46780839610E+02  0.51100000000E-03 0. -1.
         22    1    1    0    0    0 -0.25414029045E+02  0.15585587371E+02  0.29051985302E+01  0.29953690665E+02  0.00000000000E+00 0.  1.
</event>
<event>
 5    1  0.3190780E-003  0.9118800E+02  0.7818608E-02  0.1130116E+00
         25   -1    0    0    0    0  0.00000000000E+00  0.00000000000E+00  0.99999998245E-14  0.12500000000E+03  0.12500000000E+03 0.  0.
        -11    1    3    3    0    0 -0.17298150059E+02  0.40805871296E+02  0.18069515296E+02  0.47862851054E+02  0.51100000000E-03 0. -1.
         23    2    1    0    0    0 -0.27547024778E+02  0.35259937765E+01 -0.98286886689E+01  0.95540293158E+02  0.90884945341E+02 0.  0.
         11    1    3    3    0    0 -0.10248874719E+02 -0.37279877520E+02 -0.27898203965E+02  0.47677442104E+02  0.51100000000E-03 0.  1.
         22    1    1    0    0    0  0.27547024778E+02 -0.35259937765E+01  0.98286886689E+01  0.29459706842E+02  0.00000000000E+00 0. -1.
</event>
<event>
 5    1  0.3190780E-003  0.9118800E+02  0.7818608E-02  0.1130116E+00
         25   -1    0    0    0    0  0.00000000000E+00  0.00000000000E+00  0.99999998245E-14  0.12500000000E+03  0.12500000000E+03 0.  0.
        -11    1    3    3    0    0  0.49966638047E+02 -0.31532907290E+02  0.73429972802E+01  0.59539136450E+02  0.51100000000E-03 0. -1.
         23    2    1    0    0    0  0.15088208834E+02 -0.24612605047E+02  0.77823113563E+01  0.95100188244E+02  0.90277611073E+02 0.  0.
         11    1    3    3    0    0 -0.34878429214E+02  0.69203022435E+01  0.43931407614E+00  0.35561051794E+02  0.51100000000E-03 0.  1.
         22    1    1    0    0    0 -0.15088208834E+02  0.24612605047E+02 -0.77823113563E+01  0.29899811756E+02  0.00000000000E+00 0. -1.
</event>
<event>
 5    1  0.3190780E-003  0.9118800E+02  0.7818608E-02  0.1130116E+00
         25   -1    0    0    0    0  0.00000000000E+00  0.00000000000E+00  0.99999998245E-14  0.12500000000E+03  0.12500000000E+03 0.  0.
        -11    1    3    3    0    0  0.13375172329E+01 -0.54669896504E+02  0.10589131700E+02  0.55702030902E+02  0.51100000000E-03 0. -1.
         23    2    1    0    0    0 -0.49585353231E+01 -0.29939504421E+02  0.25589862109E+02  0.85303626863E+02  0.75504348986E+02 0.  0.
         11    1    3    3    0    0 -0.62960525560E+01  0.24730392084E+02  0.15000730409E+02  0.29601595961E+02  0.51100000000E-03 0.  1.
         22    1    1    0    0    0  0.49585353231E+01  0.29939504421E+02 -0.25589862109E+02  0.39696373137E+02  0.00000000000E+00 0. -1.
</event>
<event>
 5    1  0.3190780E-003  0.9118800E+02  0.7818608E-02  0.1130116E+00
         25   -1    0    0    0    0  0.00000000000E+00  0.00000000000E+00  0.99999998245E-14  0.12500000000E+03  0.12500000000E+03 0.  0.
        -11    1    3    3    0    0  0.26739833560E+02 -0.42798024347E+02 -0.19771832082E+02  0.54199768735E+02  0.51100000000E-03 0. -1.
         23    2    1    0    0    0 -0.97355220204E+01 -0.22933355015E+02 -0.14777797671E+02  0.96032734591E+02  0.91559727216E+02 0.  0.
         11    1    3    3    0    0 -0.36475355580E+02  0.19864669332E+02  0.49940344107E+01  0.41832965856E+02  0.51100000000E-03 0.  1.
         22    1    1    0    0    0  0.97355220204E+01  0.22933355015E+02  0.14777797671E+02  0.28967265409E+02  0.00000000000E+00 0. -1.
</event>
<event>
 5    1  0.3190780E-003  0.9118800E+02  0.7818608E-02  0.1130116E+00
         25   -1    0    0    0    0  0.00000000000E+00  0.00000000000E+00  0.99999998245E-14  0.12500000000E+03  0.12500000000E+03 0.  0.
        -11    1    3    3    0    0  0.47069720726E+02  0.31706216630E+02  0.78168873978E+00  0.56757852494E+02  0.51100000000E-03 0.  1.
         23    2    1    0    0    0  0.24315326415E+02  0.27002163998E+01  0.15036313885E+02  0.96283854671E+02  0.91901924179E+02 0.  0.
         11    1    3    3    0    0 -0.22754394311E+02 -0.29006000230E+02  0.14254625146E+02  0.39526002177E+02  0.51100000000E-03 0. -1.
         22    1    1    0    0    0 -0.24315326415E+02 -0.27002163998E+01 -0.15036313885E+02  0.28716145329E+02  0.00000000000E+00 0.  1.
</event>
<event>
 5    1  0.3190780E-003  0.9118800E+02  0.7818608E-02  0.1130116E+00
         25   -1    0    0    0    0  0.00000000000E+00  0.00000000000E+00  0.99999998245E-14  0.12500000000E+03  0.12500000000E+03 0.  0.
        -11    1    3    3    0    0  0.29370036583E+02  0.38695258313E+02 -0.28979999554E+02  0.56566442695E+02  0.51100000000E-03 0.  1.
         23    2    1    0    0    0 -0.18963645809E+01  0.29274940819E+02 -0.14074193445E+02  0.92462309859E+02  0.86548122248E+02 0.  0.
         11    1    3    3    0    0 -0.31266401164E+02 -0.94203174936E+01  0.14905806109E+02  0.35895867164E+02  0.51100000000E-03 0. -1.
         22    1    1    0    0    0  0.18963645809E+01 -0.29274940819E+02  0.14074193445E+02  0.32537690141E+02  0.00000000000E+00 0.  1.
</event>
<event>
 5    1  0.3190780E-003  0.9118800E+02  0.7818608E-02  0.1130116E+00
         25   -1    0    0    0    0  0.00000000000E+00  0.00000000000E+00  0.99999998245E-14  0.12500000000E+03  0.12500000000E+03 0.  0.
        -11    1    3    3    0    0  0.39915266439E+02 -0.27894039736E+02  0.36747815839E+02  0.61005802321E+02  0.51100000000E-03 0.  1.
         23    2    1    0    0    0  0.16978005451E+02 -0.20352680967E+02  0.11000272711E+02  0.96303479455E+02  0.91928612868E+02 0.  0.
         11    1    3    3    0    0 -0.22937260987E+02  0.75413587683E+01 -0.25747543128E+02  0.35297677134E+02  0.51100000000E-03 0. -1.
         22    1    1    0    0    0 -0.16978005451E+02  0.20352680967E+02 -0.11000272711E+02  0.28696520545E+02  0.00000000000E+00 0.  1.
</event>
<event>
 5    1  0.3190780E-003  0.9118800E+02  0.7818608E-02  0.1130116E+00
         25   -1    0    0    0    0  0.00000000000E+00  0.00000000000E+00  0.99999998245E-14  0.12500000000E+03  0.12500000000E+03 0.  0.
        -11    1    3    3    0    0 -0.50494037199E+02 -0.14654079182E+02 -0.31045658551E+02  0.61059174122E+02  0.51100000000E-03 0.  1.
         23    2    1    0    0    0 -0.29012482068E+02 -0.10571999312E+01 -0.92960991382E+01  0.94516246186E+02  0.89465420953E+02 0.  0.
         11    1    3    3    0    0  0.21481555131E+02  0.13596879251E+02  0.21749559412E+02  0.33457072064E+02  0.51100000000E-03 0. -1.
         22    1    1    0    0    0  0.29012482068E+02  0.10571999312E+01  0.92960991382E+01  0.30483753814E+02  0.00000000000E+00 0.  1.
</event>
<event>
 5    1  0.3190780E-003  0.9118800E+02  0.7818608E-02  0.1130116E+00
         25   -1    0    0    0    0  0.00000000000E+00  0.00000000000E+00  0.99999998245E-14  0.12500000000E+03  0.12500000000E+03 0.  0.
        -11    1    3    3    0    0  0.44014622973E+02  0.25851820436E+02 -0.16537705595E+01  0.51071896505E+02  0.51100000000E-03 0. -1.
         23    2    1    0    0    0  0.58227670787E+01  0.19097110098E+02  0.21029511727E+02  0.96002679537E+02  0.91518685985E+02 0.  0.
         11    1    3    3    0    0 -0.38191855894E+02 -0.67547103377E+01  0.22683282286E+02  0.44930783032E+02  0.51100000000E-03 0.  1.
         22    1    1    0    0    0 -0.58227670787E+01 -0.19097110098E+02 -0.21029511727E+02  0.28997320463E+02  0.00000000000E+00 0. -1.
</event>
<event>
 4    1  0.3190780E-003  0.9118800E+02  0.7818608E-02  0.1130116E+00
         25   -1    0    0    0    0  0.00000000000E+00  0.00000000000E+00  0.99999998245E-14  0.12500000000E+03  0.12500000000E+03 0.  0.
        -11    1    1    0    0    0 -0.49451408494E+01 -0.63023678898E+01 -0.27935358488E+02  0.29061288911E+02  0.51100000000E-03 0. -1.
         11    1    1    0    0    0  0.24565647065E+02 -0.17593258175E+02 -0.21881630361E+02  0.37306829086E+02  0.51100000000E-03 0.  1.
         22    1    1    0    0    0 -0.19620506216E+02  0.23895626065E+02  0.49816988849E+02  0.58631882003E+02  0.00000000000E+00 0.  1.
</event>
<event>
 5    1  0.3190780E-003  0.9118800E+02  0.7818608E-02  0.1130116E+00
         25   -1    0    0    0    0  0.00000000000E+00  0.00000000000E+00  0.99999998245E-14  0.12500000000E+03  0.12500000000E+03 0.  0.
        -11    1    3    3    0    0  0.34124253817E+02 -0.40306706450E+01 -0.44207230166E+02  0.55990983235E+02  0.51100000000E-03 0. -1.
         23    2    1    0    0    0  0.26631116451E+02  0.69796811459E+01 -0.54999495264E+01  0.96925425077E+02  0.92770449332E+02 0.  0.
         11    1    3    3    0    0 -0.74931373664E+01  0.11010351791E+02  0.38707280639E+02  0.40934441842E+02  0.51100000000E-03 0.  1.
         22    1    1    0    0    0 -0.26631116451E+02 -0.69796811459E+01  0.54999495264E+01  0.28074574923E+02  0.00000000000E+00 0. -1.
</event>
<event>
 5    1  0.3190780E-003  0.9118800E+02  0.7818608E-02  0.1130116E+00
         25   -1    0    0    0    0  0.00000000000E+00  0.00000000000E+00  0.99999998245E-14  0.12500000000E+03  0.12500000000E+03 0.  0.
        -11    1    3    3    0    0  0.19405541779E+02  0.51936553764E+02 -0.19231661273E+02  0.58684218187E+02  0.51100000000E-03 0.  1.
         23    2    1    0    0    0  0.22625235549E+02  0.16929971312E+02 -0.72197309983E+01  0.95834099912E+02  0.91288142593E+02 0.  0.
         11    1    3    3    0    0  0.32196937692E+01 -0.35006582452E+02  0.12011930275E+02  0.37149881725E+02  0.51100000000E-03 0. -1.
         22    1    1    0    0    0 -0.22625235549E+02 -0.16929971312E+02  0.72197309983E+01  0.29165900088E+02  0.00000000000E+00 0.  1.
</event>
<event>
 5    1  0.3190780E-003  0.9118800E+02  0.7818608E-02  0.1130116E+00
         25   -1    0    0    0    0  0.00000000000E+00  0.00000000000E+00  0.99999998245E-14  0.12500000000E+03  0.12500000000E+03 0.  0.
        -11    1    3    3    0    0 -0.26891710294E+02  0.19323461243E+02  0.74318149249E+01  0.33938062854E+02  0.51100000000E-03 0. -1.
         23    2    1    0    0    0  0.26194832165E+02  0.22039031035E+02 -0.90508849352E+01  0.89590867855E+02  0.82296518540E+02 0.  0.
         11    1    3    3    0    0  0.53086542459E+02  0.27155697929E+01 -0.16482699860E+02  0.55652805001E+02  0.51100000000E-03 0.  1.
         22    1    1    0    0    0 -0.26194832165E+02 -0.22039031035E+02  0.90508849352E+01  0.35409132145E+02  0.00000000000E+00 0.  1.
</event>
<event>
 5    1  0.3190780E-003  0.9118800E+02  0.7818608E-02  0.1130116E+00
         25   -1    0    0    0    0  0.00000000000E+00  0.00000000000E+00  0.99999998245E-14  0.12500000000E+03  0.12500000000E+03 0.  0.
        -11    1    3    3    0    0  0.25889079038E+01  0.88248901324E+01  0.57377595730E+02  0.58109978679E+02  0.51100000000E-03 0.  1.
         23    2    1    0    0    0  0.50443362152E+01 -0.12067679885E+02  0.26137088434E+02  0.95772930057E+02  0.91204344821E+02 0.  0.
         11    1    3    3    0    0  0.24554283114E+01 -0.20892570017E+02 -0.31240507297E+02  0.37662951378E+02  0.51100000000E-03 0. -1.
         22    1    1    0    0    0 -0.50443362152E+01  0.12067679885E+02 -0.26137088434E+02  0.29227069943E+02  0.00000000000E+00 0.  1.
</event>
<event>
 5    1  0.3190780E-003  0.9118800E+02  0.7818608E-02  0.1130116E+00
         25   -1    0    0    0    0  0.00000000000E+00  0.00000000000E+00  0.99999998245E-14  0.12500000000E+03  0.12500000000E+03 0.  0.
        -11    1    3    3    0    0  0.13398411216E+02  0.52824671375E+01 -0.38420154715E+02  0.41030844139E+02  0.51100000000E-03 0.  1.
         23    2    1    0    0    0  0.22537799161E+02 -0.13253302629E+02  0.12525573811E+02  0.96008752685E+02  0.91526980564E+02 0.  0.
         11    1    3    3    0    0  0.91393879458E+01 -0.18535769766E+02  0.50945728525E+02  0.54977908546E+02  0.51100000000E-03 0. -1.
         22    1    1    0    0    0 -0.22537799161E+02  0.13253302629E+02 -0.12525573811E+02  0.28991247315E+02  0.00000000000E+00 0.  1.
</event>
<event>
 5    1  0.3190780E-003  0.9118800E+02  0.7818608E-02  0.1130116E+00
         25   -1    0    0    0    0  0.00000000000E+00  0.00000000000E+00  0.99999998245E-14  0.12500000000E+03  0.12500000000E+03 0.  0.
        -11    1    3    3    0    0  0.20545002516E+02 -0.11789270467E+02 -0.54948356333E+02  0.59836492966E+02  0.51100000000E-03 0.  1.
         23    2    1    0    0    0  0.29448775397E+01  0.77230681758E+01 -0.18177522406E+02  0.10503151466E+03  0.10311585070E+03 0.  0.
         11    1    3    3    0    0 -0.17600124976E+02  0.19512338642E+02  0.36770833927E+02  0.45195021699E+02  0.51100000000E-03 0. -1.
         22    1    1    0    0    0 -0.29448775397E+01 -0.77230681758E+01  0.18177522406E+02  0.19968485335E+02  0.00000000000E+00 0.  1.
</event>
<event>
 5    1  0.3190780E-003  0.9118800E+02  0.7818608E-02  0.1130116E+00
         25   -1    0    0    0    0  0.00000000000E+00  0.00000000000E+00  0.99999998245E-14  0.12500000000E+03  0.12500000000E+03 0.  0.
        -11    1    3    3    0    0  0.17121121586E+02 -0.38748364657E+02 -0.25678292950E+02  0.49537291983E+02  0.51100000000E-03 0. -1.
         23    2    1    0    0    0  0.96003864221E+01 -0.21902468571E+02  0.16750265193E+02  0.95803134877E+02  0.91245732608E+02 0.  0.
         11    1    3    3    0    0 -0.75207351641E+01  0.16845896086E+02  0.42428558143E+02  0.46265842894E+02  0.51100000000E-03 0.  1.
         22    1    1    0    0    0 -0.96003864221E+01  0.21902468571E+02 -0.16750265193E+02  0.29196865123E+02  0.00000000000E+00 0.  1.
</event>
<event>
 5    1  0.3190780E-003  0.9118800E+02  0.7818608E-02  0.1130116E+00
         25   -1    0    0    0    0  0.00000000000E+00  0.00000000000E+00  0.99999998245E-14  0.12500000000E+03  0.12500000000E+03 0.  0.
        -11    1    3    3    0    0  0.31215808609E+02 -0.16829770494E+02  0.10907710169E+02  0.37103180772E+02  0.51100000000E-03 0.  1.
         23    2    1    0    0    0 -0.54502085015E+01  0.17027679682E+02  0.29619515639E+02  0.90402856263E+02  0.83520740333E+02 0.  0.
         11    1    3    3    0    0 -0.36666017111E+02  0.33857450176E+02  0.18711805471E+02  0.53299675491E+02  0.51100000000E-03 0. -1.
         22    1    1    0    0    0  0.54502085015E+01 -0.17027679682E+02 -0.29619515639E+02  0.34597143737E+02  0.00000000000E+00 0. -1.
</event>
<event>
 5    1  0.3190780E-003  0.9118800E+02  0.7818608E-02  0.1130116E+00
         25   -1    0    0    0    0  0.00000000000E+00  0.00000000000E+00  0.99999998245E-14  0.12500000000E+03  0.12500000000E+03 0.  0.
        -11    1    3    3    0    0 -0.19124330941E+02 -0.14656788845E+02 -0.23780151877E+02  0.33853465358E+02  0.51100000000E-03 0. -1.
         23    2    1    0    0    0  0.19645718637E+02  0.21680556041E+02  0.65236292119E+01  0.95024034476E+02  0.90172105548E+02 0.  0.
         11    1    3    3    0    0  0.38770049578E+02  0.36337344886E+02  0.30303781089E+02  0.61170569118E+02  0.51100000000E-03 0.  1.
         22    1    1    0    0    0 -0.19645718637E+02 -0.21680556041E+02 -0.65236292119E+01  0.29975965524E+02  0.00000000000E+00 0.  1.
</event>
<event>
 5    1  0.3190780E-003  0.9118800E+02  0.7818608E-02  0.1130116E+00
         25   -1    0    0    0    0  0.00000000000E+00  0.00000000000E+00  0.99999998245E-14  0.12500000000E+03  0.12500000000E+03 0.  0.
        -11    1    3    3    0    0  0.39769652066E+02 -0.17901666227E+02  0.22968320531E+02  0.49291364633E+02  0.51100000000E-03 0.  1.
         23    2    1    0    0    0  0.12661282497E+02  0.19781304754E+02  0.16808002538E+02  0.96118915505E+02  0.91677308405E+02 0.  0.
         11    1    3    3    0    0 -0.27108369569E+02  0.37682970981E+02 -0.61603179925E+01  0.46827550872E+02  0.51100000000E-03 0. -1.
         22    1    1    0    0    0 -0.12661282497E+02 -0.19781304754E+02 -0.16808002538E+02  0.28881084495E+02  0.00000000000E+00 0.  1.
</event>
<event>
 5    1  0.3190780E-003  0.9118800E+02  0.7818608E-02  0.1130116E+00
         25   -1    0    0    0    0  0.00000000000E+00  0.00000000000E+00  0.99999998245E-14  0.12500000000E+03  0.12500000000E+03 0.  0.
        -11    1    3    3    0    0  0.29201392783E+02 -0.19255338667E+02 -0.49882971749E+02  0.60924545780E+02  0.51100000000E-03 0.  1.
         23    2    1    0    0    0  0.22942182957E+02 -0.83776102332E+01 -0.19670632924E+02  0.93639803704E+02  0.88232368925E+02 0.  0.
         11    1    3    3    0    0 -0.62592098261E+01  0.10877728434E+02  0.30212338825E+02  0.32715257924E+02  0.51100000000E-03 0. -1.
         22    1    1    0    0    0 -0.22942182957E+02  0.83776102332E+01  0.19670632924E+02  0.31360196296E+02  0.00000000000E+00 0.  1.
</event>
<event>
 5    1  0.3190780E-003  0.9118800E+02  0.7818608E-02  0.1130116E+00
         25   -1    0    0    0    0  0.00000000000E+00  0.00000000000E+00  0.99999998245E-14  0.12500000000E+03  0.12500000000E+03 0.  0.
        -11    1    3    3    0    0 -0.34261171251E+02 -0.12423534843E+01  0.49888935706E+02  0.60533273526E+02  0.51100000000E-03 0. -1.
         23    2    1    0    0    0 -0.24741986497E+02  0.42729700041E+01  0.18448941171E+02  0.93842535424E+02  0.88519115766E+02 0.  0.
         11    1    3    3    0    0  0.95191847540E+01  0.55153234883E+01 -0.31439994535E+02  0.33309261898E+02  0.51100000000E-03 0.  1.
         22    1    1    0    0    0  0.24741986497E+02 -0.42729700041E+01 -0.18448941171E+02  0.31157464576E+02  0.00000000000E+00 0. -1.
</event>
<event>
 5    1  0.3190780E-003  0.9118800E+02  0.7818608E-02  0.1130116E+00
         25   -1    0    0    0    0  0.00000000000E+00  0.00000000000E+00  0.99999998245E-14  0.12500000000E+03  0.12500000000E+03 0.  0.
        -11    1    3    3    0    0  0.45965755454E+02 -0.81239028245E+01 -0.35661476251E+02  0.58741717375E+02  0.51100000000E-03 0. -1.
         23    2    1    0    0    0  0.16154116670E+02 -0.18059528873E+02 -0.18241502371E+02  0.94670897190E+02  0.89681237154E+02 0.  0.
         11    1    3    3    0    0 -0.29811638784E+02 -0.99356260485E+01  0.17419973880E+02  0.35929179815E+02  0.51100000000E-03 0.  1.
         22    1    1    0    0    0 -0.16154116670E+02  0.18059528873E+02  0.18241502371E+02  0.30329102810E+02  0.00000000000E+00 0. -1.
</event>
<event>
 5    1  0.3190780E-003  0.9118800E+02  0.7818608E-02  0.1130116E+00
         25   -1    0    0    0    0  0.00000000000E+00  0.00000000000E+00  0.99999998245E-14  0.12500000000E+03  0.12500000000E+03 0.  0.
        -11    1    3    3    0    0 -0.37372779265E+02 -0.18741421996E+02 -0.17198692856E+01  0.41844037557E+02  0.51100000000E-03 0. -1.
         23    2    1    0    0    0 -0.13760979262E+02  0.20833896283E+02  0.20207820481E+02  0.92878795272E+02  0.87147569203E+02 0.  0.
         11    1    3    3    0    0  0.23611800003E+02  0.39575318279E+02  0.21927689767E+02  0.51034757715E+02  0.51100000000E-03 0.  1.
         22    1    1    0    0    0  0.13760979262E+02 -0.20833896283E+02 -0.20207820481E+02  0.32121204728E+02  0.00000000000E+00 0. -1.
</event>
<event>
 5    1  0.3190780E-003  0.9118800E+02  0.7818608E-02  0.1130116E+00
         25   -1    0    0    0    0  0.00000000000E+00  0.00000000000E+00  0.99999998245E-14  0.12500000000E+03  0.12500000000E+03 0.  0.
        -11    1    3    3    0    0 -0.16360708016E+02  0.24067916705E+02  0.41139524550E+01  0.29391529160E+02  0.51100000000E-03 0.  1.
         23    2    1    0    0    0  0.25872405834E+02 -0.21231143392E+02 -0.83072905011E+00  0.91521156768E+02  0.85177985372E+02 0.  0.
         11    1    3    3    0    0  0.42233113851E+02 -0.45299060097E+02 -0.49446815051E+01  0.62129627608E+02  0.51100000000E-03 0. -1.
         22    1    1    0    0    0 -0.25872405834E+02  0.21231143392E+02  0.83072905011E+00  0.33478843232E+02  0.00000000000E+00 0. -1.
</event>
<event>
 5    1  0.3190780E-003  0.9118800E+02  0.7818608E-02  0.1130116E+00
         25   -1    0    0    0    0  0.00000000000E+00  0.00000000000E+00  0.99999998245E-14  0.12500000000E+03  0.12500000000E+03 0.  0.
        -11    1    3    3    0    0  0.21511264071E+02 -0.38632365243E+02 -0.24194258812E+01  0.44283718769E+02  0.51100000000E-03 0.  1.
         23    2    1    0    0    0  0.91527893136E+01  0.75283310459E+00  0.27982042295E+02  0.95549448207E+02  0.90897536005E+02 0.  0.
         11    1    3    3    0    0 -0.12358474757E+02  0.39385198348E+02  0.30401468177E+02  0.51265729437E+02  0.51100000000E-03 0. -1.
         22    1    1    0    0    0 -0.91527893136E+01 -0.75283310459E+00 -0.27982042295E+02  0.29450551793E+02  0.00000000000E+00 0.  1.
</event>
<event>
 5    1  0.3190780E-003  0.9118800E+02  0.7818608E-02  0.1130116E+00
         25   -1    0    0    0    0  0.00000000000E+00  0.00000000000E+00  0.99999998245E-14  0.12500000000E+03  0.12500000000E+03 0.  0.
        -11    1    3    3    0    0 -0.29279842916E+02 -0.32872103941E+02 -0.42675779867E+01  0.44227781324E+02  0.51100000000E-03 0.  1.
         23    2    1    0    0    0 -0.16703561020E+02  0.13117772989E+02 -0.21360591673E+02  0.94877586492E+02  0.89968864742E+02 0.  0.
         11    1    3    3    0    0  0.12576281897E+02  0.45989876930E+02 -0.17093013686E+02  0.50649805168E+02  0.51100000000E-03 0. -1.
         22    1    1    0    0    0  0.16703561020E+02 -0.13117772989E+02  0.21360591673E+02  0.30122413508E+02  0.00000000000E+00 0.  1.
</event>
<event>
 5    1  0.3190780E-003  0.9118800E+02  0.7818608E-02  0.1130116E+00
         25   -1    0    0    0    0  0.00000000000E+00  0.00000000000E+00  0.99999998245E-14  0.12500000000E+03  0.12500000000E+03 0.  0.
        -11    1    3    3    0    0 -0.30348076565E+02  0.35352642899E+02 -0.15131324670E+02  0.48987468782E+02  0.51100000000E-03 0. -1.
         23    2    1    0    0    0  0.12580580841E+02  0.24807376731E+02 -0.15426804240E+02  0.93193345922E+02  0.87597582618E+02 0.  0.
         11    1    3    3    0    0  0.42928657406E+02 -0.10545266168E+02 -0.29547957008E+00  0.44205877140E+02  0.51100000000E-03 0.  1.
         22    1    1    0    0    0 -0.12580580841E+02 -0.24807376731E+02  0.15426804240E+02  0.31806654078E+02  0.00000000000E+00 0. -1.
</event>
<event>
 5    1  0.3190780E-003  0.9118800E+02  0.7818608E-02  0.1130116E+00
         25   -1    0    0    0    0  0.00000000000E+00  0.00000000000E+00  0.99999998245E-14  0.12500000000E+03  0.12500000000E+03 0.  0.
        -11    1    3    3    0    0  0.15402746187E+02 -0.35263164341E+02 -0.21191588135E+02  0.43929702450E+02  0.51100000000E-03 0. -1.
         23    2    1    0    0    0  0.60528612822E+01  0.14695045561E+02 -0.25516335087E+02  0.94938981222E+02  0.90054124311E+02 0.  0.
         11    1    3    3    0    0 -0.93498849051E+01  0.49958209902E+02 -0.43247469520E+01  0.51009278771E+02  0.51100000000E-03 0.  1.
         22    1    1    0    0    0 -0.60528612822E+01 -0.14695045561E+02  0.25516335087E+02  0.30061018778E+02  0.00000000000E+00 0.  1.
</event>
<event>
 5    1  0.3190780E-003  0.9118800E+02  0.7818608E-02  0.1130116E+00
         25   -1    0    0    0    0  0.00000000000E+00  0.00000000000E+00  0.99999998245E-14  0.12500000000E+03  0.12500000000E+03 0.  0.
        -11    1    3    3    0    0  0.21701361063E+02 -0.11837066496E+02  0.26236203846E+02  0.36047241333E+02  0.51100000000E-03 0. -1.
         23    2    1    0    0    0  0.55828009552E+01  0.75318959667E+01 -0.27795499061E+02  0.95665943148E+02  0.91057595987E+02 0.  0.
         11    1    3    3    0    0 -0.16118560108E+02  0.19368962463E+02 -0.54031702907E+02  0.59618701815E+02  0.51100000000E-03 0.  1.
         22    1    1    0    0    0 -0.55828009552E+01 -0.75318959667E+01  0.27795499061E+02  0.29334056852E+02  0.00000000000E+00 0.  1.
</event>
<event>
 5    1  0.3190780E-003  0.9118800E+02  0.7818608E-02  0.1130116E+00
         25   -1    0    0    0    0  0.00000000000E+00  0.00000000000E+00  0.99999998245E-14  0.12500000000E+03  0.12500000000E+03 0.  0.
        -11    1    3    3    0    0  0.15631675731E+01  0.21789460883E+02 -0.52234588958E+02  0.56618692870E+02  0.51100000000E-03 0.  1.
         23    2    1    0    0    0 -0.96004411059E+01  0.23944095783E+02 -0.15886150063E+02  0.94703829349E+02  0.89727127098E+02 0.  0.
         11    1    3    3    0    0 -0.11163608679E+02  0.21546349004E+01  0.36348438895E+02  0.38085136480E+02  0.51100000000E-03 0. -1.
         22    1    1    0    0    0  0.96004411059E+01 -0.23944095783E+02  0.15886150063E+02  0.30296170651E+02  0.00000000000E+00 0.  1.
</event>
<event>
 5    1  0.3190780E-003  0.9118800E+02  0.7818608E-02  0.1130116E+00
         25   -1    0    0    0    0  0.00000000000E+00  0.00000000000E+00  0.99999998245E-14  0.12500000000E+03  0.12500000000E+03 0.  0.
        -11    1    3    3    0    0  0.15849656304E+02 -0.19025809586E+01  0.52136560926E+02  0.54525704073E+02  0.51100000000E-03 0.  1.
         23    2    1    0    0    0  0.23872008033E+02  0.10878086152E+02  0.14610344788E+02  0.94972217853E+02  0.90100246743E+02 0.  0.
         11    1    3    3    0    0  0.80223517284E+01  0.12780667111E+02 -0.37526216138E+02  0.40446513780E+02  0.51100000000E-03 0. -1.
         22    1    1    0    0    0 -0.23872008033E+02 -0.10878086152E+02 -0.14610344788E+02  0.30027782147E+02  0.00000000000E+00 0.  1.
</event>
<event>
 5    1  0.3190780E-003  0.9118800E+02  0.7818608E-02  0.1130116E+00
         25   -1    0    0    0    0  0.00000000000E+00  0.00000000000E+00  0.99999998245E-14  0.12500000000E+03  0.12500000000E+03 0.  0.
        -11    1    3    3    0    0 -0.82869930566E+01  0.21809087748E+02  0.38449909360E+02  0.44974504915E+02  0.51100000000E-03 0.  1.
         23    2    1    0    0    0  0.28669247080E+02  0.64727491008E+01  0.10466473538E+02  0.93801133396E+02  0.88460631633E+02 0.  0.
         11    1    3    3    0    0  0.36956240137E+02 -0.15336338647E+02 -0.27983435822E+02  0.48826628481E+02  0.51100000000E-03 0. -1.
         22    1    1    0    0    0 -0.28669247080E+02 -0.64727491008E+01 -0.10466473538E+02  0.31198866604E+02  0.00000000000E+00 0.  1.
</event>
<event>
 5    1  0.3190780E-003  0.9118800E+02  0.7818608E-02  0.1130116E+00
         25   -1    0    0    0    0  0.00000000000E+00  0.00000000000E+00  0.99999998245E-14  0.12500000000E+03  0.12500000000E+03 0.  0.
        -11    1    3    3    0    0  0.58936973607E+02 -0.53169007581E+01 -0.30404389442E+01  0.59254371660E+02  0.51100000000E-03 0. -1.
         23    2    1    0    0    0  0.23172658301E+02  0.56219134310E+01 -0.12841567217E+02  0.97917092993E+02  0.94097147929E+02 0.  0.
         11    1    3    3    0    0 -0.35764315306E+02  0.10938814189E+02 -0.98011282724E+01  0.38662721333E+02  0.51100000000E-03 0.  1.
         22    1    1    0    0    0 -0.23172658301E+02 -0.56219134310E+01  0.12841567217E+02  0.27082907007E+02  0.00000000000E+00 0. -1.
</event>
<event>
 5    1  0.3190780E-003  0.9118800E+02  0.7818608E-02  0.1130116E+00
         25   -1    0    0    0    0  0.00000000000E+00  0.00000000000E+00  0.99999998245E-14  0.12500000000E+03  0.12500000000E+03 0.  0.
        -11    1    3    3    0    0 -0.17984846987E+02  0.27428638377E+02 -0.38943784765E+02  0.50915648836E+02  0.51100000000E-03 0.  1.
         23    2    1    0    0    0  0.25752339043E+01  0.30625747622E+02 -0.92915505943E+00  0.94252128916E+02  0.89095635297E+02 0.  0.
         11    1    3    3    0    0  0.20560080892E+02  0.31971092457E+01  0.38014629705E+02  0.43336480080E+02  0.51100000000E-03 0. -1.
         22    1    1    0    0    0 -0.25752339043E+01 -0.30625747622E+02  0.92915505943E+00  0.30747871084E+02  0.00000000000E+00 0. -1.
</event>
<event>
 5    1  0.3190780E-003  0.9118800E+02  0.7818608E-02  0.1130116E+00
         25   -1    0    0    0    0  0.00000000000E+00  0.00000000000E+00  0.99999998245E-14  0.12500000000E+03  0.12500000000E+03 0.  0.
        -11    1    3    3    0    0  0.45022725583E+02  0.38631968759E+02 -0.17321533947E+02  0.61802187402E+02  0.51100000000E-03 0.  1.
         23    2    1    0    0    0  0.18582417013E+02  0.16461931636E+02 -0.14081308947E+02  0.96459070147E+02  0.92139934538E+02 0.  0.
         11    1    3    3    0    0 -0.26440308570E+02 -0.22170037123E+02  0.32402249997E+01  0.34656882745E+02  0.51100000000E-03 0. -1.
         22    1    1    0    0    0 -0.18582417013E+02 -0.16461931636E+02  0.14081308947E+02  0.28540929853E+02  0.00000000000E+00 0.  1.
</event>
<event>
 5    1  0.3190780E-003  0.9118800E+02  0.7818608E-02  0.1130116E+00
         25   -1    0    0    0    0  0.00000000000E+00  0.00000000000E+00  0.99999998245E-14  0.12500000000E+03  0.12500000000E+03 0.  0.
        -11    1    3    3    0    0  0.23481829439E+01  0.13279926645E+02  0.37401332888E+02  0.39758396810E+02  0.51100000000E-03 0. -1.
         23    2    1    0    0    0  0.26994670830E+02 -0.31453129751E+01 -0.10324455112E+02  0.95927682922E+02  0.91416195121E+02 0.  0.
         11    1    3    3    0    0  0.24646487886E+02 -0.16425239620E+02 -0.47725788001E+02  0.56169286111E+02  0.51100000000E-03 0.  1.
         22    1    1    0    0    0 -0.26994670830E+02  0.31453129751E+01  0.10324455112E+02  0.29072317078E+02  0.00000000000E+00 0.  1.
</event>
<event>
 5    1  0.3190780E-003  0.9118800E+02  0.7818608E-02  0.1130116E+00
         25   -1    0    0    0    0  0.00000000000E+00  0.00000000000E+00  0.99999998245E-14  0.12500000000E+03  0.12500000000E+03 0.  0.
        -11    1    3    3    0    0  0.22706198317E+02  0.30618656576E+02  0.19320913989E+02  0.42736065450E+02  0.51100000000E-03 0.  1.
         23    2    1    0    0    0  0.24949810728E+02 -0.58399195560E+01 -0.17001204428E+02  0.94248761524E+02  0.89090910766E+02 0.  0.
         11    1    3    3    0    0  0.22436124106E+01 -0.36458576132E+02 -0.36322118417E+02  0.51512696074E+02  0.51100000000E-03 0. -1.
         22    1    1    0    0    0 -0.24949810728E+02  0.58399195560E+01  0.17001204428E+02  0.30751238476E+02  0.00000000000E+00 0. -1.
</event>
<event>
 5    1  0.3190780E-003  0.9118800E+02  0.7818608E-02  0.1130116E+00
         25   -1    0    0    0    0  0.00000000000E+00  0.00000000000E+00  0.99999998245E-14  0.12500000000E+03  0.12500000000E+03 0.  0.
        -11    1    3    3    0    0  0.19931287403E+01 -0.39333853104E+02 -0.43642102574E+02  0.58785692813E+02  0.51100000000E-03 0.  1.
         23    2    1    0    0    0  0.15847636376E+02 -0.15260150062E+02 -0.20233249004E+02  0.95110133425E+02  0.90291380299E+02 0.  0.
         11    1    3    3    0    0  0.13854507636E+02  0.24073703042E+02  0.23408853570E+02  0.36324440612E+02  0.51100000000E-03 0. -1.
         22    1    1    0    0    0 -0.15847636376E+02  0.15260150062E+02  0.20233249004E+02  0.29889866575E+02  0.00000000000E+00 0.  1.
</event>
<event>
 5    1  0.3190780E-003  0.9118800E+02  0.7818608E-02  0.1130116E+00
         25   -1    0    0    0    0  0.00000000000E+00  0.00000000000E+00  0.99999998245E-14  0.12500000000E+03  0.12500000000E+03 0.  0.
        -11    1    3    3    0    0  0.36837928931E+02  0.10611117223E+02 -0.25393998765E+02  0.45983518680E+02  0.51100000000E-03 0. -1.
         23    2    1    0    0    0 -0.84969063993E+01 -0.10862353462E+02 -0.25343957118E+02  0.96146849332E+02  0.91715387656E+02 0.  0.
         11    1    3    3    0    0 -0.45334835330E+02 -0.21473470685E+02  0.50041646762E-01  0.50163330652E+02  0.51100000000E-03 0.  1.
         22    1    1    0    0    0  0.84969063993E+01  0.10862353462E+02  0.25343957118E+02  0.28853150668E+02  0.00000000000E+00 0.  1.
</event>
<event>
 5    1  0.3190780E-003  0.9118800E+02  0.7818608E-02  0.1130116E+00
         25   -1    0    0    0    0  0.00000000000E+00  0.00000000000E+00  0.99999998245E-14  0.12500000000E+03  0.12500000000E+03 0.  0.
        -11    1    3    3    0    0 -0.17264795462E+02 -0.26845313464E+02 -0.75137578782E+01  0.32790251220E+02  0.51100000000E-03 0.  1.
         23    2    1    0    0    0  0.23387195179E+02  0.18675066458E+02 -0.87018533996E+01  0.93832047578E+02  0.88504304384E+02 0.  0.
         11    1    3    3    0    0  0.40651990642E+02  0.45520379922E+02 -0.11880955213E+01  0.61041796358E+02  0.51100000000E-03 0. -1.
         22    1    1    0    0    0 -0.23387195179E+02 -0.18675066458E+02  0.87018533996E+01  0.31167952422E+02  0.00000000000E+00 0. -1.
</event>
<event>
 5    1  0.3190780E-003  0.9118800E+02  0.7818608E-02  0.1130116E+00
         25   -1    0    0    0    0  0.00000000000E+00  0.00000000000E+00  0.99999998245E-14  0.12500000000E+03  0.12500000000E+03 0.  0.
        -11    1    3    3    0    0  0.17143969447E+02 -0.33168336593E+02  0.37558969075E+02  0.52959705428E+02  0.51100000000E-03 0. -1.
         23    2    1    0    0    0  0.12729447629E+02 -0.26651469129E+02 -0.39439398773E+01  0.95202444640E+02  0.90419086260E+02 0.  0.
         11    1    3    3    0    0 -0.44145218180E+01  0.65168674642E+01 -0.41502908952E+02  0.42242739213E+02  0.51100000000E-03 0.  1.
         22    1    1    0    0    0 -0.12729447629E+02  0.26651469129E+02  0.39439398773E+01  0.29797555360E+02  0.00000000000E+00 0. -1.
</event>
<event>
 5    1  0.3190780E-003  0.9118800E+02  0.7818608E-02  0.1130116E+00
         25   -1    0    0    0    0  0.00000000000E+00  0.00000000000E+00  0.99999998245E-14  0.12500000000E+03  0.12500000000E+03 0.  0.
        -11    1    3    3    0    0 -0.30580552804E+02 -0.12463777893E+02  0.86740887980E+01  0.34143166020E+02  0.51100000000E-03 0.  1.
         23    2    1    0    0    0  0.20025056539E+02  0.48042628134E+01 -0.21242551883E+02  0.95414026278E+02  0.90711116019E+02 0.  0.
         11    1    3    3    0    0  0.50605609343E+02  0.17268040706E+02 -0.29916640681E+02  0.61270860258E+02  0.51100000000E-03 0. -1.
         22    1    1    0    0    0 -0.20025056539E+02 -0.48042628134E+01  0.21242551883E+02  0.29585973722E+02  0.00000000000E+00 0. -1.
</event>
<event>
 5    1  0.3190780E-003  0.9118800E+02  0.7818608E-02  0.1130116E+00
         25   -1    0    0    0    0  0.00000000000E+00  0.00000000000E+00  0.99999998245E-14  0.12500000000E+03  0.12500000000E+03 0.  0.
        -11    1    3    3    0    0 -0.52769671848E+02 -0.22390898606E+02 -0.18071410113E+02  0.60104629365E+02  0.51100000000E-03 0. -1.
         23    2    1    0    0    0 -0.20806003264E+02 -0.44775772173E+01 -0.18578811690E+02  0.96749146679E+02  0.92532624894E+02 0.  0.
         11    1    3    3    0    0  0.31963668585E+02  0.17913321389E+02 -0.50740157723E+00  0.36644517314E+02  0.51100000000E-03 0.  1.
         22    1    1    0    0    0  0.20806003264E+02  0.44775772173E+01  0.18578811690E+02  0.28250853321E+02  0.00000000000E+00 0. -1.
</event>
<event>
 5    1  0.3190780E-003  0.9118800E+02  0.7818608E-02  0.1130116E+00
         25   -1    0    0    0    0  0.00000000000E+00  0.00000000000E+00  0.99999998245E-14  0.12500000000E+03  0.12500000000E+03 0.  0.
        -11    1    3    3    0    0 -0.20449032638E+01 -0.53066544555E+02  0.73159449578E+01  0.53607488574E+02  0.51100000000E-03 0. -1.
         23    2    1    0    0    0  0.90477679158E+01 -0.29421472288E+02 -0.17463689832E+02  0.89609809291E+02  0.82325283618E+02 0.  0.
         11    1    3    3    0    0  0.11092671180E+02  0.23645072267E+02 -0.24779634790E+02  0.36002320717E+02  0.51100000000E-03 0.  1.
         22    1    1    0    0    0 -0.90477679158E+01  0.29421472288E+02  0.17463689832E+02  0.35390190709E+02  0.00000000000E+00 0.  1.
</event>
<event>
 5    1  0.3190780E-003  0.9118800E+02  0.7818608E-02  0.1130116E+00
         25   -1    0    0    0    0  0.00000000000E+00  0.00000000000E+00  0.99999998245E-14  0.12500000000E+03  0.12500000000E+03 0.  0.
        -11    1    3    3    0    0 -0.12220625837E+01 -0.19172414481E+02 -0.31708454924E+02  0.37074263687E+02  0.51100000000E-03 0.  1.
         23    2    1    0    0    0 -0.90114188851E+01 -0.10693444760E+02  0.25762295688E+02  0.95687011236E+02  0.91086512773E+02 0.  0.
         11    1    3    3    0    0 -0.77893563013E+01  0.84789697218E+01  0.57470750612E+02  0.58612747549E+02  0.51100000000E-03 0. -1.
         22    1    1    0    0    0  0.90114188851E+01  0.10693444760E+02 -0.25762295688E+02  0.29312988764E+02  0.00000000000E+00 0. -1.
</event>
<event>
 5    1  0.3190780E-003  0.9118800E+02  0.7818608E-02  0.1130116E+00
         25   -1    0    0    0    0  0.00000000000E+00  0.00000000000E+00  0.99999998245E-14  0.12500000000E+03  0.12500000000E+03 0.  0.
        -11    1    3    3    0    0 -0.19995922860E+02  0.33603292239E+01  0.47836521416E+02  0.51956342490E+02  0.51100000000E-03 0. -1.
         23    2    1    0    0    0 -0.27828555396E+02  0.13567122611E+02  0.91643253462E+01  0.92712538495E+02  0.86908771846E+02 0.  0.
         11    1    3    3    0    0 -0.78326325356E+01  0.10206793387E+02 -0.38672196070E+02  0.40756196005E+02  0.51100000000E-03 0.  1.
         22    1    1    0    0    0  0.27828555396E+02 -0.13567122611E+02 -0.91643253462E+01  0.32287461505E+02  0.00000000000E+00 0.  1.
</event>
<event>
 5    1  0.3190780E-003  0.9118800E+02  0.7818608E-02  0.1130116E+00
         25   -1    0    0    0    0  0.00000000000E+00  0.00000000000E+00  0.99999998245E-14  0.12500000000E+03  0.12500000000E+03 0.  0.
        -11    1    3    3    0    0  0.98884669943E+01 -0.21537790025E+02 -0.36010580849E+02  0.43109397027E+02  0.51100000000E-03 0.  1.
         23    2    1    0    0    0  0.14691569946E+02  0.22370782586E+02 -0.33839263590E+01  0.98023248924E+02  0.94238061477E+02 0.  0.
         11    1    3    3    0    0  0.48031029522E+01  0.43908572611E+02  0.32626654490E+02  0.54913851897E+02  0.51100000000E-03 0. -1.
         22    1    1    0    0    0 -0.14691569946E+02 -0.22370782586E+02  0.33839263590E+01  0.26976751076E+02  0.00000000000E+00 0. -1.
</event>
<event>
 5    1  0.3190780E-003  0.9118800E+02  0.7818608E-02  0.1130116E+00
         25   -1    0    0    0    0  0.00000000000E+00  0.00000000000E+00  0.99999998245E-14  0.12500000000E+03  0.12500000000E+03 0.  0.
        -11    1    3    3    0    0  0.19133552101E+01 -0.13145893457E+02 -0.40056899890E+02  0.42202259086E+02  0.51100000000E-03 0. -1.
         23    2    1    0    0    0  0.23362319843E+02 -0.15693036843E+02  0.87106369205E+01  0.95539100669E+02  0.90883305218E+02 0.  0.
         11    1    3    3    0    0  0.21448964633E+02 -0.25471433861E+01  0.48767536810E+02  0.53336841583E+02  0.51100000000E-03 0.  1.
         22    1    1    0    0    0 -0.23362319843E+02  0.15693036843E+02 -0.87106369205E+01  0.29460899331E+02  0.00000000000E+00 0.  1.
</event>
<event>
 5    1  0.3190780E-003  0.9118800E+02  0.7818608E-02  0.1130116E+00
         25   -1    0    0    0    0  0.00000000000E+00  0.00000000000E+00  0.99999998245E-14  0.12500000000E+03  0.12500000000E+03 0.  0.
        -11    1    3    3    0    0  0.10249767928E+02 -0.75825622462E+01  0.38767653639E+02  0.40810341358E+02  0.51100000000E-03 0. -1.
         23    2    1    0    0    0 -0.28109663007E+02 -0.56953082877E+01 -0.12710590942E+01  0.96291024364E+02  0.91911675487E+02 0.  0.
         11    1    3    3    0    0 -0.38359430935E+02  0.18872539584E+01 -0.40038712733E+02  0.55480683006E+02  0.51100000000E-03 0.  1.
         22    1    1    0    0    0  0.28109663007E+02  0.56953082877E+01  0.12710590942E+01  0.28708975636E+02  0.00000000000E+00 0. -1.
</event>
<event>
 5    1  0.3190780E-003  0.9118800E+02  0.7818608E-02  0.1130116E+00
         25   -1    0    0    0    0  0.00000000000E+00  0.00000000000E+00  0.99999998245E-14  0.12500000000E+03  0.12500000000E+03 0.  0.
        -11    1    3    3    0    0  0.46210979326E+02  0.23016476783E+02  0.20630028838E+02  0.55595061866E+02  0.51100000000E-03 0.  1.
         23    2    1    0    0    0  0.76667859374E+01  0.22282874370E+02  0.19905491964E+02  0.94153043794E+02  0.88956511558E+02 0.  0.
         11    1    3    3    0    0 -0.38544193388E+02 -0.73360241253E+00 -0.72453687392E+00  0.38557981928E+02  0.51100000000E-03 0. -1.
         22    1    1    0    0    0 -0.76667859374E+01 -0.22282874370E+02 -0.19905491964E+02  0.30846956206E+02  0.00000000000E+00 0.  1.
</event>
<event>
 5    1  0.3190780E-003  0.9118800E+02  0.7818608E-02  0.1130116E+00
         25   -1    0    0    0    0  0.00000000000E+00  0.00000000000E+00  0.99999998245E-14  0.12500000000E+03  0.12500000000E+03 0.  0.
        -11    1    3    3    0    0 -0.68629393716E+01  0.36942774824E+02  0.17829056459E+02  0.41590188783E+02  0.51100000000E-03 0.  1.
         23    2    1    0    0    0  0.70492158321E+01  0.75899365460E+01 -0.26500503822E+02  0.96546963546E+02  0.92259096498E+02 0.  0.
         11    1    3    3    0    0  0.13912155204E+02 -0.29352838278E+02 -0.44329560281E+02  0.54956774763E+02  0.51100000000E-03 0. -1.
         22    1    1    0    0    0 -0.70492158321E+01 -0.75899365460E+01  0.26500503822E+02  0.28453036454E+02  0.00000000000E+00 0. -1.
</event>
<event>
 5    1  0.3190780E-003  0.9118800E+02  0.7818608E-02  0.1130116E+00
         25   -1    0    0    0    0  0.00000000000E+00  0.00000000000E+00  0.99999998245E-14  0.12500000000E+03  0.12500000000E+03 0.  0.
        -11    1    3    3    0    0  0.18338286386E+02 -0.47562778376E+01  0.56555559374E+02  0.59644331020E+02  0.51100000000E-03 0.  1.
         23    2    1    0    0    0 -0.30617857067E+01  0.54170228873E+01  0.25750646034E+02  0.98508219391E+02  0.94879159186E+02 0.  0.
         11    1    3    3    0    0 -0.21400072092E+02  0.10173300725E+02 -0.30804913340E+02  0.38863888372E+02  0.51100000000E-03 0. -1.
         22    1    1    0    0    0  0.30617857067E+01 -0.54170228873E+01 -0.25750646034E+02  0.26491780609E+02  0.00000000000E+00 0.  1.
</event>
<event>
 5    1  0.3190780E-003  0.9118800E+02  0.7818608E-02  0.1130116E+00
         25   -1    0    0    0    0  0.00000000000E+00  0.00000000000E+00  0.99999998245E-14  0.12500000000E+03  0.12500000000E+03 0.  0.
        -11    1    3    3    0    0 -0.24034265568E+02 -0.22720377442E+02  0.20913114308E+02  0.39130804014E+02  0.51100000000E-03 0. -1.
         23    2    1    0    0    0  0.11721897086E+02  0.18206260301E+02 -0.94395221753E+01  0.10137849784E+03  0.98588155778E+02 0.  0.
         11    1    3    3    0    0  0.35756162654E+02  0.40926637743E+02 -0.30352636483E+02  0.62247693824E+02  0.51100000000E-03 0.  1.
         22    1    1    0    0    0 -0.11721897086E+02 -0.18206260301E+02  0.94395221753E+01  0.23621502162E+02  0.00000000000E+00 0.  1.
</event>
<event>
 5    1  0.3190780E-003  0.9118800E+02  0.7818608E-02  0.1130116E+00
         25   -1    0    0    0    0  0.00000000000E+00  0.00000000000E+00  0.99999998245E-14  0.12500000000E+03  0.12500000000E+03 0.  0.
        -11    1    3    3    0    0 -0.30894252451E+02  0.15324768212E+02  0.23323156190E+02  0.41632595045E+02  0.51100000000E-03 0. -1.
         23    2    1    0    0    0 -0.18698194036E+02 -0.18492116742E+02 -0.15444061675E+02  0.94502461037E+02  0.89446158437E+02 0.  0.
         11    1    3    3    0    0  0.12196058415E+02 -0.33816884953E+02 -0.38767217864E+02  0.52869865992E+02  0.51100000000E-03 0.  1.
         22    1    1    0    0    0  0.18698194036E+02  0.18492116742E+02  0.15444061675E+02  0.30497538963E+02  0.00000000000E+00 0.  1.
</event>
<event>
 5    1  0.3190780E-003  0.9118800E+02  0.7818608E-02  0.1130116E+00
         25   -1    0    0    0    0  0.00000000000E+00  0.00000000000E+00  0.99999998245E-14  0.12500000000E+03  0.12500000000E+03 0.  0.
        -11    1    3    3    0    0  0.51989437084E+02 -0.27537005578E+01 -0.29339105688E+02  0.59760083316E+02  0.51100000000E-03 0. -1.
         23    2    1    0    0    0  0.19267765322E+02 -0.12604954086E+02 -0.18032475865E+02  0.95754456171E+02  0.91179021944E+02 0.  0.
         11    1    3    3    0    0 -0.32721671762E+02 -0.98512535284E+01  0.11306629823E+02  0.35994372854E+02  0.51100000000E-03 0.  1.
         22    1    1    0    0    0 -0.19267765322E+02  0.12604954086E+02  0.18032475865E+02  0.29245543829E+02  0.00000000000E+00 0. -1.
</event>
<event>
 5    1  0.3190780E-003  0.9118800E+02  0.7818608E-02  0.1130116E+00
         25   -1    0    0    0    0  0.00000000000E+00  0.00000000000E+00  0.99999998245E-14  0.12500000000E+03  0.12500000000E+03 0.  0.
        -11    1    3    3    0    0 -0.43008371655E+02  0.13810427449E+02 -0.20203655366E+02  0.49483690537E+02  0.51100000000E-03 0. -1.
         23    2    1    0    0    0 -0.15426322959E+02 -0.14983435098E+02 -0.27573263054E+02  0.90032020322E+02  0.82963878167E+02 0.  0.
         11    1    3    3    0    0  0.27582048696E+02 -0.28793862547E+02 -0.73696076875E+01  0.40548329785E+02  0.51100000000E-03 0.  1.
         22    1    1    0    0    0  0.15426322959E+02  0.14983435098E+02  0.27573263054E+02  0.34967979678E+02  0.00000000000E+00 0. -1.
</event>
<event>
 5    1  0.3190780E-003  0.9118800E+02  0.7818608E-02  0.1130116E+00
         25   -1    0    0    0    0  0.00000000000E+00  0.00000000000E+00  0.99999998245E-14  0.12500000000E+03  0.12500000000E+03 0.  0.
        -11    1    3    3    0    0 -0.88161887219E+00 -0.34626949004E+02 -0.47576574939E+01  0.34963383049E+02  0.51100000000E-03 0.  1.
         23    2    1    0    0    0 -0.17778251673E+02  0.17395812021E+02  0.18092753660E+02  0.94242427869E+02  0.89082023817E+02 0.  0.
         11    1    3    3    0    0 -0.16896632801E+02  0.52022761025E+02  0.22850411153E+02  0.59279044820E+02  0.51100000000E-03 0. -1.
         22    1    1    0    0    0  0.17778251673E+02 -0.17395812021E+02 -0.18092753660E+02  0.30757572131E+02  0.00000000000E+00 0. -1.
</event>
<event>
 5    1  0.3190780E-003  0.9118800E+02  0.7818608E-02  0.1130116E+00
         25   -1    0    0    0    0  0.00000000000E+00  0.00000000000E+00  0.99999998245E-14  0.12500000000E+03  0.12500000000E+03 0.  0.
        -11    1    3    3    0    0  0.46143222176E+02  0.10397072417E+01  0.33523689381E+02  0.57044856858E+02  0.51100000000E-03 0. -1.
         23    2    1    0    0    0  0.13917494818E+02  0.14481156710E+02  0.24897333337E+02  0.93011286851E+02  0.87337401568E+02 0.  0.
         11    1    3    3    0    0 -0.32225727358E+02  0.13441449468E+02 -0.86263560438E+01  0.35966429993E+02  0.51100000000E-03 0.  1.
         22    1    1    0    0    0 -0.13917494818E+02 -0.14481156710E+02 -0.24897333337E+02  0.31988713149E+02  0.00000000000E+00 0. -1.
</event>
<event>
 5    1  0.3190780E-003  0.9118800E+02  0.7818608E-02  0.1130116E+00
         25   -1    0    0    0    0  0.00000000000E+00  0.00000000000E+00  0.99999998245E-14  0.12500000000E+03  0.12500000000E+03 0.  0.
        -11    1    3    3    0    0 -0.19994141067E+02  0.40417557389E+02 -0.33920981984E+02  0.56426745797E+02  0.51100000000E-03 0.  1.
         23    2    1    0    0    0 -0.16553321625E+02  0.72191257508E+01 -0.29934153747E+02  0.90040283268E+02  0.82976326847E+02 0.  0.
         11    1    3    3    0    0  0.34408194416E+01 -0.33198431638E+02  0.39868282369E+01  0.33613537471E+02  0.51100000000E-03 0. -1.
         22    1    1    0    0    0  0.16553321625E+02 -0.72191257508E+01  0.29934153747E+02  0.34959716732E+02  0.00000000000E+00 0.  1.
</event>
<event>
 5    1  0.3190780E-003  0.9118800E+02  0.7818608E-02  0.1130116E+00
         25   -1    0    0    0    0  0.00000000000E+00  0.00000000000E+00  0.99999998245E-14  0.12500000000E+03  0.12500000000E+03 0.  0.
        -11    1    3    3    0    0  0.22100009437E+02  0.31136267264E+02  0.99982421790E+01  0.39469512325E+02  0.51100000000E-03 0.  1.
         23    2    1    0    0    0 -0.15519423693E+02  0.11475191177E+01 -0.22583614291E+02  0.97573936732E+02  0.93640184660E+02 0.  0.
         11    1    3    3    0    0 -0.37619433131E+02 -0.29988748146E+02 -0.32581856470E+02  0.58104424408E+02  0.51100000000E-03 0. -1.
         22    1    1    0    0    0  0.15519423693E+02 -0.11475191177E+01  0.22583614291E+02  0.27426063268E+02  0.00000000000E+00 0. -1.
</event>
<event>
 5    1  0.3190780E-003  0.9118800E+02  0.7818608E-02  0.1130116E+00
         25   -1    0    0    0    0  0.00000000000E+00  0.00000000000E+00  0.99999998245E-14  0.12500000000E+03  0.12500000000E+03 0.  0.
        -11    1    3    3    0    0 -0.94200119560E+01  0.26367693672E+02  0.29188951034E+02  0.40447333133E+02  0.51100000000E-03 0.  1.
         23    2    1    0    0    0 -0.20894255070E+01 -0.26124167966E+02  0.12086848483E+02  0.96139477532E+02  0.91705339992E+02 0.  0.
         11    1    3    3    0    0  0.73305864490E+01 -0.52491861638E+02 -0.17102102551E+02  0.55692144400E+02  0.51100000000E-03 0. -1.
         22    1    1    0    0    0  0.20894255070E+01  0.26124167966E+02 -0.12086848483E+02  0.28860522468E+02  0.00000000000E+00 0. -1.
</event>
<event>
 5    1  0.3190780E-003  0.9118800E+02  0.7818608E-02  0.1130116E+00
         25   -1    0    0    0    0  0.00000000000E+00  0.00000000000E+00  0.99999998245E-14  0.12500000000E+03  0.12500000000E+03 0.  0.
        -11    1    3    3    0    0  0.39631647958E+02  0.25471485249E+02  0.29717576781E+02  0.55700973516E+02  0.51100000000E-03 0. -1.
         23    2    1    0    0    0  0.30873476275E+02 -0.26098284079E+01  0.61063373728E+01  0.93420416442E+02  0.87921010631E+02 0.  0.
         11    1    3    3    0    0 -0.87581716831E+01 -0.28081313657E+02 -0.23611239408E+02  0.37719442925E+02  0.51100000000E-03 0.  1.
         22    1    1    0    0    0 -0.30873476275E+02  0.26098284079E+01 -0.61063373728E+01  0.31579583558E+02  0.00000000000E+00 0. -1.
</event>
<event>
 5    1  0.3190780E-003  0.9118800E+02  0.7818608E-02  0.1130116E+00
         25   -1    0    0    0    0  0.00000000000E+00  0.00000000000E+00  0.99999998245E-14  0.12500000000E+03  0.12500000000E+03 0.  0.
        -11    1    3    3    0    0 -0.47018440029E+02  0.10344121400E+02 -0.39090912852E+02  0.62014788705E+02  0.51100000000E-03 0. -1.
         23    2    1    0    0    0 -0.27257655517E+02  0.78994509037E+01 -0.16322380071E+02  0.92261624963E+02  0.86257789450E+02 0.  0.
         11    1    3    3    0    0  0.19760784512E+02 -0.24446704963E+01  0.22768532781E+02  0.30246836258E+02  0.51100000000E-03 0.  1.
         22    1    1    0    0    0  0.27257655517E+02 -0.78994509037E+01  0.16322380071E+02  0.32738375037E+02  0.00000000000E+00 0. -1.
</event>
<event>
 5    1  0.3190780E-003  0.9118800E+02  0.7818608E-02  0.1130116E+00
         25   -1    0    0    0    0  0.00000000000E+00  0.00000000000E+00  0.99999998245E-14  0.12500000000E+03  0.12500000000E+03 0.  0.
        -11    1    3    3    0    0 -0.38693134799E+02 -0.38890981309E+01 -0.18430118624E+01  0.38931741007E+02  0.51100000000E-03 0.  1.
         23    2    1    0    0    0  0.13183006295E+02 -0.89909478331E+01 -0.24493888640E+02  0.95766810324E+02  0.91195957043E+02 0.  0.
         11    1    3    3    0    0  0.51876141094E+02 -0.51018497022E+01 -0.22650876778E+02  0.56835069317E+02  0.51100000000E-03 0. -1.
         22    1    1    0    0    0 -0.13183006295E+02  0.89909478331E+01  0.24493888640E+02  0.29233189676E+02  0.00000000000E+00 0. -1.
</event>
<event>
 5    1  0.3190780E-003  0.9118800E+02  0.7818608E-02  0.1130116E+00
         25   -1    0    0    0    0  0.00000000000E+00  0.00000000000E+00  0.99999998245E-14  0.12500000000E+03  0.12500000000E+03 0.  0.
        -11    1    3    3    0    0 -0.38299403840E+02 -0.11425061537E+02  0.23063604968E+02  0.46144406378E+02  0.51100000000E-03 0. -1.
         23    2    1    0    0    0 -0.59783799763E+01  0.24773817190E+02  0.15258205610E+02  0.95296534146E+02  0.90549067011E+02 0.  0.
         11    1    3    3    0    0  0.32321023864E+02  0.36198878727E+02 -0.78053993579E+01  0.49152127768E+02  0.51100000000E-03 0.  1.
         22    1    1    0    0    0  0.59783799763E+01 -0.24773817190E+02 -0.15258205610E+02  0.29703465854E+02  0.00000000000E+00 0. -1.
</event>
<event>
 5    1  0.3190780E-003  0.9118800E+02  0.7818608E-02  0.1130116E+00
         25   -1    0    0    0    0  0.00000000000E+00  0.00000000000E+00  0.99999998245E-14  0.12500000000E+03  0.12500000000E+03 0.  0.
        -11    1    3    3    0    0  0.22764135979E+02 -0.25433178468E+02  0.13367197496E+02  0.36656983278E+02  0.51100000000E-03 0.  1.
         23    2    1    0    0    0 -0.24628329967E+02  0.98881561960E+01  0.12238545223E+02  0.95774800957E+02  0.91206908945E+02 0.  0.
         11    1    3    3    0    0 -0.47392465946E+02  0.35321334664E+02 -0.11286522736E+01  0.59117817679E+02  0.51100000000E-03 0. -1.
         22    1    1    0    0    0  0.24628329967E+02 -0.98881561960E+01 -0.12238545223E+02  0.29225199043E+02  0.00000000000E+00 0. -1.
</event>
<event>
 5    1  0.3190780E-003  0.9118800E+02  0.7818608E-02  0.1130116E+00
         25   -1    0    0    0    0  0.00000000000E+00  0.00000000000E+00  0.99999998245E-14  0.12500000000E+03  0.12500000000E+03 0.  0.
        -11    1    3    3    0    0  0.17734731249E+02  0.57482788063E+02  0.16312069107E+02  0.62328767152E+02  0.51100000000E-03 0.  1.
         23    2    1    0    0    0  0.54286422752E+01  0.27281839330E+02  0.91415369940E+01  0.95719688991E+02  0.91131346131E+02 0.  0.
         11    1    3    3    0    0 -0.12306088974E+02 -0.30200948733E+02 -0.71705321125E+01  0.33390921838E+02  0.51100000000E-03 0. -1.
         22    1    1    0    0    0 -0.54286422752E+01 -0.27281839330E+02 -0.91415369940E+01  0.29280311009E+02  0.00000000000E+00 0.  1.
</event>
<event>
 5    1  0.3190780E-003  0.9118800E+02  0.7818608E-02  0.1130116E+00
         25   -1    0    0    0    0  0.00000000000E+00  0.00000000000E+00  0.99999998245E-14  0.12500000000E+03  0.12500000000E+03 0.  0.
        -11    1    3    3    0    0  0.32694682219E+02 -0.22756252721E+02  0.30269768912E+02  0.50030472650E+02  0.51100000000E-03 0. -1.
         23    2    1    0    0    0 -0.55384098922E+01 -0.26087919875E+02  0.97255248110E+00  0.98312935608E+02  0.94621529801E+02 0.  0.
         11    1    3    3    0    0 -0.38233092111E+02 -0.33316671545E+01 -0.29297216431E+02  0.48282462958E+02  0.51100000000E-03 0.  1.
         22    1    1    0    0    0  0.55384098922E+01  0.26087919875E+02 -0.97255248110E+00  0.26687064392E+02  0.00000000000E+00 0. -1.
</event>
<event>
 5    1  0.3190780E-003  0.9118800E+02  0.7818608E-02  0.1130116E+00
         25   -1    0    0    0    0  0.00000000000E+00  0.00000000000E+00  0.99999998245E-14  0.12500000000E+03  0.12500000000E+03 0.  0.
        -11    1    3    3    0    0  0.15199531047E+02 -0.30315765519E+02  0.21607530126E+02  0.40211400640E+02  0.51100000000E-03 0.  1.
         23    2    1    0    0    0  0.19647047176E+02  0.10643420890E+01 -0.22873170479E+02  0.94828470132E+02  0.89900598068E+02 0.  0.
         11    1    3    3    0    0  0.44475161294E+01  0.31380107608E+02 -0.44480700605E+02  0.54617069491E+02  0.51100000000E-03 0. -1.
         22    1    1    0    0    0 -0.19647047176E+02 -0.10643420890E+01  0.22873170479E+02  0.30171529868E+02  0.00000000000E+00 0. -1.
</event>
<event>
 5    1  0.3190780E-003  0.9118800E+02  0.7818608E-02  0.1130116E+00
         25   -1    0    0    0    0  0.00000000000E+00  0.00000000000E+00  0.99999998245E-14  0.12500000000E+03  0.12500000000E+03 0.  0.
        -11    1    3    3    0    0 -0.46656462596E+02  0.35469822490E+02 -0.42160623981E+01  0.58759756568E+02  0.51100000000E-03 0.  1.
         23    2    1    0    0    0 -0.31102396370E+02  0.17039534709E+02 -0.16569378866E+02  0.85856046200E+02  0.76413425195E+02 0.  0.
         11    1    3    3    0    0  0.15554066226E+02 -0.18430287781E+02 -0.12353316468E+02  0.27096289633E+02  0.51100000000E-03 0. -1.
         22    1    1    0    0    0  0.31102396370E+02 -0.17039534709E+02  0.16569378866E+02  0.39143953800E+02  0.00000000000E+00 0.  1.
</event>
<event>
 5    1  0.3190780E-003  0.9118800E+02  0.7818608E-02  0.1130116E+00
         25   -1    0    0    0    0  0.00000000000E+00  0.00000000000E+00  0.99999998245E-14  0.12500000000E+03  0.12500000000E+03 0.  0.
        -11    1    3    3    0    0 -0.16420204609E+02  0.57229699732E+02 -0.18841058115E+02  0.62448755968E+02  0.51100000000E-03 0.  1.
         23    2    1    0    0    0 -0.66635903146E+01  0.29474214157E+02 -0.90418271810E+01  0.93458164688E+02  0.87974662102E+02 0.  0.
         11    1    3    3    0    0  0.97566142941E+01 -0.27755485575E+02  0.97992309342E+01  0.31009408720E+02  0.51100000000E-03 0. -1.
         22    1    1    0    0    0  0.66635903146E+01 -0.29474214157E+02  0.90418271810E+01  0.31541835312E+02  0.00000000000E+00 0.  1.
</event>
<event>
 5    1  0.3190780E-003  0.9118800E+02  0.7818608E-02  0.1130116E+00
         25   -1    0    0    0    0  0.00000000000E+00  0.00000000000E+00  0.99999998245E-14  0.12500000000E+03  0.12500000000E+03 0.  0.
        -11    1    3    3    0    0 -0.24868088801E+02  0.33579809178E+02  0.43650629040E+02  0.60426838746E+02  0.51100000000E-03 0. -1.
         23    2    1    0    0    0 -0.15222830132E+02  0.68653432754E+01  0.26715030236E+02  0.93495074416E+02  0.88027090171E+02 0.  0.
         11    1    3    3    0    0  0.96452586684E+01 -0.26714465902E+02 -0.16935598803E+02  0.33068235670E+02  0.51100000000E-03 0.  1.
         22    1    1    0    0    0  0.15222830132E+02 -0.68653432754E+01 -0.26715030236E+02  0.31504925584E+02  0.00000000000E+00 0. -1.
</event>
<event>
 5    1  0.3190780E-003  0.9118800E+02  0.7818608E-02  0.1130116E+00
         25   -1    0    0    0    0  0.00000000000E+00  0.00000000000E+00  0.99999998245E-14  0.12500000000E+03  0.12500000000E+03 0.  0.
        -11    1    3    3    0    0  0.24176700028E+02 -0.53601780913E+02 -0.74757565288E+01  0.59275211322E+02  0.51100000000E-03 0.  1.
         23    2    1    0    0    0  0.68422078172E+01 -0.21699251417E+02 -0.16747813317E+02  0.96748228892E+02  0.92531385069E+02 0.  0.
         11    1    3    3    0    0 -0.17334492211E+02  0.31902529496E+02 -0.92720567881E+01  0.37473017570E+02  0.51100000000E-03 0. -1.
         22    1    1    0    0    0 -0.68422078172E+01  0.21699251417E+02  0.16747813317E+02  0.28251771108E+02  0.00000000000E+00 0.  1.
</event>
<event>
 5    1  0.3190780E-003  0.9118800E+02  0.7818608E-02  0.1130116E+00
         25   -1    0    0    0    0  0.00000000000E+00  0.00000000000E+00  0.99999998245E-14  0.12500000000E+03  0.12500000000E+03 0.  0.
        -11    1    3    3    0    0  0.17842474236E+02  0.47085528397E+02 -0.21355194005E+02  0.54694105556E+02  0.51100000000E-03 0.  1.
         23    2    1    0    0    0  0.23795995473E+02  0.15936615491E+02  0.49981507133E+01  0.95927562462E+02  0.91416030408E+02 0.  0.
         11    1    3    3    0    0  0.59535212365E+01 -0.31148912906E+02  0.26353344719E+02  0.41233456906E+02  0.51100000000E-03 0. -1.
         22    1    1    0    0    0 -0.23795995473E+02 -0.15936615491E+02 -0.49981507133E+01  0.29072437538E+02  0.00000000000E+00 0.  1.
</event>
<event>
 5    1  0.3190780E-003  0.9118800E+02  0.7818608E-02  0.1130116E+00
         25   -1    0    0    0    0  0.00000000000E+00  0.00000000000E+00  0.99999998245E-14  0.12500000000E+03  0.12500000000E+03 0.  0.
        -11    1    3    3    0    0 -0.65683693686E+01 -0.30756956738E+02  0.11577572549E+02  0.33513788958E+02  0.51100000000E-03 0.  1.
         23    2    1    0    0    0  0.51213916048E+00  0.29675064224E+02  0.68344304142E+01  0.94543782863E+02  0.89503886596E+02 0.  0.
         11    1    3    3    0    0  0.70805085291E+01  0.60432020961E+02 -0.47431421351E+01  0.61029993905E+02  0.51100000000E-03 0. -1.
         22    1    1    0    0    0 -0.51213916048E+00 -0.29675064224E+02 -0.68344304142E+01  0.30456217137E+02  0.00000000000E+00 0. -1.
</event>
<event>
 5    1  0.3190780E-003  0.9118800E+02  0.7818608E-02  0.1130116E+00
         25   -1    0    0    0    0  0.00000000000E+00  0.00000000000E+00  0.99999998245E-14  0.12500000000E+03  0.12500000000E+03 0.  0.
        -11    1    3    3    0    0  0.11211293801E+02  0.28763567001E+01 -0.59822387945E+02  0.60931803159E+02  0.51100000000E-03 0.  1.
         23    2    1    0    0    0 -0.44202127280E+01  0.35497690169E+01 -0.28466511452E+02  0.95974469602E+02  0.91480147576E+02 0.  0.
         11    1    3    3    0    0 -0.15631506529E+02  0.67341231681E+00  0.31355876493E+02  0.35042666443E+02  0.51100000000E-03 0. -1.
         22    1    1    0    0    0  0.44202127280E+01 -0.35497690169E+01  0.28466511452E+02  0.29025530398E+02  0.00000000000E+00 0.  1.
</event>
<event>
 5    1  0.3190780E-003  0.9118800E+02  0.7818608E-02  0.1130116E+00
         25   -1    0    0    0    0  0.00000000000E+00  0.00000000000E+00  0.99999998245E-14  0.12500000000E+03  0.12500000000E+03 0.  0.
        -11    1    3    3    0    0 -0.56963231216E+01  0.41530252093E+02 -0.70281239468E+01  0.42504169942E+02  0.51100000000E-03 0. -1.
         23    2    1    0    0    0 -0.33344332571E+02  0.81109107390E+01 -0.16535196734E+02  0.86907426988E+02  0.78114382460E+02 0.  0.
         11    1    3    3    0    0 -0.27648009449E+02 -0.33419341354E+02 -0.95070727874E+01  0.44403257046E+02  0.51100000000E-03 0.  1.
         22    1    1    0    0    0  0.33344332571E+02 -0.81109107390E+01  0.16535196734E+02  0.38092573012E+02  0.00000000000E+00 0. -1.
</event>
<event>
 5    1  0.3190780E-003  0.9118800E+02  0.7818608E-02  0.1130116E+00
         25   -1    0    0    0    0  0.00000000000E+00  0.00000000000E+00  0.99999998245E-14  0.12500000000E+03  0.12500000000E+03 0.  0.
        -11    1    3    3    0    0  0.25432692799E+02 -0.19723136902E+02 -0.99806651251E+01  0.33696256007E+02  0.51100000000E-03 0. -1.
         23    2    1    0    0    0 -0.14830397475E+02  0.46151425370E+01  0.27210728118E+02  0.93668483046E+02  0.88272989989E+02 0.  0.
         11    1    3    3    0    0 -0.40263090274E+02  0.24338279439E+02  0.37191393243E+02  0.59972227040E+02  0.51100000000E-03 0.  1.
         22    1    1    0    0    0  0.14830397475E+02 -0.46151425370E+01 -0.27210728118E+02  0.31331516954E+02  0.00000000000E+00 0.  1.
</event>
<event>
 5    1  0.3190780E-003  0.9118800E+02  0.7818608E-02  0.1130116E+00
         25   -1    0    0    0    0  0.00000000000E+00  0.00000000000E+00  0.99999998245E-14  0.12500000000E+03  0.12500000000E+03 0.  0.
        -11    1    3    3    0    0 -0.41818747110E+02  0.40301443695E+02 -0.59690058236E+01  0.58383585061E+02  0.51100000000E-03 0. -1.
         23    2    1    0    0    0 -0.16326783228E+02  0.20481822362E+02  0.12921139476E+02  0.95793412674E+02  0.91232412927E+02 0.  0.
         11    1    3    3    0    0  0.25491963882E+02 -0.19819621333E+02  0.18890145300E+02  0.37409827613E+02  0.51100000000E-03 0.  1.
         22    1    1    0    0    0  0.16326783228E+02 -0.20481822362E+02 -0.12921139476E+02  0.29206587326E+02  0.00000000000E+00 0. -1.
</event>
<event>
 5    1  0.3190780E-003  0.9118800E+02  0.7818608E-02  0.1130116E+00
         25   -1    0    0    0    0  0.00000000000E+00  0.00000000000E+00  0.99999998245E-14  0.12500000000E+03  0.12500000000E+03 0.  0.
        -11    1    3    3    0    0  0.28710406414E+00  0.50598406358E+00 -0.45702025260E+02  0.45705727888E+02  0.51100000000E-03 0. -1.
         23    2    1    0    0    0  0.73139694380E+00 -0.29884579896E+02 -0.81522973535E+01  0.94014793704E+02  0.88762032571E+02 0.  0.
         11    1    3    3    0    0  0.44429287966E+00 -0.30390563960E+02  0.37549727907E+02  0.48309065816E+02  0.51100000000E-03 0.  1.
         22    1    1    0    0    0 -0.73139694380E+00  0.29884579896E+02  0.81522973535E+01  0.30985206296E+02  0.00000000000E+00 0. -1.
</event>
<event>
 5    1  0.3190780E-003  0.9118800E+02  0.7818608E-02  0.1130116E+00
         25   -1    0    0    0    0  0.00000000000E+00  0.00000000000E+00  0.99999998245E-14  0.12500000000E+03  0.12500000000E+03 0.  0.
        -11    1    3    3    0    0 -0.32197196920E+01  0.26970719538E+02 -0.25971108635E+02  0.37580377743E+02  0.51100000000E-03 0. -1.
         23    2    1    0    0    0  0.75036456563E+01 -0.23864339152E+02 -0.25130322577E+02  0.89540946232E+02  0.82220657733E+02 0.  0.
         11    1    3    3    0    0  0.10723365348E+02 -0.50835058689E+02  0.84078605840E+00  0.51960568490E+02  0.51100000000E-03 0.  1.
         22    1    1    0    0    0 -0.75036456563E+01  0.23864339152E+02  0.25130322577E+02  0.35459053768E+02  0.00000000000E+00 0.  1.
</event>
<event>
 5    1  0.3190780E-003  0.9118800E+02  0.7818608E-02  0.1130116E+00
         25   -1    0    0    0    0  0.00000000000E+00  0.00000000000E+00  0.99999998245E-14  0.12500000000E+03  0.12500000000E+03 0.  0.
        -11    1    3    3    0    0  0.20322094352E+02 -0.26505364693E+02  0.24871713007E+01  0.33491907944E+02  0.51100000000E-03 0.  1.
         23    2    1    0    0    0 -0.10051941418E+02  0.27614996552E+02 -0.20922684090E+00  0.95611680267E+02  0.90983075716E+02 0.  0.
         11    1    3    3    0    0 -0.30374035770E+02  0.54120361246E+02 -0.26963981416E+01  0.62119772323E+02  0.51100000000E-03 0. -1.
         22    1    1    0    0    0  0.10051941418E+02 -0.27614996552E+02  0.20922684090E+00  0.29388319733E+02  0.00000000000E+00 0. -1.
</event>
<event>
 5    1  0.3190780E-003  0.9118800E+02  0.7818608E-02  0.1130116E+00
         25   -1    0    0    0    0  0.00000000000E+00  0.00000000000E+00  0.99999998245E-14  0.12500000000E+03  0.12500000000E+03 0.  0.
        -11    1    3    3    0    0  0.49670013851E+02 -0.33322992395E+02 -0.11023822855E+02  0.60819871496E+02  0.51100000000E-03 0.  1.
         23    2    1    0    0    0  0.27544653539E+02 -0.11989787391E+02 -0.14300293531E+02  0.91728971532E+02  0.85482412711E+02 0.  0.
         11    1    3    3    0    0 -0.22125360312E+02  0.21333205004E+02 -0.32764706751E+01  0.30909100036E+02  0.51100000000E-03 0. -1.
         22    1    1    0    0    0 -0.27544653539E+02  0.11989787391E+02  0.14300293531E+02  0.33271028468E+02  0.00000000000E+00 0.  1.
</event>
<event>
 5    1  0.3190780E-003  0.9118800E+02  0.7818608E-02  0.1130116E+00
         25   -1    0    0    0    0  0.00000000000E+00  0.00000000000E+00  0.99999998245E-14  0.12500000000E+03  0.12500000000E+03 0.  0.
        -11    1    3    3    0    0  0.43875163120E+02 -0.34998523791E+02  0.12544059261E+01  0.56138223527E+02  0.51100000000E-03 0. -1.
         23    2    1    0    0    0  0.10800988362E+02 -0.18910692803E+02 -0.17163730028E+02  0.97271507788E+02  0.93235599140E+02 0.  0.
         11    1    3    3    0    0 -0.33074174757E+02  0.16087830988E+02 -0.18418135954E+02  0.41133284261E+02  0.51100000000E-03 0.  1.
         22    1    1    0    0    0 -0.10800988362E+02  0.18910692803E+02  0.17163730028E+02  0.27728492212E+02  0.00000000000E+00 0. -1.
</event>
<event>
 5    1  0.3190780E-003  0.9118800E+02  0.7818608E-02  0.1130116E+00
         25   -1    0    0    0    0  0.00000000000E+00  0.00000000000E+00  0.99999998245E-14  0.12500000000E+03  0.12500000000E+03 0.  0.
        -11    1    3    3    0    0 -0.19176403409E+02 -0.67449978395E+01 -0.29841462513E+02  0.36107372222E+02  0.51100000000E-03 0. -1.
         23    2    1    0    0    0  0.28890524072E+02 -0.18145488954E+01  0.49281336217E+01  0.95636051528E+02  0.91016552792E+02 0.  0.
         11    1    3    3    0    0  0.48066927481E+02  0.49304489441E+01  0.34769596135E+02  0.59528679306E+02  0.51100000000E-03 0.  1.
         22    1    1    0    0    0 -0.28890524072E+02  0.18145488954E+01 -0.49281336217E+01  0.29363948472E+02  0.00000000000E+00 0.  1.
</event>
<event>
 5    1  0.3190780E-003  0.9118800E+02  0.7818608E-02  0.1130116E+00
         25   -1    0    0    0    0  0.00000000000E+00  0.00000000000E+00  0.99999998245E-14  0.12500000000E+03  0.12500000000E+03 0.  0.
        -11    1    3    3    0    0 -0.32436926418E+02 -0.44119825096E+02  0.27553077974E+02  0.61301592704E+02  0.51100000000E-03 0.  1.
         23    2    1    0    0    0 -0.84621696869E+01 -0.25383823453E+02  0.99589773715E+01  0.96449552732E+02  0.92127022003E+02 0.  0.
         11    1    3    3    0    0  0.23974756731E+02  0.18736001643E+02 -0.17594100602E+02  0.35147960028E+02  0.51100000000E-03 0. -1.
         22    1    1    0    0    0  0.84621696869E+01  0.25383823453E+02 -0.99589773715E+01  0.28550447268E+02  0.00000000000E+00 0.  1.
</event>
<event>
 5    1  0.3190780E-003  0.9118800E+02  0.7818608E-02  0.1130116E+00
         25   -1    0    0    0    0  0.00000000000E+00  0.00000000000E+00  0.99999998245E-14  0.12500000000E+03  0.12500000000E+03 0.  0.
        -11    1    3    3    0    0  0.26540071460E+02 -0.35924767990E+01  0.24599489067E+02  0.36365040152E+02  0.51100000000E-03 0.  1.
         23    2    1    0    0    0  0.62681332042E+01  0.86606213407E+01 -0.28528342958E+02  0.94534245326E+02  0.89490565601E+02 0.  0.
         11    1    3    3    0    0 -0.20271938255E+02  0.12253098140E+02 -0.53127832026E+02  0.58169205175E+02  0.51100000000E-03 0. -1.
         22    1    1    0    0    0 -0.62681332042E+01 -0.86606213407E+01  0.28528342958E+02  0.30465754674E+02  0.00000000000E+00 0. -1.
</event>
<event>
 5    1  0.3190780E-003  0.9118800E+02  0.7818608E-02  0.1130116E+00
         25   -1    0    0    0    0  0.00000000000E+00  0.00000000000E+00  0.99999998245E-14  0.12500000000E+03  0.12500000000E+03 0.  0.
        -11    1    3    3    0    0 -0.29552145851E+02  0.65967972729E+01 -0.29536189679E+02  0.42299332852E+02  0.51100000000E-03 0. -1.
         23    2    1    0    0    0 -0.23106596779E+02  0.57158980961E+01  0.21003010328E+02  0.93255508374E+02  0.87686242327E+02 0.  0.
         11    1    3    3    0    0  0.64455490725E+01 -0.88089917682E+00  0.50539200008E+02  0.50956175522E+02  0.51100000000E-03 0.  1.
         22    1    1    0    0    0  0.23106596779E+02 -0.57158980961E+01 -0.21003010328E+02  0.31744491626E+02  0.00000000000E+00 0.  1.
</event>
<event>
 5    1  0.3190780E-003  0.9118800E+02  0.7818608E-02  0.1130116E+00
         25   -1    0    0    0    0  0.00000000000E+00  0.00000000000E+00  0.99999998245E-14  0.12500000000E+03  0.12500000000E+03 0.  0.
        -11    1    3    3    0    0  0.14058068752E+02  0.37671016209E+02  0.37860028082E+02  0.55227859690E+02  0.51100000000E-03 0.  1.
         23    2    1    0    0    0 -0.14851903963E+02  0.16178168092E+02  0.19354277366E+02  0.95727141812E+02  0.91141568195E+02 0.  0.
         11    1    3    3    0    0 -0.28909972715E+02 -0.21492848117E+02 -0.18505750716E+02  0.40499282122E+02  0.51100000000E-03 0. -1.
         22    1    1    0    0    0  0.14851903963E+02 -0.16178168092E+02 -0.19354277366E+02  0.29272858188E+02  0.00000000000E+00 0. -1.
</event>
<event>
 5    1  0.3190780E-003  0.9118800E+02  0.7818608E-02  0.1130116E+00
         25   -1    0    0    0    0  0.00000000000E+00  0.00000000000E+00  0.99999998245E-14  0.12500000000E+03  0.12500000000E+03 0.  0.
        -11    1    3    3    0    0 -0.39446426922E+02 -0.33216128250E+00 -0.39014522146E+02  0.55482104021E+02  0.51100000000E-03 0.  1.
         23    2    1    0    0    0 -0.29849345432E+02 -0.15687226095E+02 -0.97455662888E+01  0.89899450894E+02  0.82763897464E+02 0.  0.
         11    1    3    3    0    0  0.95970814896E+01 -0.15355064812E+02  0.29268955858E+02  0.34417346873E+02  0.51100000000E-03 0. -1.
         22    1    1    0    0    0  0.29849345432E+02  0.15687226095E+02  0.97455662888E+01  0.35100549106E+02  0.00000000000E+00 0. -1.
</event>
<event>
 5    1  0.3190780E-003  0.9118800E+02  0.7818608E-02  0.1130116E+00
         25   -1    0    0    0    0  0.00000000000E+00  0.00000000000E+00  0.99999998245E-14  0.12500000000E+03  0.12500000000E+03 0.  0.
        -11    1    3    3    0    0  0.42831926786E+02 -0.28667860729E+02 -0.25294645519E+02  0.57412884296E+02  0.51100000000E-03 0. -1.
         23    2    1    0    0    0  0.25434130669E+02  0.36934911465E+01 -0.13292779348E+02  0.96064988984E+02  0.91603751265E+02 0.  0.
         11    1    3    3    0    0 -0.17397796117E+02  0.32361351876E+02  0.12001866170E+02  0.38652104688E+02  0.51100000000E-03 0.  1.
         22    1    1    0    0    0 -0.25434130669E+02 -0.36934911465E+01  0.13292779348E+02  0.28935011016E+02  0.00000000000E+00 0. -1.
</event>
<event>
 5    1  0.3190780E-003  0.9118800E+02  0.7818608E-02  0.1130116E+00
         25   -1    0    0    0    0  0.00000000000E+00  0.00000000000E+00  0.99999998245E-14  0.12500000000E+03  0.12500000000E+03 0.  0.
        -11    1    3    3    0    0  0.19811861692E+02  0.53612145610E+00  0.14980099603E+02  0.24843523789E+02  0.51100000000E-03 0.  1.
         23    2    1    0    0    0 -0.12203750909E+01  0.23817255382E+02 -0.34276215463E+02  0.83243444637E+02  0.72012923558E+02 0.  0.
         11    1    3    3    0    0 -0.21032236782E+02  0.23281133926E+02 -0.49256315066E+02  0.58399920848E+02  0.51100000000E-03 0. -1.
         22    1    1    0    0    0  0.12203750909E+01 -0.23817255382E+02  0.34276215463E+02  0.41756555363E+02  0.00000000000E+00 0. -1.
</event>
<event>
 5    1  0.3190780E-003  0.9118800E+02  0.7818608E-02  0.1130116E+00
         25   -1    0    0    0    0  0.00000000000E+00  0.00000000000E+00  0.99999998245E-14  0.12500000000E+03  0.12500000000E+03 0.  0.
        -11    1    3    3    0    0  0.23258677026E+02 -0.28894691752E+02 -0.37618947462E+02  0.52830431352E+02  0.51100000000E-03 0.  1.
         23    2    1    0    0    0  0.75358275289E+01 -0.28802108409E+02  0.17033395504E+01  0.95179679563E+02  0.90387609166E+02 0.  0.
         11    1    3    3    0    0 -0.15722849497E+02  0.92583343614E-01  0.39322287012E+02  0.42349248212E+02  0.51100000000E-03 0. -1.
         22    1    1    0    0    0 -0.75358275289E+01  0.28802108409E+02 -0.17033395504E+01  0.29820320437E+02  0.00000000000E+00 0. -1.
</event>
<event>
 5    1  0.3190780E-003  0.9118800E+02  0.7818608E-02  0.1130116E+00
         25   -1    0    0    0    0  0.00000000000E+00  0.00000000000E+00  0.99999998245E-14  0.12500000000E+03  0.12500000000E+03 0.  0.
        -11    1    3    3    0    0  0.19542481996E+02  0.28872300904E+02  0.70496353948E+01  0.35569870980E+02  0.51100000000E-03 0.  1.
         23    2    1    0    0    0 -0.31528382603E+01 -0.26996665531E+02  0.10234976290E+02  0.95956668949E+02  0.91455821232E+02 0.  0.
         11    1    3    3    0    0 -0.22695320257E+02 -0.55868966435E+02  0.31853408955E+01  0.60386797969E+02  0.51100000000E-03 0. -1.
         22    1    1    0    0    0  0.31528382603E+01  0.26996665531E+02 -0.10234976290E+02  0.29043331051E+02  0.00000000000E+00 0. -1.
</event>
<event>
 5    1  0.3190780E-003  0.9118800E+02  0.7818608E-02  0.1130116E+00
         25   -1    0    0    0    0  0.00000000000E+00  0.00000000000E+00  0.99999998245E-14  0.12500000000E+03  0.12500000000E+03 0.  0.
        -11    1    3    3    0    0  0.68209738471E+01  0.42600452223E+02 -0.94458467743E+00  0.43153406056E+02  0.51100000000E-03 0. -1.
         23    2    1    0    0    0 -0.26341548483E+02  0.20655931835E+01 -0.10819386042E+02  0.96448240580E+02  0.92125241627E+02 0.  0.
         11    1    3    3    0    0 -0.33162522330E+02 -0.40534859039E+02 -0.98748013646E+01  0.53294834523E+02  0.51100000000E-03 0.  1.
         22    1    1    0    0    0  0.26341548483E+02 -0.20655931835E+01  0.10819386042E+02  0.28551759420E+02  0.00000000000E+00 0.  1.
</event>
<event>
 5    1  0.3190780E-003  0.9118800E+02  0.7818608E-02  0.1130116E+00
         25   -1    0    0    0    0  0.00000000000E+00  0.00000000000E+00  0.99999998245E-14  0.12500000000E+03  0.12500000000E+03 0.  0.
        -11    1    3    3    0    0 -0.30868576862E+02  0.18139129625E+02  0.18760439846E+02  0.40420924835E+02  0.51100000000E-03 0. -1.
         23    2    1    0    0    0  0.19164438695E+02  0.20642511844E+02  0.19871373070E+02  0.90528845777E+02  0.83709088183E+02 0.  0.
         11    1    3    3    0    0  0.50033015557E+02  0.25033822187E+01  0.11109332241E+01  0.50107920942E+02  0.51100000000E-03 0.  1.
         22    1    1    0    0    0 -0.19164438695E+02 -0.20642511844E+02 -0.19871373070E+02  0.34471154223E+02  0.00000000000E+00 0. -1.
</event>
<event>
 5    1  0.3190780E-003  0.9118800E+02  0.7818608E-02  0.1130116E+00
         25   -1    0    0    0    0  0.00000000000E+00  0.00000000000E+00  0.99999998245E-14  0.12500000000E+03  0.12500000000E+03 0.  0.
        -11    1    3    3    0    0  0.41543134620E+02  0.14630831049E+02  0.31242726897E+02  0.54000011440E+02  0.51100000000E-03 0. -1.
         23    2    1    0    0    0  0.16300176296E+00  0.17471598532E+02  0.22710516625E+02  0.96346014410E+02  0.91986431621E+02 0.  0.
         11    1    3    3    0    0 -0.41380132857E+02  0.28407674826E+01 -0.85322102718E+01  0.42346002970E+02  0.51100000000E-03 0.  1.
         22    1    1    0    0    0 -0.16300176296E+00 -0.17471598532E+02 -0.22710516625E+02  0.28653985590E+02  0.00000000000E+00 0. -1.
</event>
<event>
 5    1  0.3190780E-003  0.9118800E+02  0.7818608E-02  0.1130116E+00
         25   -1    0    0    0    0  0.00000000000E+00  0.00000000000E+00  0.99999998245E-14  0.12500000000E+03  0.12500000000E+03 0.  0.
        -11    1    3    3    0    0  0.22244853188E+02  0.12747284115E+02 -0.42669306970E+02  0.49779478736E+02  0.51100000000E-03 0. -1.
         23    2    1    0    0    0  0.19360715548E+02  0.22021651967E+02  0.21119214126E+01  0.95601859345E+02  0.90969581929E+02 0.  0.
         11    1    3    3    0    0 -0.28841376399E+01  0.92743678526E+01  0.44781228382E+02  0.45822380609E+02  0.51100000000E-03 0.  1.
         22    1    1    0    0    0 -0.19360715548E+02 -0.22021651967E+02 -0.21119214126E+01  0.29398140655E+02  0.00000000000E+00 0. -1.
</event>
<event>
 5    1  0.3190780E-003  0.9118800E+02  0.7818608E-02  0.1130116E+00
         25   -1    0    0    0    0  0.00000000000E+00  0.00000000000E+00  0.99999998245E-14  0.12500000000E+03  0.12500000000E+03 0.  0.
        -11    1    3    3    0    0 -0.82744831779E+01  0.57510506282E+02 -0.67211913741E+01  0.58490168562E+02  0.51100000000E-03 0. -1.
         23    2    1    0    0    0 -0.25643173912E+01  0.25536431714E+02  0.12732512082E+02  0.96350358950E+02  0.91992335210E+02 0.  0.
         11    1    3    3    0    0  0.57101657867E+01 -0.31974074568E+02  0.19453703456E+02  0.37860190388E+02  0.51100000000E-03 0.  1.
         22    1    1    0    0    0  0.25643173912E+01 -0.25536431714E+02 -0.12732512082E+02  0.28649641050E+02  0.00000000000E+00 0. -1.
</event>
<event>
 5    1  0.3190780E-003  0.9118800E+02  0.7818608E-02  0.1130116E+00
         25   -1    0    0    0    0  0.00000000000E+00  0.00000000000E+00  0.99999998245E-14  0.12500000000E+03  0.12500000000E+03 0.  0.
        -11    1    3    3    0    0  0.55269484317E+02 -0.22293903258E+02 -0.18719078206E+02  0.62467094604E+02  0.51100000000E-03 0. -1.
         23    2    1    0    0    0  0.22606947632E+02 -0.76634071161E+01 -0.70809574211E+01  0.10010136855E+03  0.96955361578E+02 0.  0.
         11    1    3    3    0    0 -0.32662536686E+02  0.14630496142E+02  0.11638120785E+02  0.37634273950E+02  0.51100000000E-03 0.  1.
         22    1    1    0    0    0 -0.22606947632E+02  0.76634071161E+01  0.70809574211E+01  0.24898631445E+02  0.00000000000E+00 0. -1.
</event>
<event>
 5    1  0.3190780E-003  0.9118800E+02  0.7818608E-02  0.1130116E+00
         25   -1    0    0    0    0  0.00000000000E+00  0.00000000000E+00  0.99999998245E-14  0.12500000000E+03  0.12500000000E+03 0.  0.
        -11    1    3    3    0    0  0.27486856697E+02  0.52780539107E+02 -0.15061544250E+02  0.61385362384E+02  0.51100000000E-03 0. -1.
         23    2    1    0    0    0  0.18884359997E+02  0.21034889905E+02 -0.11551770875E+02  0.94462661279E+02  0.89390521420E+02 0.  0.
         11    1    3    3    0    0 -0.86024967005E+01 -0.31745649203E+02  0.35097733748E+01  0.33077298895E+02  0.51100000000E-03 0.  1.
         22    1    1    0    0    0 -0.18884359997E+02 -0.21034889905E+02  0.11551770875E+02  0.30537338721E+02  0.00000000000E+00 0. -1.
</event>
<event>
 5    1  0.3190780E-003  0.9118800E+02  0.7818608E-02  0.1130116E+00
         25   -1    0    0    0    0  0.00000000000E+00  0.00000000000E+00  0.99999998245E-14  0.12500000000E+03  0.12500000000E+03 0.  0.
        -11    1    3    3    0    0 -0.22071593832E+02 -0.23759123563E+01 -0.45489164818E+02  0.50616838403E+02  0.51100000000E-03 0. -1.
         23    2    1    0    0    0 -0.15050165022E+02  0.25461054483E+02 -0.17927614118E+02  0.90414278806E+02  0.83537833952E+02 0.  0.
         11    1    3    3    0    0  0.70214288103E+01  0.27836966839E+02  0.27561550700E+02  0.39797440403E+02  0.51100000000E-03 0.  1.
         22    1    1    0    0    0  0.15050165022E+02 -0.25461054483E+02  0.17927614118E+02  0.34585721194E+02  0.00000000000E+00 0. -1.
</event>
<event>
 5    1  0.3190780E-003  0.9118800E+02  0.7818608E-02  0.1130116E+00
         25   -1    0    0    0    0  0.00000000000E+00  0.00000000000E+00  0.99999998245E-14  0.12500000000E+03  0.12500000000E+03 0.  0.
        -11    1    3    3    0    0 -0.18746071674E+02  0.46623685940E+02  0.15897979370E+02  0.52706062670E+02  0.51100000000E-03 0.  1.
         23    2    1    0    0    0 -0.79956259608E+01  0.65896362893E+01  0.27384897215E+02  0.95720554370E+02  0.91132533118E+02 0.  0.
         11    1    3    3    0    0  0.10750445714E+02 -0.40034049650E+02  0.11486917844E+02  0.43014491701E+02  0.51100000000E-03 0. -1.
         22    1    1    0    0    0  0.79956259608E+01 -0.65896362893E+01 -0.27384897215E+02  0.29279445630E+02  0.00000000000E+00 0. -1.
</event>
<event>
 5    1  0.3190780E-003  0.9118800E+02  0.7818608E-02  0.1130116E+00
         25   -1    0    0    0    0  0.00000000000E+00  0.00000000000E+00  0.99999998245E-14  0.12500000000E+03  0.12500000000E+03 0.  0.
        -11    1    3    3    0    0  0.47295424468E+02 -0.22232384591E+02  0.31575027398E+02  0.61058320118E+02  0.51100000000E-03 0. -1.
         23    2    1    0    0    0  0.28164742215E+02 -0.32682510838E+01  0.19561283527E+02  0.90553258755E+02  0.83745535336E+02 0.  0.
         11    1    3    3    0    0 -0.19130682253E+02  0.18964133507E+02 -0.12013743871E+02  0.29494938636E+02  0.51100000000E-03 0.  1.
         22    1    1    0    0    0 -0.28164742215E+02  0.32682510838E+01 -0.19561283527E+02  0.34446741245E+02  0.00000000000E+00 0. -1.
</event>
<event>
 5    1  0.3190780E-003  0.9118800E+02  0.7818608E-02  0.1130116E+00
         25   -1    0    0    0    0  0.00000000000E+00  0.00000000000E+00  0.99999998245E-14  0.12500000000E+03  0.12500000000E+03 0.  0.
        -11    1    3    3    0    0  0.39211933872E+02 -0.26475415143E+02  0.14618146669E+02  0.49519830142E+02  0.51100000000E-03 0. -1.
         23    2    1    0    0    0 -0.68137829002E+01 -0.20828338613E+02  0.18863978695E+02  0.96084657723E+02  0.91630586764E+02 0.  0.
         11    1    3    3    0    0 -0.46025716773E+02  0.56470765295E+01  0.42458320258E+01  0.46564827581E+02  0.51100000000E-03 0.  1.
         22    1    1    0    0    0  0.68137829002E+01  0.20828338613E+02 -0.18863978695E+02  0.28915342277E+02  0.00000000000E+00 0.  1.
</event>
<event>
 5    1  0.3190780E-003  0.9118800E+02  0.7818608E-02  0.1130116E+00
         25   -1    0    0    0    0  0.00000000000E+00  0.00000000000E+00  0.99999998245E-14  0.12500000000E+03  0.12500000000E+03 0.  0.
        -11    1    3    3    0    0 -0.35959565057E+02 -0.17765631576E+02 -0.14495516905E+02  0.42647719692E+02  0.51100000000E-03 0. -1.
         23    2    1    0    0    0  0.14785699675E+01  0.15937669393E+02 -0.26138949799E+02  0.94349711724E+02  0.89232437661E+02 0.  0.
         11    1    3    3    0    0  0.37438135024E+02  0.33703300968E+02 -0.11643432894E+02  0.51701992032E+02  0.51100000000E-03 0.  1.
         22    1    1    0    0    0 -0.14785699675E+01 -0.15937669393E+02  0.26138949799E+02  0.30650288276E+02  0.00000000000E+00 0.  1.
</event>
<event>
 5    1  0.3190780E-003  0.9118800E+02  0.7818608E-02  0.1130116E+00
         25   -1    0    0    0    0  0.00000000000E+00  0.00000000000E+00  0.99999998245E-14  0.12500000000E+03  0.12500000000E+03 0.  0.
        -11    1    3    3    0    0 -0.20693013787E+02 -0.31702545791E+02  0.14017106291E+02  0.40369933097E+02  0.51100000000E-03 0.  1.
         23    2    1    0    0    0  0.21619686126E+02  0.41254993235E+01  0.18846678006E+02  0.96023667507E+02  0.91547347732E+02 0.  0.
         11    1    3    3    0    0  0.42312699913E+02  0.35828045114E+02  0.48295717153E+01  0.55653734411E+02  0.51100000000E-03 0. -1.
         22    1    1    0    0    0 -0.21619686126E+02 -0.41254993235E+01 -0.18846678006E+02  0.28976332493E+02  0.00000000000E+00 0. -1.
</event>
<event>
 5    1  0.3190780E-003  0.9118800E+02  0.7818608E-02  0.1130116E+00
         25   -1    0    0    0    0  0.00000000000E+00  0.00000000000E+00  0.99999998245E-14  0.12500000000E+03  0.12500000000E+03 0.  0.
        -11    1    3    3    0    0 -0.27099741806E+02 -0.74813811486E+01  0.34927929647E+02  0.44836674046E+02  0.51100000000E-03 0.  1.
         23    2    1    0    0    0 -0.22592960654E+02  0.14146812826E+02 -0.11280416210E+02  0.96054845412E+02  0.91589908576E+02 0.  0.
         11    1    3    3    0    0  0.45067811515E+01  0.21628193975E+02 -0.46208345857E+02  0.51218171366E+02  0.51100000000E-03 0. -1.
         22    1    1    0    0    0  0.22592960654E+02 -0.14146812826E+02  0.11280416210E+02  0.28945154588E+02  0.00000000000E+00 0.  1.
</event>
<event>
 5    1  0.3190780E-003  0.9118800E+02  0.7818608E-02  0.1130116E+00
         25   -1    0    0    0    0  0.00000000000E+00  0.00000000000E+00  0.99999998245E-14  0.12500000000E+03  0.12500000000E+03 0.  0.
        -11    1    3    3    0    0 -0.83514127428E+01  0.42542227629E+02 -0.63104416503E+01  0.43811059112E+02  0.51100000000E-03 0. -1.
         23    2    1    0    0    0 -0.84519555167E+01 -0.68405286498E+01 -0.25878833967E+02  0.96929687716E+02  0.92776192684E+02 0.  0.
         11    1    3    3    0    0 -0.10054277395E+00 -0.49382756279E+02 -0.19568392317E+02  0.53118628603E+02  0.51100000000E-03 0.  1.
         22    1    1    0    0    0  0.84519555167E+01  0.68405286498E+01  0.25878833967E+02  0.28070312284E+02  0.00000000000E+00 0.  1.
</event>
<event>
 5    1  0.3190780E-003  0.9118800E+02  0.7818608E-02  0.1130116E+00
         25   -1    0    0    0    0  0.00000000000E+00  0.00000000000E+00  0.99999998245E-14  0.12500000000E+03  0.12500000000E+03 0.  0.
        -11    1    3    3    0    0 -0.35359513458E+02  0.18640422649E+02 -0.48970647695E+01  0.40270855369E+02  0.51100000000E-03 0. -1.
         23    2    1    0    0    0  0.62563981749E+01 -0.10158039811E+02 -0.26989430883E+02  0.95491396673E+02  0.90817669912E+02 0.  0.
         11    1    3    3    0    0  0.41615911633E+02 -0.28798462460E+02 -0.22092366114E+02  0.55220541304E+02  0.51100000000E-03 0.  1.
         22    1    1    0    0    0 -0.62563981749E+01  0.10158039811E+02  0.26989430883E+02  0.29508603327E+02  0.00000000000E+00 0.  1.
</event>
<event>
 5    1  0.3190780E-003  0.9118800E+02  0.7818608E-02  0.1130116E+00
         25   -1    0    0    0    0  0.00000000000E+00  0.00000000000E+00  0.99999998245E-14  0.12500000000E+03  0.12500000000E+03 0.  0.
        -11    1    3    3    0    0  0.33698820966E+02  0.74393685844E+01 -0.33087173139E+02  0.47809159855E+02  0.51100000000E-03 0.  1.
         23    2    1    0    0    0  0.24265914998E+02  0.96253123797E+01  0.13651844351E+02  0.95540636068E+02  0.90885416966E+02 0.  0.
         11    1    3    3    0    0 -0.94329059684E+01  0.21859437953E+01  0.46739017490E+02  0.47731476213E+02  0.51100000000E-03 0. -1.
         22    1    1    0    0    0 -0.24265914998E+02 -0.96253123797E+01 -0.13651844351E+02  0.29459363932E+02  0.00000000000E+00 0. -1.
</event>
<event>
 5    1  0.3190780E-003  0.9118800E+02  0.7818608E-02  0.1130116E+00
         25   -1    0    0    0    0  0.00000000000E+00  0.00000000000E+00  0.99999998245E-14  0.12500000000E+03  0.12500000000E+03 0.  0.
        -11    1    3    3    0    0 -0.27018762389E+01 -0.30915322059E+02  0.46604651225E+02  0.55991524263E+02  0.51100000000E-03 0. -1.
         23    2    1    0    0    0 -0.12675758876E+02  0.30422087220E+01  0.23094147816E+02  0.98480769990E+02  0.94842988658E+02 0.  0.
         11    1    3    3    0    0 -0.99738826369E+01  0.33957530781E+02 -0.23510503410E+02  0.42489245727E+02  0.51100000000E-03 0.  1.
         22    1    1    0    0    0  0.12675758876E+02 -0.30422087220E+01 -0.23094147816E+02  0.26519230010E+02  0.00000000000E+00 0. -1.
</event>
<event>
 5    1  0.3190780E-003  0.9118800E+02  0.7818608E-02  0.1130116E+00
         25   -1    0    0    0    0  0.00000000000E+00  0.00000000000E+00  0.99999998245E-14  0.12500000000E+03  0.12500000000E+03 0.  0.
        -11    1    3    3    0    0 -0.20775388986E+02 -0.37836758967E+02  0.32102426845E+02  0.53794078915E+02  0.51100000000E-03 0.  1.
         23    2    1    0    0    0 -0.21619896784E+02 -0.27058228091E+02 -0.27222390963E+01  0.90258407778E+02  0.83304273267E+02 0.  0.
         11    1    3    3    0    0 -0.84450779813E+00  0.10778530876E+02 -0.34824665942E+02  0.36464328864E+02  0.51100000000E-03 0. -1.
         22    1    1    0    0    0  0.21619896784E+02  0.27058228091E+02  0.27222390963E+01  0.34741592222E+02  0.00000000000E+00 0.  1.
</event>
<event>
 5    1  0.3190780E-003  0.9118800E+02  0.7818608E-02  0.1130116E+00
         25   -1    0    0    0    0  0.00000000000E+00  0.00000000000E+00  0.99999998245E-14  0.12500000000E+03  0.12500000000E+03 0.  0.
        -11    1    3    3    0    0 -0.34000324191E+02  0.38521118919E+02 -0.10864199683E+02  0.52515992639E+02  0.51100000000E-03 0. -1.
         23    2    1    0    0    0  0.60624516940E+01  0.27920089988E+02  0.31339864289E+01  0.96257929503E+02  0.91866655408E+02 0.  0.
         11    1    3    3    0    0  0.40062775885E+02 -0.10601028931E+02  0.13998186112E+02  0.43741936865E+02  0.51100000000E-03 0.  1.
         22    1    1    0    0    0 -0.60624516940E+01 -0.27920089988E+02 -0.31339864289E+01  0.28742070497E+02  0.00000000000E+00 0. -1.
</event>
<event>
 5    1  0.3190780E-003  0.9118800E+02  0.7818608E-02  0.1130116E+00
         25   -1    0    0    0    0  0.00000000000E+00  0.00000000000E+00  0.99999998245E-14  0.12500000000E+03  0.12500000000E+03 0.  0.
        -11    1    3    3    0    0  0.12003427415E+02 -0.38399075915E+02 -0.12461817438E+02  0.42117314669E+02  0.51100000000E-03 0. -1.
         23    2    1    0    0    0 -0.17148163850E+02 -0.11870969491E+02  0.22152821250E+02  0.94574239050E+02  0.89546411220E+02 0.  0.
         11    1    3    3    0    0 -0.29151591265E+02  0.26528106424E+02  0.34614638688E+02  0.52456924380E+02  0.51100000000E-03 0.  1.
         22    1    1    0    0    0  0.17148163850E+02  0.11870969491E+02 -0.22152821250E+02  0.30425760950E+02  0.00000000000E+00 0.  1.
</event>
<event>
 5    1  0.3190780E-003  0.9118800E+02  0.7818608E-02  0.1130116E+00
         25   -1    0    0    0    0  0.00000000000E+00  0.00000000000E+00  0.99999998245E-14  0.12500000000E+03  0.12500000000E+03 0.  0.
        -11    1    3    3    0    0  0.50220851079E+01  0.42963723052E+02  0.24252196836E+02  0.49591046459E+02  0.51100000000E-03 0.  1.
         23    2    1    0    0    0 -0.19965227319E+02  0.34833181780E+01  0.20030997869E+02  0.96504655064E+02  0.92201755764E+02 0.  0.
         11    1    3    3    0    0 -0.24987312427E+02 -0.39480404874E+02 -0.42211989671E+01  0.46913608604E+02  0.51100000000E-03 0. -1.
         22    1    1    0    0    0  0.19965227319E+02 -0.34833181780E+01 -0.20030997869E+02  0.28495344936E+02  0.00000000000E+00 0. -1.
</event>
<event>
 5    1  0.3190780E-003  0.9118800E+02  0.7818608E-02  0.1130116E+00
         25   -1    0    0    0    0  0.00000000000E+00  0.00000000000E+00  0.99999998245E-14  0.12500000000E+03  0.12500000000E+03 0.  0.
        -11    1    3    3    0    0  0.33608198969E+02  0.23974355259E+02 -0.98823971332E+01  0.42449293532E+02  0.51100000000E-03 0. -1.
         23    2    1    0    0    0  0.12176557696E+02 -0.25273301852E+02 -0.60969932429E+01  0.96291435591E+02  0.91912234755E+02 0.  0.
         11    1    3    3    0    0 -0.21431641273E+02 -0.49247657111E+02  0.37854038903E+01  0.53842142058E+02  0.51100000000E-03 0.  1.
         22    1    1    0    0    0 -0.12176557696E+02  0.25273301852E+02  0.60969932429E+01  0.28708564409E+02  0.00000000000E+00 0.  1.
</event>
<event>
 5    1  0.3190780E-003  0.9118800E+02  0.7818608E-02  0.1130116E+00
         25   -1    0    0    0    0  0.00000000000E+00  0.00000000000E+00  0.99999998245E-14  0.12500000000E+03  0.12500000000E+03 0.  0.
        -11    1    3    3    0    0 -0.48879089488E+02  0.41945167409E+01 -0.37735658188E+02  0.61892966151E+02  0.51100000000E-03 0. -1.
         23    2    1    0    0    0 -0.21951976880E+02  0.80329057146E+01 -0.16921305483E+02  0.96142636253E+02  0.91709645422E+02 0.  0.
         11    1    3    3    0    0  0.26927112608E+02  0.38383889737E+01  0.20814352706E+02  0.34249670102E+02  0.51100000000E-03 0.  1.
         22    1    1    0    0    0  0.21951976880E+02 -0.80329057146E+01  0.16921305483E+02  0.28857363747E+02  0.00000000000E+00 0. -1.
</event>
<event>
 5    1  0.3190780E-003  0.9118800E+02  0.7818608E-02  0.1130116E+00
         25   -1    0    0    0    0  0.00000000000E+00  0.00000000000E+00  0.99999998245E-14  0.12500000000E+03  0.12500000000E+03 0.  0.
        -11    1    3    3    0    0  0.37686989432E+01 -0.28264868398E+02 -0.43218857416E+02  0.51778137413E+02  0.51100000000E-03 0.  1.
         23    2    1    0    0    0  0.14750454650E+00  0.12501923653E+02 -0.25941395660E+02  0.96202849770E+02  0.91791679593E+02 0.  0.
         11    1    3    3    0    0 -0.36211943967E+01  0.40766792051E+02  0.17277461757E+02  0.44424712357E+02  0.51100000000E-03 0. -1.
         22    1    1    0    0    0 -0.14750454650E+00 -0.12501923653E+02  0.25941395660E+02  0.28797150230E+02  0.00000000000E+00 0. -1.
</event>
<event>
 5    1  0.3190780E-003  0.9118800E+02  0.7818608E-02  0.1130116E+00
         25   -1    0    0    0    0  0.00000000000E+00  0.00000000000E+00  0.99999998245E-14  0.12500000000E+03  0.12500000000E+03 0.  0.
        -11    1    3    3    0    0  0.61264127306E+01 -0.42656785456E+02  0.22723869967E+02  0.48718667314E+02  0.51100000000E-03 0. -1.
         23    2    1    0    0    0  0.26995819530E+02 -0.16335591036E+02 -0.59582879319E+01  0.92888833692E+02  0.87161966608E+02 0.  0.
         11    1    3    3    0    0  0.20869406799E+02  0.26321194420E+02 -0.28682157899E+02  0.44170166378E+02  0.51100000000E-03 0.  1.
         22    1    1    0    0    0 -0.26995819530E+02  0.16335591036E+02  0.59582879319E+01  0.32111166308E+02  0.00000000000E+00 0. -1.
</event>
<event>
 5    1  0.3190780E-003  0.9118800E+02  0.7818608E-02  0.1130116E+00
         25   -1    0    0    0    0  0.00000000000E+00  0.00000000000E+00  0.99999998245E-14  0.12500000000E+03  0.12500000000E+03 0.  0.
        -11    1    3    3    0    0 -0.24600958639E+02 -0.29798805372E+02  0.61306852400E+00  0.38646498170E+02  0.51100000000E-03 0.  1.
         23    2    1    0    0    0  0.26081517775E+02 -0.10339849743E+02 -0.12165341659E+02  0.94419718775E+02  0.89330452219E+02 0.  0.
         11    1    3    3    0    0  0.50682476413E+02  0.19458955629E+02 -0.12778410183E+02  0.55773220605E+02  0.51100000000E-03 0. -1.
         22    1    1    0    0    0 -0.26081517775E+02  0.10339849743E+02  0.12165341659E+02  0.30580281225E+02  0.00000000000E+00 0. -1.
</event>
<event>
 5    1  0.3190780E-003  0.9118800E+02  0.7818608E-02  0.1130116E+00
         25   -1    0    0    0    0  0.00000000000E+00  0.00000000000E+00  0.99999998245E-14  0.12500000000E+03  0.12500000000E+03 0.  0.
        -11    1    3    3    0    0  0.40223710520E+02 -0.18769757529E+02  0.25321617506E+02  0.51102201509E+02  0.51100000000E-03 0.  1.
         23    2    1    0    0    0  0.28163093473E+02  0.15588251961E+02  0.62431831378E+01  0.92210813233E+02  0.86184124456E+02 0.  0.
         11    1    3    3    0    0 -0.12060617047E+02  0.34358009490E+02 -0.19078434368E+02  0.41108611724E+02  0.51100000000E-03 0. -1.
         22    1    1    0    0    0 -0.28163093473E+02 -0.15588251961E+02 -0.62431831378E+01  0.32789186767E+02  0.00000000000E+00 0.  1.
</event>
<event>
 5    1  0.3190780E-003  0.9118800E+02  0.7818608E-02  0.1130116E+00
         25   -1    0    0    0    0  0.00000000000E+00  0.00000000000E+00  0.99999998245E-14  0.12500000000E+03  0.12500000000E+03 0.  0.
        -11    1    3    3    0    0 -0.20540560163E+02  0.19151509393E+02 -0.32481995375E+02  0.42939200594E+02  0.51100000000E-03 0.  1.
         23    2    1    0    0    0 -0.63850475060E+01 -0.26615846369E+02 -0.13649555429E+02  0.94414342037E+02  0.89322928239E+02 0.  0.
         11    1    3    3    0    0  0.14155512657E+02 -0.45767355762E+02  0.18832439946E+02  0.51475141443E+02  0.51100000000E-03 0. -1.
         22    1    1    0    0    0  0.63850475060E+01  0.26615846369E+02  0.13649555429E+02  0.30585657963E+02  0.00000000000E+00 0.  1.
</event>
<event>
 5    1  0.3190780E-003  0.9118800E+02  0.7818608E-02  0.1130116E+00
         25   -1    0    0    0    0  0.00000000000E+00  0.00000000000E+00  0.99999998245E-14  0.12500000000E+03  0.12500000000E+03 0.  0.
        -11    1    3    3    0    0  0.55327247964E+02 -0.46726574956E+01  0.41122933797E+00  0.55525734621E+02  0.51100000000E-03 0.  1.
         23    2    1    0    0    0  0.19349675833E+02 -0.16565057489E+02 -0.13842261530E+02  0.96010013992E+02  0.91528703138E+02 0.  0.
         11    1    3    3    0    0 -0.35977572131E+02 -0.11892399993E+02 -0.14253490868E+02  0.40484279371E+02  0.51100000000E-03 0. -1.
         22    1    1    0    0    0 -0.19349675833E+02  0.16565057489E+02  0.13842261530E+02  0.28989986008E+02  0.00000000000E+00 0. -1.
</event>
<event>
 5    1  0.3190780E-003  0.9118800E+02  0.7818608E-02  0.1130116E+00
         25   -1    0    0    0    0  0.00000000000E+00  0.00000000000E+00  0.99999998245E-14  0.12500000000E+03  0.12500000000E+03 0.  0.
        -11    1    3    3    0    0  0.28063816146E+02  0.40404500759E+02  0.25840137291E+02  0.55568103744E+02  0.51100000000E-03 0.  1.
         23    2    1    0    0    0  0.19018121294E+02  0.21608165205E+02 -0.78231531926E+01  0.95170426303E+02  0.90374811622E+02 0.  0.
         11    1    3    3    0    0 -0.90456948516E+01 -0.18796335554E+02 -0.33663290484E+02  0.39602322559E+02  0.51100000000E-03 0. -1.
         22    1    1    0    0    0 -0.19018121294E+02 -0.21608165205E+02  0.78231531926E+01  0.29829573697E+02  0.00000000000E+00 0.  1.
</event>
<event>
 5    1  0.3190780E-003  0.9118800E+02  0.7818608E-02  0.1130116E+00
         25   -1    0    0    0    0  0.00000000000E+00  0.00000000000E+00  0.99999998245E-14  0.12500000000E+03  0.12500000000E+03 0.  0.
        -11    1    3    3    0    0  0.29325891557E+00  0.42287712321E+02 -0.37386108946E+02  0.56445174785E+02  0.51100000000E-03 0.  1.
         23    2    1    0    0    0 -0.16021385572E+02  0.21855526808E+02 -0.60916561633E+01  0.97224883033E+02  0.93173068846E+02 0.  0.
         11    1    3    3    0    0 -0.16314644488E+02 -0.20432185512E+02  0.31294452782E+02  0.40779708248E+02  0.51100000000E-03 0. -1.
         22    1    1    0    0    0  0.16021385572E+02 -0.21855526808E+02  0.60916561633E+01  0.27775116967E+02  0.00000000000E+00 0.  1.
</event>
<event>
 5    1  0.3190780E-003  0.9118800E+02  0.7818608E-02  0.1130116E+00
         25   -1    0    0    0    0  0.00000000000E+00  0.00000000000E+00  0.99999998245E-14  0.12500000000E+03  0.12500000000E+03 0.  0.
        -11    1    3    3    0    0  0.22672647780E+02  0.23827860045E+02 -0.53009766343E+02  0.62384703251E+02  0.51100000000E-03 0. -1.
         23    2    1    0    0    0  0.69418116892E+01  0.10635460013E+02 -0.22596015826E+02  0.99079319252E+02  0.95628603530E+02 0.  0.
         11    1    3    3    0    0 -0.15730836091E+02 -0.13192400032E+02  0.30413750517E+02  0.36694616001E+02  0.51100000000E-03 0.  1.
         22    1    1    0    0    0 -0.69418116892E+01 -0.10635460013E+02  0.22596015826E+02  0.25920680748E+02  0.00000000000E+00 0. -1.
</event>
<event>
 5    1  0.3190780E-003  0.9118800E+02  0.7818608E-02  0.1130116E+00
         25   -1    0    0    0    0  0.00000000000E+00  0.00000000000E+00  0.99999998245E-14  0.12500000000E+03  0.12500000000E+03 0.  0.
        -11    1    3    3    0    0  0.16414654717E+02 -0.25288833844E+02 -0.23998733327E+02  0.38534467795E+02  0.51100000000E-03 0. -1.
         23    2    1    0    0    0  0.19089704996E+02  0.92947667384E+01  0.20856895113E+02  0.95237278362E+02  0.90467229374E+02 0.  0.
         11    1    3    3    0    0  0.26750502788E+01  0.34583600583E+02  0.44855628440E+02  0.56702810567E+02  0.51100000000E-03 0.  1.
         22    1    1    0    0    0 -0.19089704996E+02 -0.92947667384E+01 -0.20856895113E+02  0.29762721638E+02  0.00000000000E+00 0.  1.
</event>
<event>
 5    1  0.3190780E-003  0.9118800E+02  0.7818608E-02  0.1130116E+00
         25   -1    0    0    0    0  0.00000000000E+00  0.00000000000E+00  0.99999998245E-14  0.12500000000E+03  0.12500000000E+03 0.  0.
        -11    1    3    3    0    0 -0.16284998983E+01  0.67164570594E+01 -0.44883279923E+02  0.45412240907E+02  0.51100000000E-03 0.  1.
         23    2    1    0    0    0  0.12030628793E+02 -0.25318787249E+02 -0.86602225493E+01  0.95661007660E+02  0.91050820508E+02 0.  0.
         11    1    3    3    0    0  0.13659128691E+02 -0.32035244308E+02  0.36223057373E+02  0.50248766753E+02  0.51100000000E-03 0. -1.
         22    1    1    0    0    0 -0.12030628793E+02  0.25318787249E+02  0.86602225493E+01  0.29338992340E+02  0.00000000000E+00 0. -1.
</event>
<event>
 5    1  0.3190780E-003  0.9118800E+02  0.7818608E-02  0.1130116E+00
         25   -1    0    0    0    0  0.00000000000E+00  0.00000000000E+00  0.99999998245E-14  0.12500000000E+03  0.12500000000E+03 0.  0.
        -11    1    3    3    0    0 -0.18246000977E+02 -0.20539637984E+02 -0.46470664456E+02  0.53984404557E+02  0.51100000000E-03 0. -1.
         23    2    1    0    0    0 -0.20721229308E+02  0.99840076849E+01 -0.18083486472E+02  0.95741458743E+02  0.91161201648E+02 0.  0.
         11    1    3    3    0    0 -0.24752283307E+01  0.30523645669E+02  0.28387177984E+02  0.41757054186E+02  0.51100000000E-03 0.  1.
         22    1    1    0    0    0  0.20721229308E+02 -0.99840076849E+01  0.18083486472E+02  0.29258541257E+02  0.00000000000E+00 0. -1.
</event>
<event>
 5    1  0.3190780E-003  0.9118800E+02  0.7818608E-02  0.1130116E+00
         25   -1    0    0    0    0  0.00000000000E+00  0.00000000000E+00  0.99999998245E-14  0.12500000000E+03  0.12500000000E+03 0.  0.
        -11    1    3    3    0    0 -0.14178624469E+02  0.15854619820E+02  0.28013615274E+02  0.35173356428E+02  0.51100000000E-03 0. -1.
         23    2    1    0    0    0 -0.49098013305E+01 -0.19318826395E+02 -0.20893027250E+02  0.96123681155E+02  0.91683806033E+02 0.  0.
         11    1    3    3    0    0  0.92688231390E+01 -0.35173446215E+02 -0.48906642524E+02  0.60950324726E+02  0.51100000000E-03 0.  1.
         22    1    1    0    0    0  0.49098013305E+01  0.19318826395E+02  0.20893027250E+02  0.28876318845E+02  0.00000000000E+00 0.  1.
</event>
<event>
 5    1  0.3190780E-003  0.9118800E+02  0.7818608E-02  0.1130116E+00
         25   -1    0    0    0    0  0.00000000000E+00  0.00000000000E+00  0.99999998245E-14  0.12500000000E+03  0.12500000000E+03 0.  0.
        -11    1    3    3    0    0 -0.14039885628E+02 -0.55214006769E+02  0.25428488172E+02  0.62388403914E+02  0.51100000000E-03 0. -1.
         23    2    1    0    0    0 -0.83117832914E+01 -0.26452352446E+02  0.10010754466E+02  0.95520720898E+02  0.90858022345E+02 0.  0.
         11    1    3    3    0    0  0.57281023369E+01  0.28761654324E+02 -0.15417733706E+02  0.33132316983E+02  0.51100000000E-03 0.  1.
         22    1    1    0    0    0  0.83117832914E+01  0.26452352446E+02 -0.10010754466E+02  0.29479279102E+02  0.00000000000E+00 0. -1.
</event>
<event>
 5    1  0.3190780E-003  0.9118800E+02  0.7818608E-02  0.1130116E+00
         25   -1    0    0    0    0  0.00000000000E+00  0.00000000000E+00  0.99999998245E-14  0.12500000000E+03  0.12500000000E+03 0.  0.
        -11    1    3    3    0    0 -0.20471932750E+02 -0.30937695180E+02  0.22980839703E+02  0.43638973490E+02  0.51100000000E-03 0.  1.
         23    2    1    0    0    0 -0.13436197807E+02  0.19363023740E+02  0.19255732473E+02  0.94565786803E+02  0.89534611747E+02 0.  0.
         11    1    3    3    0    0  0.70357349421E+01  0.50300718920E+02 -0.37251072297E+01  0.50926813313E+02  0.51100000000E-03 0. -1.
         22    1    1    0    0    0  0.13436197807E+02 -0.19363023740E+02 -0.19255732473E+02  0.30434213197E+02  0.00000000000E+00 0.  1.
</event>
<event>
 5    1  0.3190780E-003  0.9118800E+02  0.7818608E-02  0.1130116E+00
         25   -1    0    0    0    0  0.00000000000E+00  0.00000000000E+00  0.99999998245E-14  0.12500000000E+03  0.12500000000E+03 0.  0.
        -11    1    3    3    0    0  0.43212191178E+02 -0.12251517611E+02 -0.27800372730E+02  0.52822853713E+02  0.51100000000E-03 0. -1.
         23    2    1    0    0    0  0.20267433419E+02 -0.20519191590E+02  0.70029343411E+01  0.95320930435E+02  0.90582739022E+02 0.  0.
         11    1    3    3    0    0 -0.22944757759E+02 -0.82676739784E+01  0.34803307071E+02  0.42498076721E+02  0.51100000000E-03 0.  1.
         22    1    1    0    0    0 -0.20267433419E+02  0.20519191590E+02 -0.70029343411E+01  0.29679069565E+02  0.00000000000E+00 0. -1.
</event>
<event>
 5    1  0.3190780E-003  0.9118800E+02  0.7818608E-02  0.1130116E+00
         25   -1    0    0    0    0  0.00000000000E+00  0.00000000000E+00  0.99999998245E-14  0.12500000000E+03  0.12500000000E+03 0.  0.
        -11    1    3    3    0    0  0.15138526018E+02  0.28323009800E+02 -0.11405192313E+02  0.34079998035E+02  0.51100000000E-03 0.  1.
         23    2    1    0    0    0  0.19317068502E+01 -0.26350104086E+02  0.13192007863E+02  0.95468854608E+02  0.90786638070E+02 0.  0.
         11    1    3    3    0    0 -0.13206819168E+02 -0.54673113886E+02  0.24597200175E+02  0.61388856573E+02  0.51100000000E-03 0. -1.
         22    1    1    0    0    0 -0.19317068502E+01  0.26350104086E+02 -0.13192007863E+02  0.29531145392E+02  0.00000000000E+00 0. -1.
</event>
<event>
 5    1  0.3190780E-003  0.9118800E+02  0.7818608E-02  0.1130116E+00
         25   -1    0    0    0    0  0.00000000000E+00  0.00000000000E+00  0.99999998245E-14  0.12500000000E+03  0.12500000000E+03 0.  0.
        -11    1    3    3    0    0 -0.20404165354E+02  0.47973405525E+02  0.38944481353E+01  0.52277570028E+02  0.51100000000E-03 0.  1.
         23    2    1    0    0    0 -0.82513810889E+01  0.14482388057E+02  0.25934174764E+02  0.94171340048E+02  0.88982217393E+02 0.  0.
         11    1    3    3    0    0  0.12152784265E+02 -0.33491017468E+02  0.22039726629E+02  0.41893770021E+02  0.51100000000E-03 0. -1.
         22    1    1    0    0    0  0.82513810889E+01 -0.14482388057E+02 -0.25934174764E+02  0.30828659952E+02  0.00000000000E+00 0.  1.
</event>
<event>
 5    1  0.3190780E-003  0.9118800E+02  0.7818608E-02  0.1130116E+00
         25   -1    0    0    0    0  0.00000000000E+00  0.00000000000E+00  0.99999998245E-14  0.12500000000E+03  0.12500000000E+03 0.  0.
        -11    1    3    3    0    0  0.50205438667E+01 -0.19795715822E+02 -0.57081278421E+02  0.60624653171E+02  0.51100000000E-03 0.  1.
         23    2    1    0    0    0  0.24762598024E+01  0.15606074560E+01 -0.28273631345E+02  0.96575264510E+02  0.92297432941E+02 0.  0.
         11    1    3    3    0    0 -0.25442840643E+01  0.21356323278E+02  0.28807647076E+02  0.35950611340E+02  0.51100000000E-03 0. -1.
         22    1    1    0    0    0 -0.24762598024E+01 -0.15606074560E+01  0.28273631345E+02  0.28424735490E+02  0.00000000000E+00 0.  1.
</event>
<event>
 5    1  0.3190780E-003  0.9118800E+02  0.7818608E-02  0.1130116E+00
         25   -1    0    0    0    0  0.00000000000E+00  0.00000000000E+00  0.99999998245E-14  0.12500000000E+03  0.12500000000E+03 0.  0.
        -11    1    3    3    0    0 -0.17023660827E+02 -0.49622585593E+02 -0.69803740722E+01  0.52923828767E+02  0.51100000000E-03 0.  1.
         23    2    1    0    0    0 -0.86466499263E+01 -0.24675326792E+02  0.21095200282E+02  0.91404705952E+02  0.85006920235E+02 0.  0.
         11    1    3    3    0    0  0.83770109010E+01  0.24947258801E+02  0.28075574354E+02  0.38480877185E+02  0.51100000000E-03 0. -1.
         22    1    1    0    0    0  0.86466499263E+01  0.24675326792E+02 -0.21095200282E+02  0.33595294048E+02  0.00000000000E+00 0.  1.
</event>
<event>
 5    1  0.3190780E-003  0.9118800E+02  0.7818608E-02  0.1130116E+00
         25   -1    0    0    0    0  0.00000000000E+00  0.00000000000E+00  0.99999998245E-14  0.12500000000E+03  0.12500000000E+03 0.  0.
        -11    1    3    3    0    0 -0.98427641790E+01 -0.49958990991E+02 -0.27872933549E+01  0.50995586006E+02  0.51100000000E-03 0.  1.
         23    2    1    0    0    0  0.47509354988E+01 -0.17158471782E+02  0.23518642939E+02  0.95502354201E+02  0.90832750428E+02 0.  0.
         11    1    3    3    0    0  0.14593699678E+02  0.32800519209E+02  0.26305936293E+02  0.44506768195E+02  0.51100000000E-03 0. -1.
         22    1    1    0    0    0 -0.47509354988E+01  0.17158471782E+02 -0.23518642939E+02  0.29497645799E+02  0.00000000000E+00 0.  1.
</event>
<event>
 5    1  0.3190780E-003  0.9118800E+02  0.7818608E-02  0.1130116E+00
         25   -1    0    0    0    0  0.00000000000E+00  0.00000000000E+00  0.99999998245E-14  0.12500000000E+03  0.12500000000E+03 0.  0.
        -11    1    3    3    0    0  0.17534838076E+02  0.36053168689E+02  0.19955857690E+02  0.44783230960E+02  0.51100000000E-03 0. -1.
         23    2    1    0    0    0 -0.56383840487E+01 -0.89543976172E+01  0.27099607007E+02  0.95907710449E+02  0.91388881229E+02 0.  0.
         11    1    3    3    0    0 -0.23173222125E+02 -0.45007566306E+02  0.71437493169E+01  0.51124479489E+02  0.51100000000E-03 0.  1.
         22    1    1    0    0    0  0.56383840487E+01  0.89543976172E+01 -0.27099607007E+02  0.29092289551E+02  0.00000000000E+00 0.  1.
</event>
<event>
 5    1  0.3190780E-003  0.9118800E+02  0.7818608E-02  0.1130116E+00
         25   -1    0    0    0    0  0.00000000000E+00  0.00000000000E+00  0.99999998245E-14  0.12500000000E+03  0.12500000000E+03 0.  0.
        -11    1    3    3    0    0 -0.13685248981E+01 -0.83128276993E+01  0.40320050217E+02  0.41190804975E+02  0.51100000000E-03 0.  1.
         23    2    1    0    0    0 -0.21721326386E+02  0.16250839097E+02 -0.57914245054E+01  0.97261103318E+02  0.93221648932E+02 0.  0.
         11    1    3    3    0    0 -0.20352801488E+02  0.24563666797E+02 -0.46111474722E+02  0.56070298343E+02  0.51100000000E-03 0. -1.
         22    1    1    0    0    0  0.21721326386E+02 -0.16250839097E+02  0.57914245054E+01  0.27738896682E+02  0.00000000000E+00 0. -1.
</event>
<event>
 5    1  0.3190780E-003  0.9118800E+02  0.7818608E-02  0.1130116E+00
         25   -1    0    0    0    0  0.00000000000E+00  0.00000000000E+00  0.99999998245E-14  0.12500000000E+03  0.12500000000E+03 0.  0.
        -11    1    3    3    0    0  0.18387575130E+02  0.54686306213E+02  0.10118431084E+02  0.58575401443E+02  0.51100000000E-03 0.  1.
         23    2    1    0    0    0 -0.10053934026E+00  0.23598482231E+02  0.17662296738E+02  0.95523650195E+02  0.90862052304E+02 0.  0.
         11    1    3    3    0    0 -0.18488114470E+02 -0.31087823982E+02  0.75438656541E+01  0.36948248752E+02  0.51100000000E-03 0. -1.
         22    1    1    0    0    0  0.10053934026E+00 -0.23598482231E+02 -0.17662296738E+02  0.29476349805E+02  0.00000000000E+00 0.  1.
</event>
<event>
 5    1  0.3190780E-003  0.9118800E+02  0.7818608E-02  0.1130116E+00
         25   -1    0    0    0    0  0.00000000000E+00  0.00000000000E+00  0.99999998245E-14  0.12500000000E+03  0.12500000000E+03 0.  0.
        -11    1    3    3    0    0 -0.18523011318E+02 -0.57836002187E+01  0.35772294006E+02  0.40696547746E+02  0.51100000000E-03 0.  1.
         23    2    1    0    0    0 -0.21799825411E+02 -0.13866820275E+02 -0.16926760342E+02  0.94112521822E+02  0.88899552618E+02 0.  0.
         11    1    3    3    0    0 -0.32768140933E+01 -0.80832200561E+01 -0.52699054348E+02  0.53415974076E+02  0.51100000000E-03 0. -1.
         22    1    1    0    0    0  0.21799825411E+02  0.13866820275E+02  0.16926760342E+02  0.30887478178E+02  0.00000000000E+00 0. -1.
</event>
<event>
 5    1  0.3190780E-003  0.9118800E+02  0.7818608E-02  0.1130116E+00
         25   -1    0    0    0    0  0.00000000000E+00  0.00000000000E+00  0.99999998245E-14  0.12500000000E+03  0.12500000000E+03 0.  0.
        -11    1    3    3    0    0  0.99003248296E+01 -0.32954552964E+02  0.30514019831E+02  0.45990481616E+02  0.51100000000E-03 0. -1.
         23    2    1    0    0    0 -0.24988516338E+02 -0.13832740560E+02 -0.49681073274E+00  0.96433980307E+02  0.92105890565E+02 0.  0.
         11    1    3    3    0    0 -0.34888841168E+02  0.19121812404E+02 -0.31010830564E+02  0.50443498691E+02  0.51100000000E-03 0.  1.
         22    1    1    0    0    0  0.24988516338E+02  0.13832740560E+02  0.49681073274E+00  0.28566019693E+02  0.00000000000E+00 0.  1.
</event>
<event>
 5    1  0.3190780E-003  0.9118800E+02  0.7818608E-02  0.1130116E+00
         25   -1    0    0    0    0  0.00000000000E+00  0.00000000000E+00  0.99999998245E-14  0.12500000000E+03  0.12500000000E+03 0.  0.
        -11    1    3    3    0    0 -0.21453132919E+02  0.18377120489E+02  0.18864654852E+02  0.33968083143E+02  0.51100000000E-03 0.  1.
         23    2    1    0    0    0  0.13125284768E+02 -0.29679044905E+01 -0.26748791788E+02  0.95057063948E+02  0.90217880639E+02 0.  0.
         11    1    3    3    0    0  0.34578417687E+02 -0.21345024979E+02 -0.45613446640E+02  0.61088980805E+02  0.51100000000E-03 0. -1.
         22    1    1    0    0    0 -0.13125284768E+02  0.29679044905E+01  0.26748791788E+02  0.29942936052E+02  0.00000000000E+00 0. -1.
</event>
<event>
 5    1  0.3190780E-003  0.9118800E+02  0.7818608E-02  0.1130116E+00
         25   -1    0    0    0    0  0.00000000000E+00  0.00000000000E+00  0.99999998245E-14  0.12500000000E+03  0.12500000000E+03 0.  0.
        -11    1    3    3    0    0 -0.30596117926E+02 -0.47160385994E+01  0.12975208987E+02  0.33566642679E+02  0.51100000000E-03 0.  1.
         23    2    1    0    0    0  0.21985028709E+02  0.78551902908E+01 -0.17678740797E+02  0.95715475451E+02  0.91125566461E+02 0.  0.
         11    1    3    3    0    0  0.52581146636E+02  0.12571228890E+02 -0.30653949784E+02  0.62148832772E+02  0.51100000000E-03 0. -1.
         22    1    1    0    0    0 -0.21985028709E+02 -0.78551902908E+01  0.17678740797E+02  0.29284524549E+02  0.00000000000E+00 0. -1.
</event>
<event>
 5    1  0.3190780E-003  0.9118800E+02  0.7818608E-02  0.1130116E+00
         25   -1    0    0    0    0  0.00000000000E+00  0.00000000000E+00  0.99999998245E-14  0.12500000000E+03  0.12500000000E+03 0.  0.
        -11    1    3    3    0    0 -0.41384212813E+02  0.13708408426E+02  0.23428992041E+02  0.49492334760E+02  0.51100000000E-03 0. -1.
         23    2    1    0    0    0 -0.82430457357E+01 -0.20259649121E+02  0.16821654345E+02  0.97407079886E+02  0.93417182421E+02 0.  0.
         11    1    3    3    0    0  0.33141167077E+02 -0.33968057547E+02 -0.66073376962E+01  0.47914745126E+02  0.51100000000E-03 0.  1.
         22    1    1    0    0    0  0.82430457357E+01  0.20259649121E+02 -0.16821654345E+02  0.27592920114E+02  0.00000000000E+00 0. -1.
</event>
<event>
 5    1  0.3190780E-003  0.9118800E+02  0.7818608E-02  0.1130116E+00
         25   -1    0    0    0    0  0.00000000000E+00  0.00000000000E+00  0.99999998245E-14  0.12500000000E+03  0.12500000000E+03 0.  0.
        -11    1    3    3    0    0  0.13029470219E+02 -0.38547320033E+02  0.81450571520E+01  0.41497047271E+02  0.51100000000E-03 0.  1.
         23    2    1    0    0    0 -0.27626283889E+02 -0.32874597616E+01 -0.45988911632E+01  0.96801263271E+02  0.92603001127E+02 0.  0.
         11    1    3    3    0    0 -0.40655754108E+02  0.35259860272E+02 -0.12743948315E+02  0.55304216000E+02  0.51100000000E-03 0. -1.
         22    1    1    0    0    0  0.27626283889E+02  0.32874597616E+01  0.45988911632E+01  0.28198736729E+02  0.00000000000E+00 0. -1.
</event>
<event>
 5    1  0.3190780E-003  0.9118800E+02  0.7818608E-02  0.1130116E+00
         25   -1    0    0    0    0  0.00000000000E+00  0.00000000000E+00  0.99999998245E-14  0.12500000000E+03  0.12500000000E+03 0.  0.
        -11    1    3    3    0    0  0.12746343911E+02 -0.27649370258E+02  0.15122324505E+02  0.33994729848E+02  0.51100000000E-03 0.  1.
         23    2    1    0    0    0 -0.15140846410E+02  0.24502940872E+02 -0.34693473535E+01  0.95988352125E+02  0.91499114920E+02 0.  0.
         11    1    3    3    0    0 -0.27887190321E+02  0.52152311130E+02 -0.18591671859E+02  0.61993622276E+02  0.51100000000E-03 0. -1.
         22    1    1    0    0    0  0.15140846410E+02 -0.24502940872E+02  0.34693473535E+01  0.29011647875E+02  0.00000000000E+00 0. -1.
</event>
<event>
 5    1  0.3190780E-003  0.9118800E+02  0.7818608E-02  0.1130116E+00
         25   -1    0    0    0    0  0.00000000000E+00  0.00000000000E+00  0.99999998245E-14  0.12500000000E+03  0.12500000000E+03 0.  0.
        -11    1    3    3    0    0 -0.34889278614E+02 -0.45715615025E+00  0.22167471364E+02  0.41338451118E+02  0.51100000000E-03 0.  1.
         23    2    1    0    0    0  0.19871339940E+02 -0.76293575996E+01  0.18685513726E+02  0.96676411393E+02  0.92434316399E+02 0.  0.
         11    1    3    3    0    0  0.54760618554E+02 -0.71722014493E+01 -0.34819576373E+01  0.55337960274E+02  0.51100000000E-03 0. -1.
         22    1    1    0    0    0 -0.19871339940E+02  0.76293575996E+01 -0.18685513726E+02  0.28323588607E+02  0.00000000000E+00 0. -1.
</event>
<event>
 5    1  0.3190780E-003  0.9118800E+02  0.7818608E-02  0.1130116E+00
         25   -1    0    0    0    0  0.00000000000E+00  0.00000000000E+00  0.99999998245E-14  0.12500000000E+03  0.12500000000E+03 0.  0.
        -11    1    3    3    0    0 -0.46780515832E+02  0.20092410038E+02  0.19335931871E+02  0.54460993971E+02  0.51100000000E-03 0. -1.
         23    2    1    0    0    0 -0.22209662962E+02 -0.12462487854E+02  0.14915265646E+02  0.95486479680E+02  0.90810901988E+02 0.  0.
         11    1    3    3    0    0  0.24570852870E+02 -0.32554897892E+02 -0.44206662247E+01  0.41025485709E+02  0.51100000000E-03 0.  1.
         22    1    1    0    0    0  0.22209662962E+02  0.12462487854E+02 -0.14915265646E+02  0.29513520320E+02  0.00000000000E+00 0. -1.
</event>
<event>
 5    1  0.3190780E-003  0.9118800E+02  0.7818608E-02  0.1130116E+00
         25   -1    0    0    0    0  0.00000000000E+00  0.00000000000E+00  0.99999998245E-14  0.12500000000E+03  0.12500000000E+03 0.  0.
        -11    1    3    3    0    0  0.66783845811E+01 -0.18198838650E+02  0.40221733253E+02  0.44649595463E+02  0.51100000000E-03 0. -1.
         23    2    1    0    0    0 -0.21223366848E+02 -0.16001669797E+02 -0.51178549884E+01  0.97931989797E+02  0.94116934976E+02 0.  0.
         11    1    3    3    0    0 -0.27901751429E+02  0.21971688527E+01 -0.45339588242E+02  0.53282394334E+02  0.51100000000E-03 0.  1.
         22    1    1    0    0    0  0.21223366848E+02  0.16001669797E+02  0.51178549884E+01  0.27068010203E+02  0.00000000000E+00 0.  1.
</event>
<event>
 5    1  0.3190780E-003  0.9118800E+02  0.7818608E-02  0.1130116E+00
         25   -1    0    0    0    0  0.00000000000E+00  0.00000000000E+00  0.99999998245E-14  0.12500000000E+03  0.12500000000E+03 0.  0.
        -11    1    3    3    0    0 -0.57243705580E+01  0.57718113686E+02  0.11178836507E+02  0.59068734976E+02  0.51100000000E-03 0. -1.
         23    2    1    0    0    0 -0.72682040868E+01  0.23992702287E+02  0.18782279750E+02  0.93675080426E+02  0.88282331792E+02 0.  0.
         11    1    3    3    0    0 -0.15438335289E+01 -0.33725411399E+02  0.76034432430E+01  0.34606345450E+02  0.51100000000E-03 0.  1.
         22    1    1    0    0    0  0.72682040868E+01 -0.23992702287E+02 -0.18782279750E+02  0.31324919574E+02  0.00000000000E+00 0. -1.
</event>
<event>
 5    1  0.3190780E-003  0.9118800E+02  0.7818608E-02  0.1130116E+00
         25   -1    0    0    0    0  0.00000000000E+00  0.00000000000E+00  0.99999998245E-14  0.12500000000E+03  0.12500000000E+03 0.  0.
        -11    1    3    3    0    0 -0.78168213186E+01  0.40440421588E+02  0.91946684544E+01  0.42202752541E+02  0.51100000000E-03 0. -1.
         23    2    1    0    0    0  0.27882454903E+02  0.33308828797E+00  0.83088183084E+01  0.95903974482E+02  0.91383771101E+02 0.  0.
         11    1    3    3    0    0  0.35699276222E+02 -0.40107333300E+02 -0.88585014602E+00  0.53701221941E+02  0.51100000000E-03 0.  1.
         22    1    1    0    0    0 -0.27882454903E+02 -0.33308828797E+00 -0.83088183084E+01  0.29096025518E+02  0.00000000000E+00 0.  1.
</event>
<event>
 5    1  0.3190780E-003  0.9118800E+02  0.7818608E-02  0.1130116E+00
         25   -1    0    0    0    0  0.00000000000E+00  0.00000000000E+00  0.99999998245E-14  0.12500000000E+03  0.12500000000E+03 0.  0.
        -11    1    3    3    0    0 -0.35397875536E+02  0.39896403404E+00 -0.16448377472E+02  0.39034829147E+02  0.51100000000E-03 0. -1.
         23    2    1    0    0    0  0.20132191511E+02  0.12538765386E+02 -0.16898375551E+02  0.95878171955E+02  0.91348470095E+02 0.  0.
         11    1    3    3    0    0  0.55530067047E+02  0.12139801352E+02 -0.44999807948E+00  0.56843342808E+02  0.51100000000E-03 0.  1.
         22    1    1    0    0    0 -0.20132191511E+02 -0.12538765386E+02  0.16898375551E+02  0.29121828045E+02  0.00000000000E+00 0. -1.
</event>
<event>
 5    1  0.3190780E-003  0.9118800E+02  0.7818608E-02  0.1130116E+00
         25   -1    0    0    0    0  0.00000000000E+00  0.00000000000E+00  0.99999998245E-14  0.12500000000E+03  0.12500000000E+03 0.  0.
        -11    1    3    3    0    0 -0.41294393227E+01 -0.91422718239E+00  0.42144155946E+02  0.42355849196E+02  0.51100000000E-03 0.  1.
         23    2    1    0    0    0  0.93029726393E+01  0.31479947660E+02  0.81917408671E+01  0.91167515269E+02  0.84657420332E+02 0.  0.
         11    1    3    3    0    0  0.13432411962E+02  0.32394174843E+02 -0.33952415079E+02  0.48811666073E+02  0.51100000000E-03 0. -1.
         22    1    1    0    0    0 -0.93029726393E+01 -0.31479947660E+02 -0.81917408671E+01  0.33832484731E+02  0.00000000000E+00 0.  1.
</event>
<event>
 5    1  0.3190780E-003  0.9118800E+02  0.7818608E-02  0.1130116E+00
         25   -1    0    0    0    0  0.00000000000E+00  0.00000000000E+00  0.99999998245E-14  0.12500000000E+03  0.12500000000E+03 0.  0.
        -11    1    3    3    0    0  0.26053916764E+02  0.19272323828E+02  0.10328721296E+02  0.34013402188E+02  0.51100000000E-03 0.  1.
         23    2    1    0    0    0 -0.24501120327E+02 -0.14897140554E+02 -0.19624470181E+01  0.96258377007E+02  0.91867264310E+02 0.  0.
         11    1    3    3    0    0 -0.50555037091E+02 -0.34169464383E+02 -0.12291168314E+02  0.62244974819E+02  0.51100000000E-03 0. -1.
         22    1    1    0    0    0  0.24501120327E+02  0.14897140554E+02  0.19624470181E+01  0.28741622993E+02  0.00000000000E+00 0. -1.
</event>
<event>
 5    1  0.3190780E-003  0.9118800E+02  0.7818608E-02  0.1130116E+00
         25   -1    0    0    0    0  0.00000000000E+00  0.00000000000E+00  0.99999998245E-14  0.12500000000E+03  0.12500000000E+03 0.  0.
        -11    1    3    3    0    0  0.17905321015E+02 -0.53650326917E+02 -0.14566705176E+02  0.58405025460E+02  0.51100000000E-03 0.  1.
         23    2    1    0    0    0  0.53773879514E+01 -0.27372613791E+02  0.88160064996E+01  0.95744261118E+02  0.91165044175E+02 0.  0.
         11    1    3    3    0    0 -0.12527933063E+02  0.26277713126E+02  0.23382711676E+02  0.37339235658E+02  0.51100000000E-03 0. -1.
         22    1    1    0    0    0 -0.53773879514E+01  0.27372613791E+02 -0.88160064996E+01  0.29255738882E+02  0.00000000000E+00 0.  1.
</event>
<event>
 5    1  0.3190780E-003  0.9118800E+02  0.7818608E-02  0.1130116E+00
         25   -1    0    0    0    0  0.00000000000E+00  0.00000000000E+00  0.99999998245E-14  0.12500000000E+03  0.12500000000E+03 0.  0.
        -11    1    3    3    0    0  0.19471748208E+02 -0.60264701201E+01  0.51159232651E+02  0.55070267895E+02  0.51100000000E-03 0. -1.
         23    2    1    0    0    0 -0.10358946221E+02 -0.13312058839E+02  0.20333019565E+02  0.98581249803E+02  0.94975325484E+02 0.  0.
         11    1    3    3    0    0 -0.29830694429E+02 -0.72855887185E+01 -0.30826213086E+02  0.43510981908E+02  0.51100000000E-03 0.  1.
         22    1    1    0    0    0  0.10358946221E+02  0.13312058839E+02 -0.20333019565E+02  0.26418750197E+02  0.00000000000E+00 0. -1.
</event>
<event>
 5    1  0.3190780E-003  0.9118800E+02  0.7818608E-02  0.1130116E+00
         25   -1    0    0    0    0  0.00000000000E+00  0.00000000000E+00  0.99999998245E-14  0.12500000000E+03  0.12500000000E+03 0.  0.
        -11    1    3    3    0    0  0.32329871349E+02  0.15833322232E+02  0.65239756505E+01  0.36585201009E+02  0.51100000000E-03 0.  1.
         23    2    1    0    0    0 -0.26085183707E+02  0.12861942425E+02  0.70327920762E+01  0.95077992441E+02  0.90246873133E+02 0.  0.
         11    1    3    3    0    0 -0.58415055056E+02 -0.29713798074E+01  0.50881642569E+00  0.58492791432E+02  0.51100000000E-03 0. -1.
         22    1    1    0    0    0  0.26085183707E+02 -0.12861942425E+02 -0.70327920762E+01  0.29922007559E+02  0.00000000000E+00 0. -1.
</event>
<event>
 5    1  0.3190780E-003  0.9118800E+02  0.7818608E-02  0.1130116E+00
         25   -1    0    0    0    0  0.00000000000E+00  0.00000000000E+00  0.99999998245E-14  0.12500000000E+03  0.12500000000E+03 0.  0.
        -11    1    3    3    0    0  0.14855818016E+02 -0.37508972305E+02  0.44317472639E+02  0.59930432283E+02  0.51100000000E-03 0. -1.
         23    2    1    0    0    0  0.15949454334E+02 -0.20977129296E+02  0.12433516179E+02  0.95862097337E+02  0.91326471158E+02 0.  0.
         11    1    3    3    0    0  0.10936363182E+01  0.16531843009E+02 -0.31883956460E+02  0.35931665053E+02  0.51100000000E-03 0.  1.
         22    1    1    0    0    0 -0.15949454334E+02  0.20977129296E+02 -0.12433516179E+02  0.29137902663E+02  0.00000000000E+00 0. -1.
</event>
<event>
 5    1  0.3190780E-003  0.9118800E+02  0.7818608E-02  0.1130116E+00
         25   -1    0    0    0    0  0.00000000000E+00  0.00000000000E+00  0.99999998245E-14  0.12500000000E+03  0.12500000000E+03 0.  0.
        -11    1    3    3    0    0 -0.12566792906E+02  0.29711181782E+02 -0.24178563127E+02  0.40314780441E+02  0.51100000000E-03 0.  1.
         23    2    1    0    0    0 -0.28944854570E+02  0.35597409987E+01  0.16593336446E+02  0.91446830604E+02  0.85068840659E+02 0.  0.
         11    1    3    3    0    0 -0.16378061664E+02 -0.26151440784E+02  0.40771899573E+02  0.51132050164E+02  0.51100000000E-03 0. -1.
         22    1    1    0    0    0  0.28944854570E+02 -0.35597409987E+01 -0.16593336446E+02  0.33553169396E+02  0.00000000000E+00 0. -1.
</event>
<event>
 5    1  0.3190780E-003  0.9118800E+02  0.7818608E-02  0.1130116E+00
         25   -1    0    0    0    0  0.00000000000E+00  0.00000000000E+00  0.99999998245E-14  0.12500000000E+03  0.12500000000E+03 0.  0.
        -11    1    3    3    0    0 -0.12730568664E+02 -0.26926637313E+02  0.20100165162E+02  0.35932267049E+02  0.51100000000E-03 0. -1.
         23    2    1    0    0    0  0.25819318576E+02  0.11969269792E+02 -0.48839324255E+01  0.96125211222E+02  0.91685892074E+02 0.  0.
         11    1    3    3    0    0  0.38549887239E+02  0.38895907105E+02 -0.24984097588E+02  0.60192944173E+02  0.51100000000E-03 0.  1.
         22    1    1    0    0    0 -0.25819318576E+02 -0.11969269792E+02  0.48839324255E+01  0.28874788778E+02  0.00000000000E+00 0.  1.
</event>
<event>
 5    1  0.3190780E-003  0.9118800E+02  0.7818608E-02  0.1130116E+00
         25   -1    0    0    0    0  0.00000000000E+00  0.00000000000E+00  0.99999998245E-14  0.12500000000E+03  0.12500000000E+03 0.  0.
        -11    1    3    3    0    0  0.45855469758E+02 -0.50220640506E+01 -0.35628087680E+02  0.58286412362E+02  0.51100000000E-03 0. -1.
         23    2    1    0    0    0  0.15628904203E+02  0.10808735657E+02 -0.24115294857E+02  0.94297575680E+02  0.89159373708E+02 0.  0.
         11    1    3    3    0    0 -0.30226565555E+02  0.15830799708E+02  0.11512792824E+02  0.36011163318E+02  0.51100000000E-03 0.  1.
         22    1    1    0    0    0 -0.15628904203E+02 -0.10808735657E+02  0.24115294857E+02  0.30702424320E+02  0.00000000000E+00 0. -1.
</event>
<event>
 5    1  0.3190780E-003  0.9118800E+02  0.7818608E-02  0.1130116E+00
         25   -1    0    0    0    0  0.00000000000E+00  0.00000000000E+00  0.99999998245E-14  0.12500000000E+03  0.12500000000E+03 0.  0.
        -11    1    3    3    0    0 -0.12168409474E+02  0.21510123608E+02 -0.34534317480E+02  0.42466159361E+02  0.51100000000E-03 0.  1.
         23    2    1    0    0    0 -0.75611321221E+01 -0.25884213189E+02 -0.85567174744E+01  0.96709000984E+02  0.92478377181E+02 0.  0.
         11    1    3    3    0    0  0.46072773520E+01 -0.47394336797E+02  0.25977600006E+02  0.54242841623E+02  0.51100000000E-03 0. -1.
         22    1    1    0    0    0  0.75611321221E+01  0.25884213189E+02  0.85567174744E+01  0.28290999016E+02  0.00000000000E+00 0.  1.
</event>
<event>
 5    1  0.3190780E-003  0.9118800E+02  0.7818608E-02  0.1130116E+00
         25   -1    0    0    0    0  0.00000000000E+00  0.00000000000E+00  0.99999998245E-14  0.12500000000E+03  0.12500000000E+03 0.  0.
        -11    1    3    3    0    0 -0.14989924358E+02 -0.55840696697E+01  0.45120905507E+02  0.47872495030E+02  0.51100000000E-03 0. -1.
         23    2    1    0    0    0 -0.81404071428E+01 -0.26786768690E+02  0.13704252511E+01  0.96970100417E+02  0.92830625895E+02 0.  0.
         11    1    3    3    0    0  0.68495172150E+01 -0.21202699020E+02 -0.43750480256E+02  0.49097605387E+02  0.51100000000E-03 0.  1.
         22    1    1    0    0    0  0.81404071428E+01  0.26786768690E+02 -0.13704252511E+01  0.28029899583E+02  0.00000000000E+00 0. -1.
</event>
<event>
 5    1  0.3190780E-003  0.9118800E+02  0.7818608E-02  0.1130116E+00
         25   -1    0    0    0    0  0.00000000000E+00  0.00000000000E+00  0.99999998245E-14  0.12500000000E+03  0.12500000000E+03 0.  0.
        -11    1    3    3    0    0 -0.43362737309E+02  0.20569407689E+01 -0.22648716269E+01  0.43470537563E+02  0.51100000000E-03 0.  1.
         23    2    1    0    0    0 -0.20613280368E+01  0.27656482385E+02  0.12955283261E+02  0.94390043196E+02  0.89288917560E+02 0.  0.
         11    1    3    3    0    0  0.41301409272E+02  0.25599541616E+02  0.15220154887E+02  0.50919505633E+02  0.51100000000E-03 0. -1.
         22    1    1    0    0    0  0.20613280368E+01 -0.27656482385E+02 -0.12955283261E+02  0.30609956804E+02  0.00000000000E+00 0.  1.
</event>
<event>
 5    1  0.3190780E-003  0.9118800E+02  0.7818608E-02  0.1130116E+00
         25   -1    0    0    0    0  0.00000000000E+00  0.00000000000E+00  0.99999998245E-14  0.12500000000E+03  0.12500000000E+03 0.  0.
        -11    1    3    3    0    0 -0.10171648951E+02 -0.46169058856E+02  0.36063992823E+02  0.59461382566E+02  0.51100000000E-03 0.  1.
         23    2    1    0    0    0  0.74405220096E+01 -0.26479695642E+02  0.12798092943E+02  0.94663111036E+02  0.89670383956E+02 0.  0.
         11    1    3    3    0    0  0.17612170961E+02  0.19689363214E+02 -0.23265899880E+02  0.35201728470E+02  0.51100000000E-03 0. -1.
         22    1    1    0    0    0 -0.74405220096E+01  0.26479695642E+02 -0.12798092943E+02  0.30336888964E+02  0.00000000000E+00 0.  1.
</event>
<event>
 5    1  0.3190780E-003  0.9118800E+02  0.7818608E-02  0.1130116E+00
         25   -1    0    0    0    0  0.00000000000E+00  0.00000000000E+00  0.99999998245E-14  0.12500000000E+03  0.12500000000E+03 0.  0.
        -11    1    3    3    0    0 -0.21651526992E+02 -0.16726318566E+02 -0.33831961832E+02  0.43510458462E+02  0.51100000000E-03 0. -1.
         23    2    1    0    0    0  0.14813694888E+02 -0.22848499128E+02  0.52020605985E+01  0.97277069002E+02  0.93243054704E+02 0.  0.
         11    1    3    3    0    0  0.36465221880E+02 -0.61221805621E+01  0.39034022431E+02  0.53766610540E+02  0.51100000000E-03 0.  1.
         22    1    1    0    0    0 -0.14813694888E+02  0.22848499128E+02 -0.52020605985E+01  0.27722930998E+02  0.00000000000E+00 0.  1.
</event>
<event>
 5    1  0.3190780E-003  0.9118800E+02  0.7818608E-02  0.1130116E+00
         25   -1    0    0    0    0  0.00000000000E+00  0.00000000000E+00  0.99999998245E-14  0.12500000000E+03  0.12500000000E+03 0.  0.
        -11    1    3    3    0    0 -0.46193685037E+02 -0.22710592829E+02  0.35471194620E+00  0.51475755311E+02  0.51100000000E-03 0.  1.
         23    2    1    0    0    0 -0.23107426525E+02  0.15118087324E+02 -0.72739929738E+01  0.96444427886E+02  0.92120068235E+02 0.  0.
         11    1    3    3    0    0  0.23086258512E+02  0.37828680153E+02 -0.76287049200E+01  0.44968672576E+02  0.51100000000E-03 0. -1.
         22    1    1    0    0    0  0.23107426525E+02 -0.15118087324E+02  0.72739929738E+01  0.28555572114E+02  0.00000000000E+00 0.  1.
</event>
<event>
 5    1  0.3190780E-003  0.9118800E+02  0.7818608E-02  0.1130116E+00
         25   -1    0    0    0    0  0.00000000000E+00  0.00000000000E+00  0.99999998245E-14  0.12500000000E+03  0.12500000000E+03 0.  0.
        -11    1    3    3    0    0  0.41807538759E+01 -0.49148329577E+02 -0.17988984884E+02  0.52503719684E+02  0.51100000000E-03 0.  1.
         23    2    1    0    0    0 -0.13593552129E+02 -0.10114792361E+02 -0.23799178003E+02  0.95785370829E+02  0.91221393912E+02 0.  0.
         11    1    3    3    0    0 -0.17774306005E+02  0.39033537216E+02 -0.58101931188E+01  0.43281651145E+02  0.51100000000E-03 0. -1.
         22    1    1    0    0    0  0.13593552129E+02  0.10114792361E+02  0.23799178003E+02  0.29214629171E+02  0.00000000000E+00 0. -1.
</event>
<event>
 5    1  0.3190780E-003  0.9118800E+02  0.7818608E-02  0.1130116E+00
         25   -1    0    0    0    0  0.00000000000E+00  0.00000000000E+00  0.99999998245E-14  0.12500000000E+03  0.12500000000E+03 0.  0.
        -11    1    3    3    0    0 -0.34626656041E+02  0.20448307443E+02  0.15219903248E+02  0.42997488776E+02  0.51100000000E-03 0.  1.
         23    2    1    0    0    0 -0.14772237051E+02 -0.14766404330E+02 -0.19603714876E+02  0.96354383908E+02  0.91997804197E+02 0.  0.
         11    1    3    3    0    0  0.19854418990E+02 -0.35214711773E+02 -0.34823618124E+02  0.53356895133E+02  0.51100000000E-03 0. -1.
         22    1    1    0    0    0  0.14772237051E+02  0.14766404330E+02  0.19603714876E+02  0.28645616092E+02  0.00000000000E+00 0.  1.
</event>
<event>
 5    1  0.3190780E-003  0.9118800E+02  0.7818608E-02  0.1130116E+00
         25   -1    0    0    0    0  0.00000000000E+00  0.00000000000E+00  0.99999998245E-14  0.12500000000E+03  0.12500000000E+03 0.  0.
        -11    1    3    3    0    0 -0.11764651774E+02  0.43359548563E+02  0.25291612328E+02  0.51556989220E+02  0.51100000000E-03 0.  1.
         23    2    1    0    0    0 -0.26180705955E+02  0.33143096831E+01  0.96312246546E+01  0.96907750156E+02  0.92746630876E+02 0.  0.
         11    1    3    3    0    0 -0.14416054181E+02 -0.40045238880E+02 -0.15660387674E+02  0.45350760936E+02  0.51100000000E-03 0. -1.
         22    1    1    0    0    0  0.26180705955E+02 -0.33143096831E+01 -0.96312246546E+01  0.28092249844E+02  0.00000000000E+00 0.  1.
</event>
<event>
 5    1  0.3190780E-003  0.9118800E+02  0.7818608E-02  0.1130116E+00
         25   -1    0    0    0    0  0.00000000000E+00  0.00000000000E+00  0.99999998245E-14  0.12500000000E+03  0.12500000000E+03 0.  0.
        -11    1    3    3    0    0 -0.21502682859E+02  0.45071570921E+02  0.12161702781E+02  0.51397654521E+02  0.51100000000E-03 0.  1.
         23    2    1    0    0    0 -0.62310470773E+01  0.17427039747E+02 -0.20875214800E+02  0.97101930981E+02  0.93007971407E+02 0.  0.
         11    1    3    3    0    0  0.15271635782E+02 -0.27644531173E+02 -0.33036917581E+02  0.45704276460E+02  0.51100000000E-03 0. -1.
         22    1    1    0    0    0  0.62310470773E+01 -0.17427039747E+02  0.20875214800E+02  0.27898069019E+02  0.00000000000E+00 0.  1.
</event>
<event>
 5    1  0.3190780E-003  0.9118800E+02  0.7818608E-02  0.1130116E+00
         25   -1    0    0    0    0  0.00000000000E+00  0.00000000000E+00  0.99999998245E-14  0.12500000000E+03  0.12500000000E+03 0.  0.
        -11    1    3    3    0    0 -0.54976750177E+01  0.14065440601E+02  0.39701679294E+02  0.42476868869E+02  0.51100000000E-03 0. -1.
         23    2    1    0    0    0  0.19409697599E+02  0.21869131996E+02 -0.60407185311E+01  0.95142244299E+02  0.90335823872E+02 0.  0.
         11    1    3    3    0    0  0.24907372617E+02  0.78036913951E+01 -0.45742397825E+02  0.52665375430E+02  0.51100000000E-03 0.  1.
         22    1    1    0    0    0 -0.19409697599E+02 -0.21869131996E+02  0.60407185311E+01  0.29857755701E+02  0.00000000000E+00 0.  1.
</event>
<event>
 5    1  0.3190780E-003  0.9118800E+02  0.7818608E-02  0.1130116E+00
         25   -1    0    0    0    0  0.00000000000E+00  0.00000000000E+00  0.99999998245E-14  0.12500000000E+03  0.12500000000E+03 0.  0.
        -11    1    3    3    0    0 -0.27776564004E+02  0.41302984265E+02  0.20806124404E-01  0.49774234802E+02  0.51100000000E-03 0. -1.
         23    2    1    0    0    0  0.56719803645E+01  0.21467682394E+02  0.21409047453E+02  0.94155550556E+02  0.88960033943E+02 0.  0.
         11    1    3    3    0    0  0.33448544368E+02 -0.19835301870E+02  0.21388241329E+02  0.44381315754E+02  0.51100000000E-03 0.  1.
         22    1    1    0    0    0 -0.56719803645E+01 -0.21467682394E+02 -0.21409047453E+02  0.30844449444E+02  0.00000000000E+00 0. -1.
</event>
<event>
 5    1  0.3190780E-003  0.9118800E+02  0.7818608E-02  0.1130116E+00
         25   -1    0    0    0    0  0.00000000000E+00  0.00000000000E+00  0.99999998245E-14  0.12500000000E+03  0.12500000000E+03 0.  0.
        -11    1    3    3    0    0 -0.81123149155E+01 -0.19789483041E+02  0.29649073681E+02  0.36558184620E+02  0.51100000000E-03 0.  1.
         23    2    1    0    0    0  0.20208487410E+02 -0.14257001571E+01 -0.19959432648E+02  0.96560686789E+02  0.92277687970E+02 0.  0.
         11    1    3    3    0    0  0.28320802325E+02  0.18363782884E+02 -0.49608506328E+02  0.60002502169E+02  0.51100000000E-03 0. -1.
         22    1    1    0    0    0 -0.20208487410E+02  0.14257001571E+01  0.19959432648E+02  0.28439313211E+02  0.00000000000E+00 0. -1.
</event>
<event>
 5    1  0.3190780E-003  0.9118800E+02  0.7818608E-02  0.1130116E+00
         25   -1    0    0    0    0  0.00000000000E+00  0.00000000000E+00  0.99999998245E-14  0.12500000000E+03  0.12500000000E+03 0.  0.
        -11    1    3    3    0    0  0.49436992141E+02 -0.14764800645E+02  0.21061434939E+02  0.55727906582E+02  0.51100000000E-03 0. -1.
         23    2    1    0    0    0  0.19961575529E+02 -0.23754342851E+02 -0.15248468995E+01  0.93934609934E+02  0.88649041075E+02 0.  0.
         11    1    3    3    0    0 -0.29475416612E+02 -0.89895422056E+01 -0.22586281838E+02  0.38206703353E+02  0.51100000000E-03 0.  1.
         22    1    1    0    0    0 -0.19961575529E+02  0.23754342851E+02  0.15248468995E+01  0.31065390066E+02  0.00000000000E+00 0. -1.
</event>
<event>
 5    1  0.3190780E-003  0.9118800E+02  0.7818608E-02  0.1130116E+00
         25   -1    0    0    0    0  0.00000000000E+00  0.00000000000E+00  0.99999998245E-14  0.12500000000E+03  0.12500000000E+03 0.  0.
        -11    1    3    3    0    0  0.51783960511E+02  0.18150251961E+02  0.11836175322E+02  0.56134706368E+02  0.51100000000E-03 0.  1.
         23    2    1    0    0    0  0.14082428268E+02  0.25777051402E+02  0.54064628886E+01  0.95133614114E+02  0.90323881275E+02 0.  0.
         11    1    3    3    0    0 -0.37701532243E+02  0.76267994409E+01 -0.64297124338E+01  0.38998907747E+02  0.51100000000E-03 0. -1.
         22    1    1    0    0    0 -0.14082428268E+02 -0.25777051402E+02 -0.54064628886E+01  0.29866385886E+02  0.00000000000E+00 0.  1.
</event>
<event>
 5    1  0.3190780E-003  0.9118800E+02  0.7818608E-02  0.1130116E+00
         25   -1    0    0    0    0  0.00000000000E+00  0.00000000000E+00  0.99999998245E-14  0.12500000000E+03  0.12500000000E+03 0.  0.
        -11    1    3    3    0    0 -0.30609068966E+02  0.47237882903E+02 -0.15044499235E+02  0.58263793573E+02  0.51100000000E-03 0.  1.
         23    2    1    0    0    0 -0.21022586143E+01  0.21242597125E+02 -0.18166837156E+02  0.96969634391E+02  0.92829998373E+02 0.  0.
         11    1    3    3    0    0  0.28506810351E+02 -0.25995285778E+02 -0.31223379208E+01  0.38705840818E+02  0.51100000000E-03 0. -1.
         22    1    1    0    0    0  0.21022586143E+01 -0.21242597125E+02  0.18166837156E+02  0.28030365609E+02  0.00000000000E+00 0.  1.
</event>
<event>
 5    1  0.3190780E-003  0.9118800E+02  0.7818608E-02  0.1130116E+00
         25   -1    0    0    0    0  0.00000000000E+00  0.00000000000E+00  0.99999998245E-14  0.12500000000E+03  0.12500000000E+03 0.  0.
        -11    1    3    3    0    0  0.18499155518E+02 -0.55891056721E+02 -0.12056938979E+02  0.60094914544E+02  0.51100000000E-03 0.  1.
         23    2    1    0    0    0  0.11081690798E+02 -0.19499434582E+02 -0.16008695753E+02  0.97444416906E+02  0.93467129123E+02 0.  0.
         11    1    3    3    0    0 -0.74174647195E+01  0.36391622139E+02 -0.39517567738E+01  0.37349502362E+02  0.51100000000E-03 0. -1.
         22    1    1    0    0    0 -0.11081690798E+02  0.19499434582E+02  0.16008695753E+02  0.27555583094E+02  0.00000000000E+00 0.  1.
</event>
<event>
 5    1  0.3190780E-003  0.9118800E+02  0.7818608E-02  0.1130116E+00
         25   -1    0    0    0    0  0.00000000000E+00  0.00000000000E+00  0.99999998245E-14  0.12500000000E+03  0.12500000000E+03 0.  0.
        -11    1    3    3    0    0  0.30879737193E+02 -0.22668684990E+02 -0.46451368181E+01  0.38587624242E+02  0.51100000000E-03 0. -1.
         23    2    1    0    0    0 -0.10919072901E+02  0.87337879958E+01 -0.26330542662E+02  0.95187206058E+02  0.90398017204E+02 0.  0.
         11    1    3    3    0    0 -0.41798810093E+02  0.31402472986E+02 -0.21685405844E+02  0.56599581816E+02  0.51100000000E-03 0.  1.
         22    1    1    0    0    0  0.10919072901E+02 -0.87337879958E+01  0.26330542662E+02  0.29812793942E+02  0.00000000000E+00 0.  1.
</event>
<event>
 5    1  0.3190780E-003  0.9118800E+02  0.7818608E-02  0.1130116E+00
         25   -1    0    0    0    0  0.00000000000E+00  0.00000000000E+00  0.99999998245E-14  0.12500000000E+03  0.12500000000E+03 0.  0.
        -11    1    3    3    0    0  0.36534226869E+02  0.57467873916E+01 -0.67953417268E+01  0.37602552676E+02  0.51100000000E-03 0. -1.
         23    2    1    0    0    0 -0.20652320576E+02  0.17334178192E+02 -0.10490937538E+02  0.96068151646E+02  0.91608066847E+02 0.  0.
         11    1    3    3    0    0 -0.57186547446E+02  0.11587390800E+02 -0.36955958112E+01  0.58465598970E+02  0.51100000000E-03 0.  1.
         22    1    1    0    0    0  0.20652320576E+02 -0.17334178192E+02  0.10490937538E+02  0.28931848354E+02  0.00000000000E+00 0.  1.
</event>
<event>
 5    1  0.3190780E-003  0.9118800E+02  0.7818608E-02  0.1130116E+00
         25   -1    0    0    0    0  0.00000000000E+00  0.00000000000E+00  0.99999998245E-14  0.12500000000E+03  0.12500000000E+03 0.  0.
        -11    1    3    3    0    0 -0.45179603164E+02 -0.92231126830E+01  0.89333760293E+01  0.46968793440E+02  0.51100000000E-03 0.  1.
         23    2    1    0    0    0 -0.64870208562E+01 -0.22082250768E+02 -0.17954559506E+02  0.95809702886E+02  0.91254729858E+02 0.  0.
         11    1    3    3    0    0  0.38692582308E+02 -0.12859138085E+02 -0.26887935535E+02  0.48840909446E+02  0.51100000000E-03 0. -1.
         22    1    1    0    0    0  0.64870208562E+01  0.22082250768E+02  0.17954559506E+02  0.29190297114E+02  0.00000000000E+00 0.  1.
</event>
<event>
 5    1  0.3190780E-003  0.9118800E+02  0.7818608E-02  0.1130116E+00
         25   -1    0    0    0    0  0.00000000000E+00  0.00000000000E+00  0.99999998245E-14  0.12500000000E+03  0.12500000000E+03 0.  0.
        -11    1    3    3    0    0  0.26086816473E+02 -0.14655682394E+02 -0.31994325980E+02  0.43805797737E+02  0.51100000000E-03 0. -1.
         23    2    1    0    0    0  0.52867079182E+01 -0.94642549806E+01  0.21217286836E+02  0.10117365610E+03  0.98328093773E+02 0.  0.
         11    1    3    3    0    0 -0.20800108555E+02  0.51914274137E+01  0.53211612816E+02  0.57367858364E+02  0.51100000000E-03 0.  1.
         22    1    1    0    0    0 -0.52867079182E+01  0.94642549806E+01 -0.21217286836E+02  0.23826343900E+02  0.00000000000E+00 0.  1.
</event>
<event>
 5    1  0.3190780E-003  0.9118800E+02  0.7818608E-02  0.1130116E+00
         25   -1    0    0    0    0  0.00000000000E+00  0.00000000000E+00  0.99999998245E-14  0.12500000000E+03  0.12500000000E+03 0.  0.
        -11    1    3    3    0    0 -0.20333196261E+02  0.12833000987E+02 -0.12359213224E+02  0.27034698747E+02  0.51100000000E-03 0.  1.
         23    2    1    0    0    0  0.30123933875E+02  0.39126907597E+01  0.20905000099E+02  0.88124810913E+02  0.80038757662E+02 0.  0.
         11    1    3    3    0    0  0.50457130137E+02 -0.89203102273E+01  0.33264213323E+02  0.61090112166E+02  0.51100000000E-03 0. -1.
         22    1    1    0    0    0 -0.30123933875E+02 -0.39126907597E+01 -0.20905000099E+02  0.36875189087E+02  0.00000000000E+00 0. -1.
</event>
<event>
 5    1  0.3190780E-003  0.9118800E+02  0.7818608E-02  0.1130116E+00
         25   -1    0    0    0    0  0.00000000000E+00  0.00000000000E+00  0.99999998245E-14  0.12500000000E+03  0.12500000000E+03 0.  0.
        -11    1    3    3    0    0 -0.20350313856E+02 -0.11202890208E+02 -0.32944230171E+02  0.40310821436E+02  0.51100000000E-03 0. -1.
         23    2    1    0    0    0  0.17290154134E+02 -0.14960575043E+02  0.12099772122E+02  0.99131627013E+02  0.95696952685E+02 0.  0.
         11    1    3    3    0    0  0.37640467991E+02 -0.37576848349E+01  0.45044002293E+02  0.58820805577E+02  0.51100000000E-03 0.  1.
         22    1    1    0    0    0 -0.17290154134E+02  0.14960575043E+02 -0.12099772122E+02  0.25868372987E+02  0.00000000000E+00 0.  1.
</event>
<event>
 5    1  0.3190780E-003  0.9118800E+02  0.7818608E-02  0.1130116E+00
         25   -1    0    0    0    0  0.00000000000E+00  0.00000000000E+00  0.99999998245E-14  0.12500000000E+03  0.12500000000E+03 0.  0.
        -11    1    3    3    0    0 -0.38095073978E+02  0.45200784318E+02 -0.37484852648E+00  0.59114178299E+02  0.51100000000E-03 0.  1.
         23    2    1    0    0    0 -0.25149435514E+02  0.10551975703E+02 -0.73482581889E+01  0.96754023360E+02  0.92539212446E+02 0.  0.
         11    1    3    3    0    0  0.12945638464E+02 -0.34648808615E+02 -0.69734096624E+01  0.37639845061E+02  0.51100000000E-03 0. -1.
         22    1    1    0    0    0  0.25149435514E+02 -0.10551975703E+02  0.73482581889E+01  0.28245976640E+02  0.00000000000E+00 0.  1.
</event>
<event>
 5    1  0.3190780E-003  0.9118800E+02  0.7818608E-02  0.1130116E+00
         25   -1    0    0    0    0  0.00000000000E+00  0.00000000000E+00  0.99999998245E-14  0.12500000000E+03  0.12500000000E+03 0.  0.
        -11    1    3    3    0    0  0.31634215578E+02  0.22226906173E+02 -0.27687935821E+02  0.47553977158E+02  0.51100000000E-03 0.  1.
         23    2    1    0    0    0  0.39433169719E+02 -0.55252810305E+01 -0.37848521747E+01  0.85002141176E+02  0.75003568542E+02 0.  0.
         11    1    3    3    0    0  0.77989541405E+01 -0.27752187203E+02  0.23903083646E+02  0.37448164018E+02  0.51100000000E-03 0. -1.
         22    1    1    0    0    0 -0.39433169719E+02  0.55252810305E+01  0.37848521747E+01  0.39997858824E+02  0.00000000000E+00 0. -1.
</event>
<event>
 5    1  0.3190780E-003  0.9118800E+02  0.7818608E-02  0.1130116E+00
         25   -1    0    0    0    0  0.00000000000E+00  0.00000000000E+00  0.99999998245E-14  0.12500000000E+03  0.12500000000E+03 0.  0.
        -11    1    3    3    0    0  0.38602257413E+02  0.21481089186E+01 -0.45410073561E+02  0.59639109906E+02  0.51100000000E-03 0.  1.
         23    2    1    0    0    0  0.26071777299E+02 -0.28560893454E+01 -0.11075670601E+02  0.96529571532E+02  0.92235529397E+02 0.  0.
         11    1    3    3    0    0 -0.12530480114E+02 -0.50041982640E+01  0.34334402960E+02  0.36890461626E+02  0.51100000000E-03 0. -1.
         22    1    1    0    0    0 -0.26071777299E+02  0.28560893454E+01  0.11075670601E+02  0.28470428468E+02  0.00000000000E+00 0.  1.
</event>
<event>
 5    1  0.3190780E-003  0.9118800E+02  0.7818608E-02  0.1130116E+00
         25   -1    0    0    0    0  0.00000000000E+00  0.00000000000E+00  0.99999998245E-14  0.12500000000E+03  0.12500000000E+03 0.  0.
        -11    1    3    3    0    0 -0.25545819060E+02  0.73929234174E+01 -0.32396006729E+02  0.41913547218E+02  0.51100000000E-03 0. -1.
         23    2    1    0    0    0 -0.18154014425E+02 -0.53428529705E+01  0.20664647611E+02  0.96979614947E+02  0.92843436692E+02 0.  0.
         11    1    3    3    0    0  0.73918046346E+01 -0.12735776388E+02  0.53060654340E+02  0.55066067730E+02  0.51100000000E-03 0.  1.
         22    1    1    0    0    0  0.18154014425E+02  0.53428529705E+01 -0.20664647611E+02  0.28020385053E+02  0.00000000000E+00 0.  1.
</event>
<event>
 5    1  0.3190780E-003  0.9118800E+02  0.7818608E-02  0.1130116E+00
         25   -1    0    0    0    0  0.00000000000E+00  0.00000000000E+00  0.99999998245E-14  0.12500000000E+03  0.12500000000E+03 0.  0.
        -11    1    3    3    0    0 -0.33190713920E+02 -0.40175688994E+02 -0.25444591292E+02  0.57992557306E+02  0.51100000000E-03 0.  1.
         23    2    1    0    0    0 -0.37365634118E+01 -0.18422535416E+02 -0.23835448162E+02  0.94644105904E+02  0.89643886997E+02 0.  0.
         11    1    3    3    0    0  0.29454150508E+02  0.21753153577E+02  0.16091431294E+01  0.36651548597E+02  0.51100000000E-03 0. -1.
         22    1    1    0    0    0  0.37365634118E+01  0.18422535416E+02  0.23835448162E+02  0.30355894096E+02  0.00000000000E+00 0.  1.
</event>
<event>
 5    1  0.3190780E-003  0.9118800E+02  0.7818608E-02  0.1130116E+00
         25   -1    0    0    0    0  0.00000000000E+00  0.00000000000E+00  0.99999998245E-14  0.12500000000E+03  0.12500000000E+03 0.  0.
        -11    1    3    3    0    0 -0.12257028050E+02 -0.13549196669E+02 -0.38200326418E+02  0.42344780147E+02  0.51100000000E-03 0. -1.
         23    2    1    0    0    0  0.37849293689E+01  0.28240493274E+02 -0.13495762571E+02  0.93472444464E+02  0.87994949378E+02 0.  0.
         11    1    3    3    0    0  0.16041957419E+02  0.41789689943E+02  0.24704563847E+02  0.51127664317E+02  0.51100000000E-03 0.  1.
         22    1    1    0    0    0 -0.37849293689E+01 -0.28240493274E+02  0.13495762571E+02  0.31527555536E+02  0.00000000000E+00 0.  1.
</event>
<event>
 5    1  0.3190780E-003  0.9118800E+02  0.7818608E-02  0.1130116E+00
         25   -1    0    0    0    0  0.00000000000E+00  0.00000000000E+00  0.99999998245E-14  0.12500000000E+03  0.12500000000E+03 0.  0.
        -11    1    3    3    0    0  0.11501062881E+02 -0.50947159870E+02  0.14437014048E+02  0.54187774646E+02  0.51100000000E-03 0. -1.
         23    2    1    0    0    0  0.25679857156E+02 -0.12950171473E+02  0.65283927852E+01  0.95507934676E+02  0.90840429705E+02 0.  0.
         11    1    3    3    0    0  0.14178794274E+02  0.37996988397E+02 -0.79086212628E+01  0.41320160030E+02  0.51100000000E-03 0.  1.
         22    1    1    0    0    0 -0.25679857156E+02  0.12950171473E+02 -0.65283927852E+01  0.29492065324E+02  0.00000000000E+00 0. -1.
</event>
<event>
 5    1  0.3190780E-003  0.9118800E+02  0.7818608E-02  0.1130116E+00
         25   -1    0    0    0    0  0.00000000000E+00  0.00000000000E+00  0.99999998245E-14  0.12500000000E+03  0.12500000000E+03 0.  0.
        -11    1    3    3    0    0  0.29748914263E+02  0.27751384691E+02 -0.90149264227E+01  0.41670206992E+02  0.51100000000E-03 0. -1.
         23    2    1    0    0    0  0.11468899777E+02 -0.19276578005E+02  0.15469016900E+02  0.97752750496E+02  0.93878579154E+02 0.  0.
         11    1    3    3    0    0 -0.18280014486E+02 -0.47027962696E+02  0.24483943323E+02  0.56082543504E+02  0.51100000000E-03 0.  1.
         22    1    1    0    0    0 -0.11468899777E+02  0.19276578005E+02 -0.15469016900E+02  0.27247249504E+02  0.00000000000E+00 0. -1.
</event>
<event>
 5    1  0.3190780E-003  0.9118800E+02  0.7818608E-02  0.1130116E+00
         25   -1    0    0    0    0  0.00000000000E+00  0.00000000000E+00  0.99999998245E-14  0.12500000000E+03  0.12500000000E+03 0.  0.
        -11    1    3    3    0    0 -0.56893408224E+02 -0.53742626739E+01 -0.10370065881E+02  0.58079952353E+02  0.51100000000E-03 0.  1.
         23    2    1    0    0    0 -0.25629895870E+02 -0.18744659034E+02 -0.15433729091E+01  0.93209501348E+02  0.87620633055E+02 0.  0.
         11    1    3    3    0    0  0.31263512354E+02 -0.13370396360E+02  0.88266929722E+01  0.35129548996E+02  0.51100000000E-03 0. -1.
         22    1    1    0    0    0  0.25629895870E+02  0.18744659034E+02  0.15433729091E+01  0.31790498652E+02  0.00000000000E+00 0.  1.
</event>
<event>
 5    1  0.3190780E-003  0.9118800E+02  0.7818608E-02  0.1130116E+00
         25   -1    0    0    0    0  0.00000000000E+00  0.00000000000E+00  0.99999998245E-14  0.12500000000E+03  0.12500000000E+03 0.  0.
        -11    1    3    3    0    0 -0.26063747065E+02  0.52224671778E+01  0.13916698915E+01  0.26618223453E+02  0.51100000000E-03 0. -1.
         23    2    1    0    0    0  0.93708467903E+01 -0.31761469532E+02  0.25477708982E+02  0.83218217231E+02  0.71969120515E+02 0.  0.
         11    1    3    3    0    0  0.35434593855E+02 -0.36983936710E+02  0.24086039091E+02  0.56599993777E+02  0.51100000000E-03 0.  1.
         22    1    1    0    0    0 -0.93708467903E+01  0.31761469532E+02 -0.25477708982E+02  0.41781782769E+02  0.00000000000E+00 0.  1.
</event>
<event>
 5    1  0.3190780E-003  0.9118800E+02  0.7818608E-02  0.1130116E+00
         25   -1    0    0    0    0  0.00000000000E+00  0.00000000000E+00  0.99999998245E-14  0.12500000000E+03  0.12500000000E+03 0.  0.
        -11    1    3    3    0    0  0.37893263305E+02  0.32993757158E+02  0.33035606681E+02  0.60131844511E+02  0.51100000000E-03 0. -1.
         23    2    1    0    0    0  0.23637497226E+02  0.77125997654E+01  0.68807081153E+01  0.99201557907E+02  0.95788253334E+02 0.  0.
         11    1    3    3    0    0 -0.14255766079E+02 -0.25281157392E+02 -0.26154898566E+02  0.39069713396E+02  0.51100000000E-03 0.  1.
         22    1    1    0    0    0 -0.23637497226E+02 -0.77125997654E+01 -0.68807081153E+01  0.25798442093E+02  0.00000000000E+00 0. -1.
</event>
<event>
 5    1  0.3190780E-003  0.9118800E+02  0.7818608E-02  0.1130116E+00
         25   -1    0    0    0    0  0.00000000000E+00  0.00000000000E+00  0.99999998245E-14  0.12500000000E+03  0.12500000000E+03 0.  0.
        -11    1    3    3    0    0 -0.24357104488E+02 -0.45216454760E-01 -0.48591860863E+02  0.54354756240E+02  0.51100000000E-03 0. -1.
         23    2    1    0    0    0 -0.17166103435E+02  0.20342214567E+02 -0.14592674450E+02  0.94644984792E+02  0.89645112516E+02 0.  0.
         11    1    3    3    0    0  0.71910010523E+01  0.20387431022E+02  0.33999186412E+02  0.40290228552E+02  0.51100000000E-03 0.  1.
         22    1    1    0    0    0  0.17166103435E+02 -0.20342214567E+02  0.14592674450E+02  0.30355015208E+02  0.00000000000E+00 0. -1.
</event>
<event>
 5    1  0.3190780E-003  0.9118800E+02  0.7818608E-02  0.1130116E+00
         25   -1    0    0    0    0  0.00000000000E+00  0.00000000000E+00  0.99999998245E-14  0.12500000000E+03  0.12500000000E+03 0.  0.
        -11    1    3    3    0    0 -0.54300101958E+02 -0.25913565023E+02 -0.92744873044E+01  0.60877171746E+02  0.51100000000E-03 0.  1.
         23    2    1    0    0    0 -0.23644843268E+02 -0.17482820490E+02  0.39853898466E+01  0.95324910149E+02  0.90588230677E+02 0.  0.
         11    1    3    3    0    0  0.30655258690E+02  0.84307445324E+01  0.13259877151E+02  0.34447738402E+02  0.51100000000E-03 0. -1.
         22    1    1    0    0    0  0.23644843268E+02  0.17482820490E+02 -0.39853898466E+01  0.29675089851E+02  0.00000000000E+00 0.  1.
</event>
<event>
 5    1  0.3190780E-003  0.9118800E+02  0.7818608E-02  0.1130116E+00
         25   -1    0    0    0    0  0.00000000000E+00  0.00000000000E+00  0.99999998245E-14  0.12500000000E+03  0.12500000000E+03 0.  0.
        -11    1    3    3    0    0  0.25867210788E+02  0.41323986568E+01  0.22988062497E+02  0.34851690493E+02  0.51100000000E-03 0.  1.
         23    2    1    0    0    0 -0.13441391886E+01 -0.76671058059E+01 -0.29146209975E+02  0.94832256009E+02  0.89905861890E+02 0.  0.
         11    1    3    3    0    0 -0.27211349977E+02 -0.11799504463E+02 -0.52134272472E+02  0.59980565516E+02  0.51100000000E-03 0. -1.
         22    1    1    0    0    0  0.13441391886E+01  0.76671058059E+01  0.29146209975E+02  0.30167743991E+02  0.00000000000E+00 0. -1.
</event>
<event>
 5    1  0.3190780E-003  0.9118800E+02  0.7818608E-02  0.1130116E+00
         25   -1    0    0    0    0  0.00000000000E+00  0.00000000000E+00  0.99999998245E-14  0.12500000000E+03  0.12500000000E+03 0.  0.
        -11    1    3    3    0    0  0.33587604423E+02 -0.15792710586E+01 -0.40563979038E+02  0.52688306707E+02  0.51100000000E-03 0. -1.
         23    2    1    0    0    0  0.12961181422E+02 -0.24013290788E+02 -0.97617013938E+01  0.96018606445E+02  0.91540437027E+02 0.  0.
         11    1    3    3    0    0 -0.20626423001E+02 -0.22434019729E+02  0.30802277644E+02  0.43330299738E+02  0.51100000000E-03 0.  1.
         22    1    1    0    0    0 -0.12961181422E+02  0.24013290788E+02  0.97617013938E+01  0.28981393555E+02  0.00000000000E+00 0.  1.
</event>
<event>
 5    1  0.3190780E-003  0.9118800E+02  0.7818608E-02  0.1130116E+00
         25   -1    0    0    0    0  0.00000000000E+00  0.00000000000E+00  0.99999998245E-14  0.12500000000E+03  0.12500000000E+03 0.  0.
        -11    1    3    3    0    0 -0.50893053488E+02  0.31653424314E+02  0.12180465942E+01  0.59946024071E+02  0.51100000000E-03 0.  1.
         23    2    1    0    0    0 -0.27344502757E+02  0.77756671832E+01 -0.92932866488E+01  0.95091004565E+02  0.90264894291E+02 0.  0.
         11    1    3    3    0    0  0.23548550731E+02 -0.23877757131E+02 -0.10511333243E+02  0.35144980494E+02  0.51100000000E-03 0. -1.
         22    1    1    0    0    0  0.27344502757E+02 -0.77756671832E+01  0.92932866488E+01  0.29908995435E+02  0.00000000000E+00 0.  1.
</event>
<event>
 5    1  0.3190780E-003  0.9118800E+02  0.7818608E-02  0.1130116E+00
         25   -1    0    0    0    0  0.00000000000E+00  0.00000000000E+00  0.99999998245E-14  0.12500000000E+03  0.12500000000E+03 0.  0.
        -11    1    3    3    0    0  0.32929974829E+01 -0.21566987899E+02 -0.46938781522E+02  0.51761259746E+02  0.51100000000E-03 0.  1.
         23    2    1    0    0    0 -0.78696237969E+01  0.14549780076E+02 -0.23573468458E+02  0.96201814396E+02  0.91790269631E+02 0.  0.
         11    1    3    3    0    0 -0.11162621280E+02  0.36116767975E+02  0.23365313064E+02  0.44440554650E+02  0.51100000000E-03 0. -1.
         22    1    1    0    0    0  0.78696237969E+01 -0.14549780076E+02  0.23573468458E+02  0.28798185604E+02  0.00000000000E+00 0.  1.
</event>
<event>
 5    1  0.3190780E-003  0.9118800E+02  0.7818608E-02  0.1130116E+00
         25   -1    0    0    0    0  0.00000000000E+00  0.00000000000E+00  0.99999998245E-14  0.12500000000E+03  0.12500000000E+03 0.  0.
        -11    1    3    3    0    0 -0.51519251476E+02 -0.27261467402E+02  0.88626501038E+01  0.58957335801E+02  0.51100000000E-03 0. -1.
         23    2    1    0    0    0 -0.13152971951E+02 -0.22964661012E+02  0.70804018544E+01  0.97604591316E+02  0.93681096433E+02 0.  0.
         11    1    3    3    0    0  0.38366279525E+02  0.42968063896E+01 -0.17822482494E+01  0.38647255515E+02  0.51100000000E-03 0.  1.
         22    1    1    0    0    0  0.13152971951E+02  0.22964661012E+02 -0.70804018544E+01  0.27395408684E+02  0.00000000000E+00 0. -1.
</event>
<event>
 5    1  0.3190780E-003  0.9118800E+02  0.7818608E-02  0.1130116E+00
         25   -1    0    0    0    0  0.00000000000E+00  0.00000000000E+00  0.99999998245E-14  0.12500000000E+03  0.12500000000E+03 0.  0.
        -11    1    3    3    0    0  0.66580204150E+01 -0.10130910447E+02  0.33223993203E+02  0.35366627022E+02  0.51100000000E-03 0.  1.
         23    2    1    0    0    0  0.18841845490E+02  0.11727519062E+02 -0.20597359178E+02  0.94721277274E+02  0.89751430732E+02 0.  0.
         11    1    3    3    0    0  0.12183825075E+02  0.21858429509E+02 -0.53821352381E+02  0.59354650251E+02  0.51100000000E-03 0. -1.
         22    1    1    0    0    0 -0.18841845490E+02 -0.11727519062E+02  0.20597359178E+02  0.30278722726E+02  0.00000000000E+00 0. -1.
</event>
<event>
 5    1  0.3190780E-003  0.9118800E+02  0.7818608E-02  0.1130116E+00
         25   -1    0    0    0    0  0.00000000000E+00  0.00000000000E+00  0.99999998245E-14  0.12500000000E+03  0.12500000000E+03 0.  0.
        -11    1    3    3    0    0  0.17775390490E+01 -0.37026057868E+02  0.38059481913E+02  0.53128267147E+02  0.51100000000E-03 0.  1.
         23    2    1    0    0    0 -0.35914534910E+01  0.45221992282E+01  0.28264204130E+02  0.96151879452E+02  0.91722243012E+02 0.  0.
         11    1    3    3    0    0 -0.53689925400E+01  0.41548257096E+02 -0.97952777834E+01  0.43023612305E+02  0.51100000000E-03 0. -1.
         22    1    1    0    0    0  0.35914534910E+01 -0.45221992282E+01 -0.28264204130E+02  0.28848120548E+02  0.00000000000E+00 0.  1.
</event>
<event>
 5    1  0.3190780E-003  0.9118800E+02  0.7818608E-02  0.1130116E+00
         25   -1    0    0    0    0  0.00000000000E+00  0.00000000000E+00  0.99999998245E-14  0.12500000000E+03  0.12500000000E+03 0.  0.
        -11    1    3    3    0    0  0.22014300514E+02 -0.18701141554E+02  0.17289055594E+02  0.33664128774E+02  0.51100000000E-03 0.  1.
         23    2    1    0    0    0 -0.19245978226E+02  0.22225340674E+02 -0.35138578219E+01  0.95390531198E+02  0.90678733998E+02 0.  0.
         11    1    3    3    0    0 -0.41260278740E+02  0.40926482228E+02 -0.20802913416E+02  0.61726402423E+02  0.51100000000E-03 0. -1.
         22    1    1    0    0    0  0.19245978226E+02 -0.22225340674E+02  0.35138578219E+01  0.29609468802E+02  0.00000000000E+00 0. -1.
</event>
<event>
 5    1  0.3190780E-003  0.9118800E+02  0.7818608E-02  0.1130116E+00
         25   -1    0    0    0    0  0.00000000000E+00  0.00000000000E+00  0.99999998245E-14  0.12500000000E+03  0.12500000000E+03 0.  0.
        -11    1    3    3    0    0  0.35144726404E+02 -0.31904468042E+02 -0.29279021096E+02  0.55770134944E+02  0.51100000000E-03 0.  1.
         23    2    1    0    0    0  0.29019435006E+02 -0.10530640168E+02  0.19064007016E+01  0.94070138150E+02  0.88839937740E+02 0.  0.
         11    1    3    3    0    0 -0.61252913981E+01  0.21373827874E+02  0.31185421797E+02  0.38300003207E+02  0.51100000000E-03 0. -1.
         22    1    1    0    0    0 -0.29019435006E+02  0.10530640168E+02 -0.19064007016E+01  0.30929861850E+02  0.00000000000E+00 0.  1.
</event>
<event>
 5    1  0.3190780E-003  0.9118800E+02  0.7818608E-02  0.1130116E+00
         25   -1    0    0    0    0  0.00000000000E+00  0.00000000000E+00  0.99999998245E-14  0.12500000000E+03  0.12500000000E+03 0.  0.
        -11    1    3    3    0    0 -0.20372991949E+02  0.38986683463E+02  0.21412194813E+02  0.48923433806E+02  0.51100000000E-03 0.  1.
         23    2    1    0    0    0 -0.23790650518E+02 -0.59908112429E+01  0.18773643662E+02  0.94107694037E+02  0.88892764099E+02 0.  0.
         11    1    3    3    0    0 -0.34176585693E+01 -0.44977494706E+02 -0.26385511512E+01  0.45184260231E+02  0.51100000000E-03 0. -1.
         22    1    1    0    0    0  0.23790650518E+02  0.59908112429E+01 -0.18773643662E+02  0.30892305963E+02  0.00000000000E+00 0. -1.
</event>
<event>
 5    1  0.3190780E-003  0.9118800E+02  0.7818608E-02  0.1130116E+00
         25   -1    0    0    0    0  0.00000000000E+00  0.00000000000E+00  0.99999998245E-14  0.12500000000E+03  0.12500000000E+03 0.  0.
        -11    1    3    3    0    0 -0.28650749037E+02 -0.25300576973E+02 -0.14009536571E+02  0.40709356796E+02  0.51100000000E-03 0.  1.
         23    2    1    0    0    0 -0.15809656886E+02  0.39082302831E+01  0.27484750111E+02  0.93052683940E+02  0.87396630284E+02 0.  0.
         11    1    3    3    0    0  0.12841092152E+02  0.29208807256E+02  0.41494286681E+02  0.52343327144E+02  0.51100000000E-03 0. -1.
         22    1    1    0    0    0  0.15809656886E+02 -0.39082302831E+01 -0.27484750111E+02  0.31947316060E+02  0.00000000000E+00 0. -1.
</event>
<event>
 5    1  0.3190780E-003  0.9118800E+02  0.7818608E-02  0.1130116E+00
         25   -1    0    0    0    0  0.00000000000E+00  0.00000000000E+00  0.99999998245E-14  0.12500000000E+03  0.12500000000E+03 0.  0.
        -11    1    3    3    0    0 -0.43831363043E+02 -0.40145796206E+02 -0.10607864687E+01  0.59447444078E+02  0.51100000000E-03 0.  1.
         23    2    1    0    0    0 -0.28173898567E+02 -0.11080641389E+02 -0.90252832355E+01  0.93408784266E+02  0.87904471254E+02 0.  0.
         11    1    3    3    0    0  0.15657464476E+02  0.29065154817E+02 -0.79644967668E+01  0.33961340188E+02  0.51100000000E-03 0. -1.
         22    1    1    0    0    0  0.28173898567E+02  0.11080641389E+02  0.90252832355E+01  0.31591215734E+02  0.00000000000E+00 0.  1.
</event>
<event>
 5    1  0.3190780E-003  0.9118800E+02  0.7818608E-02  0.1130116E+00
         25   -1    0    0    0    0  0.00000000000E+00  0.00000000000E+00  0.99999998245E-14  0.12500000000E+03  0.12500000000E+03 0.  0.
        -11    1    3    3    0    0 -0.28261312738E+02  0.38168200629E+01  0.25253817102E+02  0.38092324575E+02  0.51100000000E-03 0.  1.
         23    2    1    0    0    0  0.55429818108E+01 -0.28357664909E+02 -0.75490828291E+01  0.95135799726E+02  0.90326905911E+02 0.  0.
         11    1    3    3    0    0  0.33804294549E+02 -0.32174484972E+02 -0.32802899931E+02  0.57043475151E+02  0.51100000000E-03 0. -1.
         22    1    1    0    0    0 -0.55429818108E+01  0.28357664909E+02  0.75490828291E+01  0.29864200274E+02  0.00000000000E+00 0. -1.
</event>
<event>
 5    1  0.3190780E-003  0.9118800E+02  0.7818608E-02  0.1130116E+00
         25   -1    0    0    0    0  0.00000000000E+00  0.00000000000E+00  0.99999998245E-14  0.12500000000E+03  0.12500000000E+03 0.  0.
        -11    1    3    3    0    0 -0.12514060007E+01 -0.13446495624E+02  0.39139143182E+02  0.41403463512E+02  0.51100000000E-03 0. -1.
         23    2    1    0    0    0  0.30928831607E+02  0.50045584455E+01  0.24563759252E+01  0.93572750479E+02  0.88137322513E+02 0.  0.
         11    1    3    3    0    0  0.32180237607E+02  0.18451054069E+02 -0.36682767257E+02  0.52169286967E+02  0.51100000000E-03 0.  1.
         22    1    1    0    0    0 -0.30928831607E+02 -0.50045584455E+01 -0.24563759252E+01  0.31427249521E+02  0.00000000000E+00 0.  1.
</event>
<event>
 5    1  0.3190780E-003  0.9118800E+02  0.7818608E-02  0.1130116E+00
         25   -1    0    0    0    0  0.00000000000E+00  0.00000000000E+00  0.99999998245E-14  0.12500000000E+03  0.12500000000E+03 0.  0.
        -11    1    3    3    0    0 -0.11864200035E+02  0.58226981628E+02  0.14126108126E+02  0.61079354638E+02  0.51100000000E-03 0. -1.
         23    2    1    0    0    0 -0.82507468499E+01  0.21747291502E+02  0.14220194573E+02  0.97737691863E+02  0.93858526335E+02 0.  0.
         11    1    3    3    0    0  0.36134531848E+01 -0.36479690126E+02  0.94086447150E-01  0.36658337225E+02  0.51100000000E-03 0.  1.
         22    1    1    0    0    0  0.82507468499E+01 -0.21747291502E+02 -0.14220194573E+02  0.27262308137E+02  0.00000000000E+00 0. -1.
</event>
<event>
 5    1  0.3190780E-003  0.9118800E+02  0.7818608E-02  0.1130116E+00
         25   -1    0    0    0    0  0.00000000000E+00  0.00000000000E+00  0.99999998245E-14  0.12500000000E+03  0.12500000000E+03 0.  0.
        -11    1    3    3    0    0 -0.12875735246E+02 -0.39984571949E+02  0.67716116515E+01  0.42548857525E+02  0.51100000000E-03 0.  1.
         23    2    1    0    0    0  0.23845038681E+02 -0.58800657848E+01  0.18780611246E+02  0.94082813807E+02  0.88857770914E+02 0.  0.
         11    1    3    3    0    0  0.36720773928E+02  0.34104506164E+02  0.12008999594E+02  0.51533956282E+02  0.51100000000E-03 0. -1.
         22    1    1    0    0    0 -0.23845038681E+02  0.58800657848E+01 -0.18780611246E+02  0.30917186193E+02  0.00000000000E+00 0. -1.
</event>
<event>
 5    1  0.3190780E-003  0.9118800E+02  0.7818608E-02  0.1130116E+00
         25   -1    0    0    0    0  0.00000000000E+00  0.00000000000E+00  0.99999998245E-14  0.12500000000E+03  0.12500000000E+03 0.  0.
        -11    1    3    3    0    0 -0.30773825525E+02  0.26939049854E+01 -0.18349006261E+02  0.35930091741E+02  0.51100000000E-03 0.  1.
         23    2    1    0    0    0  0.27591114556E+02  0.21331834129E+00 -0.12716657571E+02  0.94618616112E+02  0.89608336822E+02 0.  0.
         11    1    3    3    0    0  0.58364940081E+02 -0.24805866441E+01  0.56323486900E+01  0.58688524371E+02  0.51100000000E-03 0. -1.
         22    1    1    0    0    0 -0.27591114556E+02 -0.21331834129E+00  0.12716657571E+02  0.30381383888E+02  0.00000000000E+00 0. -1.
</event>
<event>
 5    1  0.3190780E-003  0.9118800E+02  0.7818608E-02  0.1130116E+00
         25   -1    0    0    0    0  0.00000000000E+00  0.00000000000E+00  0.99999998245E-14  0.12500000000E+03  0.12500000000E+03 0.  0.
        -11    1    3    3    0    0 -0.12024038389E+02 -0.17266320941E+02 -0.29369892938E+02  0.36128852037E+02  0.51100000000E-03 0.  1.
         23    2    1    0    0    0 -0.25590700074E+02  0.62124988999E+01  0.19645715771E+02  0.92145270949E+02  0.86089010549E+02 0.  0.
         11    1    3    3    0    0 -0.13566661685E+02  0.23478819841E+02  0.49015608709E+02  0.56016418912E+02  0.51100000000E-03 0. -1.
         22    1    1    0    0    0  0.25590700074E+02 -0.62124988999E+01 -0.19645715771E+02  0.32854729051E+02  0.00000000000E+00 0. -1.
</event>
<event>
 5    1  0.3190780E-003  0.9118800E+02  0.7818608E-02  0.1130116E+00
         25   -1    0    0    0    0  0.00000000000E+00  0.00000000000E+00  0.99999998245E-14  0.12500000000E+03  0.12500000000E+03 0.  0.
        -11    1    3    3    0    0 -0.27417831478E+02 -0.26179445284E+02 -0.21166236176E+02  0.43417857990E+02  0.51100000000E-03 0. -1.
         23    2    1    0    0    0 -0.71996818233E+01  0.22746323541E+02 -0.15245183383E+02  0.96686641503E+02  0.92448149662E+02 0.  0.
         11    1    3    3    0    0  0.20218149655E+02  0.48925768825E+02  0.59210527929E+01  0.53268783513E+02  0.51100000000E-03 0.  1.
         22    1    1    0    0    0  0.71996818233E+01 -0.22746323541E+02  0.15245183383E+02  0.28313358497E+02  0.00000000000E+00 0. -1.
</event>
<event>
 5    1  0.3190780E-003  0.9118800E+02  0.7818608E-02  0.1130116E+00
         25   -1    0    0    0    0  0.00000000000E+00  0.00000000000E+00  0.99999998245E-14  0.12500000000E+03  0.12500000000E+03 0.  0.
        -11    1    3    3    0    0 -0.52545550723E+01  0.26457747195E+02 -0.23674634332E+02  0.35890263954E+02  0.51100000000E-03 0.  1.
         23    2    1    0    0    0  0.20265360636E+01 -0.29098437582E+02 -0.27477923483E+01  0.95701940663E+02  0.91106998445E+02 0.  0.
         11    1    3    3    0    0  0.72810911359E+01 -0.55556184777E+02  0.20926841984E+02  0.59811676709E+02  0.51100000000E-03 0. -1.
         22    1    1    0    0    0 -0.20265360636E+01  0.29098437582E+02  0.27477923483E+01  0.29298059337E+02  0.00000000000E+00 0. -1.
</event>
<event>
 5    1  0.3190780E-003  0.9118800E+02  0.7818608E-02  0.1130116E+00
         25   -1    0    0    0    0  0.00000000000E+00  0.00000000000E+00  0.99999998245E-14  0.12500000000E+03  0.12500000000E+03 0.  0.
        -11    1    3    3    0    0 -0.50853816586E+02 -0.91625906951E+01 -0.24701562675E+02  0.57273300311E+02  0.51100000000E-03 0. -1.
         23    2    1    0    0    0 -0.16167583333E+02 -0.18448999024E+02 -0.70916706229E+00  0.10045902949E+03  0.97415385703E+02 0.  0.
         11    1    3    3    0    0  0.34686233253E+02 -0.92864083288E+01  0.23992395613E+02  0.43185729176E+02  0.51100000000E-03 0.  1.
         22    1    1    0    0    0  0.16167583333E+02  0.18448999024E+02  0.70916706229E+00  0.24540970514E+02  0.00000000000E+00 0. -1.
</event>
<event>
 5    1  0.3190780E-003  0.9118800E+02  0.7818608E-02  0.1130116E+00
         25   -1    0    0    0    0  0.00000000000E+00  0.00000000000E+00  0.99999998245E-14  0.12500000000E+03  0.12500000000E+03 0.  0.
        -11    1    3    3    0    0  0.12986756212E+02 -0.11630834297E+02  0.54183011398E+02  0.56918633749E+02  0.51100000000E-03 0.  1.
         23    2    1    0    0    0  0.15132650245E+02  0.10827580568E+02  0.22759884860E+02  0.95601939465E+02  0.90969692021E+02 0.  0.
         11    1    3    3    0    0  0.21458940326E+01  0.22458414865E+02 -0.31423126539E+02  0.38683305717E+02  0.51100000000E-03 0. -1.
         22    1    1    0    0    0 -0.15132650245E+02 -0.10827580568E+02 -0.22759884860E+02  0.29398060535E+02  0.00000000000E+00 0.  1.
</event>
<event>
 5    1  0.3190780E-003  0.9118800E+02  0.7818608E-02  0.1130116E+00
         25   -1    0    0    0    0  0.00000000000E+00  0.00000000000E+00  0.99999998245E-14  0.12500000000E+03  0.12500000000E+03 0.  0.
        -11    1    3    3    0    0  0.99743915064E+01 -0.38698180080E+02 -0.32569216636E+02  0.51553772897E+02  0.51100000000E-03 0.  1.
         23    2    1    0    0    0 -0.34867832228E+00 -0.28435368782E+02  0.86566825536E+01  0.95274086605E+02  0.90518073616E+02 0.  0.
         11    1    3    3    0    0 -0.10323069829E+02  0.10262811297E+02  0.41225899190E+02  0.43720313707E+02  0.51100000000E-03 0. -1.
         22    1    1    0    0    0  0.34867832228E+00  0.28435368782E+02 -0.86566825536E+01  0.29725913395E+02  0.00000000000E+00 0. -1.
</event>
<event>
 5    1  0.3190780E-003  0.9118800E+02  0.7818608E-02  0.1130116E+00
         25   -1    0    0    0    0  0.00000000000E+00  0.00000000000E+00  0.99999998245E-14  0.12500000000E+03  0.12500000000E+03 0.  0.
        -11    1    3    3    0    0  0.74739295628E+01  0.16903594496E+02 -0.23196333545E+02  0.29659079895E+02  0.51100000000E-03 0.  1.
         23    2    1    0    0    0  0.11661632546E+02 -0.13611897089E+02  0.29374461935E+02  0.90588716531E+02  0.83798443499E+02 0.  0.
         11    1    3    3    0    0  0.41877029834E+01 -0.30515491585E+02  0.52570795480E+02  0.60929636636E+02  0.51100000000E-03 0. -1.
         22    1    1    0    0    0 -0.11661632546E+02  0.13611897089E+02 -0.29374461935E+02  0.34411283469E+02  0.00000000000E+00 0. -1.
</event>
<event>
 5    1  0.3190780E-003  0.9118800E+02  0.7818608E-02  0.1130116E+00
         25   -1    0    0    0    0  0.00000000000E+00  0.00000000000E+00  0.99999998245E-14  0.12500000000E+03  0.12500000000E+03 0.  0.
        -11    1    3    3    0    0  0.22442457838E+02 -0.67554979807E+01 -0.21675362410E+02  0.31923690304E+02  0.51100000000E-03 0.  1.
         23    2    1    0    0    0 -0.14746504391E+02 -0.22995486290E+01  0.27483519110E+02  0.93725551351E+02  0.88353765272E+02 0.  0.
         11    1    3    3    0    0 -0.37188962229E+02  0.44559493517E+01  0.49158881519E+02  0.61801861047E+02  0.51100000000E-03 0. -1.
         22    1    1    0    0    0  0.14746504391E+02  0.22995486290E+01 -0.27483519110E+02  0.31274448649E+02  0.00000000000E+00 0. -1.
</event>
<event>
 5    1  0.3190780E-003  0.9118800E+02  0.7818608E-02  0.1130116E+00
         25   -1    0    0    0    0  0.00000000000E+00  0.00000000000E+00  0.99999998245E-14  0.12500000000E+03  0.12500000000E+03 0.  0.
        -11    1    3    3    0    0  0.23253049914E+02  0.48783932204E+02  0.27688701661E+02  0.60722652870E+02  0.51100000000E-03 0. -1.
         23    2    1    0    0    0  0.16653281806E+02  0.11757633957E+02  0.91010076144E+01  0.10267507915E+03  0.10021860999E+03 0.  0.
         11    1    3    3    0    0 -0.65997681082E+01 -0.37026298246E+02 -0.18587694047E+02  0.41952426284E+02  0.51100000000E-03 0.  1.
         22    1    1    0    0    0 -0.16653281806E+02 -0.11757633957E+02 -0.91010076144E+01  0.22324920846E+02  0.00000000000E+00 0. -1.
</event>
<event>
 5    1  0.3190780E-003  0.9118800E+02  0.7818608E-02  0.1130116E+00
         25   -1    0    0    0    0  0.00000000000E+00  0.00000000000E+00  0.99999998245E-14  0.12500000000E+03  0.12500000000E+03 0.  0.
        -11    1    3    3    0    0  0.38820969584E+02 -0.70214625421E+01 -0.78799538494E+01  0.40230116687E+02  0.51100000000E-03 0.  1.
         23    2    1    0    0    0 -0.15037505624E+02  0.10214986826E+02 -0.19904027126E+02  0.98043686694E+02  0.94265166808E+02 0.  0.
         11    1    3    3    0    0 -0.53858475208E+02  0.17236449368E+02 -0.12024073277E+02  0.57813570007E+02  0.51100000000E-03 0. -1.
         22    1    1    0    0    0  0.15037505624E+02 -0.10214986826E+02  0.19904027126E+02  0.26956313306E+02  0.00000000000E+00 0. -1.
</event>
<event>
 5    1  0.3190780E-003  0.9118800E+02  0.7818608E-02  0.1130116E+00
         25   -1    0    0    0    0  0.00000000000E+00  0.00000000000E+00  0.99999998245E-14  0.12500000000E+03  0.12500000000E+03 0.  0.
        -11    1    3    3    0    0  0.55530145821E+02 -0.10531835884E+02 -0.22165429491E+02  0.60710978634E+02  0.51100000000E-03 0.  1.
         23    2    1    0    0    0  0.27081586404E+02  0.55544831326E+01 -0.10985010265E+02  0.95252142001E+02  0.90487764368E+02 0.  0.
         11    1    3    3    0    0 -0.28448559417E+02  0.16086319016E+02  0.11180419226E+02  0.34541163367E+02  0.51100000000E-03 0. -1.
         22    1    1    0    0    0 -0.27081586404E+02 -0.55544831326E+01  0.10985010265E+02  0.29747857999E+02  0.00000000000E+00 0.  1.
</event>
<event>
 5    1  0.3190780E-003  0.9118800E+02  0.7818608E-02  0.1130116E+00
         25   -1    0    0    0    0  0.00000000000E+00  0.00000000000E+00  0.99999998245E-14  0.12500000000E+03  0.12500000000E+03 0.  0.
        -11    1    3    3    0    0  0.56001665279E+02  0.56930256010E+01  0.15833222712E+02  0.58474678249E+02  0.51100000000E-03 0. -1.
         23    2    1    0    0    0  0.31992206617E+02 -0.85325437385E+01 -0.23874168482E+01  0.91803534133E+02  0.85591375343E+02 0.  0.
         11    1    3    3    0    0 -0.24009458662E+02 -0.14225569339E+02 -0.18220639561E+02  0.33328855884E+02  0.51100000000E-03 0.  1.
         22    1    1    0    0    0 -0.31992206617E+02  0.85325437385E+01  0.23874168482E+01  0.33196465867E+02  0.00000000000E+00 0. -1.
</event>
<event>
 5    1  0.3190780E-003  0.9118800E+02  0.7818608E-02  0.1130116E+00
         25   -1    0    0    0    0  0.00000000000E+00  0.00000000000E+00  0.99999998245E-14  0.12500000000E+03  0.12500000000E+03 0.  0.
        -11    1    3    3    0    0 -0.12852669911E+02 -0.46085604202E+02  0.34770943712E+02  0.59144674869E+02  0.51100000000E-03 0.  1.
         23    2    1    0    0    0 -0.17589947515E+02 -0.20996535650E+02  0.72910017449E+01  0.96655344960E+02  0.92405823626E+02 0.  0.
         11    1    3    3    0    0 -0.47372776038E+01  0.25089068551E+02 -0.27479941967E+02  0.37510670091E+02  0.51100000000E-03 0. -1.
         22    1    1    0    0    0  0.17589947515E+02  0.20996535650E+02 -0.72910017449E+01  0.28344655040E+02  0.00000000000E+00 0.  1.
</event>
<event>
 5    1  0.3190780E-003  0.9118800E+02  0.7818608E-02  0.1130116E+00
         25   -1    0    0    0    0  0.00000000000E+00  0.00000000000E+00  0.99999998245E-14  0.12500000000E+03  0.12500000000E+03 0.  0.
        -11    1    3    3    0    0  0.11196445530E+02 -0.18045763860E+02  0.33635350961E+02  0.39778723211E+02  0.51100000000E-03 0.  1.
         23    2    1    0    0    0 -0.14884845782E+02 -0.20727709947E+02 -0.15264800043E+02  0.95264319178E+02  0.90504584384E+02 0.  0.
         11    1    3    3    0    0 -0.26081291312E+02 -0.26819460864E+01 -0.48900151004E+02  0.55485595967E+02  0.51100000000E-03 0. -1.
         22    1    1    0    0    0  0.14884845782E+02  0.20727709947E+02  0.15264800043E+02  0.29735680822E+02  0.00000000000E+00 0. -1.
</event>
<event>
 5    1  0.3190780E-003  0.9118800E+02  0.7818608E-02  0.1130116E+00
         25   -1    0    0    0    0  0.00000000000E+00  0.00000000000E+00  0.99999998245E-14  0.12500000000E+03  0.12500000000E+03 0.  0.
        -11    1    3    3    0    0 -0.44118911946E+02  0.14331263419E+02  0.26658058955E+02  0.53502482279E+02  0.51100000000E-03 0.  1.
         23    2    1    0    0    0 -0.21189054276E+02 -0.17140567540E+02  0.13342545801E+02  0.94655336463E+02  0.89659545592E+02 0.  0.
         11    1    3    3    0    0  0.22929857670E+02 -0.31471830959E+02 -0.13315513154E+02  0.41152854184E+02  0.51100000000E-03 0. -1.
         22    1    1    0    0    0  0.21189054276E+02  0.17140567540E+02 -0.13342545801E+02  0.30344663537E+02  0.00000000000E+00 0. -1.
</event>
<event>
 5    1  0.3190780E-003  0.9118800E+02  0.7818608E-02  0.1130116E+00
         25   -1    0    0    0    0  0.00000000000E+00  0.00000000000E+00  0.99999998245E-14  0.12500000000E+03  0.12500000000E+03 0.  0.
        -11    1    3    3    0    0 -0.96690915400E+00 -0.49619278831E+02 -0.22362255522E+02  0.54434164063E+02  0.51100000000E-03 0.  1.
         23    2    1    0    0    0 -0.21678108880E+02 -0.18866963551E+02 -0.34509637379E+01  0.96055019969E+02  0.91590146808E+02 0.  0.
         11    1    3    3    0    0 -0.20711199726E+02  0.30752315280E+02  0.18911291784E+02  0.41620855906E+02  0.51100000000E-03 0. -1.
         22    1    1    0    0    0  0.21678108880E+02  0.18866963551E+02  0.34509637379E+01  0.28944980031E+02  0.00000000000E+00 0. -1.
</event>
<event>
 5    1  0.3190780E-003  0.9118800E+02  0.7818608E-02  0.1130116E+00
         25   -1    0    0    0    0  0.00000000000E+00  0.00000000000E+00  0.99999998245E-14  0.12500000000E+03  0.12500000000E+03 0.  0.
        -11    1    3    3    0    0 -0.53491613718E+01 -0.44853465317E+02  0.42618682504E+02  0.62103131780E+02  0.51100000000E-03 0. -1.
         23    2    1    0    0    0 -0.56240014009E+01 -0.18371245896E+02  0.22818623114E+02  0.95170121885E+02  0.90374390572E+02 0.  0.
         11    1    3    3    0    0 -0.27484002908E+00  0.26482219421E+02 -0.19800059389E+02  0.33066990105E+02  0.51100000000E-03 0.  1.
         22    1    1    0    0    0  0.56240014009E+01  0.18371245896E+02 -0.22818623114E+02  0.29829878115E+02  0.00000000000E+00 0. -1.
</event>
<event>
 5    1  0.3190780E-003  0.9118800E+02  0.7818608E-02  0.1130116E+00
         25   -1    0    0    0    0  0.00000000000E+00  0.00000000000E+00  0.99999998245E-14  0.12500000000E+03  0.12500000000E+03 0.  0.
        -11    1    3    3    0    0  0.21716137655E+02 -0.12162338973E+02 -0.26059785956E+02  0.36036447776E+02  0.51100000000E-03 0.  1.
         23    2    1    0    0    0  0.74987210644E+00  0.25355696440E+02  0.15044851737E+02  0.95507268456E+02  0.90839512956E+02 0.  0.
         11    1    3    3    0    0 -0.20966265549E+02  0.37518035413E+02  0.41104637693E+02  0.59470820681E+02  0.51100000000E-03 0. -1.
         22    1    1    0    0    0 -0.74987210644E+00 -0.25355696440E+02 -0.15044851737E+02  0.29492731544E+02  0.00000000000E+00 0. -1.
</event>
<event>
 5    1  0.3190780E-003  0.9118800E+02  0.7818608E-02  0.1130116E+00
         25   -1    0    0    0    0  0.00000000000E+00  0.00000000000E+00  0.99999998245E-14  0.12500000000E+03  0.12500000000E+03 0.  0.
        -11    1    3    3    0    0 -0.46540779795E+02  0.35542662425E+02 -0.21234294075E+02  0.62291414185E+02  0.51100000000E-03 0.  1.
         23    2    1    0    0    0 -0.24811071820E+02  0.14537033904E+02 -0.11267313253E+02  0.94115262870E+02  0.88903406670E+02 0.  0.
         11    1    3    3    0    0  0.21729707974E+02 -0.21005628520E+02  0.99669808211E+01  0.31823848685E+02  0.51100000000E-03 0. -1.
         22    1    1    0    0    0  0.24811071820E+02 -0.14537033904E+02  0.11267313253E+02  0.30884737130E+02  0.00000000000E+00 0.  1.
</event>
<event>
 5    1  0.3190780E-003  0.9118800E+02  0.7818608E-02  0.1130116E+00
         25   -1    0    0    0    0  0.00000000000E+00  0.00000000000E+00  0.99999998245E-14  0.12500000000E+03  0.12500000000E+03 0.  0.
        -11    1    3    3    0    0  0.46938013102E+02 -0.20488867169E+02  0.30510149028E+02  0.59614091839E+02  0.51100000000E-03 0.  1.
         23    2    1    0    0    0  0.17529147388E+02  0.22095372344E+01  0.20191055836E+02  0.98170318699E+02  0.94432937446E+02 0.  0.
         11    1    3    3    0    0 -0.29408865714E+02  0.22698404404E+02 -0.10319093192E+02  0.38556226860E+02  0.51100000000E-03 0. -1.
         22    1    1    0    0    0 -0.17529147388E+02 -0.22095372344E+01 -0.20191055836E+02  0.26829681301E+02  0.00000000000E+00 0.  1.
</event>
<event>
 5    1  0.3190780E-003  0.9118800E+02  0.7818608E-02  0.1130116E+00
         25   -1    0    0    0    0  0.00000000000E+00  0.00000000000E+00  0.99999998245E-14  0.12500000000E+03  0.12500000000E+03 0.  0.
        -11    1    3    3    0    0  0.26685615805E+02  0.20754928136E+02 -0.34089237907E+02  0.48010053886E+02  0.51100000000E-03 0.  1.
         23    2    1    0    0    0  0.54462457677E+01 -0.19051859760E+02 -0.23324308415E+02  0.94395125939E+02  0.89296032861E+02 0.  0.
         11    1    3    3    0    0 -0.21239370037E+02 -0.39806787896E+02  0.10764929492E+02  0.46385072053E+02  0.51100000000E-03 0. -1.
         22    1    1    0    0    0 -0.54462457677E+01  0.19051859760E+02  0.23324308415E+02  0.30604874061E+02  0.00000000000E+00 0.  1.
</event>
<event>
 5    1  0.3190780E-003  0.9118800E+02  0.7818608E-02  0.1130116E+00
         25   -1    0    0    0    0  0.00000000000E+00  0.00000000000E+00  0.99999998245E-14  0.12500000000E+03  0.12500000000E+03 0.  0.
        -11    1    3    3    0    0  0.18120662483E+00  0.53652823580E+02 -0.24277562715E+02  0.58890223005E+02  0.51100000000E-03 0. -1.
         23    2    1    0    0    0 -0.14796447813E+02  0.22837707408E+02 -0.11505096889E+02  0.95455745027E+02  0.90768586288E+02 0.  0.
         11    1    3    3    0    0 -0.14977654438E+02 -0.30815116172E+02  0.12772465826E+02  0.36565522022E+02  0.51100000000E-03 0.  1.
         22    1    1    0    0    0  0.14796447813E+02 -0.22837707408E+02  0.11505096889E+02  0.29544254973E+02  0.00000000000E+00 0. -1.
</event>
<event>
 5    1  0.3190780E-003  0.9118800E+02  0.7818608E-02  0.1130116E+00
         25   -1    0    0    0    0  0.00000000000E+00  0.00000000000E+00  0.99999998245E-14  0.12500000000E+03  0.12500000000E+03 0.  0.
        -11    1    3    3    0    0  0.34951445944E+02  0.41510584283E+01  0.42571147045E+02  0.55237101848E+02  0.51100000000E-03 0. -1.
         23    2    1    0    0    0  0.38526295390E+01  0.18697082871E+02  0.24203499722E+02  0.94174149467E+02  0.88986163906E+02 0.  0.
         11    1    3    3    0    0 -0.31098816404E+02  0.14546024443E+02 -0.18367647322E+02  0.38937047619E+02  0.51100000000E-03 0.  1.
         22    1    1    0    0    0 -0.38526295390E+01 -0.18697082871E+02 -0.24203499722E+02  0.30825850533E+02  0.00000000000E+00 0. -1.
</event>
<event>
 5    1  0.3190780E-003  0.9118800E+02  0.7818608E-02  0.1130116E+00
         25   -1    0    0    0    0  0.00000000000E+00  0.00000000000E+00  0.99999998245E-14  0.12500000000E+03  0.12500000000E+03 0.  0.
        -11    1    3    3    0    0  0.39876461352E+02 -0.89592584094E+01 -0.35739076115E+02  0.54292559740E+02  0.51100000000E-03 0.  1.
         23    2    1    0    0    0  0.18855645946E+02  0.17406081826E+02 -0.23617368649E+02  0.90124691105E+02  0.83103386070E+02 0.  0.
         11    1    3    3    0    0 -0.21020815406E+02  0.26365340235E+02  0.12121707466E+02  0.35832131366E+02  0.51100000000E-03 0. -1.
         22    1    1    0    0    0 -0.18855645946E+02 -0.17406081826E+02  0.23617368649E+02  0.34875308895E+02  0.00000000000E+00 0.  1.
</event>
<event>
 5    1  0.3190780E-003  0.9118800E+02  0.7818608E-02  0.1130116E+00
         25   -1    0    0    0    0  0.00000000000E+00  0.00000000000E+00  0.99999998245E-14  0.12500000000E+03  0.12500000000E+03 0.  0.
        -11    1    3    3    0    0 -0.69733736730E+01  0.24669692817E+02  0.27753429005E+02  0.37781933591E+02  0.51100000000E-03 0.  1.
         23    2    1    0    0    0 -0.15166687903E+02  0.34999232047E+01 -0.25191337420E+02  0.95387817281E+02  0.90674992805E+02 0.  0.
         11    1    3    3    0    0 -0.81933142300E+01 -0.21169769612E+02 -0.52944766426E+02  0.57605883689E+02  0.51100000000E-03 0. -1.
         22    1    1    0    0    0  0.15166687903E+02 -0.34999232047E+01  0.25191337420E+02  0.29612182719E+02  0.00000000000E+00 0. -1.
</event>
<event>
 5    1  0.3190780E-003  0.9118800E+02  0.7818608E-02  0.1130116E+00
         25   -1    0    0    0    0  0.00000000000E+00  0.00000000000E+00  0.99999998245E-14  0.12500000000E+03  0.12500000000E+03 0.  0.
        -11    1    3    3    0    0 -0.23421089890E+01  0.22003798674E+02 -0.26296370574E+02  0.34367888155E+02  0.51100000000E-03 0.  1.
         23    2    1    0    0    0  0.41958493548E+01 -0.23490844465E+02  0.15543423882E+02  0.96521535304E+02  0.92224637847E+02 0.  0.
         11    1    3    3    0    0  0.65379583437E+01 -0.45494643138E+02  0.41839794456E+02  0.62153647149E+02  0.51100000000E-03 0. -1.
         22    1    1    0    0    0 -0.41958493548E+01  0.23490844465E+02 -0.15543423882E+02  0.28478464696E+02  0.00000000000E+00 0. -1.
</event>
<event>
 5    1  0.3190780E-003  0.9118800E+02  0.7818608E-02  0.1130116E+00
         25   -1    0    0    0    0  0.00000000000E+00  0.00000000000E+00  0.99999998245E-14  0.12500000000E+03  0.12500000000E+03 0.  0.
        -11    1    3    3    0    0 -0.19161632502E+02 -0.51188487720E+02  0.14474938319E+02  0.56541606581E+02  0.51100000000E-03 0.  1.
         23    2    1    0    0    0  0.61940213426E+01 -0.28597913278E+02 -0.44252705776E+01  0.95406258028E+02  0.90700410732E+02 0.  0.
         11    1    3    3    0    0  0.25355653844E+02  0.22590574442E+02 -0.18900208897E+02  0.38864651447E+02  0.51100000000E-03 0. -1.
         22    1    1    0    0    0 -0.61940213426E+01  0.28597913278E+02  0.44252705776E+01  0.29593741972E+02  0.00000000000E+00 0.  1.
</event>
<event>
 5    1  0.3190780E-003  0.9118800E+02  0.7818608E-02  0.1130116E+00
         25   -1    0    0    0    0  0.00000000000E+00  0.00000000000E+00  0.99999998245E-14  0.12500000000E+03  0.12500000000E+03 0.  0.
        -11    1    3    3    0    0 -0.34291677687E+02 -0.43421484870E+01 -0.28585378574E+01  0.34683492485E+02  0.51100000000E-03 0.  1.
         23    2    1    0    0    0  0.25590753708E+02 -0.28179468859E+01 -0.14123047170E+02  0.95635259897E+02  0.91015465577E+02 0.  0.
         11    1    3    3    0    0  0.59882431394E+02  0.15242016011E+01 -0.11264509313E+02  0.60951767411E+02  0.51100000000E-03 0. -1.
         22    1    1    0    0    0 -0.25590753708E+02  0.28179468859E+01  0.14123047170E+02  0.29364740103E+02  0.00000000000E+00 0. -1.
</event>
<event>
 5    1  0.3190780E-003  0.9118800E+02  0.7818608E-02  0.1130116E+00
         25   -1    0    0    0    0  0.00000000000E+00  0.00000000000E+00  0.99999998245E-14  0.12500000000E+03  0.12500000000E+03 0.  0.
        -11    1    3    3    0    0 -0.32256499526E+02 -0.10658921641E+02 -0.12445201266E+02  0.36179792800E+02  0.51100000000E-03 0.  1.
         23    2    1    0    0    0  0.11475184193E+02  0.16496624876E+02  0.19691853771E+02  0.96864833579E+02  0.92688771676E+02 0.  0.
         11    1    3    3    0    0  0.43731683719E+02  0.27155546518E+02  0.32137055038E+02  0.60685040779E+02  0.51100000000E-03 0. -1.
         22    1    1    0    0    0 -0.11475184193E+02 -0.16496624876E+02 -0.19691853771E+02  0.28135166421E+02  0.00000000000E+00 0. -1.
</event>
<event>
 5    1  0.3190780E-003  0.9118800E+02  0.7818608E-02  0.1130116E+00
         25   -1    0    0    0    0  0.00000000000E+00  0.00000000000E+00  0.99999998245E-14  0.12500000000E+03  0.12500000000E+03 0.  0.
        -11    1    3    3    0    0  0.14447721555E+02  0.22845480090E+02 -0.24077107623E+02  0.36198891287E+02  0.51100000000E-03 0. -1.
         23    2    1    0    0    0 -0.14647055373E+02  0.87236857595E+00  0.24201401502E+02  0.96697966633E+02  0.92463461206E+02 0.  0.
         11    1    3    3    0    0 -0.29094776928E+02 -0.21973111514E+02  0.48278509125E+02  0.60499075346E+02  0.51100000000E-03 0.  1.
         22    1    1    0    0    0  0.14647055373E+02 -0.87236857595E+00 -0.24201401502E+02  0.28302033367E+02  0.00000000000E+00 0.  1.
</event>
<event>
 5    1  0.3190780E-003  0.9118800E+02  0.7818608E-02  0.1130116E+00
         25   -1    0    0    0    0  0.00000000000E+00  0.00000000000E+00  0.99999998245E-14  0.12500000000E+03  0.12500000000E+03 0.  0.
        -11    1    3    3    0    0  0.26645196524E+02 -0.23840304839E+02 -0.71728126791E+00  0.35760888206E+02  0.51100000000E-03 0.  1.
         23    2    1    0    0    0 -0.17645900488E+02  0.81435035295E+01  0.22627929544E+02  0.95171864805E+02  0.90376801233E+02 0.  0.
         11    1    3    3    0    0 -0.44291097012E+02  0.31983808369E+02  0.23345210812E+02  0.59410976599E+02  0.51100000000E-03 0. -1.
         22    1    1    0    0    0  0.17645900488E+02 -0.81435035295E+01 -0.22627929544E+02  0.29828135195E+02  0.00000000000E+00 0. -1.
</event>
<event>
 5    1  0.3190780E-003  0.9118800E+02  0.7818608E-02  0.1130116E+00
         25   -1    0    0    0    0  0.00000000000E+00  0.00000000000E+00  0.99999998245E-14  0.12500000000E+03  0.12500000000E+03 0.  0.
        -11    1    3    3    0    0 -0.31865161008E+02 -0.13061291180E+02  0.20521247804E+02  0.40088744369E+02  0.51100000000E-03 0. -1.
         23    2    1    0    0    0  0.13666984283E+02 -0.20137138333E+02 -0.13317184098E+02  0.97257646244E+02  0.93217013259E+02 0.  0.
         11    1    3    3    0    0  0.45532145291E+02 -0.70758471524E+01 -0.33838431902E+02  0.57168901875E+02  0.51100000000E-03 0.  1.
         22    1    1    0    0    0 -0.13666984283E+02  0.20137138333E+02  0.13317184098E+02  0.27742353756E+02  0.00000000000E+00 0.  1.
</event>
<event>
 5    1  0.3190780E-003  0.9118800E+02  0.7818608E-02  0.1130116E+00
         25   -1    0    0    0    0  0.00000000000E+00  0.00000000000E+00  0.99999998245E-14  0.12500000000E+03  0.12500000000E+03 0.  0.
        -11    1    3    3    0    0 -0.29634442023E+02  0.46291625295E+02  0.66928390299E+01  0.55370649455E+02  0.51100000000E-03 0.  1.
         23    2    1    0    0    0 -0.27078746012E+02  0.45230935344E+01  0.21890202396E+01  0.97458963885E+02  0.93486581771E+02 0.  0.
         11    1    3    3    0    0  0.25556960117E+01 -0.41768531761E+02 -0.45038187902E+01  0.42088314430E+02  0.51100000000E-03 0. -1.
         22    1    1    0    0    0  0.27078746012E+02 -0.45230935344E+01 -0.21890202396E+01  0.27541036115E+02  0.00000000000E+00 0.  1.
</event>
<event>
 5    1  0.3190780E-003  0.9118800E+02  0.7818608E-02  0.1130116E+00
         25   -1    0    0    0    0  0.00000000000E+00  0.00000000000E+00  0.99999998245E-14  0.12500000000E+03  0.12500000000E+03 0.  0.
        -11    1    3    3    0    0 -0.26184048214E+02  0.37303591446E+02  0.27395236867E+02  0.53175758752E+02  0.51100000000E-03 0. -1.
         23    2    1    0    0    0 -0.23223516379E+01  0.27119060567E+02 -0.76012717735E+01  0.96740203544E+02  0.92520543048E+02 0.  0.
         11    1    3    3    0    0  0.23861696576E+02 -0.10184530879E+02 -0.34996508641E+02  0.43564444792E+02  0.51100000000E-03 0.  1.
         22    1    1    0    0    0  0.23223516379E+01 -0.27119060567E+02  0.76012717735E+01  0.28259796456E+02  0.00000000000E+00 0. -1.
</event>
<event>
 5    1  0.3190780E-003  0.9118800E+02  0.7818608E-02  0.1130116E+00
         25   -1    0    0    0    0  0.00000000000E+00  0.00000000000E+00  0.99999998245E-14  0.12500000000E+03  0.12500000000E+03 0.  0.
        -11    1    3    3    0    0  0.65958136116E+01 -0.50649379692E+02  0.13970953587E+02  0.52953299848E+02  0.51100000000E-03 0.  1.
         23    2    1    0    0    0 -0.15453493515E+02 -0.19751415257E+02 -0.10169654188E+02  0.97938020532E+02  0.94124944265E+02 0.  0.
         11    1    3    3    0    0 -0.22049307126E+02  0.30897964436E+02 -0.24140607774E+02  0.44984720684E+02  0.51100000000E-03 0. -1.
         22    1    1    0    0    0  0.15453493515E+02  0.19751415257E+02  0.10169654188E+02  0.27061979468E+02  0.00000000000E+00 0.  1.
</event>
<event>
 5    1  0.3190780E-003  0.9118800E+02  0.7818608E-02  0.1130116E+00
         25   -1    0    0    0    0  0.00000000000E+00  0.00000000000E+00  0.99999998245E-14  0.12500000000E+03  0.12500000000E+03 0.  0.
        -11    1    3    3    0    0 -0.35504107975E+02 -0.18093278418E+02 -0.33428209130E+02  0.52013013495E+02  0.51100000000E-03 0. -1.
         23    2    1    0    0    0 -0.25610117588E+02  0.12879232887E+02 -0.36512662593E+01  0.96102171225E+02  0.91654475102E+02 0.  0.
         11    1    3    3    0    0  0.98939903868E+01  0.30972511305E+02  0.29776942870E+02  0.44089157729E+02  0.51100000000E-03 0.  1.
         22    1    1    0    0    0  0.25610117588E+02 -0.12879232887E+02  0.36512662593E+01  0.28897828775E+02  0.00000000000E+00 0.  1.
</event>
<event>
 5    1  0.3190780E-003  0.9118800E+02  0.7818608E-02  0.1130116E+00
         25   -1    0    0    0    0  0.00000000000E+00  0.00000000000E+00  0.99999998245E-14  0.12500000000E+03  0.12500000000E+03 0.  0.
        -11    1    3    3    0    0 -0.20345750474E+02 -0.39070517393E+01  0.35779205021E+02  0.41344481227E+02  0.51100000000E-03 0. -1.
         23    2    1    0    0    0  0.27246690104E+02 -0.25029995150E-01  0.79300165697E+01  0.96622757165E+02  0.92361730664E+02 0.  0.
         11    1    3    3    0    0  0.47592440578E+02  0.38820217441E+01 -0.27849188452E+02  0.55278275938E+02  0.51100000000E-03 0.  1.
         22    1    1    0    0    0 -0.27246690104E+02  0.25029995150E-01 -0.79300165697E+01  0.28377242835E+02  0.00000000000E+00 0.  1.
</event>
<event>
 5    1  0.3190780E-003  0.9118800E+02  0.7818608E-02  0.1130116E+00
         25   -1    0    0    0    0  0.00000000000E+00  0.00000000000E+00  0.99999998245E-14  0.12500000000E+03  0.12500000000E+03 0.  0.
        -11    1    3    3    0    0  0.44255779701E+02  0.27726127482E+02  0.28133173769E+02  0.59319369928E+02  0.51100000000E-03 0. -1.
         23    2    1    0    0    0  0.19875500535E+02  0.16198789809E+01  0.21546286238E+02  0.95641832822E+02  0.91024492338E+02 0.  0.
         11    1    3    3    0    0 -0.24380279166E+02 -0.26106248501E+02 -0.65868875311E+01  0.36322462893E+02  0.51100000000E-03 0.  1.
         22    1    1    0    0    0 -0.19875500535E+02 -0.16198789809E+01 -0.21546286238E+02  0.29358167178E+02  0.00000000000E+00 0. -1.
</event>
<event>
 5    1  0.3190780E-003  0.9118800E+02  0.7818608E-02  0.1130116E+00
         25   -1    0    0    0    0  0.00000000000E+00  0.00000000000E+00  0.99999998245E-14  0.12500000000E+03  0.12500000000E+03 0.  0.
        -11    1    3    3    0    0  0.15263803800E+02 -0.31736964099E+02  0.12634363366E+02  0.37414512353E+02  0.51100000000E-03 0.  1.
         23    2    1    0    0    0  0.90952300209E-01  0.21802556873E+02  0.22206179875E+02  0.93879682149E+02  0.88571556028E+02 0.  0.
         11    1    3    3    0    0 -0.15172851500E+02  0.53539520972E+02  0.95718165094E+01  0.56465169796E+02  0.51100000000E-03 0. -1.
         22    1    1    0    0    0 -0.90952300209E-01 -0.21802556873E+02 -0.22206179875E+02  0.31120317851E+02  0.00000000000E+00 0. -1.
</event>
<event>
 5    1  0.3190780E-003  0.9118800E+02  0.7818608E-02  0.1130116E+00
         25   -1    0    0    0    0  0.00000000000E+00  0.00000000000E+00  0.99999998245E-14  0.12500000000E+03  0.12500000000E+03 0.  0.
        -11    1    3    3    0    0  0.70386329187E+01 -0.49373033703E+02  0.99128985651E+01  0.50847855104E+02  0.51100000000E-03 0. -1.
         23    2    1    0    0    0 -0.18802667883E+02 -0.21175542800E+02 -0.11213324291E+02  0.94542118031E+02  0.89501561482E+02 0.  0.
         11    1    3    3    0    0 -0.25841300802E+02  0.28197490903E+02 -0.21126222856E+02  0.43694262927E+02  0.51100000000E-03 0.  1.
         22    1    1    0    0    0  0.18802667883E+02  0.21175542800E+02  0.11213324291E+02  0.30457881969E+02  0.00000000000E+00 0. -1.
</event>
<event>
 5    1  0.3190780E-003  0.9118800E+02  0.7818608E-02  0.1130116E+00
         25   -1    0    0    0    0  0.00000000000E+00  0.00000000000E+00  0.99999998245E-14  0.12500000000E+03  0.12500000000E+03 0.  0.
        -11    1    3    3    0    0  0.22531990577E+02 -0.24125611287E+02  0.22843677770E+02  0.40144356187E+02  0.51100000000E-03 0.  1.
         23    2    1    0    0    0  0.28466646455E+01  0.26656085269E+02  0.11769536958E+02  0.95722493589E+02  0.91135192968E+02 0.  0.
         11    1    3    3    0    0 -0.19685325932E+02  0.50781696555E+02 -0.11074140813E+02  0.55578137402E+02  0.51100000000E-03 0. -1.
         22    1    1    0    0    0 -0.28466646455E+01 -0.26656085269E+02 -0.11769536958E+02  0.29277506411E+02  0.00000000000E+00 0. -1.
</event>
<event>
 5    1  0.3190780E-003  0.9118800E+02  0.7818608E-02  0.1130116E+00
         25   -1    0    0    0    0  0.00000000000E+00  0.00000000000E+00  0.99999998245E-14  0.12500000000E+03  0.12500000000E+03 0.  0.
        -11    1    3    3    0    0 -0.18476871185E+02  0.21014844801E+02 -0.49472302547E+02  0.56837726823E+02  0.51100000000E-03 0.  1.
         23    2    1    0    0    0  0.41199622727E+01 -0.47218547480E+01 -0.25746212935E+02  0.98502123069E+02  0.94871127153E+02 0.  0.
         11    1    3    3    0    0  0.22596833458E+02 -0.25736699549E+02  0.23726089612E+02  0.41664396246E+02  0.51100000000E-03 0. -1.
         22    1    1    0    0    0 -0.41199622727E+01  0.47218547480E+01  0.25746212935E+02  0.26497876931E+02  0.00000000000E+00 0.  1.
</event>
<event>
 5    1  0.3190780E-003  0.9118800E+02  0.7818608E-02  0.1130116E+00
         25   -1    0    0    0    0  0.00000000000E+00  0.00000000000E+00  0.99999998245E-14  0.12500000000E+03  0.12500000000E+03 0.  0.
        -11    1    3    3    0    0  0.55261189085E+01 -0.32811411833E+02  0.14425860839E+02  0.36266130175E+02  0.51100000000E-03 0. -1.
         23    2    1    0    0    0 -0.33715539251E+02 -0.20045154412E+02 -0.10394928382E+02  0.84421676495E+02  0.74029852923E+02 0.  0.
         11    1    3    3    0    0 -0.39241658159E+02  0.12766257421E+02 -0.24820789221E+02  0.48155546320E+02  0.51100000000E-03 0.  1.
         22    1    1    0    0    0  0.33715539251E+02  0.20045154412E+02  0.10394928382E+02  0.40578323505E+02  0.00000000000E+00 0.  1.
</event>
<event>
 5    1  0.3190780E-003  0.9118800E+02  0.7818608E-02  0.1130116E+00
         25   -1    0    0    0    0  0.00000000000E+00  0.00000000000E+00  0.99999998245E-14  0.12500000000E+03  0.12500000000E+03 0.  0.
        -11    1    3    3    0    0  0.41417545019E+02  0.93825596496E+01  0.45652694651E+02  0.62350733677E+02  0.51100000000E-03 0.  1.
         23    2    1    0    0    0  0.20965834596E+02  0.63042286513E+01  0.19596148528E+02  0.95617716965E+02  0.90991369049E+02 0.  0.
         11    1    3    3    0    0 -0.20451710422E+02 -0.30783309983E+01 -0.26056546124E+02  0.33266983288E+02  0.51100000000E-03 0. -1.
         22    1    1    0    0    0 -0.20965834596E+02 -0.63042286513E+01 -0.19596148528E+02  0.29382283035E+02  0.00000000000E+00 0.  1.
</event>
<event>
 5    1  0.3190780E-003  0.9118800E+02  0.7818608E-02  0.1130116E+00
         25   -1    0    0    0    0  0.00000000000E+00  0.00000000000E+00  0.99999998245E-14  0.12500000000E+03  0.12500000000E+03 0.  0.
        -11    1    3    3    0    0  0.31648196094E+02  0.19900194975E+02 -0.30890883439E+02  0.48496110731E+02  0.51100000000E-03 0.  1.
         23    2    1    0    0    0  0.30712468394E+01 -0.18166732533E+02 -0.20909708608E+02  0.97131045191E+02  0.93047091828E+02 0.  0.
         11    1    3    3    0    0 -0.28576949255E+02 -0.38066927509E+02  0.99811748311E+01  0.48634934460E+02  0.51100000000E-03 0. -1.
         22    1    1    0    0    0 -0.30712468394E+01  0.18166732533E+02  0.20909708608E+02  0.27868954809E+02  0.00000000000E+00 0. -1.
</event>
<event>
 5    1  0.3190780E-003  0.9118800E+02  0.7818608E-02  0.1130116E+00
         25   -1    0    0    0    0  0.00000000000E+00  0.00000000000E+00  0.99999998245E-14  0.12500000000E+03  0.12500000000E+03 0.  0.
        -11    1    3    3    0    0 -0.34421948481E+02  0.28036280836E+01  0.17799422859E+02  0.38852931962E+02  0.51100000000E-03 0.  1.
         23    2    1    0    0    0  0.12182602870E+01 -0.17993252465E+02 -0.22251552498E+02  0.96357847829E+02  0.92002510604E+02 0.  0.
         11    1    3    3    0    0  0.35640208768E+02 -0.20796880549E+02 -0.40050975357E+02  0.57504915867E+02  0.51100000000E-03 0. -1.
         22    1    1    0    0    0 -0.12182602870E+01  0.17993252465E+02  0.22251552498E+02  0.28642152171E+02  0.00000000000E+00 0. -1.
</event>
<event>
 5    1  0.3190780E-003  0.9118800E+02  0.7818608E-02  0.1130116E+00
         25   -1    0    0    0    0  0.00000000000E+00  0.00000000000E+00  0.99999998245E-14  0.12500000000E+03  0.12500000000E+03 0.  0.
        -11    1    3    3    0    0 -0.25208717219E+02 -0.22845984074E+02 -0.10359344784E+01  0.34036621052E+02  0.51100000000E-03 0.  1.
         23    2    1    0    0    0  0.23149343313E+02 -0.14325650759E+01  0.23184324535E+02  0.92205835234E+02  0.86176904148E+02 0.  0.
         11    1    3    3    0    0  0.48358060532E+02  0.21413418998E+02  0.24220259014E+02  0.58169214182E+02  0.51100000000E-03 0. -1.
         22    1    1    0    0    0 -0.23149343313E+02  0.14325650759E+01 -0.23184324535E+02  0.32794164766E+02  0.00000000000E+00 0. -1.
</event>
<event>
 5    1  0.3190780E-003  0.9118800E+02  0.7818608E-02  0.1130116E+00
         25   -1    0    0    0    0  0.00000000000E+00  0.00000000000E+00  0.99999998245E-14  0.12500000000E+03  0.12500000000E+03 0.  0.
        -11    1    3    3    0    0  0.42450791743E+01 -0.16561558447E+02 -0.37671001884E+02  0.41369195044E+02  0.51100000000E-03 0.  1.
         23    2    1    0    0    0  0.13974329231E+02 -0.22680695781E+02  0.14416166566E+02  0.94709379388E+02  0.89734858595E+02 0.  0.
         11    1    3    3    0    0  0.97292500568E+01 -0.61191373342E+01  0.52087168451E+02  0.53340184344E+02  0.51100000000E-03 0. -1.
         22    1    1    0    0    0 -0.13974329231E+02  0.22680695781E+02 -0.14416166566E+02  0.30290620612E+02  0.00000000000E+00 0. -1.
</event>
<event>
 5    1  0.3190780E-003  0.9118800E+02  0.7818608E-02  0.1130116E+00
         25   -1    0    0    0    0  0.00000000000E+00  0.00000000000E+00  0.99999998245E-14  0.12500000000E+03  0.12500000000E+03 0.  0.
        -11    1    3    3    0    0 -0.21492801046E+01 -0.33174021268E+02 -0.25618983262E+02  0.41969839119E+02  0.51100000000E-03 0.  1.
         23    2    1    0    0    0 -0.16529314591E+02  0.16261277766E+02 -0.21095474411E+02  0.93652489157E+02  0.88250338749E+02 0.  0.
         11    1    3    3    0    0 -0.14380034487E+02  0.49435299034E+02  0.45235088510E+01  0.51682650038E+02  0.51100000000E-03 0. -1.
         22    1    1    0    0    0  0.16529314591E+02 -0.16261277766E+02  0.21095474411E+02  0.31347510843E+02  0.00000000000E+00 0. -1.
</event>
<event>
 5    1  0.3190780E-003  0.9118800E+02  0.7818608E-02  0.1130116E+00
         25   -1    0    0    0    0  0.00000000000E+00  0.00000000000E+00  0.99999998245E-14  0.12500000000E+03  0.12500000000E+03 0.  0.
        -11    1    3    3    0    0  0.38401086719E+01  0.30404493210E+02 -0.34819826564E+02  0.46385342126E+02  0.51100000000E-03 0. -1.
         23    2    1    0    0    0  0.20804259455E+02 -0.11823066460E+02 -0.18582162727E+02  0.94703153900E+02  0.89726186117E+02 0.  0.
         11    1    3    3    0    0  0.16964150783E+02 -0.42227559669E+02  0.16237663838E+02  0.48317811774E+02  0.51100000000E-03 0.  1.
         22    1    1    0    0    0 -0.20804259455E+02  0.11823066460E+02  0.18582162727E+02  0.30296846100E+02  0.00000000000E+00 0. -1.
</event>
<event>
 5    1  0.3190780E-003  0.9118800E+02  0.7818608E-02  0.1130116E+00
         25   -1    0    0    0    0  0.00000000000E+00  0.00000000000E+00  0.99999998245E-14  0.12500000000E+03  0.12500000000E+03 0.  0.
        -11    1    3    3    0    0  0.16777299134E+02  0.28508977628E+02  0.13166089603E+02  0.35603166816E+02  0.51100000000E-03 0. -1.
         23    2    1    0    0    0  0.66883472110E-01 -0.28756765684E+02  0.49470197185E+01  0.95820742811E+02  0.91269851007E+02 0.  0.
         11    1    3    3    0    0 -0.16710415662E+02 -0.57265743312E+02 -0.82190698849E+01  0.60217575995E+02  0.51100000000E-03 0.  1.
         22    1    1    0    0    0 -0.66883472110E-01  0.28756765684E+02 -0.49470197185E+01  0.29179257189E+02  0.00000000000E+00 0.  1.
</event>
<event>
 5    1  0.3190780E-003  0.9118800E+02  0.7818608E-02  0.1130116E+00
         25   -1    0    0    0    0  0.00000000000E+00  0.00000000000E+00  0.99999998245E-14  0.12500000000E+03  0.12500000000E+03 0.  0.
        -11    1    3    3    0    0  0.74888027550E+00  0.50493332467E+02 -0.83890942471E+01  0.51190959630E+02  0.51100000000E-03 0.  1.
         23    2    1    0    0    0 -0.58384086665E+01  0.11104049782E+02 -0.26982619956E+02  0.95243509666E+02  0.90475838854E+02 0.  0.
         11    1    3    3    0    0 -0.65872889420E+01 -0.39389282685E+02 -0.18593525709E+02  0.44052550036E+02  0.51100000000E-03 0. -1.
         22    1    1    0    0    0  0.58384086665E+01 -0.11104049782E+02  0.26982619956E+02  0.29756490334E+02  0.00000000000E+00 0. -1.
</event>
<event>
 5    1  0.3190780E-003  0.9118800E+02  0.7818608E-02  0.1130116E+00
         25   -1    0    0    0    0  0.00000000000E+00  0.00000000000E+00  0.99999998245E-14  0.12500000000E+03  0.12500000000E+03 0.  0.
        -11    1    3    3    0    0  0.44542809465E+02  0.21123739652E+02  0.19208311640E+02  0.52907782870E+02  0.51100000000E-03 0.  1.
         23    2    1    0    0    0  0.19427540965E+02  0.33664168436E+02  0.14903566971E+01  0.86103640948E+02  0.76817382388E+02 0.  0.
         11    1    3    3    0    0 -0.25115268500E+02  0.12540428784E+02 -0.17717954943E+02  0.33195858078E+02  0.51100000000E-03 0. -1.
         22    1    1    0    0    0 -0.19427540965E+02 -0.33664168436E+02 -0.14903566971E+01  0.38896359052E+02  0.00000000000E+00 0.  1.
</event>
<event>
 5    1  0.3190780E-003  0.9118800E+02  0.7818608E-02  0.1130116E+00
         25   -1    0    0    0    0  0.00000000000E+00  0.00000000000E+00  0.99999998245E-14  0.12500000000E+03  0.12500000000E+03 0.  0.
        -11    1    3    3    0    0  0.11267098737E+01 -0.56168255330E+02  0.10316788444E+02  0.57118985513E+02  0.51100000000E-03 0.  1.
         23    2    1    0    0    0  0.15710030493E+02 -0.22519908201E+02  0.14359428212E+02  0.94013801427E+02  0.88760635175E+02 0.  0.
         11    1    3    3    0    0  0.14583320619E+02  0.33648347129E+02  0.40426397673E+01  0.36894815914E+02  0.51100000000E-03 0. -1.
         22    1    1    0    0    0 -0.15710030493E+02  0.22519908201E+02 -0.14359428212E+02  0.30986198573E+02  0.00000000000E+00 0.  1.
</event>
<event>
 5    1  0.3190780E-003  0.9118800E+02  0.7818608E-02  0.1130116E+00
         25   -1    0    0    0    0  0.00000000000E+00  0.00000000000E+00  0.99999998245E-14  0.12500000000E+03  0.12500000000E+03 0.  0.
        -11    1    3    3    0    0  0.32321158530E+02 -0.77962832974E+01  0.17128070974E+02  0.37400670281E+02  0.51100000000E-03 0. -1.
         23    2    1    0    0    0 -0.24797695835E+02  0.11081365128E+01  0.16465057382E+02  0.95213227770E+02  0.90433992185E+02 0.  0.
         11    1    3    3    0    0 -0.57118854365E+02  0.89044198102E+01 -0.66301359132E+00  0.57812557489E+02  0.51100000000E-03 0.  1.
         22    1    1    0    0    0  0.24797695835E+02 -0.11081365128E+01 -0.16465057382E+02  0.29786772230E+02  0.00000000000E+00 0.  1.
</event>
<event>
 5    1  0.3190780E-003  0.9118800E+02  0.7818608E-02  0.1130116E+00
         25   -1    0    0    0    0  0.00000000000E+00  0.00000000000E+00  0.99999998245E-14  0.12500000000E+03  0.12500000000E+03 0.  0.
        -11    1    3    3    0    0 -0.29264845185E+02  0.10670272305E+02 -0.25193000267E+02  0.40062115988E+02  0.51100000000E-03 0.  1.
         23    2    1    0    0    0 -0.12533409895E+02 -0.13451817612E+02  0.22424527932E+02  0.96001772233E+02  0.91517446742E+02 0.  0.
         11    1    3    3    0    0  0.16731435290E+02 -0.24122089916E+02  0.47617528199E+02  0.55939656245E+02  0.51100000000E-03 0. -1.
         22    1    1    0    0    0  0.12533409895E+02  0.13451817612E+02 -0.22424527932E+02  0.28998227767E+02  0.00000000000E+00 0. -1.
</event>
<event>
 5    1  0.3190780E-003  0.9118800E+02  0.7818608E-02  0.1130116E+00
         25   -1    0    0    0    0  0.00000000000E+00  0.00000000000E+00  0.99999998245E-14  0.12500000000E+03  0.12500000000E+03 0.  0.
        -11    1    3    3    0    0 -0.15100348794E+02 -0.32140819604E+02  0.14128633548E+02  0.38218727147E+02  0.51100000000E-03 0. -1.
         23    2    1    0    0    0  0.29522335757E+02 -0.44864014603E+00 -0.23592377906E+01  0.95380148726E+02  0.90664420704E+02 0.  0.
         11    1    3    3    0    0  0.44622684551E+02  0.31692179458E+02 -0.16487871339E+02  0.57161421579E+02  0.51100000000E-03 0.  1.
         22    1    1    0    0    0 -0.29522335757E+02  0.44864014603E+00  0.23592377906E+01  0.29619851274E+02  0.00000000000E+00 0.  1.
</event>
<event>
 5    1  0.3190780E-003  0.9118800E+02  0.7818608E-02  0.1130116E+00
         25   -1    0    0    0    0  0.00000000000E+00  0.00000000000E+00  0.99999998245E-14  0.12500000000E+03  0.12500000000E+03 0.  0.
        -11    1    3    3    0    0  0.20759481005E+02  0.27169885332E+02  0.12976161534E+02  0.36572386974E+02  0.51100000000E-03 0.  1.
         23    2    1    0    0    0 -0.10334166906E+02 -0.24782677923E+02  0.56552200187E+01  0.97559926309E+02  0.93621480320E+02 0.  0.
         11    1    3    3    0    0 -0.31093647911E+02 -0.51952563255E+02 -0.73209415152E+01  0.60987539335E+02  0.51100000000E-03 0. -1.
         22    1    1    0    0    0  0.10334166906E+02  0.24782677923E+02 -0.56552200187E+01  0.27440073691E+02  0.00000000000E+00 0. -1.
</event>
<event>
 5    1  0.3190780E-003  0.9118800E+02  0.7818608E-02  0.1130116E+00
         25   -1    0    0    0    0  0.00000000000E+00  0.00000000000E+00  0.99999998245E-14  0.12500000000E+03  0.12500000000E+03 0.  0.
        -11    1    3    3    0    0  0.39218382700E+02 -0.13366752054E+02 -0.57252980284E+00  0.41437656699E+02  0.51100000000E-03 0.  1.
         23    2    1    0    0    0 -0.35662220259E+01  0.22445157579E+02  0.12943588739E+02  0.98845850660E+02  0.95322938818E+02 0.  0.
         11    1    3    3    0    0 -0.42784604726E+02  0.35811909633E+02  0.13516118541E+02  0.57408193960E+02  0.51100000000E-03 0. -1.
         22    1    1    0    0    0  0.35662220259E+01 -0.22445157579E+02 -0.12943588739E+02  0.26154149340E+02  0.00000000000E+00 0. -1.
</event>
<event>
 5    1  0.3190780E-003  0.9118800E+02  0.7818608E-02  0.1130116E+00
         25   -1    0    0    0    0  0.00000000000E+00  0.00000000000E+00  0.99999998245E-14  0.12500000000E+03  0.12500000000E+03 0.  0.
        -11    1    3    3    0    0 -0.10994031004E+02  0.42721331482E+02 -0.81837336619E+01  0.44865960128E+02  0.51100000000E-03 0. -1.
         23    2    1    0    0    0 -0.12082140378E+02 -0.79955033286E+01 -0.23091586438E+02  0.97739634011E+02  0.93861112836E+02 0.  0.
         11    1    3    3    0    0 -0.10881093740E+01 -0.50716834811E+02 -0.14907852777E+02  0.52873673883E+02  0.51100000000E-03 0.  1.
         22    1    1    0    0    0  0.12082140378E+02  0.79955033286E+01  0.23091586438E+02  0.27260365989E+02  0.00000000000E+00 0.  1.
</event>
<event>
 5    1  0.3190780E-003  0.9118800E+02  0.7818608E-02  0.1130116E+00
         25   -1    0    0    0    0  0.00000000000E+00  0.00000000000E+00  0.99999998245E-14  0.12500000000E+03  0.12500000000E+03 0.  0.
        -11    1    3    3    0    0 -0.48881380936E-02 -0.55216769173E+02 -0.28817343266E+02  0.62284274861E+02  0.51100000000E-03 0.  1.
         23    2    1    0    0    0 -0.22232792108E+01 -0.14719576301E+02 -0.10477279274E+02  0.10679609169E+03  0.10523318356E+03 0.  0.
         11    1    3    3    0    0 -0.22183910727E+01  0.40497192873E+02  0.18340063992E+02  0.44511816824E+02  0.51100000000E-03 0. -1.
         22    1    1    0    0    0  0.22232792108E+01  0.14719576301E+02  0.10477279274E+02  0.18203908314E+02  0.00000000000E+00 0.  1.
</event>
<event>
 5    1  0.3190780E-003  0.9118800E+02  0.7818608E-02  0.1130116E+00
         25   -1    0    0    0    0  0.00000000000E+00  0.00000000000E+00  0.99999998245E-14  0.12500000000E+03  0.12500000000E+03 0.  0.
        -11    1    3    3    0    0  0.34730693888E+02 -0.23505236901E+02 -0.56439937924E+01  0.42315150076E+02  0.51100000000E-03 0.  1.
         23    2    1    0    0    0 -0.18488022780E+02 -0.22027306647E+02  0.23289716136E+01  0.96148079211E+02  0.91717063858E+02 0.  0.
         11    1    3    3    0    0 -0.53218716669E+02  0.14779302544E+01  0.79729654061E+01  0.53832929136E+02  0.51100000000E-03 0. -1.
         22    1    1    0    0    0  0.18488022780E+02  0.22027306647E+02 -0.23289716136E+01  0.28851920789E+02  0.00000000000E+00 0. -1.
</event>
<event>
 5    1  0.3190780E-003  0.9118800E+02  0.7818608E-02  0.1130116E+00
         25   -1    0    0    0    0  0.00000000000E+00  0.00000000000E+00  0.99999998245E-14  0.12500000000E+03  0.12500000000E+03 0.  0.
        -11    1    3    3    0    0 -0.36513339442E+02 -0.16723727026E+02  0.33023639511E+01  0.40296558300E+02  0.51100000000E-03 0. -1.
         23    2    1    0    0    0  0.57039080900E+01  0.24433135499E+02 -0.35789487446E+01  0.99655936554E+02  0.96379376106E+02 0.  0.
         11    1    3    3    0    0  0.42217247532E+02  0.41156862525E+02 -0.68813126957E+01  0.59359378255E+02  0.51100000000E-03 0.  1.
         22    1    1    0    0    0 -0.57039080900E+01 -0.24433135499E+02  0.35789487446E+01  0.25344063446E+02  0.00000000000E+00 0.  1.
</event>
<event>
 5    1  0.3190780E-003  0.9118800E+02  0.7818608E-02  0.1130116E+00
         25   -1    0    0    0    0  0.00000000000E+00  0.00000000000E+00  0.99999998245E-14  0.12500000000E+03  0.12500000000E+03 0.  0.
        -11    1    3    3    0    0 -0.43533572202E+02 -0.34879770215E+02  0.12960593722E+02  0.57269077772E+02  0.51100000000E-03 0. -1.
         23    2    1    0    0    0 -0.20946767076E+02 -0.16925653739E+02 -0.12090625448E+02  0.95480040157E+02  0.90802037638E+02 0.  0.
         11    1    3    3    0    0  0.22586805126E+02  0.17954116476E+02 -0.25051219170E+02  0.38210962385E+02  0.51100000000E-03 0.  1.
         22    1    1    0    0    0  0.20946767076E+02  0.16925653739E+02  0.12090625448E+02  0.29519959843E+02  0.00000000000E+00 0. -1.
</event>
<event>
 5    1  0.3190780E-003  0.9118800E+02  0.7818608E-02  0.1130116E+00
         25   -1    0    0    0    0  0.00000000000E+00  0.00000000000E+00  0.99999998245E-14  0.12500000000E+03  0.12500000000E+03 0.  0.
        -11    1    3    3    0    0  0.17503833342E+02 -0.46602538686E+02  0.29629695134E+02  0.57931853307E+02  0.51100000000E-03 0.  1.
         23    2    1    0    0    0 -0.57893898286E+01 -0.18380909117E+02  0.22783119472E+02  0.95159668443E+02  0.90359930891E+02 0.  0.
         11    1    3    3    0    0 -0.23293223171E+02  0.28221629569E+02 -0.68465756617E+01  0.37227815135E+02  0.51100000000E-03 0. -1.
         22    1    1    0    0    0  0.57893898286E+01  0.18380909117E+02 -0.22783119472E+02  0.29840331557E+02  0.00000000000E+00 0.  1.
</event>
<event>
 5    1  0.3190780E-003  0.9118800E+02  0.7818608E-02  0.1130116E+00
         25   -1    0    0    0    0  0.00000000000E+00  0.00000000000E+00  0.99999998245E-14  0.12500000000E+03  0.12500000000E+03 0.  0.
        -11    1    3    3    0    0  0.28231112889E+02  0.18003976302E+02 -0.99859008329E+01  0.34940765781E+02  0.51100000000E-03 0.  1.
         23    2    1    0    0    0 -0.12757717696E+02 -0.25335705345E+02 -0.10929883844E+02  0.94600663050E+02  0.89583289528E+02 0.  0.
         11    1    3    3    0    0 -0.40988830585E+02 -0.43339681647E+02 -0.94398301076E+00  0.59659897269E+02  0.51100000000E-03 0. -1.
         22    1    1    0    0    0  0.12757717696E+02  0.25335705345E+02  0.10929883844E+02  0.30399336950E+02  0.00000000000E+00 0. -1.
</event>
<event>
 5    1  0.3190780E-003  0.9118800E+02  0.7818608E-02  0.1130116E+00
         25   -1    0    0    0    0  0.00000000000E+00  0.00000000000E+00  0.99999998245E-14  0.12500000000E+03  0.12500000000E+03 0.  0.
        -11    1    3    3    0    0  0.54872200538E+02  0.26341996570E+02  0.12092223726E+02  0.62057078969E+02  0.51100000000E-03 0.  1.
         23    2    1    0    0    0  0.26260744314E+02  0.89304601685E+01  0.96212505151E+01  0.95641044429E+02  0.91023409666E+02 0.  0.
         11    1    3    3    0    0 -0.28611456224E+02 -0.17411536402E+02 -0.24709732111E+01  0.33583965460E+02  0.51100000000E-03 0. -1.
         22    1    1    0    0    0 -0.26260744314E+02 -0.89304601685E+01 -0.96212505151E+01  0.29358955571E+02  0.00000000000E+00 0.  1.
</event>
<event>
 5    1  0.3190780E-003  0.9118800E+02  0.7818608E-02  0.1130116E+00
         25   -1    0    0    0    0  0.00000000000E+00  0.00000000000E+00  0.99999998245E-14  0.12500000000E+03  0.12500000000E+03 0.  0.
        -11    1    3    3    0    0  0.52767290055E+02 -0.22874837643E+02  0.15407182655E+02  0.59540124072E+02  0.51100000000E-03 0.  1.
         23    2    1    0    0    0  0.21954347957E+02 -0.20442068197E+02 -0.18589913148E+01  0.94944594577E+02  0.90061915616E+02 0.  0.
         11    1    3    3    0    0 -0.30812942098E+02  0.24327694452E+01 -0.17266173970E+02  0.35404470505E+02  0.51100000000E-03 0. -1.
         22    1    1    0    0    0 -0.21954347957E+02  0.20442068197E+02  0.18589913148E+01  0.30055405423E+02  0.00000000000E+00 0.  1.
</event>
<event>
 5    1  0.3190780E-003  0.9118800E+02  0.7818608E-02  0.1130116E+00
         25   -1    0    0    0    0  0.00000000000E+00  0.00000000000E+00  0.99999998245E-14  0.12500000000E+03  0.12500000000E+03 0.  0.
        -11    1    3    3    0    0  0.10856259371E+02  0.11631877226E+00  0.34091530212E+02  0.35778545667E+02  0.51100000000E-03 0.  1.
         23    2    1    0    0    0  0.55667411984E+01 -0.11769622305E+02 -0.25282956004E+02  0.96561637159E+02  0.92278975340E+02 0.  0.
         11    1    3    3    0    0 -0.52895181726E+01 -0.11885941078E+02 -0.59374486215E+02  0.60783091493E+02  0.51100000000E-03 0. -1.
         22    1    1    0    0    0 -0.55667411984E+01  0.11769622305E+02  0.25282956004E+02  0.28438362841E+02  0.00000000000E+00 0. -1.
</event>
<event>
 5    1  0.3190780E-003  0.9118800E+02  0.7818608E-02  0.1130116E+00
         25   -1    0    0    0    0  0.00000000000E+00  0.00000000000E+00  0.99999998245E-14  0.12500000000E+03  0.12500000000E+03 0.  0.
        -11    1    3    3    0    0 -0.23692192586E+02 -0.49495073327E+02  0.91721160779E+00  0.54880994439E+02  0.51100000000E-03 0.  1.
         23    2    1    0    0    0 -0.21991304806E+02 -0.11527432538E+02  0.15658540845E+02  0.95645458795E+02  0.91029471594E+02 0.  0.
         11    1    3    3    0    0  0.17008877806E+01  0.37967640789E+02  0.14741329237E+02  0.40764464356E+02  0.51100000000E-03 0. -1.
         22    1    1    0    0    0  0.21991304806E+02  0.11527432538E+02 -0.15658540845E+02  0.29354541205E+02  0.00000000000E+00 0.  1.
</event>
<event>
 5    1  0.3190780E-003  0.9118800E+02  0.7818608E-02  0.1130116E+00
         25   -1    0    0    0    0  0.00000000000E+00  0.00000000000E+00  0.99999998245E-14  0.12500000000E+03  0.12500000000E+03 0.  0.
        -11    1    3    3    0    0  0.51888495566E+02  0.21296053765E+02  0.19609425169E+02  0.59417736694E+02  0.51100000000E-03 0. -1.
         23    2    1    0    0    0  0.20763506847E+02  0.22979242706E+02  0.58873918029E+01  0.93474927531E+02  0.87998476593E+02 0.  0.
         11    1    3    3    0    0 -0.31124988719E+02  0.16831889416E+01 -0.13722033366E+02  0.34057190837E+02  0.51100000000E-03 0.  1.
         22    1    1    0    0    0 -0.20763506847E+02 -0.22979242706E+02 -0.58873918029E+01  0.31525072469E+02  0.00000000000E+00 0. -1.
</event>
<event>
 5    1  0.3190780E-003  0.9118800E+02  0.7818608E-02  0.1130116E+00
         25   -1    0    0    0    0  0.00000000000E+00  0.00000000000E+00  0.99999998245E-14  0.12500000000E+03  0.12500000000E+03 0.  0.
        -11    1    3    3    0    0 -0.36412092150E+02 -0.15428845978E+02 -0.11525028669E+02  0.41191213008E+02  0.51100000000E-03 0. -1.
         23    2    1    0    0    0  0.10109706118E+02 -0.21123951581E+02  0.17003100743E+02  0.96059838924E+02  0.91596723364E+02 0.  0.
         11    1    3    3    0    0  0.46521798268E+02 -0.56951056036E+01  0.28528129413E+02  0.54868625916E+02  0.51100000000E-03 0.  1.
         22    1    1    0    0    0 -0.10109706118E+02  0.21123951581E+02 -0.17003100743E+02  0.28940161076E+02  0.00000000000E+00 0.  1.
</event>
<event>
 5    1  0.3190780E-003  0.9118800E+02  0.7818608E-02  0.1130116E+00
         25   -1    0    0    0    0  0.00000000000E+00  0.00000000000E+00  0.99999998245E-14  0.12500000000E+03  0.12500000000E+03 0.  0.
        -11    1    3    3    0    0  0.18830425940E+02  0.10076300448E+01  0.33038280602E+02  0.38041138847E+02  0.51100000000E-03 0. -1.
         23    2    1    0    0    0  0.97522586645E+01  0.17316612038E+02 -0.21521781343E+02  0.95705654578E+02  0.91112093843E+02 0.  0.
         11    1    3    3    0    0 -0.90781672752E+01  0.16308981993E+02 -0.54560061945E+02  0.57664515731E+02  0.51100000000E-03 0.  1.
         22    1    1    0    0    0 -0.97522586645E+01 -0.17316612038E+02  0.21521781343E+02  0.29294345422E+02  0.00000000000E+00 0.  1.
</event>
<event>
 5    1  0.3190780E-003  0.9118800E+02  0.7818608E-02  0.1130116E+00
         25   -1    0    0    0    0  0.00000000000E+00  0.00000000000E+00  0.99999998245E-14  0.12500000000E+03  0.12500000000E+03 0.  0.
        -11    1    3    3    0    0  0.45724348060E+02  0.27379949343E+01  0.28926458280E+02  0.54175202913E+02  0.51100000000E-03 0. -1.
         23    2    1    0    0    0  0.20110323674E+02  0.21920184021E+02  0.35004450941E+01  0.95047158705E+02  0.90204155537E+02 0.  0.
         11    1    3    3    0    0 -0.25614024386E+02  0.19182189087E+02 -0.25426013186E+02  0.40871955791E+02  0.51100000000E-03 0.  1.
         22    1    1    0    0    0 -0.20110323674E+02 -0.21920184021E+02 -0.35004450941E+01  0.29952841295E+02  0.00000000000E+00 0. -1.
</event>
<event>
 5    1  0.3190780E-003  0.9118800E+02  0.7818608E-02  0.1130116E+00
         25   -1    0    0    0    0  0.00000000000E+00  0.00000000000E+00  0.99999998245E-14  0.12500000000E+03  0.12500000000E+03 0.  0.
        -11    1    3    3    0    0 -0.25252546910E+02 -0.11445974812E+02 -0.22638696281E+02  0.35794022328E+02  0.51100000000E-03 0. -1.
         23    2    1    0    0    0  0.28553955501E+02  0.46618045677E+01 -0.79776527890E+00  0.96057000397E+02  0.91592849607E+02 0.  0.
         11    1    3    3    0    0  0.53806502412E+02  0.16107779380E+02  0.21840931003E+02  0.60262978068E+02  0.51100000000E-03 0.  1.
         22    1    1    0    0    0 -0.28553955501E+02 -0.46618045677E+01  0.79776527890E+00  0.28942999603E+02  0.00000000000E+00 0.  1.
</event>
<event>
 5    1  0.3190780E-003  0.9118800E+02  0.7818608E-02  0.1130116E+00
         25   -1    0    0    0    0  0.00000000000E+00  0.00000000000E+00  0.99999998245E-14  0.12500000000E+03  0.12500000000E+03 0.  0.
        -11    1    3    3    0    0 -0.17686413562E+02 -0.12741529460E+02 -0.50095854515E+02  0.54632869570E+02  0.51100000000E-03 0. -1.
         23    2    1    0    0    0 -0.71859790350E+01  0.16098982584E+02 -0.25671862469E+02  0.93857423717E+02  0.88540137391E+02 0.  0.
         11    1    3    3    0    0  0.10500434527E+02  0.28840512045E+02  0.24423992046E+02  0.39224554146E+02  0.51100000000E-03 0.  1.
         22    1    1    0    0    0  0.71859790350E+01 -0.16098982584E+02  0.25671862469E+02  0.31142576283E+02  0.00000000000E+00 0. -1.
</event>
<event>
 5    1  0.3190780E-003  0.9118800E+02  0.7818608E-02  0.1130116E+00
         25   -1    0    0    0    0  0.00000000000E+00  0.00000000000E+00  0.99999998245E-14  0.12500000000E+03  0.12500000000E+03 0.  0.
        -11    1    3    3    0    0 -0.20742252562E+02  0.25111571150E+02  0.27901240139E+02  0.42887192126E+02  0.51100000000E-03 0.  1.
         23    2    1    0    0    0  0.73542539875E+01 -0.18757301614E+02  0.21763324506E+02  0.95342560645E+02  0.90612582797E+02 0.  0.
         11    1    3    3    0    0  0.28096506549E+02 -0.43868872764E+02 -0.61379156322E+01  0.52455368518E+02  0.51100000000E-03 0. -1.
         22    1    1    0    0    0 -0.73542539875E+01  0.18757301614E+02 -0.21763324506E+02  0.29657439355E+02  0.00000000000E+00 0. -1.
</event>
<event>
 5    1  0.3190780E-003  0.9118800E+02  0.7818608E-02  0.1130116E+00
         25   -1    0    0    0    0  0.00000000000E+00  0.00000000000E+00  0.99999998245E-14  0.12500000000E+03  0.12500000000E+03 0.  0.
        -11    1    3    3    0    0  0.45745514405E+02 -0.28204188880E+02 -0.20182299226E+02  0.57406041153E+02  0.51100000000E-03 0. -1.
         23    2    1    0    0    0  0.29830437630E+02  0.84032187518E+00 -0.22380482640E+01  0.95073924246E+02  0.90241238142E+02 0.  0.
         11    1    3    3    0    0 -0.15915076776E+02  0.29044510756E+02  0.17944250962E+02  0.37667883092E+02  0.51100000000E-03 0.  1.
         22    1    1    0    0    0 -0.29830437630E+02 -0.84032187518E+00  0.22380482640E+01  0.29926075754E+02  0.00000000000E+00 0. -1.
</event>
<event>
 5    1  0.3190780E-003  0.9118800E+02  0.7818608E-02  0.1130116E+00
         25   -1    0    0    0    0  0.00000000000E+00  0.00000000000E+00  0.99999998245E-14  0.12500000000E+03  0.12500000000E+03 0.  0.
        -11    1    3    3    0    0 -0.31254788350E+02  0.15358958487E+02 -0.28667585698E+02  0.45106428263E+02  0.51100000000E-03 0.  1.
         23    2    1    0    0    0  0.82888714646E+00  0.26872088149E+02  0.96907778802E+01  0.96421907844E+02  0.92089505161E+02 0.  0.
         11    1    3    3    0    0  0.32083675497E+02  0.11513129662E+02  0.38358363578E+02  0.51315479581E+02  0.51100000000E-03 0. -1.
         22    1    1    0    0    0 -0.82888714646E+00 -0.26872088149E+02 -0.96907778802E+01  0.28578092156E+02  0.00000000000E+00 0.  1.
</event>
<event>
 5    1  0.3190780E-003  0.9118800E+02  0.7818608E-02  0.1130116E+00
         25   -1    0    0    0    0  0.00000000000E+00  0.00000000000E+00  0.99999998245E-14  0.12500000000E+03  0.12500000000E+03 0.  0.
        -11    1    3    3    0    0  0.34902500331E+02 -0.43827284284E+02 -0.20829337997E+02  0.59773545141E+02  0.51100000000E-03 0. -1.
         23    2    1    0    0    0  0.10840063261E+02 -0.24125371029E+02  0.21830662349E+01  0.98461230681E+02  0.94817232981E+02 0.  0.
         11    1    3    3    0    0 -0.24062437070E+02  0.19701913255E+02  0.23012404232E+02  0.38687685540E+02  0.51100000000E-03 0.  1.
         22    1    1    0    0    0 -0.10840063261E+02  0.24125371029E+02 -0.21830662349E+01  0.26538769319E+02  0.00000000000E+00 0. -1.
</event>
<event>
 5    1  0.3190780E-003  0.9118800E+02  0.7818608E-02  0.1130116E+00
         25   -1    0    0    0    0  0.00000000000E+00  0.00000000000E+00  0.99999998245E-14  0.12500000000E+03  0.12500000000E+03 0.  0.
        -11    1    3    3    0    0 -0.14919404326E+02 -0.46731149865E+02 -0.33091491639E+02  0.59172931415E+02  0.51100000000E-03 0. -1.
         23    2    1    0    0    0 -0.19428900221E+02 -0.27418343572E+02 -0.93275938911E+01  0.90125199128E+02  0.83104150210E+02 0.  0.
         11    1    3    3    0    0 -0.45094958954E+01  0.19312806293E+02  0.23763897748E+02  0.30952267713E+02  0.51100000000E-03 0.  1.
         22    1    1    0    0    0  0.19428900221E+02  0.27418343572E+02  0.93275938911E+01  0.34874800872E+02  0.00000000000E+00 0. -1.
</event>
<event>
 5    1  0.3190780E-003  0.9118800E+02  0.7818608E-02  0.1130116E+00
         25   -1    0    0    0    0  0.00000000000E+00  0.00000000000E+00  0.99999998245E-14  0.12500000000E+03  0.12500000000E+03 0.  0.
        -11    1    3    3    0    0 -0.16263956412E+02  0.30379314537E+02  0.47644672507E+02  0.58799947691E+02  0.51100000000E-03 0.  1.
         23    2    1    0    0    0  0.70435748393E+01  0.18234061885E+02  0.22820531144E+02  0.94952211378E+02  0.90072486613E+02 0.  0.
         11    1    3    3    0    0  0.23307531251E+02 -0.12145252652E+02 -0.24824141363E+02  0.36152263687E+02  0.51100000000E-03 0. -1.
         22    1    1    0    0    0 -0.70435748393E+01 -0.18234061885E+02 -0.22820531144E+02  0.30047788622E+02  0.00000000000E+00 0.  1.
</event>
<event>
 5    1  0.3190780E-003  0.9118800E+02  0.7818608E-02  0.1130116E+00
         25   -1    0    0    0    0  0.00000000000E+00  0.00000000000E+00  0.99999998245E-14  0.12500000000E+03  0.12500000000E+03 0.  0.
        -11    1    3    3    0    0  0.12413268430E+02 -0.35536326242E+02  0.47076234609E+02  0.60275132360E+02  0.51100000000E-03 0.  1.
         23    2    1    0    0    0  0.11456558448E+02 -0.20986246974E+02  0.12028638719E+02  0.98235033291E+02  0.94518560731E+02 0.  0.
         11    1    3    3    0    0 -0.95670998196E+00  0.14550079268E+02 -0.35047595890E+02  0.37959900930E+02  0.51100000000E-03 0. -1.
         22    1    1    0    0    0 -0.11456558448E+02  0.20986246974E+02 -0.12028638719E+02  0.26764966709E+02  0.00000000000E+00 0.  1.
</event>
<event>
 5    1  0.3190780E-003  0.9118800E+02  0.7818608E-02  0.1130116E+00
         25   -1    0    0    0    0  0.00000000000E+00  0.00000000000E+00  0.99999998245E-14  0.12500000000E+03  0.12500000000E+03 0.  0.
        -11    1    3    3    0    0 -0.10687237691E+02  0.35403267849E+02 -0.42206147937E+02  0.56115660450E+02  0.51100000000E-03 0. -1.
         23    2    1    0    0    0 -0.13329246001E+02  0.26261811905E+02 -0.42528030730E+01  0.95243691468E+02  0.90476090029E+02 0.  0.
         11    1    3    3    0    0 -0.26420083101E+01 -0.91414559445E+01  0.37953344864E+02  0.39128031017E+02  0.51100000000E-03 0.  1.
         22    1    1    0    0    0  0.13329246001E+02 -0.26261811905E+02  0.42528030730E+01  0.29756308532E+02  0.00000000000E+00 0. -1.
</event>
<event>
 5    1  0.3190780E-003  0.9118800E+02  0.7818608E-02  0.1130116E+00
         25   -1    0    0    0    0  0.00000000000E+00  0.00000000000E+00  0.99999998245E-14  0.12500000000E+03  0.12500000000E+03 0.  0.
        -11    1    3    3    0    0 -0.25318622059E+02 -0.20840436195E+02 -0.33264564575E+01  0.32960911950E+02  0.51100000000E-03 0.  1.
         23    2    1    0    0    0  0.23008560095E+02  0.12113963800E+02  0.15885524750E+02  0.94528835710E+02  0.89483009155E+02 0.  0.
         11    1    3    3    0    0  0.48327182154E+02  0.32954399995E+02  0.19211981207E+02  0.61567923760E+02  0.51100000000E-03 0. -1.
         22    1    1    0    0    0 -0.23008560095E+02 -0.12113963800E+02 -0.15885524750E+02  0.30471164290E+02  0.00000000000E+00 0. -1.
</event>
<event>
 5    1  0.3190780E-003  0.9118800E+02  0.7818608E-02  0.1130116E+00
         25   -1    0    0    0    0  0.00000000000E+00  0.00000000000E+00  0.99999998245E-14  0.12500000000E+03  0.12500000000E+03 0.  0.
        -11    1    3    3    0    0  0.39965626157E+01  0.25518207492E+02 -0.56530704475E+02  0.62152007007E+02  0.51100000000E-03 0.  1.
         23    2    1    0    0    0 -0.26338980590E+01  0.11160439077E+02 -0.27365706197E+02  0.95328891240E+02  0.90593723900E+02 0.  0.
         11    1    3    3    0    0 -0.66304606747E+01 -0.14357768415E+02  0.29164998278E+02  0.33176884233E+02  0.51100000000E-03 0. -1.
         22    1    1    0    0    0  0.26338980590E+01 -0.11160439077E+02  0.27365706197E+02  0.29671108760E+02  0.00000000000E+00 0.  1.
</event>
<event>
 5    1  0.3190780E-003  0.9118800E+02  0.7818608E-02  0.1130116E+00
         25   -1    0    0    0    0  0.00000000000E+00  0.00000000000E+00  0.99999998245E-14  0.12500000000E+03  0.12500000000E+03 0.  0.
        -11    1    3    3    0    0  0.14535379603E+02 -0.29875317296E+02 -0.18327784124E+02  0.37943636026E+02  0.51100000000E-03 0.  1.
         23    2    1    0    0    0 -0.17394420564E+02  0.18194734961E+02 -0.14889654692E+02  0.95754212886E+02  0.91178688418E+02 0.  0.
         11    1    3    3    0    0 -0.31929800167E+02  0.48070052256E+02  0.34381294324E+01  0.57810576860E+02  0.51100000000E-03 0. -1.
         22    1    1    0    0    0  0.17394420564E+02 -0.18194734961E+02  0.14889654692E+02  0.29245787114E+02  0.00000000000E+00 0. -1.
</event>
<event>
 5    1  0.3190780E-003  0.9118800E+02  0.7818608E-02  0.1130116E+00
         25   -1    0    0    0    0  0.00000000000E+00  0.00000000000E+00  0.99999998245E-14  0.12500000000E+03  0.12500000000E+03 0.  0.
        -11    1    3    3    0    0  0.29952536438E+02  0.12638808259E+02  0.12855151278E+02  0.34959245242E+02  0.51100000000E-03 0. -1.
         23    2    1    0    0    0 -0.15797662091E+02  0.84951590825E+01 -0.24824693251E+02  0.94373226576E+02  0.89265372031E+02 0.  0.
         11    1    3    3    0    0 -0.45750198528E+02 -0.41436491769E+01 -0.37679844529E+02  0.59413981333E+02  0.51100000000E-03 0.  1.
         22    1    1    0    0    0  0.15797662091E+02 -0.84951590825E+01  0.24824693251E+02  0.30626773424E+02  0.00000000000E+00 0.  1.
</event>
<event>
 5    1  0.3190780E-003  0.9118800E+02  0.7818608E-02  0.1130116E+00
         25   -1    0    0    0    0  0.00000000000E+00  0.00000000000E+00  0.99999998245E-14  0.12500000000E+03  0.12500000000E+03 0.  0.
        -11    1    3    3    0    0 -0.44824579023E+02 -0.16787663522E+02  0.10936481468E+02  0.49098626847E+02  0.51100000000E-03 0.  1.
         23    2    1    0    0    0 -0.15522912950E+02 -0.16244839678E+02 -0.22253760077E+02  0.93375871866E+02  0.87857657416E+02 0.  0.
         11    1    3    3    0    0  0.29301666073E+02  0.54282384359E+00 -0.33190241545E+02  0.44277245019E+02  0.51100000000E-03 0. -1.
         22    1    1    0    0    0  0.15522912950E+02  0.16244839678E+02  0.22253760077E+02  0.31624128134E+02  0.00000000000E+00 0.  1.
</event>
<event>
 5    1  0.3190780E-003  0.9118800E+02  0.7818608E-02  0.1130116E+00
         25   -1    0    0    0    0  0.00000000000E+00  0.00000000000E+00  0.99999998245E-14  0.12500000000E+03  0.12500000000E+03 0.  0.
        -11    1    3    3    0    0 -0.17798550913E+02  0.38318237409E+02  0.27319123381E+02  0.50313121899E+02  0.51100000000E-03 0.  1.
         23    2    1    0    0    0 -0.46917827216E+01 -0.24723039556E+01  0.31218030469E+02  0.93334710828E+02  0.87799075775E+02 0.  0.
         11    1    3    3    0    0  0.13106768191E+02 -0.40790541364E+02  0.38989070889E+01  0.43021588929E+02  0.51100000000E-03 0. -1.
         22    1    1    0    0    0  0.46917827216E+01  0.24723039556E+01 -0.31218030469E+02  0.31665289172E+02  0.00000000000E+00 0.  1.
</event>
<event>
 5    1  0.3190780E-003  0.9118800E+02  0.7818608E-02  0.1130116E+00
         25   -1    0    0    0    0  0.00000000000E+00  0.00000000000E+00  0.99999998245E-14  0.12500000000E+03  0.12500000000E+03 0.  0.
        -11    1    3    3    0    0 -0.16813428681E+02 -0.16496439290E+02  0.27044193874E+02  0.35863802305E+02  0.51100000000E-03 0.  1.
         23    2    1    0    0    0  0.30923536055E+02  0.70025634053E+01  0.11051795384E+02  0.91422579646E+02  0.85033198879E+02 0.  0.
         11    1    3    3    0    0  0.47736964736E+02  0.23499002695E+02 -0.15992398490E+02  0.55558777341E+02  0.51100000000E-03 0. -1.
         22    1    1    0    0    0 -0.30923536055E+02 -0.70025634053E+01 -0.11051795384E+02  0.33577420354E+02  0.00000000000E+00 0.  1.
</event>
<event>
 5    1  0.3190780E-003  0.9118800E+02  0.7818608E-02  0.1130116E+00
         25   -1    0    0    0    0  0.00000000000E+00  0.00000000000E+00  0.99999998245E-14  0.12500000000E+03  0.12500000000E+03 0.  0.
        -11    1    3    3    0    0  0.49839717691E+02 -0.77475939272E+01  0.40474182289E+01  0.50600437407E+02  0.51100000000E-03 0.  1.
         23    2    1    0    0    0  0.13843475824E+02  0.14000814013E+02  0.21242544340E+02  0.96036051617E+02  0.91564255604E+02 0.  0.
         11    1    3    3    0    0 -0.35996241867E+02  0.21748407940E+02  0.17195126111E+02  0.45435614210E+02  0.51100000000E-03 0. -1.
         22    1    1    0    0    0 -0.13843475824E+02 -0.14000814013E+02 -0.21242544340E+02  0.28963948383E+02  0.00000000000E+00 0.  1.
</event>
<event>
 5    1  0.3190780E-003  0.9118800E+02  0.7818608E-02  0.1130116E+00
         25   -1    0    0    0    0  0.00000000000E+00  0.00000000000E+00  0.99999998245E-14  0.12500000000E+03  0.12500000000E+03 0.  0.
        -11    1    3    3    0    0 -0.23315163391E+02  0.31653556683E+02 -0.12044792966E+02  0.41117168342E+02  0.51100000000E-03 0.  1.
         23    2    1    0    0    0  0.26051514844E+02  0.15506016714E+02  0.98505880297E+00  0.94667042333E+02  0.89675863994E+02 0.  0.
         11    1    3    3    0    0  0.49366678235E+02 -0.16147539969E+02  0.13029851769E+02  0.53549873991E+02  0.51100000000E-03 0. -1.
         22    1    1    0    0    0 -0.26051514844E+02 -0.15506016714E+02 -0.98505880297E+00  0.30332957667E+02  0.00000000000E+00 0. -1.
</event>
<event>
 5    1  0.3190780E-003  0.9118800E+02  0.7818608E-02  0.1130116E+00
         25   -1    0    0    0    0  0.00000000000E+00  0.00000000000E+00  0.99999998245E-14  0.12500000000E+03  0.12500000000E+03 0.  0.
        -11    1    3    3    0    0  0.17749623114E+02  0.58087842570E+02 -0.99487771698E+01  0.61548555975E+02  0.51100000000E-03 0.  1.
         23    2    1    0    0    0  0.13369104210E+02  0.23756648599E+02 -0.94074614441E+01  0.96162322721E+02  0.91736474099E+02 0.  0.
         11    1    3    3    0    0 -0.43805189038E+01 -0.34331193971E+02  0.54131572571E+00  0.34613766746E+02  0.51100000000E-03 0. -1.
         22    1    1    0    0    0 -0.13369104210E+02 -0.23756648599E+02  0.94074614441E+01  0.28837677279E+02  0.00000000000E+00 0.  1.
</event>
<event>
 5    1  0.3190780E-003  0.9118800E+02  0.7818608E-02  0.1130116E+00
         25   -1    0    0    0    0  0.00000000000E+00  0.00000000000E+00  0.99999998245E-14  0.12500000000E+03  0.12500000000E+03 0.  0.
        -11    1    3    3    0    0 -0.22088957980E+02  0.20071678387E+02  0.46954742200E+02  0.55637596580E+02  0.51100000000E-03 0. -1.
         23    2    1    0    0    0  0.10230138075E+02  0.14795796290E+02  0.20431787916E+02  0.97778147192E+02  0.93912388948E+02 0.  0.
         11    1    3    3    0    0  0.32319096054E+02 -0.52758820972E+01 -0.26522954284E+02  0.42140550612E+02  0.51100000000E-03 0.  1.
         22    1    1    0    0    0 -0.10230138075E+02 -0.14795796290E+02 -0.20431787916E+02  0.27221852808E+02  0.00000000000E+00 0. -1.
</event>
<event>
 5    1  0.3190780E-003  0.9118800E+02  0.7818608E-02  0.1130116E+00
         25   -1    0    0    0    0  0.00000000000E+00  0.00000000000E+00  0.99999998245E-14  0.12500000000E+03  0.12500000000E+03 0.  0.
        -11    1    3    3    0    0  0.31812680900E+01 -0.18323366753E+02 -0.36740159311E+02  0.41178945376E+02  0.51100000000E-03 0.  1.
         23    2    1    0    0    0 -0.67884436951E+01 -0.23214607920E+02  0.16601207681E+02  0.95663996776E+02  0.91054924052E+02 0.  0.
         11    1    3    3    0    0 -0.99697117851E+01 -0.48912411671E+01  0.53341366992E+02  0.54485051400E+02  0.51100000000E-03 0. -1.
         22    1    1    0    0    0  0.67884436951E+01  0.23214607920E+02 -0.16601207681E+02  0.29336003224E+02  0.00000000000E+00 0. -1.
</event>
<event>
 5    1  0.3190780E-003  0.9118800E+02  0.7818608E-02  0.1130116E+00
         25   -1    0    0    0    0  0.00000000000E+00  0.00000000000E+00  0.99999998245E-14  0.12500000000E+03  0.12500000000E+03 0.  0.
        -11    1    3    3    0    0 -0.21125878345E+02 -0.38321200701E+02  0.44600662993E+02  0.62482287880E+02  0.51100000000E-03 0.  1.
         23    2    1    0    0    0 -0.83928894795E+01 -0.16882245017E+02  0.20157898703E+02  0.97399426261E+02  0.93406940669E+02 0.  0.
         11    1    3    3    0    0  0.12732988866E+02  0.21438955684E+02 -0.24442764291E+02  0.34917138381E+02  0.51100000000E-03 0. -1.
         22    1    1    0    0    0  0.83928894795E+01  0.16882245017E+02 -0.20157898703E+02  0.27600573739E+02  0.00000000000E+00 0.  1.
</event>
<event>
 5    1  0.3190780E-003  0.9118800E+02  0.7818608E-02  0.1130116E+00
         25   -1    0    0    0    0  0.00000000000E+00  0.00000000000E+00  0.99999998245E-14  0.12500000000E+03  0.12500000000E+03 0.  0.
        -11    1    3    3    0    0  0.11684183457E+02 -0.19981570892E+02  0.35210532377E+02  0.42137452568E+02  0.51100000000E-03 0. -1.
         23    2    1    0    0    0  0.24963002113E+02  0.16480791303E+02 -0.79956430215E+00  0.95076643578E+02  0.90245004817E+02 0.  0.
         11    1    3    3    0    0  0.13278818656E+02  0.36462362195E+02 -0.36010096679E+02  0.52939191010E+02  0.51100000000E-03 0.  1.
         22    1    1    0    0    0 -0.24963002113E+02 -0.16480791303E+02  0.79956430215E+00  0.29923356422E+02  0.00000000000E+00 0.  1.
</event>
<event>
 5    1  0.3190780E-003  0.9118800E+02  0.7818608E-02  0.1130116E+00
         25   -1    0    0    0    0  0.00000000000E+00  0.00000000000E+00  0.99999998245E-14  0.12500000000E+03  0.12500000000E+03 0.  0.
        -11    1    3    3    0    0  0.12226422780E+01 -0.29215353368E+02  0.16691891986E+02  0.33669733960E+02  0.51100000000E-03 0.  1.
         23    2    1    0    0    0  0.53308016494E+01  0.24931190762E+02 -0.13864938207E+02  0.95979003626E+02  0.91486342732E+02 0.  0.
         11    1    3    3    0    0  0.41081593714E+01  0.54146544131E+02 -0.30556830193E+02  0.62309269667E+02  0.51100000000E-03 0. -1.
         22    1    1    0    0    0 -0.53308016494E+01 -0.24931190762E+02  0.13864938207E+02  0.29020996374E+02  0.00000000000E+00 0. -1.
</event>
<event>
 5    1  0.3190780E-003  0.9118800E+02  0.7818608E-02  0.1130116E+00
         25   -1    0    0    0    0  0.00000000000E+00  0.00000000000E+00  0.99999998245E-14  0.12500000000E+03  0.12500000000E+03 0.  0.
        -11    1    3    3    0    0  0.28192437708E+02 -0.82533881290E+01 -0.11433899270E+02  0.31522468372E+02  0.51100000000E-03 0. -1.
         23    2    1    0    0    0 -0.96322723711E+01  0.18586153706E+02  0.26351414493E+02  0.91345537793E+02  0.84919870751E+02 0.  0.
         11    1    3    3    0    0 -0.37824710079E+02  0.26839541835E+02  0.37785313763E+02  0.59823069421E+02  0.51100000000E-03 0.  1.
         22    1    1    0    0    0  0.96322723711E+01 -0.18586153706E+02 -0.26351414493E+02  0.33654462207E+02  0.00000000000E+00 0.  1.
</event>
<event>
 5    1  0.3190780E-003  0.9118800E+02  0.7818608E-02  0.1130116E+00
         25   -1    0    0    0    0  0.00000000000E+00  0.00000000000E+00  0.99999998245E-14  0.12500000000E+03  0.12500000000E+03 0.  0.
        -11    1    3    3    0    0  0.21507766518E+02  0.24534364346E+02  0.35280937060E+01  0.32817167762E+02  0.51100000000E-03 0. -1.
         23    2    1    0    0    0 -0.14704867815E+02 -0.25308316012E+02 -0.58939202483E+01  0.95142299273E+02  0.90335899941E+02 0.  0.
         11    1    3    3    0    0 -0.36212634334E+02 -0.49842680358E+02 -0.94220139543E+01  0.62325131511E+02  0.51100000000E-03 0.  1.
         22    1    1    0    0    0  0.14704867815E+02  0.25308316012E+02  0.58939202483E+01  0.29857700727E+02  0.00000000000E+00 0.  1.
</event>
<event>
 5    1  0.3190780E-003  0.9118800E+02  0.7818608E-02  0.1130116E+00
         25   -1    0    0    0    0  0.00000000000E+00  0.00000000000E+00  0.99999998245E-14  0.12500000000E+03  0.12500000000E+03 0.  0.
        -11    1    3    3    0    0 -0.11126872435E+02  0.25031233107E+02 -0.20277235645E+02  0.34081317561E+02  0.51100000000E-03 0.  1.
         23    2    1    0    0    0  0.84436422302E+01 -0.25984141301E+02  0.92065815677E+01  0.96168908495E+02  0.91745447427E+02 0.  0.
         11    1    3    3    0    0  0.19570514665E+02 -0.51015374407E+02  0.29483817213E+02  0.62087590933E+02  0.51100000000E-03 0. -1.
         22    1    1    0    0    0 -0.84436422302E+01  0.25984141301E+02 -0.92065815677E+01  0.28831091505E+02  0.00000000000E+00 0. -1.
</event>
<event>
 5    1  0.3190780E-003  0.9118800E+02  0.7818608E-02  0.1130116E+00
         25   -1    0    0    0    0  0.00000000000E+00  0.00000000000E+00  0.99999998245E-14  0.12500000000E+03  0.12500000000E+03 0.  0.
        -11    1    3    3    0    0  0.29177447206E+02 -0.15418040565E+02  0.25992177256E+02  0.42007531219E+02  0.51100000000E-03 0.  1.
         23    2    1    0    0    0  0.12167093642E+01  0.26999841239E+02  0.15361838250E+02  0.93912094265E+02  0.88617287062E+02 0.  0.
         11    1    3    3    0    0 -0.27960737842E+02  0.42417881804E+02 -0.10630339006E+02  0.51904563046E+02  0.51100000000E-03 0. -1.
         22    1    1    0    0    0 -0.12167093642E+01 -0.26999841239E+02 -0.15361838250E+02  0.31087905735E+02  0.00000000000E+00 0. -1.
</event>
<event>
 5    1  0.3190780E-003  0.9118800E+02  0.7818608E-02  0.1130116E+00
         25   -1    0    0    0    0  0.00000000000E+00  0.00000000000E+00  0.99999998245E-14  0.12500000000E+03  0.12500000000E+03 0.  0.
        -11    1    3    3    0    0  0.43758632276E+02 -0.16605398424E+02 -0.28232547550E+02  0.54659252619E+02  0.51100000000E-03 0. -1.
         23    2    1    0    0    0  0.43649830047E+01 -0.33004081824E+01 -0.28235518742E+02  0.96239083996E+02  0.91841009353E+02 0.  0.
         11    1    3    3    0    0 -0.39393649271E+02  0.13304990241E+02 -0.29711918327E-02  0.41579831377E+02  0.51100000000E-03 0.  1.
         22    1    1    0    0    0 -0.43649830047E+01  0.33004081824E+01  0.28235518742E+02  0.28760916004E+02  0.00000000000E+00 0. -1.
</event>
<event>
 5    1  0.3190780E-003  0.9118800E+02  0.7818608E-02  0.1130116E+00
         25   -1    0    0    0    0  0.00000000000E+00  0.00000000000E+00  0.99999998245E-14  0.12500000000E+03  0.12500000000E+03 0.  0.
        -11    1    3    3    0    0  0.30633865513E+02  0.86066973984E+01 -0.80079987865E+01  0.32812147159E+02  0.51100000000E-03 0.  1.
         23    2    1    0    0    0 -0.28011388049E+02 -0.22429893455E+01  0.10096892363E+02  0.95140058656E+02  0.90332799492E+02 0.  0.
         11    1    3    3    0    0 -0.58645253562E+02 -0.10849686744E+02  0.18104891150E+02  0.62327911497E+02  0.51100000000E-03 0. -1.
         22    1    1    0    0    0  0.28011388049E+02  0.22429893455E+01 -0.10096892363E+02  0.29859941344E+02  0.00000000000E+00 0. -1.
</event>
<event>
 5    1  0.3190780E-003  0.9118800E+02  0.7818608E-02  0.1130116E+00
         25   -1    0    0    0    0  0.00000000000E+00  0.00000000000E+00  0.99999998245E-14  0.12500000000E+03  0.12500000000E+03 0.  0.
        -11    1    3    3    0    0  0.30327905565E+02  0.39657965266E+02 -0.21075384562E+02  0.54191400606E+02  0.51100000000E-03 0.  1.
         23    2    1    0    0    0  0.31362868905E+02  0.55847773146E+01 -0.24178257194E+01  0.93052149293E+02  0.87395865596E+02 0.  0.
         11    1    3    3    0    0  0.10349633400E+01 -0.34073187951E+02  0.18657558842E+02  0.38860748687E+02  0.51100000000E-03 0. -1.
         22    1    1    0    0    0 -0.31362868905E+02 -0.55847773146E+01  0.24178257194E+01  0.31947850707E+02  0.00000000000E+00 0.  1.
</event>
<event>
 5    1  0.3190780E-003  0.9118800E+02  0.7818608E-02  0.1130116E+00
         25   -1    0    0    0    0  0.00000000000E+00  0.00000000000E+00  0.99999998245E-14  0.12500000000E+03  0.12500000000E+03 0.  0.
        -11    1    3    3    0    0 -0.46743604021E+02 -0.18395120782E+02  0.31897051817E+02  0.59504343542E+02  0.51100000000E-03 0.  1.
         23    2    1    0    0    0 -0.15253698957E+02  0.24009489639E+00  0.23395938545E+02  0.97069677448E+02  0.92964613494E+02 0.  0.
         11    1    3    3    0    0  0.31489905065E+02  0.18635215679E+02 -0.85011132717E+01  0.37565333906E+02  0.51100000000E-03 0. -1.
         22    1    1    0    0    0  0.15253698957E+02 -0.24009489639E+00 -0.23395938545E+02  0.27930322552E+02  0.00000000000E+00 0.  1.
</event>
<event>
 5    1  0.3190780E-003  0.9118800E+02  0.7818608E-02  0.1130116E+00
         25   -1    0    0    0    0  0.00000000000E+00  0.00000000000E+00  0.99999998245E-14  0.12500000000E+03  0.12500000000E+03 0.  0.
        -11    1    3    3    0    0 -0.27937664982E+02  0.36417717692E+02 -0.27836581913E+01  0.45983823675E+02  0.51100000000E-03 0.  1.
         23    2    1    0    0    0 -0.21650827077E+02 -0.14745962776E+02  0.56082531669E+01  0.98210930682E+02  0.94486679858E+02 0.  0.
         11    1    3    3    0    0  0.62868379043E+01 -0.51163680468E+02  0.83919113582E+01  0.52227107008E+02  0.51100000000E-03 0. -1.
         22    1    1    0    0    0  0.21650827077E+02  0.14745962776E+02 -0.56082531669E+01  0.26789069318E+02  0.00000000000E+00 0. -1.
</event>
<event>
 5    1  0.3190780E-003  0.9118800E+02  0.7818608E-02  0.1130116E+00
         25   -1    0    0    0    0  0.00000000000E+00  0.00000000000E+00  0.99999998245E-14  0.12500000000E+03  0.12500000000E+03 0.  0.
        -11    1    3    3    0    0  0.87694074617E+01  0.33895711495E+02 -0.78865700081E+01  0.35888992069E+02  0.51100000000E-03 0. -1.
         23    2    1    0    0    0  0.16549647677E+02 -0.19783174190E+02  0.15447733936E+02  0.94935115117E+02  0.90048757789E+02 0.  0.
         11    1    3    3    0    0  0.77802402152E+01 -0.53678885685E+02  0.23334303944E+02  0.59046123048E+02  0.51100000000E-03 0.  1.
         22    1    1    0    0    0 -0.16549647677E+02  0.19783174190E+02 -0.15447733936E+02  0.30064884883E+02  0.00000000000E+00 0.  1.
</event>
<event>
 5    1  0.3190780E-003  0.9118800E+02  0.7818608E-02  0.1130116E+00
         25   -1    0    0    0    0  0.00000000000E+00  0.00000000000E+00  0.99999998245E-14  0.12500000000E+03  0.12500000000E+03 0.  0.
        -11    1    3    3    0    0 -0.42438535503E+01  0.10678900946E+02 -0.37371501301E+02  0.39098316180E+02  0.51100000000E-03 0.  1.
         23    2    1    0    0    0  0.25342485618E+02  0.44794855274E+01  0.11697294388E+02  0.96731040630E+02  0.92508162653E+02 0.  0.
         11    1    3    3    0    0  0.29586339168E+02 -0.61994154183E+01  0.49068795689E+02  0.57632724450E+02  0.51100000000E-03 0. -1.
         22    1    1    0    0    0 -0.25342485618E+02 -0.44794855274E+01 -0.11697294388E+02  0.28268959370E+02  0.00000000000E+00 0. -1.
</event>
<event>
 5    1  0.3190780E-003  0.9118800E+02  0.7818608E-02  0.1130116E+00
         25   -1    0    0    0    0  0.00000000000E+00  0.00000000000E+00  0.99999998245E-14  0.12500000000E+03  0.12500000000E+03 0.  0.
        -11    1    3    3    0    0  0.25584772578E+02  0.35117760226E+02 -0.43996197465E+02  0.61834481180E+02  0.51100000000E-03 0. -1.
         23    2    1    0    0    0  0.78678876681E+01  0.14350637650E+02 -0.25105528617E+02  0.95031149097E+02  0.90181967567E+02 0.  0.
         11    1    3    3    0    0 -0.17716884910E+02 -0.20767122576E+02  0.18890668848E+02  0.33196667917E+02  0.51100000000E-03 0.  1.
         22    1    1    0    0    0 -0.78678876681E+01 -0.14350637650E+02  0.25105528617E+02  0.29968850903E+02  0.00000000000E+00 0. -1.
</event>
<event>
 5    1  0.3190780E-003  0.9118800E+02  0.7818608E-02  0.1130116E+00
         25   -1    0    0    0    0  0.00000000000E+00  0.00000000000E+00  0.99999998245E-14  0.12500000000E+03  0.12500000000E+03 0.  0.
        -11    1    3    3    0    0  0.83519365228E+01 -0.20099504836E+02 -0.22455292459E+02  0.31272753285E+02  0.51100000000E-03 0. -1.
         23    2    1    0    0    0  0.45643229148E+02 -0.10301420638E+02  0.40076959916E+01  0.78037405722E+02  0.62324565225E+02 0.  0.
         11    1    3    3    0    0  0.37291292625E+02  0.97980841981E+01  0.26462988451E+02  0.46764652437E+02  0.51100000000E-03 0.  1.
         22    1    1    0    0    0 -0.45643229148E+02  0.10301420638E+02 -0.40076959916E+01  0.46962594278E+02  0.00000000000E+00 0.  1.
</event>
<event>
 5    1  0.3190780E-003  0.9118800E+02  0.7818608E-02  0.1130116E+00
         25   -1    0    0    0    0  0.00000000000E+00  0.00000000000E+00  0.99999998245E-14  0.12500000000E+03  0.12500000000E+03 0.  0.
        -11    1    3    3    0    0 -0.20974293914E+02 -0.34881736718E+01 -0.36469412714E+02  0.42215002365E+02  0.51100000000E-03 0.  1.
         23    2    1    0    0    0  0.16728862471E+02  0.22855797842E+02 -0.14023621114E+02  0.93394552942E+02  0.87884232008E+02 0.  0.
         11    1    3    3    0    0  0.37703156385E+02  0.26343971514E+02  0.22445791600E+02  0.51179550577E+02  0.51100000000E-03 0. -1.
         22    1    1    0    0    0 -0.16728862471E+02 -0.22855797842E+02  0.14023621114E+02  0.31605447058E+02  0.00000000000E+00 0. -1.
</event>
<event>
 5    1  0.3190780E-003  0.9118800E+02  0.7818608E-02  0.1130116E+00
         25   -1    0    0    0    0  0.00000000000E+00  0.00000000000E+00  0.99999998245E-14  0.12500000000E+03  0.12500000000E+03 0.  0.
        -11    1    3    3    0    0  0.50202438243E+02 -0.15020765188E+02 -0.86975456052E+01  0.53118315976E+02  0.51100000000E-03 0.  1.
         23    2    1    0    0    0  0.18438942195E+02 -0.28997033176E+02 -0.13357241579E+02  0.88132149169E+02  0.80050217316E+02 0.  0.
         11    1    3    3    0    0 -0.31763496048E+02 -0.13976267988E+02 -0.46596959741E+01  0.35013833193E+02  0.51100000000E-03 0. -1.
         22    1    1    0    0    0 -0.18438942195E+02  0.28997033176E+02  0.13357241579E+02  0.36867850831E+02  0.00000000000E+00 0.  1.
</event>
<event>
 5    1  0.3190780E-003  0.9118800E+02  0.7818608E-02  0.1130116E+00
         25   -1    0    0    0    0  0.00000000000E+00  0.00000000000E+00  0.99999998245E-14  0.12500000000E+03  0.12500000000E+03 0.  0.
        -11    1    3    3    0    0  0.55304121391E+02 -0.86393106062E+01 -0.18718271479E+02  0.59021667360E+02  0.51100000000E-03 0. -1.
         23    2    1    0    0    0  0.20111392096E+02 -0.12877263962E+02 -0.19020845853E+02  0.94469939467E+02  0.89400698357E+02 0.  0.
         11    1    3    3    0    0 -0.35192729295E+02 -0.42379533555E+01 -0.30257437383E+00  0.35448272107E+02  0.51100000000E-03 0.  1.
         22    1    1    0    0    0 -0.20111392096E+02  0.12877263962E+02  0.19020845853E+02  0.30530060533E+02  0.00000000000E+00 0. -1.
</event>
<event>
 5    1  0.3190780E-003  0.9118800E+02  0.7818608E-02  0.1130116E+00
         25   -1    0    0    0    0  0.00000000000E+00  0.00000000000E+00  0.99999998245E-14  0.12500000000E+03  0.12500000000E+03 0.  0.
        -11    1    3    3    0    0 -0.29304922421E+02 -0.19706670090E+02 -0.92674379922E+01  0.36510501658E+02  0.51100000000E-03 0. -1.
         23    2    1    0    0    0  0.25391695557E+01  0.18809110315E+02  0.22373938756E+02  0.95660212197E+02  0.91049728441E+02 0.  0.
         11    1    3    3    0    0  0.31844091977E+02  0.38515780405E+02  0.31641376748E+02  0.59149710539E+02  0.51100000000E-03 0.  1.
         22    1    1    0    0    0 -0.25391695557E+01 -0.18809110315E+02 -0.22373938756E+02  0.29339787803E+02  0.00000000000E+00 0.  1.
</event>
<event>
 5    1  0.3190780E-003  0.9118800E+02  0.7818608E-02  0.1130116E+00
         25   -1    0    0    0    0  0.00000000000E+00  0.00000000000E+00  0.99999998245E-14  0.12500000000E+03  0.12500000000E+03 0.  0.
        -11    1    3    3    0    0 -0.28423126505E+02  0.44918454957E+02  0.62747089610E+00  0.53159528177E+02  0.51100000000E-03 0.  1.
         23    2    1    0    0    0 -0.27264765850E+02  0.53664508168E+01  0.12584048103E+02  0.94495500039E+02  0.89436429992E+02 0.  0.
         11    1    3    3    0    0  0.11583606547E+01 -0.39552004141E+02  0.11956577207E+02  0.41335971861E+02  0.51100000000E-03 0. -1.
         22    1    1    0    0    0  0.27264765850E+02 -0.53664508168E+01 -0.12584048103E+02  0.30504499961E+02  0.00000000000E+00 0.  1.
</event>
<event>
 5    1  0.3190780E-003  0.9118800E+02  0.7818608E-02  0.1130116E+00
         25   -1    0    0    0    0  0.00000000000E+00  0.00000000000E+00  0.99999998245E-14  0.12500000000E+03  0.12500000000E+03 0.  0.
        -11    1    3    3    0    0 -0.37365129483E+02 -0.27682873298E+02  0.78801800235E+01  0.47165576566E+02  0.51100000000E-03 0.  1.
         23    2    1    0    0    0 -0.81880586330E+01  0.72049705867E+01  0.26525651621E+02  0.96319586836E+02  0.91950512282E+02 0.  0.
         11    1    3    3    0    0  0.29177070850E+02  0.34887843884E+02  0.18645471598E+02  0.49154010270E+02  0.51100000000E-03 0. -1.
         22    1    1    0    0    0  0.81880586330E+01 -0.72049705867E+01 -0.26525651621E+02  0.28680413164E+02  0.00000000000E+00 0.  1.
</event>
<event>
 5    1  0.3190780E-003  0.9118800E+02  0.7818608E-02  0.1130116E+00
         25   -1    0    0    0    0  0.00000000000E+00  0.00000000000E+00  0.99999998245E-14  0.12500000000E+03  0.12500000000E+03 0.  0.
        -11    1    3    3    0    0 -0.32384547848E+02 -0.13231184654E+02  0.23088765507E+02  0.41915561305E+02  0.51100000000E-03 0.  1.
         23    2    1    0    0    0 -0.15149449407E+02  0.22473910408E+02 -0.12463536997E+02  0.95168435830E+02  0.90372058500E+02 0.  0.
         11    1    3    3    0    0  0.17235098440E+02  0.35705095062E+02 -0.35552302503E+02  0.53252874525E+02  0.51100000000E-03 0. -1.
         22    1    1    0    0    0  0.15149449407E+02 -0.22473910408E+02  0.12463536997E+02  0.29831564170E+02  0.00000000000E+00 0. -1.
</event>
<event>
 5    1  0.3190780E-003  0.9118800E+02  0.7818608E-02  0.1130116E+00
         25   -1    0    0    0    0  0.00000000000E+00  0.00000000000E+00  0.99999998245E-14  0.12500000000E+03  0.12500000000E+03 0.  0.
        -11    1    3    3    0    0 -0.27465451206E+02 -0.18205422155E+02 -0.11415102533E+02  0.34872524599E+02  0.51100000000E-03 0. -1.
         23    2    1    0    0    0 -0.16280901071E+01  0.30530920172E+02  0.80771436730E+01  0.93376780464E+02  0.87858950119E+02 0.  0.
         11    1    3    3    0    0  0.25837361098E+02  0.48736342327E+02  0.19492246206E+02  0.58504255865E+02  0.51100000000E-03 0.  1.
         22    1    1    0    0    0  0.16280901071E+01 -0.30530920172E+02 -0.80771436730E+01  0.31623219536E+02  0.00000000000E+00 0.  1.
</event>
<event>
 5    1  0.3190780E-003  0.9118800E+02  0.7818608E-02  0.1130116E+00
         25   -1    0    0    0    0  0.00000000000E+00  0.00000000000E+00  0.99999998245E-14  0.12500000000E+03  0.12500000000E+03 0.  0.
        -11    1    3    3    0    0  0.76840558620E+01 -0.24975994678E+01  0.34607865048E+02  0.35538528965E+02  0.51100000000E-03 0. -1.
         23    2    1    0    0    0 -0.46768738410E+01 -0.23188898020E+02 -0.19222738976E+02  0.94518664169E+02  0.89468799267E+02 0.  0.
         11    1    3    3    0    0 -0.12360929703E+02 -0.20691298552E+02 -0.53830604023E+02  0.58980135204E+02  0.51100000000E-03 0.  1.
         22    1    1    0    0    0  0.46768738410E+01  0.23188898020E+02  0.19222738976E+02  0.30481335831E+02  0.00000000000E+00 0. -1.
</event>
<event>
 5    1  0.3190780E-003  0.9118800E+02  0.7818608E-02  0.1130116E+00
         25   -1    0    0    0    0  0.00000000000E+00  0.00000000000E+00  0.99999998245E-14  0.12500000000E+03  0.12500000000E+03 0.  0.
        -11    1    3    3    0    0  0.35580561046E+02  0.64212926096E+00  0.46678589985E+01  0.35891190594E+02  0.51100000000E-03 0. -1.
         23    2    1    0    0    0 -0.22909476190E+02  0.39841838619E+01  0.17538957297E+02  0.95873846059E+02  0.91342550406E+02 0.  0.
         11    1    3    3    0    0 -0.58490037237E+02  0.33420546010E+01  0.12871098298E+02  0.59982655465E+02  0.51100000000E-03 0.  1.
         22    1    1    0    0    0  0.22909476190E+02 -0.39841838619E+01 -0.17538957297E+02  0.29126153941E+02  0.00000000000E+00 0.  1.
</event>
<event>
 5    1  0.3190780E-003  0.9118800E+02  0.7818608E-02  0.1130116E+00
         25   -1    0    0    0    0  0.00000000000E+00  0.00000000000E+00  0.99999998245E-14  0.12500000000E+03  0.12500000000E+03 0.  0.
        -11    1    3    3    0    0 -0.11390336449E+02  0.33432068345E+02  0.38372980763E+02  0.52152934828E+02  0.51100000000E-03 0. -1.
         23    2    1    0    0    0 -0.25570804480E+02  0.15699136431E+02  0.21323911331E+01  0.94918842802E+02  0.90026166754E+02 0.  0.
         11    1    3    3    0    0 -0.14180468031E+02 -0.17732931914E+02 -0.36240589630E+02  0.42765907974E+02  0.51100000000E-03 0.  1.
         22    1    1    0    0    0  0.25570804480E+02 -0.15699136431E+02 -0.21323911331E+01  0.30081157198E+02  0.00000000000E+00 0. -1.
</event>
<event>
 5    1  0.3190780E-003  0.9118800E+02  0.7818608E-02  0.1130116E+00
         25   -1    0    0    0    0  0.00000000000E+00  0.00000000000E+00  0.99999998245E-14  0.12500000000E+03  0.12500000000E+03 0.  0.
        -11    1    3    3    0    0 -0.15779322380E+02 -0.74414197195E+01  0.55160903630E+02  0.57854014828E+02  0.51100000000E-03 0.  1.
         23    2    1    0    0    0  0.89828318007E+01 -0.21349391074E+01  0.30231900028E+02  0.93389605958E+02  0.87877195503E+02 0.  0.
         11    1    3    3    0    0  0.24762154181E+02  0.53064806121E+01 -0.24929003601E+02  0.35535591130E+02  0.51100000000E-03 0. -1.
         22    1    1    0    0    0 -0.89828318007E+01  0.21349391074E+01 -0.30231900028E+02  0.31610394042E+02  0.00000000000E+00 0.  1.
</event>
<event>
 5    1  0.3190780E-003  0.9118800E+02  0.7818608E-02  0.1130116E+00
         25   -1    0    0    0    0  0.00000000000E+00  0.00000000000E+00  0.99999998245E-14  0.12500000000E+03  0.12500000000E+03 0.  0.
        -11    1    3    3    0    0 -0.23205395975E+02  0.34421897612E+02 -0.36778749444E+02  0.55462003647E+02  0.51100000000E-03 0.  1.
         23    2    1    0    0    0  0.19200159199E+01  0.29507564962E+02 -0.72298048093E+01  0.94559025497E+02  0.89525171735E+02 0.  0.
         11    1    3    3    0    0  0.25125411895E+02 -0.49143326503E+01  0.29548944635E+02  0.39097021850E+02  0.51100000000E-03 0. -1.
         22    1    1    0    0    0 -0.19200159199E+01 -0.29507564962E+02  0.72298048093E+01  0.30440974503E+02  0.00000000000E+00 0.  1.
</event>
<event>
 5    1  0.3190780E-003  0.9118800E+02  0.7818608E-02  0.1130116E+00
         25   -1    0    0    0    0  0.00000000000E+00  0.00000000000E+00  0.99999998245E-14  0.12500000000E+03  0.12500000000E+03 0.  0.
        -11    1    3    3    0    0  0.18931154060E+02 -0.52394835706E+02 -0.14946115755E+02  0.57680098640E+02  0.51100000000E-03 0.  1.
         23    2    1    0    0    0  0.23132786896E+02 -0.14867312345E+02 -0.98805693016E+01  0.95780341280E+02  0.91214501699E+02 0.  0.
         11    1    3    3    0    0  0.42016328364E+01  0.37527523361E+02  0.50655464530E+01  0.38100242640E+02  0.51100000000E-03 0. -1.
         22    1    1    0    0    0 -0.23132786896E+02  0.14867312345E+02  0.98805693016E+01  0.29219658720E+02  0.00000000000E+00 0.  1.
</event>
<event>
 5    1  0.3190780E-003  0.9118800E+02  0.7818608E-02  0.1130116E+00
         25   -1    0    0    0    0  0.00000000000E+00  0.00000000000E+00  0.99999998245E-14  0.12500000000E+03  0.12500000000E+03 0.  0.
        -11    1    3    3    0    0 -0.34352086719E+02  0.28943008346E+02  0.33746173644E+02  0.56183341214E+02  0.51100000000E-03 0.  1.
         23    2    1    0    0    0 -0.25884615118E+02  0.74055144793E+01 -0.11460023827E+01  0.98052490542E+02  0.94276840399E+02 0.  0.
         11    1    3    3    0    0  0.84674716008E+01 -0.21537493867E+02 -0.34892176027E+02  0.41869149329E+02  0.51100000000E-03 0. -1.
         22    1    1    0    0    0  0.25884615118E+02 -0.74055144793E+01  0.11460023827E+01  0.26947509458E+02  0.00000000000E+00 0.  1.
</event>
<event>
 5    1  0.3190780E-003  0.9118800E+02  0.7818608E-02  0.1130116E+00
         25   -1    0    0    0    0  0.00000000000E+00  0.00000000000E+00  0.99999998245E-14  0.12500000000E+03  0.12500000000E+03 0.  0.
        -11    1    3    3    0    0  0.33926430629E+02  0.24744572928E+02  0.10516753503E+02  0.43288551478E+02  0.51100000000E-03 0. -1.
         23    2    1    0    0    0  0.17956629184E+02 -0.20335541490E+02 -0.10993330341E+02  0.95728373955E+02  0.91143258054E+02 0.  0.
         11    1    3    3    0    0 -0.15969801444E+02 -0.45080114418E+02 -0.21510083844E+02  0.52439822476E+02  0.51100000000E-03 0.  1.
         22    1    1    0    0    0 -0.17956629184E+02  0.20335541490E+02  0.10993330341E+02  0.29271626045E+02  0.00000000000E+00 0.  1.
</event>
<event>
 5    1  0.3190780E-003  0.9118800E+02  0.7818608E-02  0.1130116E+00
         25   -1    0    0    0    0  0.00000000000E+00  0.00000000000E+00  0.99999998245E-14  0.12500000000E+03  0.12500000000E+03 0.  0.
        -11    1    3    3    0    0 -0.16537324542E+02 -0.23132291995E+02 -0.18542339083E+02  0.33947081979E+02  0.51100000000E-03 0.  1.
         23    2    1    0    0    0  0.33501520607E+02 -0.38838109358E+01 -0.16131748346E+02  0.87614586065E+02  0.79237910853E+02 0.  0.
         11    1    3    3    0    0  0.50038845149E+02  0.19248481059E+02  0.24105907371E+01  0.53667504086E+02  0.51100000000E-03 0. -1.
         22    1    1    0    0    0 -0.33501520607E+02  0.38838109358E+01  0.16131748346E+02  0.37385413935E+02  0.00000000000E+00 0. -1.
</event>
<event>
 5    1  0.3190780E-003  0.9118800E+02  0.7818608E-02  0.1130116E+00
         25   -1    0    0    0    0  0.00000000000E+00  0.00000000000E+00  0.99999998245E-14  0.12500000000E+03  0.12500000000E+03 0.  0.
        -11    1    3    3    0    0 -0.40757845138E+01 -0.35085517284E+02  0.38958057411E+02  0.52586460045E+02  0.51100000000E-03 0.  1.
         23    2    1    0    0    0  0.12307813050E+02  0.29222751935E+01  0.26215202043E+02  0.95892290153E+02  0.91367787202E+02 0.  0.
         11    1    3    3    0    0  0.16383597564E+02  0.38007792478E+02 -0.12742855368E+02  0.43305830108E+02  0.51100000000E-03 0. -1.
         22    1    1    0    0    0 -0.12307813050E+02 -0.29222751935E+01 -0.26215202043E+02  0.29107709847E+02  0.00000000000E+00 0.  1.
</event>
<event>
 5    1  0.3190780E-003  0.9118800E+02  0.7818608E-02  0.1130116E+00
         25   -1    0    0    0    0  0.00000000000E+00  0.00000000000E+00  0.99999998245E-14  0.12500000000E+03  0.12500000000E+03 0.  0.
        -11    1    3    3    0    0 -0.40306937831E+02  0.17329556521E+02 -0.29869068894E+01  0.43975952287E+02  0.51100000000E-03 0. -1.
         23    2    1    0    0    0 -0.11132916773E+02 -0.24496475775E+02 -0.11608485899E+02  0.95695118049E+02  0.91097637249E+02 0.  0.
         11    1    3    3    0    0  0.29174021057E+02 -0.41826032296E+02 -0.86215790095E+01  0.51719165762E+02  0.51100000000E-03 0.  1.
         22    1    1    0    0    0  0.11132916773E+02  0.24496475775E+02  0.11608485899E+02  0.29304881951E+02  0.00000000000E+00 0.  1.
</event>
<event>
 5    1  0.3190780E-003  0.9118800E+02  0.7818608E-02  0.1130116E+00
         25   -1    0    0    0    0  0.00000000000E+00  0.00000000000E+00  0.99999998245E-14  0.12500000000E+03  0.12500000000E+03 0.  0.
        -11    1    3    3    0    0 -0.16430870508E+02  0.40195302698E+01 -0.32704320507E+02  0.36819868405E+02  0.51100000000E-03 0. -1.
         23    2    1    0    0    0  0.94976180339E+01  0.19018920824E+02  0.18943676202E+02  0.96525678837E+02  0.92230253764E+02 0.  0.
         11    1    3    3    0    0  0.25928488542E+02  0.14999390554E+02  0.51647996709E+02  0.59705810433E+02  0.51100000000E-03 0.  1.
         22    1    1    0    0    0 -0.94976180339E+01 -0.19018920824E+02 -0.18943676202E+02  0.28474321163E+02  0.00000000000E+00 0.  1.
</event>
<event>
 5    1  0.3190780E-003  0.9118800E+02  0.7818608E-02  0.1130116E+00
         25   -1    0    0    0    0  0.00000000000E+00  0.00000000000E+00  0.99999998245E-14  0.12500000000E+03  0.12500000000E+03 0.  0.
        -11    1    3    3    0    0 -0.28472630978E+02  0.31038506704E+02 -0.13594395101E+02  0.44259317569E+02  0.51100000000E-03 0. -1.
         23    2    1    0    0    0  0.19545415294E+02  0.23631106730E+02 -0.88793337536E+01  0.93073599761E+02  0.87426540251E+02 0.  0.
         11    1    3    3    0    0  0.48018046272E+02 -0.74073999740E+01  0.47150613478E+01  0.48814282192E+02  0.51100000000E-03 0.  1.
         22    1    1    0    0    0 -0.19545415294E+02 -0.23631106730E+02  0.88793337536E+01  0.31926400239E+02  0.00000000000E+00 0.  1.
</event>
<event>
 5    1  0.3190780E-003  0.9118800E+02  0.7818608E-02  0.1130116E+00
         25   -1    0    0    0    0  0.00000000000E+00  0.00000000000E+00  0.99999998245E-14  0.12500000000E+03  0.12500000000E+03 0.  0.
        -11    1    3    3    0    0  0.25341969786E+02  0.32307336354E+02  0.10336766627E+02  0.42341801562E+02  0.51100000000E-03 0.  1.
         23    2    1    0    0    0 -0.14740678081E+02  0.21171906247E+02  0.27454467859E+02  0.87326600766E+02  0.78782296181E+02 0.  0.
         11    1    3    3    0    0 -0.40082647867E+02 -0.11135430107E+02  0.17117701232E+02  0.44984799204E+02  0.51100000000E-03 0. -1.
         22    1    1    0    0    0  0.14740678081E+02 -0.21171906247E+02 -0.27454467859E+02  0.37673399234E+02  0.00000000000E+00 0.  1.
</event>
<event>
 5    1  0.3190780E-003  0.9118800E+02  0.7818608E-02  0.1130116E+00
         25   -1    0    0    0    0  0.00000000000E+00  0.00000000000E+00  0.99999998245E-14  0.12500000000E+03  0.12500000000E+03 0.  0.
        -11    1    3    3    0    0 -0.15976209700E+02 -0.13299122851E+02  0.39607060273E+01  0.21161123257E+02  0.51100000000E-03 0. -1.
         23    2    1    0    0    0 -0.49008675515E+01  0.43180430790E+02  0.13483130809E+02  0.79498759112E+02  0.65189644714E+02 0.  0.
         11    1    3    3    0    0  0.11075342148E+02  0.56479553641E+02  0.95224247821E+01  0.58337635855E+02  0.51100000000E-03 0.  1.
         22    1    1    0    0    0  0.49008675515E+01 -0.43180430790E+02 -0.13483130809E+02  0.45501240888E+02  0.00000000000E+00 0.  1.
</event>
<event>
 5    1  0.3190780E-003  0.9118800E+02  0.7818608E-02  0.1130116E+00
         25   -1    0    0    0    0  0.00000000000E+00  0.00000000000E+00  0.99999998245E-14  0.12500000000E+03  0.12500000000E+03 0.  0.
        -11    1    3    3    0    0 -0.74068731397E+01  0.29638379485E+02 -0.10324336155E+02  0.32247282451E+02  0.51100000000E-03 0.  1.
         23    2    1    0    0    0  0.24634589899E+02 -0.18905606204E+02  0.74469012754E+01  0.93066611454E+02  0.87416547995E+02 0.  0.
         11    1    3    3    0    0  0.32041463039E+02 -0.48543985689E+02  0.17771237431E+02  0.60819329002E+02  0.51100000000E-03 0. -1.
         22    1    1    0    0    0 -0.24634589899E+02  0.18905606204E+02 -0.74469012754E+01  0.31933388546E+02  0.00000000000E+00 0. -1.
</event>
<event>
 5    1  0.3190780E-003  0.9118800E+02  0.7818608E-02  0.1130116E+00
         25   -1    0    0    0    0  0.00000000000E+00  0.00000000000E+00  0.99999998245E-14  0.12500000000E+03  0.12500000000E+03 0.  0.
        -11    1    3    3    0    0 -0.21029391241E+02  0.12424115835E+02 -0.33461568199E+02  0.41427895153E+02  0.51100000000E-03 0.  1.
         23    2    1    0    0    0  0.30724955523E+01  0.24758376775E+02  0.14237314654E+02  0.96275122663E+02  0.91890046609E+02 0.  0.
         11    1    3    3    0    0  0.24101886793E+02  0.12334260940E+02  0.47698882852E+02  0.54847227510E+02  0.51100000000E-03 0. -1.
         22    1    1    0    0    0 -0.30724955523E+01 -0.24758376775E+02 -0.14237314654E+02  0.28724877337E+02  0.00000000000E+00 0. -1.
</event>
<event>
 5    1  0.3190780E-003  0.9118800E+02  0.7818608E-02  0.1130116E+00
         25   -1    0    0    0    0  0.00000000000E+00  0.00000000000E+00  0.99999998245E-14  0.12500000000E+03  0.12500000000E+03 0.  0.
        -11    1    3    3    0    0 -0.15619860643E+02 -0.29613407862E+02  0.24360558339E+02  0.41404960748E+02  0.51100000000E-03 0. -1.
         23    2    1    0    0    0  0.80889466458E+00  0.97130593844E+00 -0.24016379964E+02  0.10095037937E+03  0.98043841432E+02 0.  0.
         11    1    3    3    0    0  0.16428755308E+02  0.30584713800E+02 -0.48376938303E+02  0.59545418623E+02  0.51100000000E-03 0.  1.
         22    1    1    0    0    0 -0.80889466458E+00 -0.97130593844E+00  0.24016379964E+02  0.24049620629E+02  0.00000000000E+00 0.  1.
</event>
<event>
 5    1  0.3190780E-003  0.9118800E+02  0.7818608E-02  0.1130116E+00
         25   -1    0    0    0    0  0.00000000000E+00  0.00000000000E+00  0.99999998245E-14  0.12500000000E+03  0.12500000000E+03 0.  0.
        -11    1    3    3    0    0 -0.28229461945E+02 -0.42671300197E+02  0.25610903596E+02  0.57215913569E+02  0.51100000000E-03 0. -1.
         23    2    1    0    0    0 -0.23992663216E+02 -0.21307968458E+02 -0.25431876431E+01  0.92810790451E+02  0.87049971928E+02 0.  0.
         11    1    3    3    0    0  0.42367987286E+01  0.21363331740E+02 -0.28154091239E+02  0.35594876882E+02  0.51100000000E-03 0.  1.
         22    1    1    0    0    0  0.23992663216E+02  0.21307968458E+02  0.25431876431E+01  0.32189209549E+02  0.00000000000E+00 0.  1.
</event>
<event>
 5    1  0.3190780E-003  0.9118800E+02  0.7818608E-02  0.1130116E+00
         25   -1    0    0    0    0  0.00000000000E+00  0.00000000000E+00  0.99999998245E-14  0.12500000000E+03  0.12500000000E+03 0.  0.
        -11    1    3    3    0    0 -0.68166581764E+01  0.23792364695E+02  0.36950220448E+02  0.44473163120E+02  0.51100000000E-03 0.  1.
         23    2    1    0    0    0 -0.27730435751E+02 -0.99588635501E+01  0.57285466895E+01  0.94983799752E+02  0.90116313385E+02 0.  0.
         11    1    3    3    0    0 -0.20913777574E+02 -0.33751228245E+02 -0.31221673759E+02  0.50510636633E+02  0.51100000000E-03 0. -1.
         22    1    1    0    0    0  0.27730435751E+02  0.99588635501E+01 -0.57285466895E+01  0.30016200248E+02  0.00000000000E+00 0. -1.
</event>
<event>
 5    1  0.3190780E-003  0.9118800E+02  0.7818608E-02  0.1130116E+00
         25   -1    0    0    0    0  0.00000000000E+00  0.00000000000E+00  0.99999998245E-14  0.12500000000E+03  0.12500000000E+03 0.  0.
        -11    1    3    3    0    0 -0.52007293663E+01 -0.20530944521E+02 -0.31651133937E+02  0.38083612599E+02  0.51100000000E-03 0.  1.
         23    2    1    0    0    0  0.20460029285E+02  0.21427163526E+02 -0.24729487826E+01  0.95270358045E+02  0.90512924553E+02 0.  0.
         11    1    3    3    0    0  0.25660758652E+02  0.41958108047E+02  0.29178185154E+02  0.57186745445E+02  0.51100000000E-03 0. -1.
         22    1    1    0    0    0 -0.20460029285E+02 -0.21427163526E+02  0.24729487826E+01  0.29729641955E+02  0.00000000000E+00 0. -1.
</event>
<event>
 5    1  0.3190780E-003  0.9118800E+02  0.7818608E-02  0.1130116E+00
         25   -1    0    0    0    0  0.00000000000E+00  0.00000000000E+00  0.99999998245E-14  0.12500000000E+03  0.12500000000E+03 0.  0.
        -11    1    3    3    0    0  0.24038435258E+02  0.12802314511E+02  0.22187007868E+02  0.35128463458E+02  0.51100000000E-03 0.  1.
         23    2    1    0    0    0 -0.20536763640E+02  0.41692592127E+01 -0.19210524717E+02  0.96571393930E+02  0.92292190799E+02 0.  0.
         11    1    3    3    0    0 -0.44575198898E+02 -0.86330552988E+01 -0.41397532585E+02  0.61442930472E+02  0.51100000000E-03 0. -1.
         22    1    1    0    0    0  0.20536763640E+02 -0.41692592127E+01  0.19210524717E+02  0.28428606070E+02  0.00000000000E+00 0. -1.
</event>
<event>
 5    1  0.3190780E-003  0.9118800E+02  0.7818608E-02  0.1130116E+00
         25   -1    0    0    0    0  0.00000000000E+00  0.00000000000E+00  0.99999998245E-14  0.12500000000E+03  0.12500000000E+03 0.  0.
        -11    1    3    3    0    0  0.17202755942E+02 -0.19430004544E+00 -0.60068364044E+02  0.62483445197E+02  0.51100000000E-03 0. -1.
         23    2    1    0    0    0  0.69009191219E+01 -0.48181556011E+00 -0.27485629422E+02  0.96657193934E+02  0.92408324752E+02 0.  0.
         11    1    3    3    0    0 -0.10301836820E+02 -0.28751551468E+00  0.32582734622E+02  0.34173748737E+02  0.51100000000E-03 0.  1.
         22    1    1    0    0    0 -0.69009191219E+01  0.48181556011E+00  0.27485629422E+02  0.28342806066E+02  0.00000000000E+00 0. -1.
</event>
<event>
 5    1  0.3190780E-003  0.9118800E+02  0.7818608E-02  0.1130116E+00
         25   -1    0    0    0    0  0.00000000000E+00  0.00000000000E+00  0.99999998245E-14  0.12500000000E+03  0.12500000000E+03 0.  0.
        -11    1    3    3    0    0  0.94961864663E+01 -0.39508426500E+02  0.16362706996E+02  0.43804468977E+02  0.51100000000E-03 0. -1.
         23    2    1    0    0    0  0.39988202542E+00 -0.11619218315E+02 -0.26682199589E+02  0.95894915997E+02  0.91371379542E+02 0.  0.
         11    1    3    3    0    0 -0.90963044408E+01  0.27889208184E+02 -0.43044906585E+02  0.52090447020E+02  0.51100000000E-03 0.  1.
         22    1    1    0    0    0 -0.39988202542E+00  0.11619218315E+02  0.26682199589E+02  0.29105084003E+02  0.00000000000E+00 0.  1.
</event>
<event>
 5    1  0.3190780E-003  0.9118800E+02  0.7818608E-02  0.1130116E+00
         25   -1    0    0    0    0  0.00000000000E+00  0.00000000000E+00  0.99999998245E-14  0.12500000000E+03  0.12500000000E+03 0.  0.
        -11    1    3    3    0    0  0.10106552773E+02 -0.31076806825E+02 -0.16949600788E+02  0.36813031640E+02  0.51100000000E-03 0.  1.
         23    2    1    0    0    0  0.87779098772E+01  0.26881506490E+02 -0.89693311336E+01  0.95333251038E+02  0.90599739290E+02 0.  0.
         11    1    3    3    0    0 -0.13286428958E+01  0.57958313316E+02  0.79802696540E+01  0.58520219398E+02  0.51100000000E-03 0. -1.
         22    1    1    0    0    0 -0.87779098772E+01 -0.26881506490E+02  0.89693311336E+01  0.29666748962E+02  0.00000000000E+00 0. -1.
</event>
<event>
 5    1  0.3190780E-003  0.9118800E+02  0.7818608E-02  0.1130116E+00
         25   -1    0    0    0    0  0.00000000000E+00  0.00000000000E+00  0.99999998245E-14  0.12500000000E+03  0.12500000000E+03 0.  0.
        -11    1    3    3    0    0 -0.22385454334E+02  0.16432120498E+02 -0.44301846553E+02  0.52285531059E+02  0.51100000000E-03 0. -1.
         23    2    1    0    0    0  0.14127425379E+02  0.29896447025E+01 -0.25944886132E+02  0.95307252743E+02  0.90563862471E+02 0.  0.
         11    1    3    3    0    0  0.36512879714E+02 -0.13442475796E+02  0.18356960421E+02  0.43021721684E+02  0.51100000000E-03 0.  1.
         22    1    1    0    0    0 -0.14127425379E+02 -0.29896447025E+01  0.25944886132E+02  0.29692747257E+02  0.00000000000E+00 0. -1.
</event>
<event>
 5    1  0.3190780E-003  0.9118800E+02  0.7818608E-02  0.1130116E+00
         25   -1    0    0    0    0  0.00000000000E+00  0.00000000000E+00  0.99999998245E-14  0.12500000000E+03  0.12500000000E+03 0.  0.
        -11    1    3    3    0    0 -0.33543295679E+02  0.33304937103E+01 -0.73775490296E+01  0.34506131387E+02  0.51100000000E-03 0.  1.
         23    2    1    0    0    0  0.22772071154E+02  0.18247202865E+02  0.79680058958E+01  0.94750756125E+02  0.89792477587E+02 0.  0.
         11    1    3    3    0    0  0.56315366833E+02  0.14916709155E+02  0.15345554925E+02  0.60244624738E+02  0.51100000000E-03 0. -1.
         22    1    1    0    0    0 -0.22772071154E+02 -0.18247202865E+02 -0.79680058958E+01  0.30249243875E+02  0.00000000000E+00 0. -1.
</event>
<event>
 5    1  0.3190780E-003  0.9118800E+02  0.7818608E-02  0.1130116E+00
         25   -1    0    0    0    0  0.00000000000E+00  0.00000000000E+00  0.99999998245E-14  0.12500000000E+03  0.12500000000E+03 0.  0.
        -11    1    3    3    0    0  0.20326284564E+02 -0.37813112620E+02 -0.27217607108E+02  0.50830969567E+02  0.51100000000E-03 0. -1.
         23    2    1    0    0    0 -0.14327075742E+02 -0.26784508978E+02 -0.31018088129E+01  0.94466473534E+02  0.89395852161E+02 0.  0.
         11    1    3    3    0    0 -0.34653360306E+02  0.11028603642E+02  0.24115798295E+02  0.43635503967E+02  0.51100000000E-03 0.  1.
         22    1    1    0    0    0  0.14327075742E+02  0.26784508978E+02  0.31018088129E+01  0.30533526466E+02  0.00000000000E+00 0.  1.
</event>
<event>
 5    1  0.3190780E-003  0.9118800E+02  0.7818608E-02  0.1130116E+00
         25   -1    0    0    0    0  0.00000000000E+00  0.00000000000E+00  0.99999998245E-14  0.12500000000E+03  0.12500000000E+03 0.  0.
        -11    1    3    3    0    0 -0.23539059647E+02 -0.29242615189E+02  0.30014048848E+02  0.48063093957E+02  0.51100000000E-03 0.  1.
         23    2    1    0    0    0 -0.24280741159E+02  0.13324843952E+02  0.71176823949E+01  0.96403369775E+02  0.92064338610E+02 0.  0.
         11    1    3    3    0    0 -0.74168151177E+00  0.42567459140E+02 -0.22896366454E+02  0.48340275818E+02  0.51100000000E-03 0. -1.
         22    1    1    0    0    0  0.24280741159E+02 -0.13324843952E+02 -0.71176823949E+01  0.28596630225E+02  0.00000000000E+00 0.  1.
</event>
<event>
 5    1  0.3190780E-003  0.9118800E+02  0.7818608E-02  0.1130116E+00
         25   -1    0    0    0    0  0.00000000000E+00  0.00000000000E+00  0.99999998245E-14  0.12500000000E+03  0.12500000000E+03 0.  0.
        -11    1    3    3    0    0  0.42056171642E+02 -0.29258410191E+02 -0.19813940823E+02  0.54930577926E+02  0.51100000000E-03 0.  1.
         23    2    1    0    0    0  0.19041791840E+01 -0.18669798035E+02 -0.21464895133E+02  0.96488090557E+02  0.92179296153E+02 0.  0.
         11    1    3    3    0    0 -0.40151992458E+02  0.10588612156E+02 -0.16509543098E+01  0.41557512631E+02  0.51100000000E-03 0. -1.
         22    1    1    0    0    0 -0.19041791840E+01  0.18669798035E+02  0.21464895133E+02  0.28511909443E+02  0.00000000000E+00 0.  1.
</event>
<event>
 5    1  0.3190780E-003  0.9118800E+02  0.7818608E-02  0.1130116E+00
         25   -1    0    0    0    0  0.00000000000E+00  0.00000000000E+00  0.99999998245E-14  0.12500000000E+03  0.12500000000E+03 0.  0.
        -11    1    3    3    0    0 -0.14174669505E+02  0.38529692728E+02  0.17696946559E+02  0.44706156120E+02  0.51100000000E-03 0.  1.
         23    2    1    0    0    0  0.15569242499E+02 -0.10413527433E+02  0.13059216424E+02  0.10216612168E+03  0.99581777549E+02 0.  0.
         11    1    3    3    0    0  0.29743912003E+02 -0.48943220161E+02 -0.46377301354E+01  0.57459965559E+02  0.51100000000E-03 0. -1.
         22    1    1    0    0    0 -0.15569242499E+02  0.10413527433E+02 -0.13059216424E+02  0.22833878321E+02  0.00000000000E+00 0. -1.
</event>
<event>
 5    1  0.3190780E-003  0.9118800E+02  0.7818608E-02  0.1130116E+00
         25   -1    0    0    0    0  0.00000000000E+00  0.00000000000E+00  0.99999998245E-14  0.12500000000E+03  0.12500000000E+03 0.  0.
        -11    1    3    3    0    0 -0.51809075333E+02 -0.19447509317E+01 -0.23294935571E+02  0.56838511298E+02  0.51100000000E-03 0.  1.
         23    2    1    0    0    0 -0.28621117683E+02  0.22105992099E+01  0.72306199600E+01  0.95397010433E+02  0.90687665138E+02 0.  0.
         11    1    3    3    0    0  0.23187957650E+02  0.41553501416E+01  0.30525555531E+02  0.38558499135E+02  0.51100000000E-03 0. -1.
         22    1    1    0    0    0  0.28621117683E+02 -0.22105992099E+01 -0.72306199600E+01  0.29602989567E+02  0.00000000000E+00 0.  1.
</event>
<event>
 5    1  0.3190780E-003  0.9118800E+02  0.7818608E-02  0.1130116E+00
         25   -1    0    0    0    0  0.00000000000E+00  0.00000000000E+00  0.99999998245E-14  0.12500000000E+03  0.12500000000E+03 0.  0.
        -11    1    3    3    0    0 -0.27520218736E+02 -0.42038843678E+02  0.19540020795E+02  0.53911401669E+02  0.51100000000E-03 0. -1.
         23    2    1    0    0    0 -0.11191105293E+02 -0.23047579067E+02 -0.14025277866E+02  0.95791436910E+02  0.91229705840E+02 0.  0.
         11    1    3    3    0    0  0.16329113443E+02  0.18991264610E+02 -0.33565298661E+02  0.41880035241E+02  0.51100000000E-03 0.  1.
         22    1    1    0    0    0  0.11191105293E+02  0.23047579067E+02  0.14025277866E+02  0.29208563090E+02  0.00000000000E+00 0. -1.
</event>
<event>
 5    1  0.3190780E-003  0.9118800E+02  0.7818608E-02  0.1130116E+00
         25   -1    0    0    0    0  0.00000000000E+00  0.00000000000E+00  0.99999998245E-14  0.12500000000E+03  0.12500000000E+03 0.  0.
        -11    1    3    3    0    0 -0.24539803722E+02 -0.35009130013E+02  0.13285151829E+02  0.44769815841E+02  0.51100000000E-03 0.  1.
         23    2    1    0    0    0 -0.21332023997E+02  0.73212088059E+01 -0.16864542154E+02  0.96838534692E+02  0.92653298231E+02 0.  0.
         11    1    3    3    0    0  0.32077797251E+01  0.42330338819E+02 -0.30149693983E+02  0.52068718852E+02  0.51100000000E-03 0. -1.
         22    1    1    0    0    0  0.21332023997E+02 -0.73212088059E+01  0.16864542154E+02  0.28161465308E+02  0.00000000000E+00 0. -1.
</event>
<event>
 5    1  0.3190780E-003  0.9118800E+02  0.7818608E-02  0.1130116E+00
         25   -1    0    0    0    0  0.00000000000E+00  0.00000000000E+00  0.99999998245E-14  0.12500000000E+03  0.12500000000E+03 0.  0.
        -11    1    3    3    0    0 -0.33659004266E+02  0.12202924214E+02 -0.99971416058E+01  0.37172338749E+02  0.51100000000E-03 0. -1.
         23    2    1    0    0    0  0.10734723395E+02 -0.26270358624E+02 -0.99221095613E+00  0.96603688423E+02  0.92335919911E+02 0.  0.
         11    1    3    3    0    0  0.44393727661E+02 -0.38473282837E+02  0.90049306497E+01  0.59431349675E+02  0.51100000000E-03 0.  1.
         22    1    1    0    0    0 -0.10734723395E+02  0.26270358624E+02  0.99221095613E+00  0.28396311577E+02  0.00000000000E+00 0.  1.
</event>
<event>
 5    1  0.3190780E-003  0.9118800E+02  0.7818608E-02  0.1130116E+00
         25   -1    0    0    0    0  0.00000000000E+00  0.00000000000E+00  0.99999998245E-14  0.12500000000E+03  0.12500000000E+03 0.  0.
        -11    1    3    3    0    0  0.52583671588E+02 -0.29018830665E+02  0.14645940068E+02  0.61819403197E+02  0.51100000000E-03 0.  1.
         23    2    1    0    0    0  0.26541751177E+02 -0.78181697559E+01  0.92172704433E+01  0.95835871206E+02  0.91290567977E+02 0.  0.
         11    1    3    3    0    0 -0.26041920411E+02  0.21200660909E+02 -0.54286696248E+01  0.34016468010E+02  0.51100000000E-03 0. -1.
         22    1    1    0    0    0 -0.26541751177E+02  0.78181697559E+01 -0.92172704433E+01  0.29164128794E+02  0.00000000000E+00 0.  1.
</event>
<event>
 5    1  0.3190780E-003  0.9118800E+02  0.7818608E-02  0.1130116E+00
         25   -1    0    0    0    0  0.00000000000E+00  0.00000000000E+00  0.99999998245E-14  0.12500000000E+03  0.12500000000E+03 0.  0.
        -11    1    3    3    0    0  0.16435650064E+02  0.17627981298E+02  0.30774566767E+02  0.39089004562E+02  0.51100000000E-03 0.  1.
         23    2    1    0    0    0  0.90491422197E+01 -0.27357160454E+02 -0.32899670411E+01  0.95997843422E+02  0.91512080380E+02 0.  0.
         11    1    3    3    0    0 -0.73865078442E+01 -0.44985141752E+02 -0.34064533808E+02  0.56908838860E+02  0.51100000000E-03 0. -1.
         22    1    1    0    0    0 -0.90491422197E+01  0.27357160454E+02  0.32899670411E+01  0.29002156578E+02  0.00000000000E+00 0. -1.
</event>
<event>
 5    1  0.3190780E-003  0.9118800E+02  0.7818608E-02  0.1130116E+00
         25   -1    0    0    0    0  0.00000000000E+00  0.00000000000E+00  0.99999998245E-14  0.12500000000E+03  0.12500000000E+03 0.  0.
        -11    1    3    3    0    0 -0.20227149414E+02  0.43388799739E+02 -0.21984783107E+02  0.52678802234E+02  0.51100000000E-03 0.  1.
         23    2    1    0    0    0  0.42326697534E+01  0.27850228173E+02  0.93116705343E+01  0.95330859286E+02  0.90596439343E+02 0.  0.
         11    1    3    3    0    0  0.24459819168E+02 -0.15538571566E+02  0.31296453641E+02  0.42652057053E+02  0.51100000000E-03 0. -1.
         22    1    1    0    0    0 -0.42326697534E+01 -0.27850228173E+02 -0.93116705343E+01  0.29669140714E+02  0.00000000000E+00 0.  1.
</event>
<event>
 5    1  0.3190780E-003  0.9118800E+02  0.7818608E-02  0.1130116E+00
         25   -1    0    0    0    0  0.00000000000E+00  0.00000000000E+00  0.99999998245E-14  0.12500000000E+03  0.12500000000E+03 0.  0.
        -11    1    3    3    0    0  0.61745627584E+01  0.30785183559E+02  0.36229055663E+02  0.47941602252E+02  0.51100000000E-03 0.  1.
         23    2    1    0    0    0  0.64016513746E+01 -0.16361260986E+02  0.21285763018E+02  0.97400077742E+02  0.93407812497E+02 0.  0.
         11    1    3    3    0    0  0.22708861620E+00 -0.47146444545E+02 -0.14943292645E+02  0.49458475490E+02  0.51100000000E-03 0. -1.
         22    1    1    0    0    0 -0.64016513746E+01  0.16361260986E+02 -0.21285763018E+02  0.27599922258E+02  0.00000000000E+00 0. -1.
</event>
<event>
 5    1  0.3190780E-003  0.9118800E+02  0.7818608E-02  0.1130116E+00
         25   -1    0    0    0    0  0.00000000000E+00  0.00000000000E+00  0.99999998245E-14  0.12500000000E+03  0.12500000000E+03 0.  0.
        -11    1    3    3    0    0 -0.29426913946E+02 -0.20375627673E+02  0.44400117835E+02  0.57030517546E+02  0.51100000000E-03 0.  1.
         23    2    1    0    0    0 -0.94145983094E+00 -0.22850419360E+02  0.19540205403E+02  0.94919314524E+02  0.90026821731E+02 0.  0.
         11    1    3    3    0    0  0.28485454115E+02 -0.24747916871E+01 -0.24859912432E+02  0.37888796978E+02  0.51100000000E-03 0. -1.
         22    1    1    0    0    0  0.94145983094E+00  0.22850419360E+02 -0.19540205403E+02  0.30080685476E+02  0.00000000000E+00 0.  1.
</event>
<event>
 5    1  0.3190780E-003  0.9118800E+02  0.7818608E-02  0.1130116E+00
         25   -1    0    0    0    0  0.00000000000E+00  0.00000000000E+00  0.99999998245E-14  0.12500000000E+03  0.12500000000E+03 0.  0.
        -11    1    3    3    0    0 -0.43129658265E+02  0.68303038154E+01  0.10333266192E+02  0.44873119601E+02  0.51100000000E-03 0. -1.
         23    2    1    0    0    0 -0.82047556586E+00  0.28325690989E+02 -0.76911120063E+01  0.95637248867E+02  0.91018197174E+02 0.  0.
         11    1    3    3    0    0  0.42309182699E+02  0.21495387174E+02 -0.18024378198E+02  0.50764129266E+02  0.51100000000E-03 0.  1.
         22    1    1    0    0    0  0.82047556586E+00 -0.28325690989E+02  0.76911120063E+01  0.29362751133E+02  0.00000000000E+00 0. -1.
</event>
<event>
 5    1  0.3190780E-003  0.9118800E+02  0.7818608E-02  0.1130116E+00
         25   -1    0    0    0    0  0.00000000000E+00  0.00000000000E+00  0.99999998245E-14  0.12500000000E+03  0.12500000000E+03 0.  0.
        -11    1    3    3    0    0  0.19348681416E+02 -0.30773833488E+02  0.21324208782E+02  0.42144064594E+02  0.51100000000E-03 0.  1.
         23    2    1    0    0    0  0.23227326694E+02  0.19004917592E+02  0.10242956926E+02  0.93288586209E+02  0.87733383340E+02 0.  0.
         11    1    3    3    0    0  0.38786452786E+01  0.49778751080E+02 -0.11081251855E+02  0.51144521615E+02  0.51100000000E-03 0. -1.
         22    1    1    0    0    0 -0.23227326694E+02 -0.19004917592E+02 -0.10242956926E+02  0.31711413791E+02  0.00000000000E+00 0. -1.
</event>
<event>
 5    1  0.3190780E-003  0.9118800E+02  0.7818608E-02  0.1130116E+00
         25   -1    0    0    0    0  0.00000000000E+00  0.00000000000E+00  0.99999998245E-14  0.12500000000E+03  0.12500000000E+03 0.  0.
        -11    1    3    3    0    0 -0.42598965199E+02 -0.25741933999E+02 -0.58361704266E+01  0.50113669668E+02  0.51100000000E-03 0. -1.
         23    2    1    0    0    0  0.17758076997E+01 -0.30024985033E+02 -0.22855182095E+01  0.94835835620E+02  0.89910838641E+02 0.  0.
         11    1    3    3    0    0  0.44374772899E+02 -0.42830510341E+01  0.35506522171E+01  0.44722165952E+02  0.51100000000E-03 0.  1.
         22    1    1    0    0    0 -0.17758076997E+01  0.30024985033E+02  0.22855182095E+01  0.30164164380E+02  0.00000000000E+00 0.  1.
</event>
<event>
 5    1  0.3190780E-003  0.9118800E+02  0.7818608E-02  0.1130116E+00
         25   -1    0    0    0    0  0.00000000000E+00  0.00000000000E+00  0.99999998245E-14  0.12500000000E+03  0.12500000000E+03 0.  0.
        -11    1    3    3    0    0  0.59427653441E+02  0.44954586150E+01  0.56897995561E+01  0.59868430420E+02  0.51100000000E-03 0. -1.
         23    2    1    0    0    0  0.25706443169E+02  0.79248577798E+01  0.13866795271E+02  0.94735951984E+02  0.89771866395E+02 0.  0.
         11    1    3    3    0    0 -0.33721210272E+02  0.34293991648E+01  0.81769957150E+01  0.34867521564E+02  0.51100000000E-03 0.  1.
         22    1    1    0    0    0 -0.25706443169E+02 -0.79248577798E+01 -0.13866795271E+02  0.30264048016E+02  0.00000000000E+00 0. -1.
</event>
<event>
 5    1  0.3190780E-003  0.9118800E+02  0.7818608E-02  0.1130116E+00
         25   -1    0    0    0    0  0.00000000000E+00  0.00000000000E+00  0.99999998245E-14  0.12500000000E+03  0.12500000000E+03 0.  0.
        -11    1    3    3    0    0 -0.11262923819E+02  0.55575250034E+02  0.46471750695E+01  0.56895150107E+02  0.51100000000E-03 0.  1.
         23    2    1    0    0    0 -0.19933638457E+02  0.19267860863E+02 -0.77246119343E+01  0.96220319079E+02  0.91815465853E+02 0.  0.
         11    1    3    3    0    0 -0.86707146383E+01 -0.36307389171E+02 -0.12371787004E+02  0.39325168972E+02  0.51100000000E-03 0. -1.
         22    1    1    0    0    0  0.19933638457E+02 -0.19267860863E+02  0.77246119343E+01  0.28779680921E+02  0.00000000000E+00 0.  1.
</event>
<event>
 5    1  0.3190780E-003  0.9118800E+02  0.7818608E-02  0.1130116E+00
         25   -1    0    0    0    0  0.00000000000E+00  0.00000000000E+00  0.99999998245E-14  0.12500000000E+03  0.12500000000E+03 0.  0.
        -11    1    3    3    0    0  0.32924948745E+02  0.19195018926E+01  0.16251102304E+02  0.36767309715E+02  0.51100000000E-03 0.  1.
         23    2    1    0    0    0 -0.23204429796E+02  0.16805065808E+02  0.50286455692E+01  0.95911461445E+02  0.91394011628E+02 0.  0.
         11    1    3    3    0    0 -0.56129378540E+02  0.14885563916E+02 -0.11222456735E+02  0.59144151730E+02  0.51100000000E-03 0. -1.
         22    1    1    0    0    0  0.23204429796E+02 -0.16805065808E+02 -0.50286455692E+01  0.29088538555E+02  0.00000000000E+00 0. -1.
</event>
<event>
 5    1  0.3190780E-003  0.9118800E+02  0.7818608E-02  0.1130116E+00
         25   -1    0    0    0    0  0.00000000000E+00  0.00000000000E+00  0.99999998245E-14  0.12500000000E+03  0.12500000000E+03 0.  0.
        -11    1    3    3    0    0 -0.17898636047E+02  0.23201700695E+02 -0.37704119125E+02  0.47752284623E+02  0.51100000000E-03 0. -1.
         23    2    1    0    0    0  0.21656029195E+02  0.33539327552E+01 -0.19711229092E+02  0.95525179937E+02  0.90864156763E+02 0.  0.
         11    1    3    3    0    0  0.39554665243E+02 -0.19847767940E+02  0.17992890033E+02  0.47772895314E+02  0.51100000000E-03 0.  1.
         22    1    1    0    0    0 -0.21656029195E+02 -0.33539327552E+01  0.19711229092E+02  0.29474820063E+02  0.00000000000E+00 0. -1.
</event>
<event>
 5    1  0.3190780E-003  0.9118800E+02  0.7818608E-02  0.1130116E+00
         25   -1    0    0    0    0  0.00000000000E+00  0.00000000000E+00  0.99999998245E-14  0.12500000000E+03  0.12500000000E+03 0.  0.
        -11    1    3    3    0    0  0.12706530832E+02 -0.21455992574E+02  0.17668365076E+02  0.30561195458E+02  0.51100000000E-03 0. -1.
         23    2    1    0    0    0 -0.22865107092E+02  0.89073830985E+01 -0.22118647325E+02  0.91963820507E+02  0.85825142742E+02 0.  0.
         11    1    3    3    0    0 -0.35571637925E+02  0.30363375672E+02 -0.39787012401E+02  0.61402625049E+02  0.51100000000E-03 0.  1.
         22    1    1    0    0    0  0.22865107092E+02 -0.89073830985E+01  0.22118647325E+02  0.33036179493E+02  0.00000000000E+00 0.  1.
</event>
<event>
 5    1  0.3190780E-003  0.9118800E+02  0.7818608E-02  0.1130116E+00
         25   -1    0    0    0    0  0.00000000000E+00  0.00000000000E+00  0.99999998245E-14  0.12500000000E+03  0.12500000000E+03 0.  0.
        -11    1    3    3    0    0  0.29246911732E+02  0.20872522364E+02  0.27672703695E+02  0.45352205743E+02  0.51100000000E-03 0.  1.
         23    2    1    0    0    0  0.12749296272E+02  0.61213432231E+01 -0.21494257660E+02  0.99270279624E+02  0.95877890600E+02 0.  0.
         11    1    3    3    0    0 -0.16497615460E+02 -0.14751179141E+02 -0.49166961355E+02  0.53918073881E+02  0.51100000000E-03 0. -1.
         22    1    1    0    0    0 -0.12749296272E+02 -0.61213432231E+01  0.21494257660E+02  0.25729720376E+02  0.00000000000E+00 0. -1.
</event>
<event>
 5    1  0.3190780E-003  0.9118800E+02  0.7818608E-02  0.1130116E+00
         25   -1    0    0    0    0  0.00000000000E+00  0.00000000000E+00  0.99999998245E-14  0.12500000000E+03  0.12500000000E+03 0.  0.
        -11    1    3    3    0    0 -0.29877298221E+02 -0.15018553178E+02 -0.13130268896E+02  0.35925114475E+02  0.51100000000E-03 0. -1.
         23    2    1    0    0    0  0.87427177384E+01 -0.14079478470E+01 -0.39427500698E+02  0.84590282829E+02  0.74314000748E+02 0.  0.
         11    1    3    3    0    0  0.38620015959E+02  0.13610605330E+02 -0.26297231802E+02  0.48665168353E+02  0.51100000000E-03 0.  1.
         22    1    1    0    0    0 -0.87427177384E+01  0.14079478470E+01  0.39427500698E+02  0.40409717171E+02  0.00000000000E+00 0.  1.
</event>
<event>
 5    1  0.3190780E-003  0.9118800E+02  0.7818608E-02  0.1130116E+00
         25   -1    0    0    0    0  0.00000000000E+00  0.00000000000E+00  0.99999998245E-14  0.12500000000E+03  0.12500000000E+03 0.  0.
        -11    1    3    3    0    0  0.30671408633E+02 -0.90890826457E+01  0.52200356534E+02  0.61222740492E+02  0.51100000000E-03 0. -1.
         23    2    1    0    0    0  0.22031929497E+02 -0.52102393339E+01  0.19984291523E+02  0.94801913655E+02  0.89863665703E+02 0.  0.
         11    1    3    3    0    0 -0.86394791362E+01  0.38788433118E+01 -0.32216065011E+02  0.33579173162E+02  0.51100000000E-03 0.  1.
         22    1    1    0    0    0 -0.22031929497E+02  0.52102393339E+01 -0.19984291523E+02  0.30198086345E+02  0.00000000000E+00 0. -1.
</event>
<event>
 5    1  0.3190780E-003  0.9118800E+02  0.7818608E-02  0.1130116E+00
         25   -1    0    0    0    0  0.00000000000E+00  0.00000000000E+00  0.99999998245E-14  0.12500000000E+03  0.12500000000E+03 0.  0.
        -11    1    3    3    0    0  0.44660823364E+02  0.60835118668E+01  0.20971389163E+02  0.49713151417E+02  0.51100000000E-03 0. -1.
         23    2    1    0    0    0  0.11462497674E+02 -0.24290798749E+02  0.11933676252E+02  0.95608770259E+02  0.90979077621E+02 0.  0.
         11    1    3    3    0    0 -0.33198325690E+02 -0.30374310616E+02 -0.90377129112E+01  0.45895618842E+02  0.51100000000E-03 0.  1.
         22    1    1    0    0    0 -0.11462497674E+02  0.24290798749E+02 -0.11933676252E+02  0.29391229741E+02  0.00000000000E+00 0.  1.
</event>
<event>
 5    1  0.3190780E-003  0.9118800E+02  0.7818608E-02  0.1130116E+00
         25   -1    0    0    0    0  0.00000000000E+00  0.00000000000E+00  0.99999998245E-14  0.12500000000E+03  0.12500000000E+03 0.  0.
        -11    1    3    3    0    0  0.24465538010E+02  0.38870284140E+02 -0.33569385074E+02  0.56889060054E+02  0.51100000000E-03 0.  1.
         23    2    1    0    0    0  0.69504404037E+01  0.28526614060E+02 -0.59500152220E+00  0.95632835371E+02  0.91012135689E+02 0.  0.
         11    1    3    3    0    0 -0.17515097607E+02 -0.10343670080E+02  0.32974383552E+02  0.38743775317E+02  0.51100000000E-03 0. -1.
         22    1    1    0    0    0 -0.69504404037E+01 -0.28526614060E+02  0.59500152220E+00  0.29367164629E+02  0.00000000000E+00 0.  1.
</event>
<event>
 5    1  0.3190780E-003  0.9118800E+02  0.7818608E-02  0.1130116E+00
         25   -1    0    0    0    0  0.00000000000E+00  0.00000000000E+00  0.99999998245E-14  0.12500000000E+03  0.12500000000E+03 0.  0.
        -11    1    3    3    0    0 -0.68629690442E+01 -0.33249003572E+02  0.51564615931E+02  0.61737397086E+02  0.51100000000E-03 0. -1.
         23    2    1    0    0    0 -0.32028309831E+01 -0.22682910010E+02  0.22450239059E+02  0.92925309563E+02  0.87214261396E+02 0.  0.
         11    1    3    3    0    0  0.36601380611E+01  0.10566093562E+02 -0.29114376872E+02  0.31187912477E+02  0.51100000000E-03 0.  1.
         22    1    1    0    0    0  0.32028309831E+01  0.22682910010E+02 -0.22450239059E+02  0.32074690437E+02  0.00000000000E+00 0. -1.
</event>
<event>
 5    1  0.3190780E-003  0.9118800E+02  0.7818608E-02  0.1130116E+00
         25   -1    0    0    0    0  0.00000000000E+00  0.00000000000E+00  0.99999998245E-14  0.12500000000E+03  0.12500000000E+03 0.  0.
        -11    1    3    3    0    0  0.89387138325E+01  0.30706208876E+02 -0.27795233012E+02  0.42371533451E+02  0.51100000000E-03 0. -1.
         23    2    1    0    0    0 -0.27400964939E+02  0.10898662251E+02  0.48893329765E+01  0.95108541431E+02  0.90289176304E+02 0.  0.
         11    1    3    3    0    0 -0.36339678772E+02 -0.19807546625E+02  0.32684565989E+02  0.52737007980E+02  0.51100000000E-03 0.  1.
         22    1    1    0    0    0  0.27400964939E+02 -0.10898662251E+02 -0.48893329765E+01  0.29891458569E+02  0.00000000000E+00 0.  1.
</event>
<event>
 5    1  0.3190780E-003  0.9118800E+02  0.7818608E-02  0.1130116E+00
         25   -1    0    0    0    0  0.00000000000E+00  0.00000000000E+00  0.99999998245E-14  0.12500000000E+03  0.12500000000E+03 0.  0.
        -11    1    3    3    0    0 -0.49209966517E+02 -0.16064424362E+02  0.49425424040E+00  0.51768048275E+02  0.51100000000E-03 0. -1.
         23    2    1    0    0    0 -0.19871207242E+02  0.16908517773E+02 -0.98693282563E+01  0.97104364306E+02  0.93011241667E+02 0.  0.
         11    1    3    3    0    0  0.29338759275E+02  0.32972942135E+02 -0.10363582497E+02  0.45336316031E+02  0.51100000000E-03 0.  1.
         22    1    1    0    0    0  0.19871207242E+02 -0.16908517773E+02  0.98693282563E+01  0.27895635694E+02  0.00000000000E+00 0.  1.
</event>
<event>
 5    1  0.3190780E-003  0.9118800E+02  0.7818608E-02  0.1130116E+00
         25   -1    0    0    0    0  0.00000000000E+00  0.00000000000E+00  0.99999998245E-14  0.12500000000E+03  0.12500000000E+03 0.  0.
        -11    1    3    3    0    0  0.20952162537E+02  0.29882674373E+02  0.17528682407E+02  0.40487307269E+02  0.51100000000E-03 0. -1.
         23    2    1    0    0    0 -0.20309719320E+02  0.54031095533E+01 -0.15630843774E+02  0.98808368344E+02  0.95273774388E+02 0.  0.
         11    1    3    3    0    0 -0.41261881857E+02 -0.24479564820E+02 -0.33159526181E+02  0.58321061076E+02  0.51100000000E-03 0.  1.
         22    1    1    0    0    0  0.20309719320E+02 -0.54031095533E+01  0.15630843774E+02  0.26191631656E+02  0.00000000000E+00 0.  1.
</event>
<event>
 5    1  0.3190780E-003  0.9118800E+02  0.7818608E-02  0.1130116E+00
         25   -1    0    0    0    0  0.00000000000E+00  0.00000000000E+00  0.99999998245E-14  0.12500000000E+03  0.12500000000E+03 0.  0.
        -11    1    3    3    0    0 -0.75699461168E+01 -0.41012412647E+02 -0.24723841985E+00  0.41705913279E+02  0.51100000000E-03 0.  1.
         23    2    1    0    0    0  0.26174821054E+02  0.19960696449E+01  0.92017560077E+01  0.97183137041E+02  0.93117046024E+02 0.  0.
         11    1    3    3    0    0  0.33744767171E+02  0.43008482292E+02  0.94489944275E+01  0.55477223763E+02  0.51100000000E-03 0. -1.
         22    1    1    0    0    0 -0.26174821054E+02 -0.19960696449E+01 -0.92017560077E+01  0.27816862959E+02  0.00000000000E+00 0. -1.
</event>
<event>
 5    1  0.3190780E-003  0.9118800E+02  0.7818608E-02  0.1130116E+00
         25   -1    0    0    0    0  0.00000000000E+00  0.00000000000E+00  0.99999998245E-14  0.12500000000E+03  0.12500000000E+03 0.  0.
        -11    1    3    3    0    0  0.22799239176E+02  0.17207594722E+02 -0.32935965508E+02  0.43596839878E+02  0.51100000000E-03 0. -1.
         23    2    1    0    0    0 -0.20329973317E+02  0.23080292633E+02 -0.11036851120E+02  0.92322487767E+02  0.86345943401E+02 0.  0.
         11    1    3    3    0    0 -0.43129212493E+02  0.58726979108E+01  0.21899114388E+02  0.48725647889E+02  0.51100000000E-03 0.  1.
         22    1    1    0    0    0  0.20329973317E+02 -0.23080292633E+02  0.11036851120E+02  0.32677512233E+02  0.00000000000E+00 0.  1.
</event>
<event>
 5    1  0.3190780E-003  0.9118800E+02  0.7818608E-02  0.1130116E+00
         25   -1    0    0    0    0  0.00000000000E+00  0.00000000000E+00  0.99999998245E-14  0.12500000000E+03  0.12500000000E+03 0.  0.
        -11    1    3    3    0    0  0.16649823003E+01  0.30424049263E+02 -0.77778418035E+01  0.31446617672E+02  0.51100000000E-03 0. -1.
         23    2    1    0    0    0 -0.28186539623E+02 -0.15952204377E+02 -0.18599926926E+02  0.87651491033E+02  0.79296108090E+02 0.  0.
         11    1    3    3    0    0 -0.29851521923E+02 -0.46376253640E+02 -0.10822085123E+02  0.56204873361E+02  0.51100000000E-03 0.  1.
         22    1    1    0    0    0  0.28186539623E+02  0.15952204377E+02  0.18599926926E+02  0.37348508967E+02  0.00000000000E+00 0.  1.
</event>
<event>
 5    1  0.3190780E-003  0.9118800E+02  0.7818608E-02  0.1130116E+00
         25   -1    0    0    0    0  0.00000000000E+00  0.00000000000E+00  0.99999998245E-14  0.12500000000E+03  0.12500000000E+03 0.  0.
        -11    1    3    3    0    0  0.89141076659E+01  0.43360617731E+02  0.21246296617E+02  0.49102032603E+02  0.51100000000E-03 0.  1.
         23    2    1    0    0    0  0.14956827363E+02  0.14697911972E+02 -0.17508474754E+02  0.97681837739E+02  0.93784110780E+02 0.  0.
         11    1    3    3    0    0  0.60427196975E+01 -0.28662705759E+02 -0.38754771371E+02  0.48579805136E+02  0.51100000000E-03 0. -1.
         22    1    1    0    0    0 -0.14956827363E+02 -0.14697911972E+02  0.17508474754E+02  0.27318162261E+02  0.00000000000E+00 0. -1.
</event>
<event>
 5    1  0.3190780E-003  0.9118800E+02  0.7818608E-02  0.1130116E+00
         25   -1    0    0    0    0  0.00000000000E+00  0.00000000000E+00  0.99999998245E-14  0.12500000000E+03  0.12500000000E+03 0.  0.
        -11    1    3    3    0    0  0.24194819125E+02  0.43678806736E+02  0.19172296673E+02  0.53486487923E+02  0.51100000000E-03 0.  1.
         23    2    1    0    0    0  0.49887214721E+01  0.24165231264E+02 -0.14103777126E+02  0.96578841100E+02  0.92302276652E+02 0.  0.
         11    1    3    3    0    0 -0.19206097652E+02 -0.19513575471E+02 -0.33276073798E+02  0.43092353178E+02  0.51100000000E-03 0. -1.
         22    1    1    0    0    0 -0.49887214721E+01 -0.24165231264E+02  0.14103777126E+02  0.28421158900E+02  0.00000000000E+00 0.  1.
</event>
<event>
 5    1  0.3190780E-003  0.9118800E+02  0.7818608E-02  0.1130116E+00
         25   -1    0    0    0    0  0.00000000000E+00  0.00000000000E+00  0.99999998245E-14  0.12500000000E+03  0.12500000000E+03 0.  0.
        -11    1    3    3    0    0  0.33266487879E+01  0.40012089872E+02  0.84245772064E+00  0.40158979860E+02  0.51100000000E-03 0. -1.
         23    2    1    0    0    0 -0.15214386364E+02 -0.55341789467E+01 -0.24618718265E+02  0.95535004191E+02  0.90877670787E+02 0.  0.
         11    1    3    3    0    0 -0.18541035152E+02 -0.45546268819E+02 -0.25461175985E+02  0.55376024331E+02  0.51100000000E-03 0.  1.
         22    1    1    0    0    0  0.15214386364E+02  0.55341789467E+01  0.24618718265E+02  0.29464995809E+02  0.00000000000E+00 0.  1.
</event>
<event>
 5    1  0.3190780E-003  0.9118800E+02  0.7818608E-02  0.1130116E+00
         25   -1    0    0    0    0  0.00000000000E+00  0.00000000000E+00  0.99999998245E-14  0.12500000000E+03  0.12500000000E+03 0.  0.
        -11    1    3    3    0    0 -0.16051274707E+02  0.14860025879E+02  0.33375478116E+02  0.39904715618E+02  0.51100000000E-03 0.  1.
         23    2    1    0    0    0 -0.34925287299E+01  0.43369293986E+02  0.65809627810E+01  0.80995426500E+02  0.67998945764E+02 0.  0.
         11    1    3    3    0    0  0.12558745977E+02  0.28509268107E+02 -0.26794515335E+02  0.41090710882E+02  0.51100000000E-03 0. -1.
         22    1    1    0    0    0  0.34925287299E+01 -0.43369293986E+02 -0.65809627810E+01  0.44004573500E+02  0.00000000000E+00 0. -1.
</event>
<event>
 5    1  0.3190780E-003  0.9118800E+02  0.7818608E-02  0.1130116E+00
         25   -1    0    0    0    0  0.00000000000E+00  0.00000000000E+00  0.99999998245E-14  0.12500000000E+03  0.12500000000E+03 0.  0.
        -11    1    3    3    0    0 -0.10280152116E+02 -0.23605293771E+02  0.41563788986E+02  0.48892125917E+02  0.51100000000E-03 0.  1.
         23    2    1    0    0    0 -0.13635008399E+02 -0.25175849584E+02 -0.52834101868E+01  0.95885548614E+02  0.91358563657E+02 0.  0.
         11    1    3    3    0    0 -0.33548562831E+01 -0.15705558130E+01 -0.46847199172E+02  0.46993422697E+02  0.51100000000E-03 0. -1.
         22    1    1    0    0    0  0.13635008399E+02  0.25175849584E+02  0.52834101868E+01  0.29114451386E+02  0.00000000000E+00 0.  1.
</event>
<event>
 5    1  0.3190780E-003  0.9118800E+02  0.7818608E-02  0.1130116E+00
         25   -1    0    0    0    0  0.00000000000E+00  0.00000000000E+00  0.99999998245E-14  0.12500000000E+03  0.12500000000E+03 0.  0.
        -11    1    3    3    0    0 -0.15601829651E+02 -0.38574210081E+02  0.42016185967E+02  0.59133295657E+02  0.51100000000E-03 0.  1.
         23    2    1    0    0    0 -0.12722568836E+02 -0.25407501306E+02  0.83708171658E+01  0.95377787719E+02  0.90661165500E+02 0.  0.
         11    1    3    3    0    0  0.28792608155E+01  0.13166708774E+02 -0.33645368801E+02  0.36244492062E+02  0.51100000000E-03 0. -1.
         22    1    1    0    0    0  0.12722568836E+02  0.25407501306E+02 -0.83708171658E+01  0.29622212281E+02  0.00000000000E+00 0.  1.
</event>
<event>
 5    1  0.3190780E-003  0.9118800E+02  0.7818608E-02  0.1130116E+00
         25   -1    0    0    0    0  0.00000000000E+00  0.00000000000E+00  0.99999998245E-14  0.12500000000E+03  0.12500000000E+03 0.  0.
        -11    1    3    3    0    0  0.23638528988E+02 -0.77131886042E+01 -0.43085878094E+02  0.49746017153E+02  0.51100000000E-03 0.  1.
         23    2    1    0    0    0  0.27562779654E+02  0.64636431191E+00  0.34728633182E+01  0.97211776079E+02  0.93155483036E+02 0.  0.
         11    1    3    3    0    0  0.39242506664E+01  0.83595529161E+01  0.46558741412E+02  0.47465758926E+02  0.51100000000E-03 0. -1.
         22    1    1    0    0    0 -0.27562779654E+02 -0.64636431191E+00 -0.34728633182E+01  0.27788223921E+02  0.00000000000E+00 0.  1.
</event>
<event>
 5    1  0.3190780E-003  0.9118800E+02  0.7818608E-02  0.1130116E+00
         25   -1    0    0    0    0  0.00000000000E+00  0.00000000000E+00  0.99999998245E-14  0.12500000000E+03  0.12500000000E+03 0.  0.
        -11    1    3    3    0    0 -0.28860058034E+02 -0.12546216749E+02  0.31507180327E+02  0.44531033189E+02  0.51100000000E-03 0. -1.
         23    2    1    0    0    0  0.18824033663E+02 -0.17743368939E+02  0.13951508110E+02  0.95609253783E+02  0.90979741953E+02 0.  0.
         11    1    3    3    0    0  0.47684091697E+02 -0.51971521902E+01 -0.17555672217E+02  0.51078220595E+02  0.51100000000E-03 0.  1.
         22    1    1    0    0    0 -0.18824033663E+02  0.17743368939E+02 -0.13951508110E+02  0.29390746217E+02  0.00000000000E+00 0.  1.
</event>
<event>
 5    1  0.3190780E-003  0.9118800E+02  0.7818608E-02  0.1130116E+00
         25   -1    0    0    0    0  0.00000000000E+00  0.00000000000E+00  0.99999998245E-14  0.12500000000E+03  0.12500000000E+03 0.  0.
        -11    1    3    3    0    0 -0.27134080623E+02  0.29220080028E+01 -0.55997232672E+02  0.62293551265E+02  0.51100000000E-03 0.  1.
         23    2    1    0    0    0 -0.97273483428E+01  0.30836416228E+01 -0.27269251157E+02  0.95883987050E+02  0.91356427045E+02 0.  0.
         11    1    3    3    0    0  0.17406732280E+02  0.16163362000E+00  0.28727981514E+02  0.33590435785E+02  0.51100000000E-03 0. -1.
         22    1    1    0    0    0  0.97273483428E+01 -0.30836416228E+01  0.27269251157E+02  0.29116012950E+02  0.00000000000E+00 0.  1.
</event>
<event>
 5    1  0.3190780E-003  0.9118800E+02  0.7818608E-02  0.1130116E+00
         25   -1    0    0    0    0  0.00000000000E+00  0.00000000000E+00  0.99999998245E-14  0.12500000000E+03  0.12500000000E+03 0.  0.
        -11    1    3    3    0    0 -0.53601477476E+01  0.24065987022E+02  0.26263613138E+02  0.36023329809E+02  0.51100000000E-03 0.  1.
         23    2    1    0    0    0 -0.16838509022E+02 -0.25236030050E+02 -0.30337155010E+01  0.94510722729E+02  0.89457703315E+02 0.  0.
         11    1    3    3    0    0 -0.11478361274E+02 -0.49302017072E+02 -0.29297328639E+02  0.58487392920E+02  0.51100000000E-03 0. -1.
         22    1    1    0    0    0  0.16838509022E+02  0.25236030050E+02  0.30337155010E+01  0.30489277271E+02  0.00000000000E+00 0. -1.
</event>
<event>
 5    1  0.3190780E-003  0.9118800E+02  0.7818608E-02  0.1130116E+00
         25   -1    0    0    0    0  0.00000000000E+00  0.00000000000E+00  0.99999998245E-14  0.12500000000E+03  0.12500000000E+03 0.  0.
        -11    1    3    3    0    0 -0.32798130154E+02 -0.12151892075E+02  0.23204828386E+02  0.41974395568E+02  0.51100000000E-03 0.  1.
         23    2    1    0    0    0  0.19413111040E+02 -0.79424483360E+01  0.22331946263E+02  0.94362324016E+02  0.89250103664E+02 0.  0.
         11    1    3    3    0    0  0.52211241194E+02  0.42094437395E+01 -0.87288212284E+00  0.52387928448E+02  0.51100000000E-03 0. -1.
         22    1    1    0    0    0 -0.19413111040E+02  0.79424483360E+01 -0.22331946263E+02  0.30637675984E+02  0.00000000000E+00 0. -1.
</event>
<event>
 5    1  0.3190780E-003  0.9118800E+02  0.7818608E-02  0.1130116E+00
         25   -1    0    0    0    0  0.00000000000E+00  0.00000000000E+00  0.99999998245E-14  0.12500000000E+03  0.12500000000E+03 0.  0.
        -11    1    3    3    0    0  0.27960417839E+02  0.24820869905E+01 -0.20140905292E+02  0.34548542484E+02  0.51100000000E-03 0. -1.
         23    2    1    0    0    0 -0.17203875167E+02 -0.22514185124E+02  0.10737159003E+02  0.94699035725E+02  0.89720448791E+02 0.  0.
         11    1    3    3    0    0 -0.45164293005E+02 -0.24996272114E+02  0.30878064295E+02  0.60150493241E+02  0.51100000000E-03 0.  1.
         22    1    1    0    0    0  0.17203875167E+02  0.22514185124E+02 -0.10737159003E+02  0.30300964275E+02  0.00000000000E+00 0.  1.
</event>
<event>
 5    1  0.3190780E-003  0.9118800E+02  0.7818608E-02  0.1130116E+00
         25   -1    0    0    0    0  0.00000000000E+00  0.00000000000E+00  0.99999998245E-14  0.12500000000E+03  0.12500000000E+03 0.  0.
        -11    1    3    3    0    0 -0.36965488827E+02 -0.83289511412E+01 -0.62347423050E+01  0.38401703129E+02  0.51100000000E-03 0. -1.
         23    2    1    0    0    0  0.20353644444E+02 -0.19233074517E+02 -0.29625808115E+01  0.96840474390E+02  0.92655915070E+02 0.  0.
         11    1    3    3    0    0  0.57319133270E+02 -0.10904123376E+02  0.32721614935E+01  0.58438771261E+02  0.51100000000E-03 0.  1.
         22    1    1    0    0    0 -0.20353644444E+02  0.19233074517E+02  0.29625808115E+01  0.28159525610E+02  0.00000000000E+00 0.  1.
</event>
<event>
 5    1  0.3190780E-003  0.9118800E+02  0.7818608E-02  0.1130116E+00
         25   -1    0    0    0    0  0.00000000000E+00  0.00000000000E+00  0.99999998245E-14  0.12500000000E+03  0.12500000000E+03 0.  0.
        -11    1    3    3    0    0 -0.16572373551E+02  0.15860846556E+02  0.54844174210E+02  0.59448241889E+02  0.51100000000E-03 0.  1.
         23    2    1    0    0    0 -0.15327729949E+02  0.16779126501E+02  0.18855291557E+02  0.95470346917E+02  0.90788692739E+02 0.  0.
         11    1    3    3    0    0  0.12446436022E+01  0.91827994480E+00 -0.35988882654E+02  0.36022105029E+02  0.51100000000E-03 0. -1.
         22    1    1    0    0    0  0.15327729949E+02 -0.16779126501E+02 -0.18855291557E+02  0.29529653083E+02  0.00000000000E+00 0.  1.
</event>
<event>
 5    1  0.3190780E-003  0.9118800E+02  0.7818608E-02  0.1130116E+00
         25   -1    0    0    0    0  0.00000000000E+00  0.00000000000E+00  0.99999998245E-14  0.12500000000E+03  0.12500000000E+03 0.  0.
        -11    1    3    3    0    0  0.33828751004E+02  0.80949545148E+01 -0.13023014726E+02  0.37141776962E+02  0.51100000000E-03 0. -1.
         23    2    1    0    0    0 -0.19893911683E+02  0.21346379765E+02  0.51234736011E+01  0.95374240384E+02  0.90656274443E+02 0.  0.
         11    1    3    3    0    0 -0.53722662687E+02  0.13251425250E+02  0.18146488327E+02  0.58232463422E+02  0.51100000000E-03 0.  1.
         22    1    1    0    0    0  0.19893911683E+02 -0.21346379765E+02 -0.51234736011E+01  0.29625759616E+02  0.00000000000E+00 0.  1.
</event>
<event>
 5    1  0.3190780E-003  0.9118800E+02  0.7818608E-02  0.1130116E+00
         25   -1    0    0    0    0  0.00000000000E+00  0.00000000000E+00  0.99999998245E-14  0.12500000000E+03  0.12500000000E+03 0.  0.
        -11    1    3    3    0    0  0.33204134783E+02 -0.16970411464E+02 -0.15112455299E+02  0.40235503444E+02  0.51100000000E-03 0.  1.
         23    2    1    0    0    0 -0.23018737215E+02 -0.10152486831E+02 -0.12442344046E+02  0.96933165886E+02  0.92780878804E+02 0.  0.
         11    1    3    3    0    0 -0.56222871998E+02  0.68179246338E+01  0.26701112534E+01  0.56697662442E+02  0.51100000000E-03 0. -1.
         22    1    1    0    0    0  0.23018737215E+02  0.10152486831E+02  0.12442344046E+02  0.28066834114E+02  0.00000000000E+00 0. -1.
</event>
<event>
 5    1  0.3190780E-003  0.9118800E+02  0.7818608E-02  0.1130116E+00
         25   -1    0    0    0    0  0.00000000000E+00  0.00000000000E+00  0.99999998245E-14  0.12500000000E+03  0.12500000000E+03 0.  0.
        -11    1    3    3    0    0  0.13428262358E+02 -0.35564237729E+02  0.17768078258E+02  0.41962338357E+02  0.51100000000E-03 0. -1.
         23    2    1    0    0    0 -0.22028334462E+02  0.55841456640E+01  0.17561645435E+02  0.96279944423E+02  0.91896605518E+02 0.  0.
         11    1    3    3    0    0 -0.35456596820E+02  0.41148383393E+02 -0.20643282259E+00  0.54317606065E+02  0.51100000000E-03 0.  1.
         22    1    1    0    0    0  0.22028334462E+02 -0.55841456640E+01 -0.17561645435E+02  0.28720055577E+02  0.00000000000E+00 0.  1.
</event>
<event>
 5    1  0.3190780E-003  0.9118800E+02  0.7818608E-02  0.1130116E+00
         25   -1    0    0    0    0  0.00000000000E+00  0.00000000000E+00  0.99999998245E-14  0.12500000000E+03  0.12500000000E+03 0.  0.
        -11    1    3    3    0    0 -0.22073303682E+01  0.43723370508E+02  0.76940150738E+01  0.44450009045E+02  0.51100000000E-03 0. -1.
         23    2    1    0    0    0  0.12179495924E+02  0.74698155443E+01 -0.25567997638E+02  0.95710739708E+02  0.91119070052E+02 0.  0.
         11    1    3    3    0    0  0.14386826292E+02 -0.36253554963E+02 -0.33262012711E+02  0.51260730663E+02  0.51100000000E-03 0.  1.
         22    1    1    0    0    0 -0.12179495924E+02 -0.74698155443E+01  0.25567997638E+02  0.29289260292E+02  0.00000000000E+00 0. -1.
</event>
<event>
 5    1  0.3190780E-003  0.9118800E+02  0.7818608E-02  0.1130116E+00
         25   -1    0    0    0    0  0.00000000000E+00  0.00000000000E+00  0.99999998245E-14  0.12500000000E+03  0.12500000000E+03 0.  0.
        -11    1    3    3    0    0 -0.39972779088E+02  0.13234337088E+02 -0.22713687909E+02  0.47842265466E+02  0.51100000000E-03 0. -1.
         23    2    1    0    0    0 -0.21611751635E+02 -0.19316844435E+02  0.65189534429E+01  0.95289647568E+02  0.90539559818E+02 0.  0.
         11    1    3    3    0    0  0.18361027453E+02 -0.32551181523E+02  0.29232641352E+02  0.47447382102E+02  0.51100000000E-03 0.  1.
         22    1    1    0    0    0  0.21611751635E+02  0.19316844435E+02 -0.65189534429E+01  0.29710352432E+02  0.00000000000E+00 0.  1.
</event>
<event>
 5    1  0.3190780E-003  0.9118800E+02  0.7818608E-02  0.1130116E+00
         25   -1    0    0    0    0  0.00000000000E+00  0.00000000000E+00  0.99999998245E-14  0.12500000000E+03  0.12500000000E+03 0.  0.
        -11    1    3    3    0    0 -0.27372345153E+02 -0.85442769954E+01  0.19520764102E+02  0.34688761580E+02  0.51100000000E-03 0. -1.
         23    2    1    0    0    0  0.12239106521E+02  0.20148210700E+02 -0.17172839543E+02  0.95834051690E+02  0.91288076563E+02 0.  0.
         11    1    3    3    0    0  0.39611451674E+02  0.28692487696E+02 -0.36693603645E+02  0.61145290110E+02  0.51100000000E-03 0.  1.
         22    1    1    0    0    0 -0.12239106521E+02 -0.20148210700E+02  0.17172839543E+02  0.29165948310E+02  0.00000000000E+00 0.  1.
</event>
<event>
 5    1  0.3190780E-003  0.9118800E+02  0.7818608E-02  0.1130116E+00
         25   -1    0    0    0    0  0.00000000000E+00  0.00000000000E+00  0.99999998245E-14  0.12500000000E+03  0.12500000000E+03 0.  0.
        -11    1    3    3    0    0 -0.59501340971E+02 -0.12397527691E+02 -0.59338737317E+01  0.61068151502E+02  0.51100000000E-03 0.  1.
         23    2    1    0    0    0 -0.25212550211E+02 -0.14453511460E+02  0.64533355646E-01  0.95938326851E+02  0.91430748180E+02 0.  0.
         11    1    3    3    0    0  0.34288790760E+02 -0.20559837688E+01  0.59984070874E+01  0.34870175349E+02  0.51100000000E-03 0. -1.
         22    1    1    0    0    0  0.25212550211E+02  0.14453511460E+02 -0.64533355646E-01  0.29061673149E+02  0.00000000000E+00 0.  1.
</event>
<event>
 5    1  0.3190780E-003  0.9118800E+02  0.7818608E-02  0.1130116E+00
         25   -1    0    0    0    0  0.00000000000E+00  0.00000000000E+00  0.99999998245E-14  0.12500000000E+03  0.12500000000E+03 0.  0.
        -11    1    3    3    0    0  0.17250533836E+02 -0.39174304445E+02 -0.30549303979E+02  0.52587707882E+02  0.51100000000E-03 0. -1.
         23    2    1    0    0    0  0.26349079997E+02 -0.11703836065E+02  0.19490978952E+01  0.96102720233E+02  0.91655223846E+02 0.  0.
         11    1    3    3    0    0  0.90985461606E+01  0.27470468380E+02  0.32498401875E+02  0.43515012351E+02  0.51100000000E-03 0.  1.
         22    1    1    0    0    0 -0.26349079997E+02  0.11703836065E+02 -0.19490978952E+01  0.28897279767E+02  0.00000000000E+00 0. -1.
</event>
<event>
 5    1  0.3190780E-003  0.9118800E+02  0.7818608E-02  0.1130116E+00
         25   -1    0    0    0    0  0.00000000000E+00  0.00000000000E+00  0.99999998245E-14  0.12500000000E+03  0.12500000000E+03 0.  0.
        -11    1    3    3    0    0 -0.22048420946E+02 -0.10570579790E+02 -0.30851125135E+02  0.39365745842E+02  0.51100000000E-03 0. -1.
         23    2    1    0    0    0  0.84725088765E+01  0.13681086039E+01  0.21905618347E+02  0.10147318035E+03  0.98708130804E+02 0.  0.
         11    1    3    3    0    0  0.30520929823E+02  0.11938688394E+02  0.52756743482E+02  0.62107434506E+02  0.51100000000E-03 0.  1.
         22    1    1    0    0    0 -0.84725088765E+01 -0.13681086039E+01 -0.21905618347E+02  0.23526819653E+02  0.00000000000E+00 0.  1.
</event>
<event>
 5    1  0.3190780E-003  0.9118800E+02  0.7818608E-02  0.1130116E+00
         25   -1    0    0    0    0  0.00000000000E+00  0.00000000000E+00  0.99999998245E-14  0.12500000000E+03  0.12500000000E+03 0.  0.
        -11    1    3    3    0    0  0.27155936671E+02 -0.18286669486E+02  0.51169474518E+02  0.60746706084E+02  0.51100000000E-03 0.  1.
         23    2    1    0    0    0  0.50125366883E+01 -0.15533901251E+02  0.25069801463E+02  0.95084743733E+02  0.90256223793E+02 0.  0.
         11    1    3    3    0    0 -0.22143399983E+02  0.27527682350E+01 -0.26099673055E+02  0.34338037649E+02  0.51100000000E-03 0. -1.
         22    1    1    0    0    0 -0.50125366883E+01  0.15533901251E+02 -0.25069801463E+02  0.29915256267E+02  0.00000000000E+00 0.  1.
</event>
<event>
 5    1  0.3190780E-003  0.9118800E+02  0.7818608E-02  0.1130116E+00
         25   -1    0    0    0    0  0.00000000000E+00  0.00000000000E+00  0.99999998245E-14  0.12500000000E+03  0.12500000000E+03 0.  0.
        -11    1    3    3    0    0  0.49654157373E+02 -0.30584543728E+02  0.18826338423E+02  0.61281160875E+02  0.51100000000E-03 0. -1.
         23    2    1    0    0    0  0.17928833338E+02 -0.17062170156E+02  0.15192680004E+02  0.95959024793E+02  0.91459041096E+02 0.  0.
         11    1    3    3    0    0 -0.31725324035E+02  0.13522373572E+02 -0.36336584190E+01  0.34677863918E+02  0.51100000000E-03 0.  1.
         22    1    1    0    0    0 -0.17928833338E+02  0.17062170156E+02 -0.15192680004E+02  0.29040975207E+02  0.00000000000E+00 0. -1.
</event>
<event>
 5    1  0.3190780E-003  0.9118800E+02  0.7818608E-02  0.1130116E+00
         25   -1    0    0    0    0  0.00000000000E+00  0.00000000000E+00  0.99999998245E-14  0.12500000000E+03  0.12500000000E+03 0.  0.
        -11    1    3    3    0    0  0.30060373434E+02 -0.46094836556E+02  0.18507830384E+02  0.58059450514E+02  0.51100000000E-03 0. -1.
         23    2    1    0    0    0  0.55788585327E+01 -0.28310922250E+02 -0.41315301631E+01  0.95850359820E+02  0.91310404418E+02 0.  0.
         11    1    3    3    0    0 -0.24481514901E+02  0.17783914307E+02 -0.22639360548E+02  0.37790909306E+02  0.51100000000E-03 0.  1.
         22    1    1    0    0    0 -0.55788585327E+01  0.28310922250E+02  0.41315301631E+01  0.29149640180E+02  0.00000000000E+00 0. -1.
</event>
<event>
 5    1  0.3190780E-003  0.9118800E+02  0.7818608E-02  0.1130116E+00
         25   -1    0    0    0    0  0.00000000000E+00  0.00000000000E+00  0.99999998245E-14  0.12500000000E+03  0.12500000000E+03 0.  0.
        -11    1    3    3    0    0  0.39277172779E+01 -0.10407984155E+02  0.43236463295E+02  0.44644650920E+02  0.51100000000E-03 0. -1.
         23    2    1    0    0    0  0.19033739109E+02 -0.23480128899E+02 -0.26173290993E+01  0.94661079630E+02  0.89667552144E+02 0.  0.
         11    1    3    3    0    0  0.15106021832E+02 -0.13072144743E+02 -0.45853792394E+02  0.50016428711E+02  0.51100000000E-03 0.  1.
         22    1    1    0    0    0 -0.19033739109E+02  0.23480128899E+02  0.26173290993E+01  0.30338920370E+02  0.00000000000E+00 0.  1.
</event>
<event>
 5    1  0.3190780E-003  0.9118800E+02  0.7818608E-02  0.1130116E+00
         25   -1    0    0    0    0  0.00000000000E+00  0.00000000000E+00  0.99999998245E-14  0.12500000000E+03  0.12500000000E+03 0.  0.
        -11    1    3    3    0    0 -0.31422151732E+02 -0.33223036392E+02  0.34542164930E+02  0.57308663612E+02  0.51100000000E-03 0. -1.
         23    2    1    0    0    0 -0.84494820997E+01 -0.33403724616E+02  0.15199171546E+02  0.87340772955E+02  0.78804779289E+02 0.  0.
         11    1    3    3    0    0  0.22972669633E+02 -0.18068822312E+00 -0.19342993384E+02  0.30032109343E+02  0.51100000000E-03 0.  1.
         22    1    1    0    0    0  0.84494820997E+01  0.33403724616E+02 -0.15199171546E+02  0.37659227045E+02  0.00000000000E+00 0. -1.
</event>
<event>
 5    1  0.3190780E-003  0.9118800E+02  0.7818608E-02  0.1130116E+00
         25   -1    0    0    0    0  0.00000000000E+00  0.00000000000E+00  0.99999998245E-14  0.12500000000E+03  0.12500000000E+03 0.  0.
        -11    1    3    3    0    0  0.17014608229E+02  0.23114012204E+02 -0.18336970850E+02  0.34058757370E+02  0.51100000000E-03 0.  1.
         23    2    1    0    0    0  0.10688789940E+02 -0.12062659698E+02  0.28069031871E+02  0.92632909621E+02  0.86794166885E+02 0.  0.
         11    1    3    3    0    0 -0.63258182888E+01 -0.35176671902E+02  0.46406002721E+02  0.58574152252E+02  0.51100000000E-03 0. -1.
         22    1    1    0    0    0 -0.10688789940E+02  0.12062659698E+02 -0.28069031871E+02  0.32367090379E+02  0.00000000000E+00 0. -1.
</event>
<event>
 5    1  0.3190780E-003  0.9118800E+02  0.7818608E-02  0.1130116E+00
         25   -1    0    0    0    0  0.00000000000E+00  0.00000000000E+00  0.99999998245E-14  0.12500000000E+03  0.12500000000E+03 0.  0.
        -11    1    3    3    0    0 -0.39683293220E+02  0.46267535008E+02  0.20811399722E+00  0.60954834658E+02  0.51100000000E-03 0.  1.
         23    2    1    0    0    0 -0.24996757869E+02  0.15875828988E+02 -0.45414683200E+01  0.95041615789E+02  0.90196474140E+02 0.  0.
         11    1    3    3    0    0  0.14686535351E+02 -0.30391706020E+02 -0.47495823173E+01  0.34086781131E+02  0.51100000000E-03 0. -1.
         22    1    1    0    0    0  0.24996757869E+02 -0.15875828988E+02  0.45414683200E+01  0.29958384211E+02  0.00000000000E+00 0.  1.
</event>
<event>
 5    1  0.3190780E-003  0.9118800E+02  0.7818608E-02  0.1130116E+00
         25   -1    0    0    0    0  0.00000000000E+00  0.00000000000E+00  0.99999998245E-14  0.12500000000E+03  0.12500000000E+03 0.  0.
        -11    1    3    3    0    0  0.16326761072E+02  0.48958540930E+02 -0.22095162938E+02  0.56139986486E+02  0.51100000000E-03 0.  1.
         23    2    1    0    0    0  0.13049831621E+02  0.27594513234E+02  0.82354864821E+01  0.93383888545E+02  0.87869062452E+02 0.  0.
         11    1    3    3    0    0 -0.32769294505E+01 -0.21364027696E+02  0.30330649420E+02  0.37243902059E+02  0.51100000000E-03 0. -1.
         22    1    1    0    0    0 -0.13049831621E+02 -0.27594513234E+02 -0.82354864821E+01  0.31616111455E+02  0.00000000000E+00 0.  1.
</event>
<event>
 5    1  0.3190780E-003  0.9118800E+02  0.7818608E-02  0.1130116E+00
         25   -1    0    0    0    0  0.00000000000E+00  0.00000000000E+00  0.99999998245E-14  0.12500000000E+03  0.12500000000E+03 0.  0.
        -11    1    3    3    0    0  0.17269665392E+02  0.51732364919E+02  0.21943524038E+01  0.54582910381E+02  0.51100000000E-03 0. -1.
         23    2    1    0    0    0  0.24243509863E+02  0.12145944904E+02  0.11009734348E+02  0.95734217959E+02  0.91151272562E+02 0.  0.
         11    1    3    3    0    0  0.69738444706E+01 -0.39586420015E+02  0.88153819439E+01  0.41151307578E+02  0.51100000000E-03 0.  1.
         22    1    1    0    0    0 -0.24243509863E+02 -0.12145944904E+02 -0.11009734348E+02  0.29265782041E+02  0.00000000000E+00 0. -1.
</event>
<event>
 5    1  0.3190780E-003  0.9118800E+02  0.7818608E-02  0.1130116E+00
         25   -1    0    0    0    0  0.00000000000E+00  0.00000000000E+00  0.99999998245E-14  0.12500000000E+03  0.12500000000E+03 0.  0.
        -11    1    3    3    0    0  0.13320090018E+02 -0.36604152012E+02 -0.54381931507E+01  0.39330175280E+02  0.51100000000E-03 0. -1.
         23    2    1    0    0    0  0.26507936673E+02  0.16133914443E+02  0.46756308852E-01  0.93968143979E+02  0.88696313310E+02 0.  0.
         11    1    3    3    0    0  0.13187846655E+02  0.52738066454E+02  0.54849494596E+01  0.54637968699E+02  0.51100000000E-03 0.  1.
         22    1    1    0    0    0 -0.26507936673E+02 -0.16133914443E+02 -0.46756308852E-01  0.31031856021E+02  0.00000000000E+00 0.  1.
</event>
<event>
 5    1  0.3190780E-003  0.9118800E+02  0.7818608E-02  0.1130116E+00
         25   -1    0    0    0    0  0.00000000000E+00  0.00000000000E+00  0.99999998245E-14  0.12500000000E+03  0.12500000000E+03 0.  0.
        -11    1    3    3    0    0  0.39564840636E+02  0.39425500210E+02 -0.21566262175E+02  0.59873619783E+02  0.51100000000E-03 0.  1.
         23    2    1    0    0    0  0.25976066609E+02  0.79704085951E+01 -0.10271237633E+02  0.95952078006E+02  0.91449546207E+02 0.  0.
         11    1    3    3    0    0 -0.13588774027E+02 -0.31455091615E+02  0.11295024542E+02  0.36078458223E+02  0.51100000000E-03 0. -1.
         22    1    1    0    0    0 -0.25976066609E+02 -0.79704085951E+01  0.10271237633E+02  0.29047921994E+02  0.00000000000E+00 0.  1.
</event>
<event>
 5    1  0.3190780E-003  0.9118800E+02  0.7818608E-02  0.1130116E+00
         25   -1    0    0    0    0  0.00000000000E+00  0.00000000000E+00  0.99999998245E-14  0.12500000000E+03  0.12500000000E+03 0.  0.
        -11    1    3    3    0    0 -0.36052410980E+02 -0.41898443606E+02  0.11305713841E+02  0.56418747591E+02  0.51100000000E-03 0. -1.
         23    2    1    0    0    0 -0.19200546425E+02 -0.15312352537E+02 -0.13932570977E+02  0.96764461095E+02  0.92553310442E+02 0.  0.
         11    1    3    3    0    0  0.16851864555E+02  0.26586091068E+02 -0.25238284818E+02  0.40345713504E+02  0.51100000000E-03 0.  1.
         22    1    1    0    0    0  0.19200546425E+02  0.15312352537E+02  0.13932570977E+02  0.28235538905E+02  0.00000000000E+00 0. -1.
</event>
<event>
 5    1  0.3190780E-003  0.9118800E+02  0.7818608E-02  0.1130116E+00
         25   -1    0    0    0    0  0.00000000000E+00  0.00000000000E+00  0.99999998245E-14  0.12500000000E+03  0.12500000000E+03 0.  0.
        -11    1    3    3    0    0 -0.14589982262E+02  0.29623342065E+02  0.25034668034E+02  0.41438443278E+02  0.51100000000E-03 0.  1.
         23    2    1    0    0    0 -0.18863098286E+02  0.20563066771E+01 -0.21891108061E+02  0.96029920846E+02  0.91555885728E+02 0.  0.
         11    1    3    3    0    0 -0.42731160237E+01 -0.27567035388E+02 -0.46925776094E+02  0.54591477567E+02  0.51100000000E-03 0. -1.
         22    1    1    0    0    0  0.18863098286E+02 -0.20563066771E+01  0.21891108061E+02  0.28970079154E+02  0.00000000000E+00 0. -1.
</event>
<event>
 5    1  0.3190780E-003  0.9118800E+02  0.7818608E-02  0.1130116E+00
         25   -1    0    0    0    0  0.00000000000E+00  0.00000000000E+00  0.99999998245E-14  0.12500000000E+03  0.12500000000E+03 0.  0.
        -11    1    3    3    0    0 -0.44040154363E+02  0.13920505399E+02 -0.12453073033E+02  0.47837168553E+02  0.51100000000E-03 0. -1.
         23    2    1    0    0    0 -0.18644424518E+02 -0.22794257687E+02  0.37183749817E+01  0.95318034741E+02  0.90578743010E+02 0.  0.
         11    1    3    3    0    0  0.25395729845E+02 -0.36714763086E+02  0.16171448015E+02  0.47480866188E+02  0.51100000000E-03 0.  1.
         22    1    1    0    0    0  0.18644424518E+02  0.22794257687E+02 -0.37183749817E+01  0.29681965259E+02  0.00000000000E+00 0. -1.
</event>
<event>
 5    1  0.3190780E-003  0.9118800E+02  0.7818608E-02  0.1130116E+00
         25   -1    0    0    0    0  0.00000000000E+00  0.00000000000E+00  0.99999998245E-14  0.12500000000E+03  0.12500000000E+03 0.  0.
        -11    1    3    3    0    0  0.18778617925E+02  0.35950930727E+02  0.23657451631E+02  0.46955094817E+02  0.51100000000E-03 0.  1.
         23    2    1    0    0    0 -0.56987799709E+01  0.25399026249E+02 -0.15783325685E+02  0.94558252395E+02  0.89524092281E+02 0.  0.
         11    1    3    3    0    0 -0.24477397896E+02 -0.10551904478E+02 -0.39440777316E+02  0.47603157578E+02  0.51100000000E-03 0. -1.
         22    1    1    0    0    0  0.56987799709E+01 -0.25399026249E+02  0.15783325685E+02  0.30441747605E+02  0.00000000000E+00 0.  1.
</event>
<event>
 5    1  0.3190780E-003  0.9118800E+02  0.7818608E-02  0.1130116E+00
         25   -1    0    0    0    0  0.00000000000E+00  0.00000000000E+00  0.99999998245E-14  0.12500000000E+03  0.12500000000E+03 0.  0.
        -11    1    3    3    0    0 -0.28547945838E+02 -0.13486642391E+02  0.40952610066E+02  0.51710646931E+02  0.51100000000E-03 0.  1.
         23    2    1    0    0    0  0.11847110430E+02 -0.13749615011E+02  0.22419048549E+02  0.96155248721E+02  0.91726834570E+02 0.  0.
         11    1    3    3    0    0  0.40395056268E+02 -0.26297261986E+00 -0.18533561517E+02  0.44444601790E+02  0.51100000000E-03 0. -1.
         22    1    1    0    0    0 -0.11847110430E+02  0.13749615011E+02 -0.22419048549E+02  0.28844751279E+02  0.00000000000E+00 0.  1.
</event>
<event>
 5    1  0.3190780E-003  0.9118800E+02  0.7818608E-02  0.1130116E+00
         25   -1    0    0    0    0  0.00000000000E+00  0.00000000000E+00  0.99999998245E-14  0.12500000000E+03  0.12500000000E+03 0.  0.
        -11    1    3    3    0    0 -0.12331684154E+02  0.17577301967E+02 -0.24860585286E+02  0.32849363457E+02  0.51100000000E-03 0.  1.
         23    2    1    0    0    0  0.78611794778E+01 -0.16790316969E+02  0.23208597960E+02  0.95295591135E+02  0.90547765206E+02 0.  0.
         11    1    3    3    0    0  0.20192863632E+02 -0.34367618937E+02  0.48069183246E+02  0.62446227678E+02  0.51100000000E-03 0. -1.
         22    1    1    0    0    0 -0.78611794778E+01  0.16790316969E+02 -0.23208597960E+02  0.29704408865E+02  0.00000000000E+00 0. -1.
</event>
<event>
 5    1  0.3190780E-003  0.9118800E+02  0.7818608E-02  0.1130116E+00
         25   -1    0    0    0    0  0.00000000000E+00  0.00000000000E+00  0.99999998245E-14  0.12500000000E+03  0.12500000000E+03 0.  0.
        -11    1    3    3    0    0 -0.52552786665E+02  0.23017212956E+02  0.18905190358E+02  0.60406901106E+02  0.51100000000E-03 0. -1.
         23    2    1    0    0    0 -0.20375894245E+02  0.16860536002E+02 -0.62158295982E+00  0.98545489876E+02  0.94928249057E+02 0.  0.
         11    1    3    3    0    0  0.32176892420E+02 -0.61566769542E+01 -0.19526773318E+02  0.38138588770E+02  0.51100000000E-03 0.  1.
         22    1    1    0    0    0  0.20375894245E+02 -0.16860536002E+02  0.62158295982E+00  0.26454510124E+02  0.00000000000E+00 0. -1.
</event>
<event>
 5    1  0.3190780E-003  0.9118800E+02  0.7818608E-02  0.1130116E+00
         25   -1    0    0    0    0  0.00000000000E+00  0.00000000000E+00  0.99999998245E-14  0.12500000000E+03  0.12500000000E+03 0.  0.
        -11    1    3    3    0    0 -0.27559000585E+02 -0.36907961665E+02 -0.21042544002E+02  0.50640742548E+02  0.51100000000E-03 0.  1.
         23    2    1    0    0    0 -0.28118316303E+02  0.48451614128E+01 -0.14785945585E+02  0.92863735630E+02  0.87125965747E+02 0.  0.
         11    1    3    3    0    0 -0.55931571866E+00  0.41753123077E+02  0.62565984169E+01  0.42222993082E+02  0.51100000000E-03 0. -1.
         22    1    1    0    0    0  0.28118316303E+02 -0.48451614128E+01  0.14785945585E+02  0.32136264370E+02  0.00000000000E+00 0.  1.
</event>
<event>
 5    1  0.3190780E-003  0.9118800E+02  0.7818608E-02  0.1130116E+00
         25   -1    0    0    0    0  0.00000000000E+00  0.00000000000E+00  0.99999998245E-14  0.12500000000E+03  0.12500000000E+03 0.  0.
        -11    1    3    3    0    0 -0.24341595765E+02  0.19512308544E+02 -0.21707051386E+02  0.38005783102E+02  0.51100000000E-03 0.  1.
         23    2    1    0    0    0 -0.60668019061E+01 -0.22261578932E+02  0.15790685622E+02  0.97040569850E+02  0.92925467244E+02 0.  0.
         11    1    3    3    0    0  0.18274793859E+02 -0.41773887475E+02  0.37497737008E+02  0.59034786748E+02  0.51100000000E-03 0. -1.
         22    1    1    0    0    0  0.60668019061E+01  0.22261578932E+02 -0.15790685622E+02  0.27959430150E+02  0.00000000000E+00 0. -1.
</event>
<event>
 5    1  0.3190780E-003  0.9118800E+02  0.7818608E-02  0.1130116E+00
         25   -1    0    0    0    0  0.00000000000E+00  0.00000000000E+00  0.99999998245E-14  0.12500000000E+03  0.12500000000E+03 0.  0.
        -11    1    3    3    0    0  0.38190009916E+02 -0.35421890579E+02  0.19106425868E+02  0.55481913263E+02  0.51100000000E-03 0.  1.
         23    2    1    0    0    0  0.10499797844E+02 -0.20727917698E+02 -0.11307797404E+02  0.99158974304E+02  0.95732667236E+02 0.  0.
         11    1    3    3    0    0 -0.27690212072E+02  0.14693972881E+02 -0.30414223273E+02  0.43677061041E+02  0.51100000000E-03 0. -1.
         22    1    1    0    0    0 -0.10499797844E+02  0.20727917698E+02  0.11307797404E+02  0.25841025696E+02  0.00000000000E+00 0.  1.
</event>
<event>
 5    1  0.3190780E-003  0.9118800E+02  0.7818608E-02  0.1130116E+00
         25   -1    0    0    0    0  0.00000000000E+00  0.00000000000E+00  0.99999998245E-14  0.12500000000E+03  0.12500000000E+03 0.  0.
        -11    1    3    3    0    0 -0.19238339188E+01  0.37083992271E+02  0.18088137921E+02  0.41305016080E+02  0.51100000000E-03 0.  1.
         23    2    1    0    0    0  0.10950641241E+02 -0.16129291340E+02  0.21271563095E+02  0.96146057822E+02  0.91714308892E+02 0.  0.
         11    1    3    3    0    0  0.12874475160E+02 -0.53213283610E+02  0.31834251738E+01  0.54841041742E+02  0.51100000000E-03 0. -1.
         22    1    1    0    0    0 -0.10950641241E+02  0.16129291340E+02 -0.21271563095E+02  0.28853942178E+02  0.00000000000E+00 0. -1.
</event>
<event>
 5    1  0.3190780E-003  0.9118800E+02  0.7818608E-02  0.1130116E+00
         25   -1    0    0    0    0  0.00000000000E+00  0.00000000000E+00  0.99999998245E-14  0.12500000000E+03  0.12500000000E+03 0.  0.
        -11    1    3    3    0    0  0.14786629138E+02  0.16188369065E+02 -0.31321263175E+02  0.38232567549E+02  0.51100000000E-03 0.  1.
         23    2    1    0    0    0  0.20506649394E+02 -0.43271700478E+01  0.21371567659E+02  0.95066891671E+02  0.90231496263E+02 0.  0.
         11    1    3    3    0    0  0.57200202558E+01 -0.20515539113E+02  0.52692830835E+02  0.56834324122E+02  0.51100000000E-03 0. -1.
         22    1    1    0    0    0 -0.20506649394E+02  0.43271700478E+01 -0.21371567659E+02  0.29933108329E+02  0.00000000000E+00 0. -1.
</event>
<event>
 5    1  0.3190780E-003  0.9118800E+02  0.7818608E-02  0.1130116E+00
         25   -1    0    0    0    0  0.00000000000E+00  0.00000000000E+00  0.99999998245E-14  0.12500000000E+03  0.12500000000E+03 0.  0.
        -11    1    3    3    0    0  0.25054977791E+00 -0.23133081144E+02 -0.26658601169E+02  0.35297071196E+02  0.51100000000E-03 0.  1.
         23    2    1    0    0    0  0.12257876231E+02  0.20575551223E+02  0.14900313351E+02  0.96793118291E+02  0.92592005987E+02 0.  0.
         11    1    3    3    0    0  0.12007326453E+02  0.43708632367E+02  0.41558914520E+02  0.61496047095E+02  0.51100000000E-03 0. -1.
         22    1    1    0    0    0 -0.12257876231E+02 -0.20575551223E+02 -0.14900313351E+02  0.28206881709E+02  0.00000000000E+00 0. -1.
</event>
<event>
 5    1  0.3190780E-003  0.9118800E+02  0.7818608E-02  0.1130116E+00
         25   -1    0    0    0    0  0.00000000000E+00  0.00000000000E+00  0.99999998245E-14  0.12500000000E+03  0.12500000000E+03 0.  0.
        -11    1    3    3    0    0 -0.50183713413E+01 -0.57277139434E+02 -0.81609755490E+01  0.58072853165E+02  0.51100000000E-03 0.  1.
         23    2    1    0    0    0 -0.33266205228E+01 -0.22787999440E+02 -0.19919843419E+02  0.94550706340E+02  0.89513555314E+02 0.  0.
         11    1    3    3    0    0  0.16917508185E+01  0.34489139994E+02 -0.11758867870E+02  0.36477853174E+02  0.51100000000E-03 0. -1.
         22    1    1    0    0    0  0.33266205228E+01  0.22787999440E+02  0.19919843419E+02  0.30449293660E+02  0.00000000000E+00 0.  1.
</event>
<event>
 5    1  0.3190780E-003  0.9118800E+02  0.7818608E-02  0.1130116E+00
         25   -1    0    0    0    0  0.00000000000E+00  0.00000000000E+00  0.99999998245E-14  0.12500000000E+03  0.12500000000E+03 0.  0.
        -11    1    3    3    0    0 -0.22848306339E+02  0.21015160952E+02  0.18673138603E+02  0.36226622779E+02  0.51100000000E-03 0.  1.
         23    2    1    0    0    0  0.25398642403E+02 -0.32028920888E+01 -0.10195164037E+02  0.97444765953E+02  0.93467595926E+02 0.  0.
         11    1    3    3    0    0  0.48246948742E+02 -0.24218053041E+02 -0.28868302641E+02  0.61218143174E+02  0.51100000000E-03 0. -1.
         22    1    1    0    0    0 -0.25398642403E+02  0.32028920888E+01  0.10195164037E+02  0.27555234047E+02  0.00000000000E+00 0. -1.
</event>
<event>
 5    1  0.3190780E-003  0.9118800E+02  0.7818608E-02  0.1130116E+00
         25   -1    0    0    0    0  0.00000000000E+00  0.00000000000E+00  0.99999998245E-14  0.12500000000E+03  0.12500000000E+03 0.  0.
        -11    1    3    3    0    0  0.15671413917E+02  0.22929929531E+02 -0.19268476891E+02  0.33803092823E+02  0.51100000000E-03 0.  1.
         23    2    1    0    0    0 -0.20136794972E+02 -0.21969790827E+02 -0.15629169846E+02  0.91348355600E+02  0.84924018394E+02 0.  0.
         11    1    3    3    0    0 -0.35808208889E+02 -0.44899720358E+02  0.36393070445E+01  0.57545262777E+02  0.51100000000E-03 0. -1.
         22    1    1    0    0    0  0.20136794972E+02  0.21969790827E+02  0.15629169846E+02  0.33651644400E+02  0.00000000000E+00 0. -1.
</event>
<event>
 5    1  0.3190780E-003  0.9118800E+02  0.7818608E-02  0.1130116E+00
         25   -1    0    0    0    0  0.00000000000E+00  0.00000000000E+00  0.99999998245E-14  0.12500000000E+03  0.12500000000E+03 0.  0.
        -11    1    3    3    0    0 -0.21836471244E+02  0.29081488841E+02 -0.36645021086E-01  0.36367097941E+02  0.51100000000E-03 0. -1.
         23    2    1    0    0    0  0.21223396219E+02 -0.80791949991E+01 -0.18009038947E+02  0.96016704420E+02  0.91537839744E+02 0.  0.
         11    1    3    3    0    0  0.43059867462E+02 -0.37160683840E+02 -0.17972393926E+02  0.59649606478E+02  0.51100000000E-03 0.  1.
         22    1    1    0    0    0 -0.21223396219E+02  0.80791949991E+01  0.18009038947E+02  0.28983295580E+02  0.00000000000E+00 0.  1.
</event>
<event>
 5    1  0.3190780E-003  0.9118800E+02  0.7818608E-02  0.1130116E+00
         25   -1    0    0    0    0  0.00000000000E+00  0.00000000000E+00  0.99999998245E-14  0.12500000000E+03  0.12500000000E+03 0.  0.
        -11    1    3    3    0    0 -0.28262895432E+02  0.21848711925E+02  0.24728552112E+02  0.43447195085E+02  0.51100000000E-03 0. -1.
         23    2    1    0    0    0 -0.11971296924E+02 -0.14948619179E+02  0.35109319104E+02  0.85007032451E+02  0.75011719837E+02 0.  0.
         11    1    3    3    0    0  0.16291598508E+02 -0.36797331103E+02  0.10380766992E+02  0.41559837366E+02  0.51100000000E-03 0.  1.
         22    1    1    0    0    0  0.11971296924E+02  0.14948619179E+02 -0.35109319104E+02  0.39992967549E+02  0.00000000000E+00 0. -1.
</event>
<event>
 5    1  0.3190780E-003  0.9118800E+02  0.7818608E-02  0.1130116E+00
         25   -1    0    0    0    0  0.00000000000E+00  0.00000000000E+00  0.99999998245E-14  0.12500000000E+03  0.12500000000E+03 0.  0.
        -11    1    3    3    0    0  0.19865399597E+02 -0.33734920667E+02 -0.28628794734E+01  0.39253981361E+02  0.51100000000E-03 0. -1.
         23    2    1    0    0    0 -0.22569263231E+02 -0.51394175179E+01  0.19149942588E+02  0.94958269751E+02  0.90080893855E+02 0.  0.
         11    1    3    3    0    0 -0.42434662828E+02  0.28595503149E+02  0.22012822061E+02  0.55704288390E+02  0.51100000000E-03 0.  1.
         22    1    1    0    0    0  0.22569263231E+02  0.51394175179E+01 -0.19149942588E+02  0.30041730249E+02  0.00000000000E+00 0.  1.
</event>
<event>
 5    1  0.3190780E-003  0.9118800E+02  0.7818608E-02  0.1130116E+00
         25   -1    0    0    0    0  0.00000000000E+00  0.00000000000E+00  0.99999998245E-14  0.12500000000E+03  0.12500000000E+03 0.  0.
        -11    1    3    3    0    0 -0.37747856059E+02  0.27541798663E+01 -0.18295407930E+02  0.42038174263E+02  0.51100000000E-03 0. -1.
         23    2    1    0    0    0 -0.82744639409E+01 -0.18266017788E+02  0.21339317440E+02  0.95717229842E+02  0.91127972985E+02 0.  0.
         11    1    3    3    0    0  0.29473392118E+02 -0.21020197654E+02  0.39634725370E+02  0.53679055579E+02  0.51100000000E-03 0.  1.
         22    1    1    0    0    0  0.82744639409E+01  0.18266017788E+02 -0.21339317440E+02  0.29282770158E+02  0.00000000000E+00 0.  1.
</event>
<event>
 5    1  0.3190780E-003  0.9118800E+02  0.7818608E-02  0.1130116E+00
         25   -1    0    0    0    0  0.00000000000E+00  0.00000000000E+00  0.99999998245E-14  0.12500000000E+03  0.12500000000E+03 0.  0.
        -11    1    3    3    0    0  0.30537688742E+02 -0.34683034275E+02  0.13607085889E+02  0.48172773295E+02  0.51100000000E-03 0. -1.
         23    2    1    0    0    0 -0.15120309566E+02 -0.24117872852E+02  0.83720015006E+01  0.95328701387E+02  0.90593461942E+02 0.  0.
         11    1    3    3    0    0 -0.45657998308E+02  0.10565161423E+02 -0.52350843884E+01  0.47155928092E+02  0.51100000000E-03 0.  1.
         22    1    1    0    0    0  0.15120309566E+02  0.24117872852E+02 -0.83720015006E+01  0.29671298613E+02  0.00000000000E+00 0. -1.
</event>
<event>
 5    1  0.3190780E-003  0.9118800E+02  0.7818608E-02  0.1130116E+00
         25   -1    0    0    0    0  0.00000000000E+00  0.00000000000E+00  0.99999998245E-14  0.12500000000E+03  0.12500000000E+03 0.  0.
        -11    1    3    3    0    0  0.41447885898E+02  0.11117984787E+02  0.34501505559E+02  0.55062607251E+02  0.51100000000E-03 0. -1.
         23    2    1    0    0    0  0.26268324611E+02 -0.95604218876E+01  0.13045894968E+01  0.97015566858E+02  0.92891828028E+02 0.  0.
         11    1    3    3    0    0 -0.15179561287E+02 -0.20678406675E+02 -0.33196916062E+02  0.41952959607E+02  0.51100000000E-03 0.  1.
         22    1    1    0    0    0 -0.26268324611E+02  0.95604218876E+01 -0.13045894968E+01  0.27984433142E+02  0.00000000000E+00 0.  1.
</event>
