<event>
 5    1  0.1267644E-004  0.9118800E+02  0.7818608E-02  0.1130116E+00
         25   -1    0    0    0    0  0.00000000000E+00  0.00000000000E+00  0.99999998245E-14  0.12500000000E+03  0.12500000000E+03 0.  0.
        -13    1    3    3    0    0 -0.32870118721E+02  0.33894330158E+02 -0.75473528999E+01  0.47814684161E+02  0.10566000000E+00 0.  1.
         23    2    1    0    0    0 -0.18894953929E+02 -0.11168638502E+02 -0.18551389553E+02  0.96261318327E+02  0.91871266355E+02 0.  0.
         13    1    3    3    0    0  0.13975164792E+02 -0.45062968659E+02 -0.11004036653E+02  0.48446634166E+02  0.10566000000E+00 0. -1.
         22    1    1    0    0    0  0.18894953929E+02  0.11168638502E+02  0.18551389553E+02  0.28738681673E+02  0.00000000000E+00 0.  1.
</event>
<event>
 5    1  0.1267644E-004  0.9118800E+02  0.7818608E-02  0.1130116E+00
         25   -1    0    0    0    0  0.00000000000E+00  0.00000000000E+00  0.99999998245E-14  0.12500000000E+03  0.12500000000E+03 0.  0.
        -13    1    3    3    0    0 -0.26295141337E+02 -0.98053549940E+01  0.35357399147E+02  0.45141292438E+02  0.10566000000E+00 0.  1.
         23    2    1    0    0    0 -0.21566938055E+02  0.51497884534E+01 -0.15227047025E+02  0.98101745423E+02  0.94342123973E+02 0.  0.
         13    1    3    3    0    0  0.47282032820E+01  0.14955143447E+02 -0.50584446172E+02  0.52960452985E+02  0.10566000000E+00 0. -1.
         22    1    1    0    0    0  0.21566938055E+02 -0.51497884534E+01  0.15227047025E+02  0.26898254577E+02  0.00000000000E+00 0. -1.
</event>
<event>
 5    1  0.1267644E-004  0.9118800E+02  0.7818608E-02  0.1130116E+00
         25   -1    0    0    0    0  0.00000000000E+00  0.00000000000E+00  0.99999998245E-14  0.12500000000E+03  0.12500000000E+03 0.  0.
        -13    1    3    3    0    0 -0.11092640528E+02 -0.28801043706E+01  0.23584257164E+02  0.26221556496E+02  0.10566000000E+00 0.  1.
         23    2    1    0    0    0  0.33590378286E+02 -0.35227989829E+01 -0.17531526855E+02  0.86946379149E+02  0.78176689538E+02 0.  0.
         13    1    3    3    0    0  0.44683018814E+02 -0.64269461227E+00 -0.41115784019E+02  0.60724822653E+02  0.10566000000E+00 0. -1.
         22    1    1    0    0    0 -0.33590378286E+02  0.35227989829E+01  0.17531526855E+02  0.38053620851E+02  0.00000000000E+00 0. -1.
</event>
<event>
 5    1  0.1267644E-004  0.9118800E+02  0.7818608E-02  0.1130116E+00
         25   -1    0    0    0    0  0.00000000000E+00  0.00000000000E+00  0.99999998245E-14  0.12500000000E+03  0.12500000000E+03 0.  0.
        -13    1    3    3    0    0  0.46703310259E+02 -0.24299472833E+02 -0.84065925446E+01  0.53313652392E+02  0.10566000000E+00 0.  1.
         23    2    1    0    0    0  0.55018710326E+01 -0.27570212021E+02 -0.11195949563E+02  0.94738862177E+02  0.89775918509E+02 0.  0.
         13    1    3    3    0    0 -0.41201439226E+02 -0.32707391874E+01 -0.27893570189E+01  0.41425209785E+02  0.10566000000E+00 0. -1.
         22    1    1    0    0    0 -0.55018710326E+01  0.27570212021E+02  0.11195949563E+02  0.30261137823E+02  0.00000000000E+00 0.  1.
</event>
<event>
 5    1  0.1267644E-004  0.9118800E+02  0.7818608E-02  0.1130116E+00
         25   -1    0    0    0    0  0.00000000000E+00  0.00000000000E+00  0.99999998245E-14  0.12500000000E+03  0.12500000000E+03 0.  0.
        -13    1    3    3    0    0 -0.45130294545E+02 -0.85204522069E+01 -0.11318534902E+02  0.47301818019E+02  0.10566000000E+00 0.  1.
         23    2    1    0    0    0  0.56666708243E+01  0.11108072427E+02  0.13038566273E+02  0.10695825281E+03  0.10542562877E+03 0.  0.
         13    1    3    3    0    0  0.50796965369E+02  0.19628524634E+02  0.24357101175E+02  0.59656434789E+02  0.10566000000E+00 0. -1.
         22    1    1    0    0    0 -0.56666708243E+01 -0.11108072427E+02 -0.13038566273E+02  0.18041747192E+02  0.00000000000E+00 0. -1.
</event>
<event>
 5    1  0.1267644E-004  0.9118800E+02  0.7818608E-02  0.1130116E+00
         25   -1    0    0    0    0  0.00000000000E+00  0.00000000000E+00  0.99999998245E-14  0.12500000000E+03  0.12500000000E+03 0.  0.
        -13    1    3    3    0    0 -0.22889422012E+02  0.46627941934E+02  0.13902955958E+02  0.53771683602E+02  0.10566000000E+00 0.  1.
         23    2    1    0    0    0 -0.47610569556E+01  0.26568280778E+02 -0.15628026546E+02  0.93810636099E+02  0.88474058485E+02 0.  0.
         13    1    3    3    0    0  0.18128365057E+02 -0.20059661156E+02 -0.29530982504E+02  0.40038952497E+02  0.10566000000E+00 0. -1.
         22    1    1    0    0    0  0.47610569556E+01 -0.26568280778E+02  0.15628026546E+02  0.31189363901E+02  0.00000000000E+00 0.  1.
</event>
<event>
 5    1  0.1267644E-004  0.9118800E+02  0.7818608E-02  0.1130116E+00
         25   -1    0    0    0    0  0.00000000000E+00  0.00000000000E+00  0.99999998245E-14  0.12500000000E+03  0.12500000000E+03 0.  0.
        -13    1    3    3    0    0  0.12771887833E+02 -0.44702721697E+02 -0.35916739737E+02  0.58749279173E+02  0.10566000000E+00 0.  1.
         23    2    1    0    0    0  0.10150837842E+02 -0.93729763440E+01 -0.26030808169E+02  0.95529757918E+02  0.90870454382E+02 0.  0.
         13    1    3    3    0    0 -0.26210499910E+01  0.35329745353E+02  0.98859315682E+01  0.36780478746E+02  0.10566000000E+00 0. -1.
         22    1    1    0    0    0 -0.10150837842E+02  0.93729763440E+01  0.26030808169E+02  0.29470242082E+02  0.00000000000E+00 0.  1.
</event>
<event>
 5    1  0.1267644E-004  0.9118800E+02  0.7818608E-02  0.1130116E+00
         25   -1    0    0    0    0  0.00000000000E+00  0.00000000000E+00  0.99999998245E-14  0.12500000000E+03  0.12500000000E+03 0.  0.
        -13    1    3    3    0    0  0.32239251294E+02  0.34284009779E+01 -0.69357196732E+00  0.32428621052E+02  0.10566000000E+00 0. -1.
         23    2    1    0    0    0 -0.26839909184E+02  0.22372293210E+01  0.15794880392E+02  0.93777185158E+02  0.88426784910E+02 0.  0.
         13    1    3    3    0    0 -0.59079160478E+02 -0.11911716568E+01  0.16488452359E+02  0.61348564106E+02  0.10566000000E+00 0.  1.
         22    1    1    0    0    0  0.26839909184E+02 -0.22372293210E+01 -0.15794880392E+02  0.31222814842E+02  0.00000000000E+00 0.  1.
</event>
<event>
 5    1  0.1267644E-004  0.9118800E+02  0.7818608E-02  0.1130116E+00
         25   -1    0    0    0    0  0.00000000000E+00  0.00000000000E+00  0.99999998245E-14  0.12500000000E+03  0.12500000000E+03 0.  0.
        -13    1    3    3    0    0 -0.51761532503E+02  0.27394755504E+02 -0.22214358517E+01  0.58606098808E+02  0.10566000000E+00 0.  1.
         23    2    1    0    0    0 -0.22148780371E+02  0.97855314240E+01 -0.16285155229E+02  0.95818989428E+02  0.91267449603E+02 0.  0.
         13    1    3    3    0    0  0.29612752132E+02 -0.17609224080E+02 -0.14063719378E+02  0.37212890620E+02  0.10566000000E+00 0. -1.
         22    1    1    0    0    0  0.22148780371E+02 -0.97855314240E+01  0.16285155229E+02  0.29181010572E+02  0.00000000000E+00 0.  1.
</event>
<event>
 5    1  0.1267644E-004  0.9118800E+02  0.7818608E-02  0.1130116E+00
         25   -1    0    0    0    0  0.00000000000E+00  0.00000000000E+00  0.99999998245E-14  0.12500000000E+03  0.12500000000E+03 0.  0.
        -13    1    3    3    0    0 -0.50247196238E+02  0.20214211760E+02 -0.22813184294E+02  0.58769444685E+02  0.10566000000E+00 0. -1.
         23    2    1    0    0    0 -0.26572049270E+02  0.29556928426E+01  0.33574589771E+01  0.98054082808E+02  0.94278951532E+02 0.  0.
         13    1    3    3    0    0  0.23675146969E+02 -0.17258518917E+02  0.26170643271E+02  0.39284638123E+02  0.10566000000E+00 0.  1.
         22    1    1    0    0    0  0.26572049270E+02 -0.29556928426E+01 -0.33574589771E+01  0.26945917192E+02  0.00000000000E+00 0. -1.
</event>
<event>
 5    1  0.1267644E-004  0.9118800E+02  0.7818608E-02  0.1130116E+00
         25   -1    0    0    0    0  0.00000000000E+00  0.00000000000E+00  0.99999998245E-14  0.12500000000E+03  0.12500000000E+03 0.  0.
        -13    1    3    3    0    0  0.31224907473E+02  0.19961691416E+02 -0.23038686363E+02  0.43637784135E+02  0.10566000000E+00 0. -1.
         23    2    1    0    0    0  0.17096854061E+02 -0.23498058223E+02  0.22259462999E+01  0.95855257834E+02  0.91317109341E+02 0.  0.
         13    1    3    3    0    0 -0.14128053412E+02 -0.43459749638E+02  0.25264632663E+02  0.52217473699E+02  0.10566000000E+00 0.  1.
         22    1    1    0    0    0 -0.17096854061E+02  0.23498058223E+02 -0.22259462999E+01  0.29144742166E+02  0.00000000000E+00 0.  1.
</event>
<event>
 5    1  0.1267644E-004  0.9118800E+02  0.7818608E-02  0.1130116E+00
         25   -1    0    0    0    0  0.00000000000E+00  0.00000000000E+00  0.99999998245E-14  0.12500000000E+03  0.12500000000E+03 0.  0.
        -13    1    3    3    0    0 -0.45505990896E+02  0.76963265893E+01 -0.76348137977E+00  0.46158668939E+02  0.10566000000E+00 0.  1.
         23    2    1    0    0    0  0.15269747766E+02 -0.62120834969E+01  0.22450402279E+00  0.10851347277E+03  0.10725375607E+03 0.  0.
         13    1    3    3    0    0  0.60775738662E+02 -0.13908410086E+02  0.98798540256E+00  0.62354803826E+02  0.10566000000E+00 0. -1.
         22    1    1    0    0    0 -0.15269747766E+02  0.62120834969E+01 -0.22450402279E+00  0.16486527235E+02  0.00000000000E+00 0. -1.
</event>
<event>
 5    1  0.1267644E-004  0.9118800E+02  0.7818608E-02  0.1130116E+00
         25   -1    0    0    0    0  0.00000000000E+00  0.00000000000E+00  0.99999998245E-14  0.12500000000E+03  0.12500000000E+03 0.  0.
        -13    1    3    3    0    0 -0.43728071524E+02  0.39125147391E+02  0.15122773951E+01  0.58695992576E+02  0.10566000000E+00 0.  1.
         23    2    1    0    0    0 -0.95147056214E+01  0.27974036702E+02 -0.42789477463E+01  0.95143916092E+02  0.90338137147E+02 0.  0.
         13    1    3    3    0    0  0.34213365902E+02 -0.11151110689E+02 -0.57912251414E+01  0.36447923516E+02  0.10566000000E+00 0. -1.
         22    1    1    0    0    0  0.95147056214E+01 -0.27974036702E+02  0.42789477463E+01  0.29856083908E+02  0.00000000000E+00 0.  1.
</event>
<event>
 5    1  0.1267644E-004  0.9118800E+02  0.7818608E-02  0.1130116E+00
         25   -1    0    0    0    0  0.00000000000E+00  0.00000000000E+00  0.99999998245E-14  0.12500000000E+03  0.12500000000E+03 0.  0.
        -13    1    3    3    0    0 -0.91253067393E+01 -0.57760618068E+02 -0.21171904241E+00  0.58477484656E+02  0.10566000000E+00 0.  1.
         23    2    1    0    0    0 -0.11912323025E+02 -0.22548081021E+02  0.13229558080E+02  0.96271258215E+02  0.91884789567E+02 0.  0.
         13    1    3    3    0    0 -0.27870162861E+01  0.35212537048E+02  0.13441277122E+02  0.37793773559E+02  0.10566000000E+00 0. -1.
         22    1    1    0    0    0  0.11912323025E+02  0.22548081021E+02 -0.13229558080E+02  0.28728741785E+02  0.00000000000E+00 0.  1.
</event>
<event>
 5    1  0.1267644E-004  0.9118800E+02  0.7818608E-02  0.1130116E+00
         25   -1    0    0    0    0  0.00000000000E+00  0.00000000000E+00  0.99999998245E-14  0.12500000000E+03  0.12500000000E+03 0.  0.
        -13    1    3    3    0    0 -0.15583404298E+02 -0.15197382804E+02  0.48927161271E+02  0.53550734894E+02  0.10566000000E+00 0. -1.
         23    2    1    0    0    0 -0.25169524770E+02  0.54058693627E+01  0.12751999510E+02  0.96271235804E+02  0.91884759079E+02 0.  0.
         13    1    3    3    0    0 -0.95861204719E+01  0.20603252167E+02 -0.36175161760E+02  0.42720500910E+02  0.10566000000E+00 0.  1.
         22    1    1    0    0    0  0.25169524770E+02 -0.54058693627E+01 -0.12751999510E+02  0.28728764196E+02  0.00000000000E+00 0.  1.
</event>
<event>
 5    1  0.1267644E-004  0.9118800E+02  0.7818608E-02  0.1130116E+00
         25   -1    0    0    0    0  0.00000000000E+00  0.00000000000E+00  0.99999998245E-14  0.12500000000E+03  0.12500000000E+03 0.  0.
        -13    1    3    3    0    0  0.10182147859E+02  0.38880619247E+02  0.34155124041E+01  0.40336776979E+02  0.10566000000E+00 0.  1.
         23    2    1    0    0    0  0.21694470967E+01 -0.13168707616E+02  0.24529879953E+02  0.97074449486E+02  0.92971029743E+02 0.  0.
         13    1    3    3    0    0 -0.80127007619E+01 -0.52049326863E+02  0.21114367549E+02  0.56737672507E+02  0.10566000000E+00 0. -1.
         22    1    1    0    0    0 -0.21694470967E+01  0.13168707616E+02 -0.24529879953E+02  0.27925550514E+02  0.00000000000E+00 0. -1.
</event>
<event>
 5    1  0.1267644E-004  0.9118800E+02  0.7818608E-02  0.1130116E+00
         25   -1    0    0    0    0  0.00000000000E+00  0.00000000000E+00  0.99999998245E-14  0.12500000000E+03  0.12500000000E+03 0.  0.
        -13    1    3    3    0    0 -0.27342434101E+02 -0.17390646077E+02  0.11346350079E+02  0.34333571001E+02  0.10566000000E+00 0.  1.
         23    2    1    0    0    0  0.81723115496E+01  0.24385279335E+02 -0.15064357511E+02  0.95194574461E+02  0.90408205465E+02 0.  0.
         13    1    3    3    0    0  0.35514745651E+02  0.41775925412E+02 -0.26410707590E+02  0.60861003460E+02  0.10566000000E+00 0. -1.
         22    1    1    0    0    0 -0.81723115496E+01 -0.24385279335E+02  0.15064357511E+02  0.29805425539E+02  0.00000000000E+00 0. -1.
</event>
<event>
 5    1  0.1267644E-004  0.9118800E+02  0.7818608E-02  0.1130116E+00
         25   -1    0    0    0    0  0.00000000000E+00  0.00000000000E+00  0.99999998245E-14  0.12500000000E+03  0.12500000000E+03 0.  0.
        -13    1    3    3    0    0  0.14338097921E+02 -0.59139054671E+02 -0.14299781262E+01  0.60869243800E+02  0.10566000000E+00 0.  1.
         23    2    1    0    0    0  0.12653575191E+02 -0.25820370075E+02  0.72591344703E+01  0.95343643023E+02  0.90614075925E+02 0.  0.
         13    1    3    3    0    0 -0.16845227300E+01  0.33318684596E+02  0.86891125966E+01  0.34474399223E+02  0.10566000000E+00 0. -1.
         22    1    1    0    0    0 -0.12653575191E+02  0.25820370075E+02 -0.72591344703E+01  0.29656356977E+02  0.00000000000E+00 0.  1.
</event>
<event>
 5    1  0.1267644E-004  0.9118800E+02  0.7818608E-02  0.1130116E+00
         25   -1    0    0    0    0  0.00000000000E+00  0.00000000000E+00  0.99999998245E-14  0.12500000000E+03  0.12500000000E+03 0.  0.
        -13    1    3    3    0    0 -0.32400286879E+01  0.65280325634E+01 -0.43297789313E+02  0.43906978016E+02  0.10566000000E+00 0.  1.
         23    2    1    0    0    0 -0.23847091124E+02 -0.22526830353E+02 -0.23359428610E+02  0.84728363010E+02  0.74545896953E+02 0.  0.
         13    1    3    3    0    0 -0.20607062436E+02 -0.29054862917E+02  0.19938360702E+02  0.40821384995E+02  0.10566000000E+00 0. -1.
         22    1    1    0    0    0  0.23847091124E+02  0.22526830353E+02  0.23359428610E+02  0.40271636990E+02  0.00000000000E+00 0.  1.
</event>
<event>
 5    1  0.1267644E-004  0.9118800E+02  0.7818608E-02  0.1130116E+00
         25   -1    0    0    0    0  0.00000000000E+00  0.00000000000E+00  0.99999998245E-14  0.12500000000E+03  0.12500000000E+03 0.  0.
        -13    1    3    3    0    0 -0.16635630790E+02 -0.28693713826E+02  0.67198112897E+01  0.33841401459E+02  0.10566000000E+00 0. -1.
         23    2    1    0    0    0  0.21996915196E+02  0.18475695379E+02 -0.47548949143E+01  0.95882571825E+02  0.91354490620E+02 0.  0.
         13    1    3    3    0    0  0.38632545985E+02  0.47169409205E+02 -0.11474706204E+02  0.62041170367E+02  0.10566000000E+00 0.  1.
         22    1    1    0    0    0 -0.21996915196E+02 -0.18475695379E+02  0.47548949143E+01  0.29117428175E+02  0.00000000000E+00 0.  1.
</event>
<event>
 5    1  0.1267644E-004  0.9118800E+02  0.7818608E-02  0.1130116E+00
         25   -1    0    0    0    0  0.00000000000E+00  0.00000000000E+00  0.99999998245E-14  0.12500000000E+03  0.12500000000E+03 0.  0.
        -13    1    3    3    0    0  0.25887893477E+02  0.49184740910E+02 -0.97344846132E+01  0.56427769066E+02  0.10566000000E+00 0. -1.
         23    2    1    0    0    0 -0.64495775152E+01  0.28569120438E+02 -0.70723642183E+01  0.94870114033E+02  0.89958482137E+02 0.  0.
         13    1    3    3    0    0 -0.32337470992E+02 -0.20615620471E+02  0.26621203949E+01  0.38442344968E+02  0.10566000000E+00 0.  1.
         22    1    1    0    0    0  0.64495775152E+01 -0.28569120438E+02  0.70723642183E+01  0.30129885967E+02  0.00000000000E+00 0. -1.
</event>
<event>
 5    1  0.1267644E-004  0.9118800E+02  0.7818608E-02  0.1130116E+00
         25   -1    0    0    0    0  0.00000000000E+00  0.00000000000E+00  0.99999998245E-14  0.12500000000E+03  0.12500000000E+03 0.  0.
        -13    1    3    3    0    0  0.42543393538E+02  0.28627122788E+02 -0.30037820443E+02  0.59428396528E+02  0.10566000000E+00 0.  1.
         23    2    1    0    0    0  0.13275117788E+02  0.78766248694E+01 -0.24944068287E+02  0.95666120026E+02  0.91057838797E+02 0.  0.
         13    1    3    3    0    0 -0.29268275750E+02 -0.20750497918E+02  0.50937521560E+01  0.36237723498E+02  0.10566000000E+00 0. -1.
         22    1    1    0    0    0 -0.13275117788E+02 -0.78766248694E+01  0.24944068287E+02  0.29333879974E+02  0.00000000000E+00 0.  1.
</event>
<event>
 5    1  0.1267644E-004  0.9118800E+02  0.7818608E-02  0.1130116E+00
         25   -1    0    0    0    0  0.00000000000E+00  0.00000000000E+00  0.99999998245E-14  0.12500000000E+03  0.12500000000E+03 0.  0.
        -13    1    3    3    0    0 -0.41425061141E+02  0.53179326260E+01  0.79076803937E+01  0.42507160235E+02  0.10566000000E+00 0. -1.
         23    2    1    0    0    0 -0.98070281158E+00  0.28080292570E+02 -0.13746289857E+02  0.93720212698E+02  0.88346211998E+02 0.  0.
         13    1    3    3    0    0  0.40444358330E+02  0.22762359944E+02 -0.21653970251E+02  0.51213052463E+02  0.10566000000E+00 0.  1.
         22    1    1    0    0    0  0.98070281158E+00 -0.28080292570E+02  0.13746289857E+02  0.31279787302E+02  0.00000000000E+00 0.  1.
</event>
<event>
 5    1  0.1267644E-004  0.9118800E+02  0.7818608E-02  0.1130116E+00
         25   -1    0    0    0    0  0.00000000000E+00  0.00000000000E+00  0.99999998245E-14  0.12500000000E+03  0.12500000000E+03 0.  0.
        -13    1    3    3    0    0 -0.75602110142E+01  0.32252713762E+01  0.49124178512E+02  0.49807180652E+02  0.10566000000E+00 0. -1.
         23    2    1    0    0    0 -0.92019418747E+01  0.29314747033E+02  0.28278267755E+02  0.83242479059E+02  0.72011247489E+02 0.  0.
         13    1    3    3    0    0 -0.16417308605E+01  0.26089475657E+02 -0.20845910757E+02  0.33435298407E+02  0.10566000000E+00 0.  1.
         22    1    1    0    0    0  0.92019418747E+01 -0.29314747033E+02 -0.28278267755E+02  0.41757520941E+02  0.00000000000E+00 0. -1.
</event>
<event>
 5    1  0.1267644E-004  0.9118800E+02  0.7818608E-02  0.1130116E+00
         25   -1    0    0    0    0  0.00000000000E+00  0.00000000000E+00  0.99999998245E-14  0.12500000000E+03  0.12500000000E+03 0.  0.
        -13    1    3    3    0    0  0.53526474328E+02  0.45735980723E+00  0.11506232119E+01  0.53540897731E+02  0.10566000000E+00 0.  1.
         23    2    1    0    0    0  0.18825920273E+02  0.17016506742E+02 -0.15306865305E+02  0.95364263105E+02  0.90642516383E+02 0.  0.
         13    1    3    3    0    0 -0.34700554055E+02  0.16559146935E+02 -0.16457488517E+02  0.41823365375E+02  0.10566000000E+00 0. -1.
         22    1    1    0    0    0 -0.18825920273E+02 -0.17016506742E+02  0.15306865305E+02  0.29635736895E+02  0.00000000000E+00 0.  1.
</event>
<event>
 5    1  0.1267644E-004  0.9118800E+02  0.7818608E-02  0.1130116E+00
         25   -1    0    0    0    0  0.00000000000E+00  0.00000000000E+00  0.99999998245E-14  0.12500000000E+03  0.12500000000E+03 0.  0.
        -13    1    3    3    0    0  0.13958398642E+02 -0.15032960166E+02  0.44869999963E+02  0.49337154810E+02  0.10566000000E+00 0.  1.
         23    2    1    0    0    0 -0.18730013297E+02 -0.18612321428E+02  0.11461026831E+02  0.96214812089E+02  0.91807968185E+02 0.  0.
         13    1    3    3    0    0 -0.32688411939E+02 -0.35793612617E+01 -0.33408973132E+02  0.46877657279E+02  0.10566000000E+00 0. -1.
         22    1    1    0    0    0  0.18730013297E+02  0.18612321428E+02 -0.11461026831E+02  0.28785187911E+02  0.00000000000E+00 0.  1.
</event>
<event>
 5    1  0.1267644E-004  0.9118800E+02  0.7818608E-02  0.1130116E+00
         25   -1    0    0    0    0  0.00000000000E+00  0.00000000000E+00  0.99999998245E-14  0.12500000000E+03  0.12500000000E+03 0.  0.
        -13    1    3    3    0    0 -0.82534915814E+01 -0.29934053906E+02 -0.13897685698E+02  0.34019472928E+02  0.10566000000E+00 0.  1.
         23    2    1    0    0    0  0.12546547294E+02  0.23775512374E+02 -0.19355476522E+02  0.91874099121E+02  0.85694368428E+02 0.  0.
         13    1    3    3    0    0  0.20800038875E+02  0.53709566280E+02 -0.54577908248E+01  0.57854626193E+02  0.10566000000E+00 0. -1.
         22    1    1    0    0    0 -0.12546547294E+02 -0.23775512374E+02  0.19355476522E+02  0.33125900879E+02  0.00000000000E+00 0. -1.
</event>
<event>
 5    1  0.1267644E-004  0.9118800E+02  0.7818608E-02  0.1130116E+00
         25   -1    0    0    0    0  0.00000000000E+00  0.00000000000E+00  0.99999998245E-14  0.12500000000E+03  0.12500000000E+03 0.  0.
        -13    1    3    3    0    0 -0.34841004677E+02 -0.26695925576E+01  0.24110415234E+02  0.42454041246E+02  0.10566000000E+00 0. -1.
         23    2    1    0    0    0 -0.20566708465E+02  0.11885385167E+02 -0.21844983104E+02  0.92728415526E+02  0.86931604618E+02 0.  0.
         13    1    3    3    0    0  0.14274296211E+02  0.14554977724E+02 -0.45955398337E+02  0.50274374280E+02  0.10566000000E+00 0.  1.
         22    1    1    0    0    0  0.20566708465E+02 -0.11885385167E+02  0.21844983104E+02  0.32271584474E+02  0.00000000000E+00 0.  1.
</event>
<event>
 5    1  0.1267644E-004  0.9118800E+02  0.7818608E-02  0.1130116E+00
         25   -1    0    0    0    0  0.00000000000E+00  0.00000000000E+00  0.99999998245E-14  0.12500000000E+03  0.12500000000E+03 0.  0.
        -13    1    3    3    0    0 -0.19605716124E+01 -0.80047516952E+01  0.32654595640E+02  0.33678682741E+02  0.10566000000E+00 0.  1.
         23    2    1    0    0    0  0.10489975335E+02  0.16081650619E+02 -0.22670785765E+02  0.95291018254E+02  0.90541452184E+02 0.  0.
         13    1    3    3    0    0  0.12450546948E+02  0.24086402314E+02 -0.55325381405E+02  0.61612335513E+02  0.10566000000E+00 0. -1.
         22    1    1    0    0    0 -0.10489975335E+02 -0.16081650619E+02  0.22670785765E+02  0.29708981746E+02  0.00000000000E+00 0. -1.
</event>
<event>
 5    1  0.1267644E-004  0.9118800E+02  0.7818608E-02  0.1130116E+00
         25   -1    0    0    0    0  0.00000000000E+00  0.00000000000E+00  0.99999998245E-14  0.12500000000E+03  0.12500000000E+03 0.  0.
        -13    1    3    3    0    0  0.33433557050E+02 -0.25105300523E+02 -0.27027423539E+02  0.49785255232E+02  0.10566000000E+00 0.  1.
         23    2    1    0    0    0  0.27632099418E+02  0.13663881791E+02 -0.93530566146E+01  0.92786427521E+02  0.87014980780E+02 0.  0.
         13    1    3    3    0    0 -0.58014576319E+01  0.38769182314E+02  0.17674366925E+02  0.43001172288E+02  0.10566000000E+00 0. -1.
         22    1    1    0    0    0 -0.27632099418E+02 -0.13663881791E+02  0.93530566146E+01  0.32213572479E+02  0.00000000000E+00 0.  1.
</event>
<event>
 5    1  0.1267644E-004  0.9118800E+02  0.7818608E-02  0.1130116E+00
         25   -1    0    0    0    0  0.00000000000E+00  0.00000000000E+00  0.99999998245E-14  0.12500000000E+03  0.12500000000E+03 0.  0.
        -13    1    3    3    0    0 -0.25574400593E+02 -0.24534828772E+02  0.67172484931E+01  0.36071323512E+02  0.10566000000E+00 0. -1.
         23    2    1    0    0    0 -0.53083104188E+01  0.24104221292E+02 -0.18175905294E+02  0.94347835690E+02  0.89229809607E+02 0.  0.
         13    1    3    3    0    0  0.20266090174E+02  0.48639050065E+02 -0.24893153787E+02  0.58276512178E+02  0.10566000000E+00 0.  1.
         22    1    1    0    0    0  0.53083104188E+01 -0.24104221292E+02  0.18175905294E+02  0.30652164310E+02  0.00000000000E+00 0.  1.
</event>
<event>
 5    1  0.1267644E-004  0.9118800E+02  0.7818608E-02  0.1130116E+00
         25   -1    0    0    0    0  0.00000000000E+00  0.00000000000E+00  0.99999998245E-14  0.12500000000E+03  0.12500000000E+03 0.  0.
        -13    1    3    3    0    0  0.15473306215E+02  0.53787715488E+02  0.13564388242E+01  0.55985646669E+02  0.10566000000E+00 0. -1.
         23    2    1    0    0    0  0.21826247318E+02  0.14610637106E+02 -0.93951395224E+01  0.97105118117E+02  0.93012254726E+02 0.  0.
         13    1    3    3    0    0  0.63529411033E+01 -0.39177078381E+02 -0.10751578347E+02  0.41119471448E+02  0.10566000000E+00 0.  1.
         22    1    1    0    0    0 -0.21826247318E+02 -0.14610637106E+02  0.93951395224E+01  0.27894881883E+02  0.00000000000E+00 0. -1.
</event>
<event>
 5    1  0.1267644E-004  0.9118800E+02  0.7818608E-02  0.1130116E+00
         25   -1    0    0    0    0  0.00000000000E+00  0.00000000000E+00  0.99999998245E-14  0.12500000000E+03  0.12500000000E+03 0.  0.
        -13    1    3    3    0    0 -0.25521070472E+02 -0.32012326742E+02  0.32759605128E+02  0.52433929794E+02  0.10566000000E+00 0. -1.
         23    2    1    0    0    0 -0.77686403980E+01  0.12021519777E+02  0.17687416083E+02  0.10224668378E+03  0.99682851808E+02 0.  0.
         13    1    3    3    0    0  0.17752430074E+02  0.44033846519E+02 -0.15072189045E+02  0.49812753984E+02  0.10566000000E+00 0.  1.
         22    1    1    0    0    0  0.77686403980E+01 -0.12021519777E+02 -0.17687416083E+02  0.22753316222E+02  0.00000000000E+00 0.  1.
</event>
<event>
 5    1  0.1267644E-004  0.9118800E+02  0.7818608E-02  0.1130116E+00
         25   -1    0    0    0    0  0.00000000000E+00  0.00000000000E+00  0.99999998245E-14  0.12500000000E+03  0.12500000000E+03 0.  0.
        -13    1    3    3    0    0  0.24588006387E+02  0.54558747614E+02 -0.21265026291E+01  0.59881217228E+02  0.10566000000E+00 0.  1.
         23    2    1    0    0    0 -0.35960750478E-01  0.28971482998E+02 -0.53501638365E+01  0.95538629133E+02  0.90882656669E+02 0.  0.
         13    1    3    3    0    0 -0.24623967138E+02 -0.25587264616E+02 -0.32236612074E+01  0.35657411905E+02  0.10566000000E+00 0. -1.
         22    1    1    0    0    0  0.35960750478E-01 -0.28971482998E+02  0.53501638365E+01  0.29461370867E+02  0.00000000000E+00 0.  1.
</event>
<event>
 5    1  0.1267644E-004  0.9118800E+02  0.7818608E-02  0.1130116E+00
         25   -1    0    0    0    0  0.00000000000E+00  0.00000000000E+00  0.99999998245E-14  0.12500000000E+03  0.12500000000E+03 0.  0.
        -13    1    3    3    0    0  0.15475047465E+02  0.37925568344E+02  0.17924353005E+01  0.41000607516E+02  0.10566000000E+00 0.  1.
         23    2    1    0    0    0  0.30402016617E+02 -0.10045224406E+02 -0.75543521513E+01  0.92102319471E+02  0.86026623018E+02 0.  0.
         13    1    3    3    0    0  0.14926969152E+02 -0.47970792750E+02 -0.93467874518E+01  0.51101711956E+02  0.10566000000E+00 0. -1.
         22    1    1    0    0    0 -0.30402016617E+02  0.10045224406E+02  0.75543521513E+01  0.32897680529E+02  0.00000000000E+00 0. -1.
</event>
<event>
 5    1  0.1267644E-004  0.9118800E+02  0.7818608E-02  0.1130116E+00
         25   -1    0    0    0    0  0.00000000000E+00  0.00000000000E+00  0.99999998245E-14  0.12500000000E+03  0.12500000000E+03 0.  0.
        -13    1    3    3    0    0  0.41060949984E+02 -0.16136682235E+02 -0.14445446053E+02  0.46422798309E+02  0.10566000000E+00 0.  1.
         23    2    1    0    0    0  0.94347116746E+01  0.23596290335E+02 -0.10957588023E+02  0.97325689941E+02  0.93308212314E+02 0.  0.
         13    1    3    3    0    0 -0.31626238309E+02  0.39732972570E+02  0.34878580305E+01  0.50902891632E+02  0.10566000000E+00 0. -1.
         22    1    1    0    0    0 -0.94347116746E+01 -0.23596290335E+02  0.10957588023E+02  0.27674310059E+02  0.00000000000E+00 0. -1.
</event>
<event>
 5    1  0.1267644E-004  0.9118800E+02  0.7818608E-02  0.1130116E+00
         25   -1    0    0    0    0  0.00000000000E+00  0.00000000000E+00  0.99999998245E-14  0.12500000000E+03  0.12500000000E+03 0.  0.
        -13    1    3    3    0    0  0.22082898673E+02 -0.81131828525E+01 -0.26210015711E+02  0.35220082871E+02  0.10566000000E+00 0. -1.
         23    2    1    0    0    0 -0.24843389695E+01  0.11077210145E+02  0.26338103494E+02  0.96319480124E+02  0.91950367216E+02 0.  0.
         13    1    3    3    0    0 -0.24567237643E+02  0.19190392997E+02  0.52548119204E+02  0.61099397254E+02  0.10566000000E+00 0.  1.
         22    1    1    0    0    0  0.24843389695E+01 -0.11077210145E+02 -0.26338103494E+02  0.28680519876E+02  0.00000000000E+00 0.  1.
</event>
<event>
 5    1  0.1267644E-004  0.9118800E+02  0.7818608E-02  0.1130116E+00
         25   -1    0    0    0    0  0.00000000000E+00  0.00000000000E+00  0.99999998245E-14  0.12500000000E+03  0.12500000000E+03 0.  0.
        -13    1    3    3    0    0 -0.23454900287E+02 -0.18728676926E+02 -0.32950127890E+02  0.44571490652E+02  0.10566000000E+00 0. -1.
         23    2    1    0    0    0 -0.24227116789E+02  0.15377628456E+02  0.52938557715E+01  0.95820391474E+02  0.91269369826E+02 0.  0.
         13    1    3    3    0    0 -0.77221650135E+00  0.34106305382E+02  0.38243983662E+02  0.51248900822E+02  0.10566000000E+00 0.  1.
         22    1    1    0    0    0  0.24227116789E+02 -0.15377628456E+02 -0.52938557715E+01  0.29179608526E+02  0.00000000000E+00 0.  1.
</event>
<event>
 5    1  0.1267644E-004  0.9118800E+02  0.7818608E-02  0.1130116E+00
         25   -1    0    0    0    0  0.00000000000E+00  0.00000000000E+00  0.99999998245E-14  0.12500000000E+03  0.12500000000E+03 0.  0.
        -13    1    3    3    0    0 -0.32876549376E+02 -0.46959764551E+02  0.15474680847E+02  0.59376459114E+02  0.10566000000E+00 0. -1.
         23    2    1    0    0    0 -0.10564635459E+02 -0.19289816847E+02  0.20080202989E+02  0.95218745687E+02  0.90441618859E+02 0.  0.
         13    1    3    3    0    0  0.22311913917E+02  0.27669947704E+02  0.46055221420E+01  0.35842286573E+02  0.10566000000E+00 0.  1.
         22    1    1    0    0    0  0.10564635459E+02  0.19289816847E+02 -0.20080202989E+02  0.29781254313E+02  0.00000000000E+00 0. -1.
</event>
<event>
 5    1  0.1267644E-004  0.9118800E+02  0.7818608E-02  0.1130116E+00
         25   -1    0    0    0    0  0.00000000000E+00  0.00000000000E+00  0.99999998245E-14  0.12500000000E+03  0.12500000000E+03 0.  0.
        -13    1    3    3    0    0  0.21780645314E+02 -0.58860077399E+01  0.24371302181E+02  0.33211641505E+02  0.10566000000E+00 0.  1.
         23    2    1    0    0    0 -0.18956163323E+02  0.10911856286E+02 -0.19722341806E+02  0.95548760606E+02  0.90896590428E+02 0.  0.
         13    1    3    3    0    0 -0.40736808637E+02  0.16797864026E+02 -0.44093643987E+02  0.62337119101E+02  0.10566000000E+00 0. -1.
         22    1    1    0    0    0  0.18956163323E+02 -0.10911856286E+02  0.19722341806E+02  0.29451239394E+02  0.00000000000E+00 0. -1.
</event>
<event>
 5    1  0.1267644E-004  0.9118800E+02  0.7818608E-02  0.1130116E+00
         25   -1    0    0    0    0  0.00000000000E+00  0.00000000000E+00  0.99999998245E-14  0.12500000000E+03  0.12500000000E+03 0.  0.
        -13    1    3    3    0    0 -0.10235606749E+01  0.71781861593E+01  0.52883754486E+02  0.53378616370E+02  0.10566000000E+00 0.  1.
         23    2    1    0    0    0  0.15558293935E+02  0.19784533918E+02  0.17826476330E+02  0.94157309604E+02  0.88962505591E+02 0.  0.
         13    1    3    3    0    0  0.16581854610E+02  0.12606347758E+02 -0.35057278157E+02  0.40778693234E+02  0.10566000000E+00 0. -1.
         22    1    1    0    0    0 -0.15558293935E+02 -0.19784533918E+02 -0.17826476330E+02  0.30842690396E+02  0.00000000000E+00 0.  1.
</event>
<event>
 5    1  0.1267644E-004  0.9118800E+02  0.7818608E-02  0.1130116E+00
         25   -1    0    0    0    0  0.00000000000E+00  0.00000000000E+00  0.99999998245E-14  0.12500000000E+03  0.12500000000E+03 0.  0.
        -13    1    3    3    0    0  0.42435968278E+02 -0.33331254583E+01  0.11787990237E+01  0.42583117079E+02  0.10566000000E+00 0. -1.
         23    2    1    0    0    0 -0.42480624748E-02  0.24642132101E+02  0.16106760683E+02  0.95560869031E+02  0.90913240277E+02 0.  0.
         13    1    3    3    0    0 -0.42440216340E+02  0.27975257559E+02  0.14927961660E+02  0.52977751952E+02  0.10566000000E+00 0.  1.
         22    1    1    0    0    0  0.42480624748E-02 -0.24642132101E+02 -0.16106760683E+02  0.29439130969E+02  0.00000000000E+00 0. -1.
</event>
<event>
 5    1  0.1267644E-004  0.9118800E+02  0.7818608E-02  0.1130116E+00
         25   -1    0    0    0    0  0.00000000000E+00  0.00000000000E+00  0.99999998245E-14  0.12500000000E+03  0.12500000000E+03 0.  0.
        -13    1    3    3    0    0  0.20994501773E+02  0.19813983779E+02  0.53581581005E+02  0.60863454100E+02  0.10566000000E+00 0. -1.
         23    2    1    0    0    0  0.19289454314E+02  0.74235336994E+01  0.22087962900E+02  0.94749875944E+02  0.89791252280E+02 0.  0.
         13    1    3    3    0    0 -0.17050474587E+01 -0.12390450080E+02 -0.31493618105E+02  0.33886421844E+02  0.10566000000E+00 0.  1.
         22    1    1    0    0    0 -0.19289454314E+02 -0.74235336994E+01 -0.22087962900E+02  0.30250124056E+02  0.00000000000E+00 0. -1.
</event>
<event>
 5    1  0.1267644E-004  0.9118800E+02  0.7818608E-02  0.1130116E+00
         25   -1    0    0    0    0  0.00000000000E+00  0.00000000000E+00  0.99999998245E-14  0.12500000000E+03  0.12500000000E+03 0.  0.
        -13    1    3    3    0    0 -0.88459218686E+01 -0.58380492832E+02  0.17529036528E+02  0.61593916604E+02  0.10566000000E+00 0. -1.
         23    2    1    0    0    0  0.18195849045E+01 -0.27348900457E+02  0.12809805003E+02  0.94745011161E+02  0.89784479673E+02 0.  0.
         13    1    3    3    0    0  0.10665506773E+02  0.31031592375E+02 -0.47192315245E+01  0.33151094556E+02  0.10566000000E+00 0.  1.
         22    1    1    0    0    0 -0.18195849045E+01  0.27348900457E+02 -0.12809805003E+02  0.30254988839E+02  0.00000000000E+00 0. -1.
</event>
<event>
 5    1  0.1267644E-004  0.9118800E+02  0.7818608E-02  0.1130116E+00
         25   -1    0    0    0    0  0.00000000000E+00  0.00000000000E+00  0.99999998245E-14  0.12500000000E+03  0.12500000000E+03 0.  0.
        -13    1    3    3    0    0  0.26862454345E+02 -0.31842424891E+02  0.25998561686E+02  0.49106698628E+02  0.10566000000E+00 0.  1.
         23    2    1    0    0    0 -0.33495775283E+01  0.54795533456E+01  0.27112342479E+02  0.97137403402E+02  0.93055633094E+02 0.  0.
         13    1    3    3    0    0 -0.30212031873E+02  0.37321978237E+02  0.11137807929E+01  0.48030704774E+02  0.10566000000E+00 0. -1.
         22    1    1    0    0    0  0.33495775283E+01 -0.54795533456E+01 -0.27112342479E+02  0.27862596598E+02  0.00000000000E+00 0.  1.
</event>
<event>
 5    1  0.1267644E-004  0.9118800E+02  0.7818608E-02  0.1130116E+00
         25   -1    0    0    0    0  0.00000000000E+00  0.00000000000E+00  0.99999998245E-14  0.12500000000E+03  0.12500000000E+03 0.  0.
        -13    1    3    3    0    0  0.32284967224E+02 -0.11123784306E+02 -0.66264763870E+01  0.34784752972E+02  0.10566000000E+00 0. -1.
         23    2    1    0    0    0  0.16462522241E+02  0.35151631307E+02  0.70108587194E+01  0.85556319111E+02  0.75921536982E+02 0.  0.
         13    1    3    3    0    0 -0.15822444983E+02  0.46275415613E+02  0.13637335106E+02  0.50771566139E+02  0.10566000000E+00 0.  1.
         22    1    1    0    0    0 -0.16462522241E+02 -0.35151631307E+02 -0.70108587194E+01  0.39443680889E+02  0.00000000000E+00 0. -1.
</event>
<event>
 5    1  0.1267644E-004  0.9118800E+02  0.7818608E-02  0.1130116E+00
         25   -1    0    0    0    0  0.00000000000E+00  0.00000000000E+00  0.99999998245E-14  0.12500000000E+03  0.12500000000E+03 0.  0.
        -13    1    3    3    0    0 -0.53118271217E+00  0.38377975541E+02  0.95589415221E+01  0.39554212023E+02  0.10566000000E+00 0.  1.
         23    2    1    0    0    0 -0.23433760948E+02 -0.32793000410E+01 -0.18685263790E+02  0.94849808561E+02  0.89930262649E+02 0.  0.
         13    1    3    3    0    0 -0.22902578236E+02 -0.41657275582E+02 -0.28244205312E+02  0.55295596538E+02  0.10566000000E+00 0. -1.
         22    1    1    0    0    0  0.23433760948E+02  0.32793000410E+01  0.18685263790E+02  0.30150191439E+02  0.00000000000E+00 0. -1.
</event>
<event>
 5    1  0.1267644E-004  0.9118800E+02  0.7818608E-02  0.1130116E+00
         25   -1    0    0    0    0  0.00000000000E+00  0.00000000000E+00  0.99999998245E-14  0.12500000000E+03  0.12500000000E+03 0.  0.
        -13    1    3    3    0    0  0.19758242221E+02 -0.32228840271E+02  0.36232817556E+02  0.52363293565E+02  0.10566000000E+00 0. -1.
         23    2    1    0    0    0  0.10016533126E+00  0.62088436485E+01  0.28006911983E+02  0.96312949065E+02  0.91941488275E+02 0.  0.
         13    1    3    3    0    0 -0.19658076889E+02  0.38437683919E+02 -0.82259055733E+01  0.43949655500E+02  0.10566000000E+00 0.  1.
         22    1    1    0    0    0 -0.10016533126E+00 -0.62088436485E+01 -0.28006911983E+02  0.28687050935E+02  0.00000000000E+00 0.  1.
</event>
<event>
 5    1  0.1267644E-004  0.9118800E+02  0.7818608E-02  0.1130116E+00
         25   -1    0    0    0    0  0.00000000000E+00  0.00000000000E+00  0.99999998245E-14  0.12500000000E+03  0.12500000000E+03 0.  0.
        -13    1    3    3    0    0 -0.48592909030E+02 -0.29977468354E+02 -0.19186640514E+02  0.60233360816E+02  0.10566000000E+00 0.  1.
         23    2    1    0    0    0 -0.19047316632E+02 -0.23801563291E+02 -0.33166237990E+01  0.94335449141E+02  0.89212455886E+02 0.  0.
         13    1    3    3    0    0  0.29545592398E+02  0.61759050633E+01  0.15870016715E+02  0.34102088325E+02  0.10566000000E+00 0. -1.
         22    1    1    0    0    0  0.19047316632E+02  0.23801563291E+02  0.33166237990E+01  0.30664550859E+02  0.00000000000E+00 0.  1.
</event>
<event>
 5    1  0.1267644E-004  0.9118800E+02  0.7818608E-02  0.1130116E+00
         25   -1    0    0    0    0  0.00000000000E+00  0.00000000000E+00  0.99999998245E-14  0.12500000000E+03  0.12500000000E+03 0.  0.
        -13    1    3    3    0    0 -0.17747399007E+01 -0.42063967284E+02  0.14720865725E+02  0.44600920362E+02  0.10566000000E+00 0.  1.
         23    2    1    0    0    0 -0.25900823554E+01  0.79499495673E+01  0.27523922429E+02  0.96234108208E+02  0.91834236818E+02 0.  0.
         13    1    3    3    0    0 -0.81534245474E+00  0.50013916851E+02  0.12803056704E+02  0.51633187846E+02  0.10566000000E+00 0. -1.
         22    1    1    0    0    0  0.25900823554E+01 -0.79499495673E+01 -0.27523922429E+02  0.28765891792E+02  0.00000000000E+00 0. -1.
</event>
<event>
 5    1  0.1267644E-004  0.9118800E+02  0.7818608E-02  0.1130116E+00
         25   -1    0    0    0    0  0.00000000000E+00  0.00000000000E+00  0.99999998245E-14  0.12500000000E+03  0.12500000000E+03 0.  0.
        -13    1    3    3    0    0 -0.38948858380E+02  0.29652454160E+01 -0.24229386228E+02  0.45966080652E+02  0.10566000000E+00 0.  1.
         23    2    1    0    0    0 -0.15354728404E+02 -0.18342935195E+02  0.15231943695E+02  0.96640820451E+02  0.92386173819E+02 0.  0.
         13    1    3    3    0    0  0.23594129976E+02 -0.21308180612E+02  0.39461329924E+02  0.50674739799E+02  0.10566000000E+00 0. -1.
         22    1    1    0    0    0  0.15354728404E+02  0.18342935195E+02 -0.15231943695E+02  0.28359179549E+02  0.00000000000E+00 0. -1.
</event>
<event>
 5    1  0.1267644E-004  0.9118800E+02  0.7818608E-02  0.1130116E+00
         25   -1    0    0    0    0  0.00000000000E+00  0.00000000000E+00  0.99999998245E-14  0.12500000000E+03  0.12500000000E+03 0.  0.
        -13    1    3    3    0    0 -0.13534916085E+02  0.13261676556E+01  0.41359661365E+02  0.43538321354E+02  0.10566000000E+00 0.  1.
         23    2    1    0    0    0 -0.33279627729E+01  0.30916790410E+02  0.19818284524E+01  0.93841519461E+02  0.88517681089E+02 0.  0.
         13    1    3    3    0    0  0.10206953312E+02  0.29590622754E+02 -0.39377832913E+02  0.50303198107E+02  0.10566000000E+00 0. -1.
         22    1    1    0    0    0  0.33279627729E+01 -0.30916790410E+02 -0.19818284524E+01  0.31158480539E+02  0.00000000000E+00 0. -1.
</event>
<event>
 5    1  0.1267644E-004  0.9118800E+02  0.7818608E-02  0.1130116E+00
         25   -1    0    0    0    0  0.00000000000E+00  0.00000000000E+00  0.99999998245E-14  0.12500000000E+03  0.12500000000E+03 0.  0.
        -13    1    3    3    0    0  0.27978075313E+02  0.83521280986E+01 -0.37129055802E+02  0.47234613270E+02  0.10566000000E+00 0. -1.
         23    2    1    0    0    0  0.77685665714E+01  0.27051975630E+02  0.38374549877E+01  0.96594259861E+02  0.92323155088E+02 0.  0.
         13    1    3    3    0    0 -0.20209508742E+02  0.18699847531E+02  0.40966510790E+02  0.49359646591E+02  0.10566000000E+00 0.  1.
         22    1    1    0    0    0 -0.77685665714E+01 -0.27051975630E+02 -0.38374549877E+01  0.28405740139E+02  0.00000000000E+00 0. -1.
</event>
<event>
 5    1  0.1267644E-004  0.9118800E+02  0.7818608E-02  0.1130116E+00
         25   -1    0    0    0    0  0.00000000000E+00  0.00000000000E+00  0.99999998245E-14  0.12500000000E+03  0.12500000000E+03 0.  0.
        -13    1    3    3    0    0  0.13515597901E+02  0.24275036937E+02 -0.20386180067E+02  0.34460938853E+02  0.10566000000E+00 0.  1.
         23    2    1    0    0    0  0.66584880678E+01 -0.17700968153E+02  0.23003718481E+02  0.95220295487E+02  0.90443760823E+02 0.  0.
         13    1    3    3    0    0 -0.68571098336E+01 -0.41976005090E+02  0.43389898547E+02  0.60759356634E+02  0.10566000000E+00 0. -1.
         22    1    1    0    0    0 -0.66584880678E+01  0.17700968153E+02 -0.23003718481E+02  0.29779704513E+02  0.00000000000E+00 0. -1.
</event>
<event>
 5    1  0.1267644E-004  0.9118800E+02  0.7818608E-02  0.1130116E+00
         25   -1    0    0    0    0  0.00000000000E+00  0.00000000000E+00  0.99999998245E-14  0.12500000000E+03  0.12500000000E+03 0.  0.
        -13    1    3    3    0    0  0.55308161891E+02  0.12519592678E+02  0.16794721950E+02  0.59142259189E+02  0.10566000000E+00 0.  1.
         23    2    1    0    0    0  0.23868319128E+02 -0.90514685582E+01  0.76368074909E+01  0.98355177432E+02  0.94677317019E+02 0.  0.
         13    1    3    3    0    0 -0.31439842763E+02 -0.21571061236E+02 -0.91579144587E+01  0.39212918243E+02  0.10566000000E+00 0. -1.
         22    1    1    0    0    0 -0.23868319128E+02  0.90514685582E+01 -0.76368074909E+01  0.26644822568E+02  0.00000000000E+00 0.  1.
</event>
<event>
 5    1  0.1267644E-004  0.9118800E+02  0.7818608E-02  0.1130116E+00
         25   -1    0    0    0    0  0.00000000000E+00  0.00000000000E+00  0.99999998245E-14  0.12500000000E+03  0.12500000000E+03 0.  0.
        -13    1    3    3    0    0  0.20946004812E+01 -0.17295051158E+02  0.48707525873E+02  0.51729492424E+02  0.10566000000E+00 0. -1.
         23    2    1    0    0    0 -0.17578677140E+02  0.10625441876E+02  0.19674278600E+02  0.96557300700E+02  0.92273101038E+02 0.  0.
         13    1    3    3    0    0 -0.19673277621E+02  0.27920493033E+02 -0.29033247274E+02  0.44827808276E+02  0.10566000000E+00 0.  1.
         22    1    1    0    0    0  0.17578677140E+02 -0.10625441876E+02 -0.19674278600E+02  0.28442699300E+02  0.00000000000E+00 0. -1.
</event>
<event>
 5    1  0.1267644E-004  0.9118800E+02  0.7818608E-02  0.1130116E+00
         25   -1    0    0    0    0  0.00000000000E+00  0.00000000000E+00  0.99999998245E-14  0.12500000000E+03  0.12500000000E+03 0.  0.
        -13    1    3    3    0    0 -0.14117603427E+01  0.25840152174E+02 -0.15525396051E+02  0.30178727909E+02  0.10566000000E+00 0.  1.
         23    2    1    0    0    0 -0.17459048542E+01 -0.28187568962E+02  0.15807289208E+02  0.92635550061E+02  0.86797969534E+02 0.  0.
         13    1    3    3    0    0 -0.33414451147E+00 -0.54027721136E+02  0.31332685260E+02  0.62456822152E+02  0.10566000000E+00 0. -1.
         22    1    1    0    0    0  0.17459048542E+01  0.28187568962E+02 -0.15807289208E+02  0.32364449939E+02  0.00000000000E+00 0. -1.
</event>
<event>
 5    1  0.1267644E-004  0.9118800E+02  0.7818608E-02  0.1130116E+00
         25   -1    0    0    0    0  0.00000000000E+00  0.00000000000E+00  0.99999998245E-14  0.12500000000E+03  0.12500000000E+03 0.  0.
        -13    1    3    3    0    0  0.31371552751E+02 -0.58229633758E+01  0.21015267772E+02  0.38206463694E+02  0.10566000000E+00 0.  1.
         23    2    1    0    0    0 -0.18374472413E+02 -0.15386527893E+02 -0.11517199857E+02  0.98410295797E+02  0.94750060418E+02 0.  0.
         13    1    3    3    0    0 -0.49746025164E+02 -0.95635645172E+01 -0.32532467629E+02  0.60203832103E+02  0.10566000000E+00 0. -1.
         22    1    1    0    0    0  0.18374472413E+02  0.15386527893E+02  0.11517199857E+02  0.26589704203E+02  0.00000000000E+00 0. -1.
</event>
<event>
 5    1  0.1267644E-004  0.9118800E+02  0.7818608E-02  0.1130116E+00
         25   -1    0    0    0    0  0.00000000000E+00  0.00000000000E+00  0.99999998245E-14  0.12500000000E+03  0.12500000000E+03 0.  0.
        -13    1    3    3    0    0  0.30405126820E+02 -0.15381144063E+01  0.20462021782E+02  0.36681644352E+02  0.10566000000E+00 0.  1.
         23    2    1    0    0    0 -0.18924894748E+02  0.23230404867E+02  0.16765078430E+01  0.94989767910E+02  0.90124591414E+02 0.  0.
         13    1    3    3    0    0 -0.49330021569E+02  0.24768519273E+02 -0.18785513939E+02  0.58308123559E+02  0.10566000000E+00 0. -1.
         22    1    1    0    0    0  0.18924894748E+02 -0.23230404867E+02 -0.16765078430E+01  0.30010232090E+02  0.00000000000E+00 0. -1.
</event>
<event>
 5    1  0.1267644E-004  0.9118800E+02  0.7818608E-02  0.1130116E+00
         25   -1    0    0    0    0  0.00000000000E+00  0.00000000000E+00  0.99999998245E-14  0.12500000000E+03  0.12500000000E+03 0.  0.
        -13    1    3    3    0    0 -0.18537024161E+02 -0.44928152109E+02  0.56110480638E+01  0.48924995054E+02  0.10566000000E+00 0.  1.
         23    2    1    0    0    0 -0.30080068693E+02 -0.11481957092E+01  0.64751400611E+01  0.94209476706E+02  0.89035774700E+02 0.  0.
         13    1    3    3    0    0 -0.11543044531E+02  0.43779956400E+02  0.86409199730E+00  0.45284481651E+02  0.10566000000E+00 0. -1.
         22    1    1    0    0    0  0.30080068693E+02  0.11481957092E+01 -0.64751400611E+01  0.30790523294E+02  0.00000000000E+00 0.  1.
</event>
<event>
 5    1  0.1267644E-004  0.9118800E+02  0.7818608E-02  0.1130116E+00
         25   -1    0    0    0    0  0.00000000000E+00  0.00000000000E+00  0.99999998245E-14  0.12500000000E+03  0.12500000000E+03 0.  0.
        -13    1    3    3    0    0  0.62647526354E+01 -0.11592936361E+02  0.33178387919E+02  0.35699578261E+02  0.10566000000E+00 0.  1.
         23    2    1    0    0    0  0.37562818250E+02  0.11212652236E+02  0.14342985356E+01  0.85773145712E+02  0.76277692860E+02 0.  0.
         13    1    3    3    0    0  0.31298065615E+02  0.22805588596E+02 -0.31744089384E+02  0.50073567451E+02  0.10566000000E+00 0. -1.
         22    1    1    0    0    0 -0.37562818250E+02 -0.11212652236E+02 -0.14342985356E+01  0.39226854288E+02  0.00000000000E+00 0. -1.
</event>
<event>
 5    1  0.1267644E-004  0.9118800E+02  0.7818608E-02  0.1130116E+00
         25   -1    0    0    0    0  0.00000000000E+00  0.00000000000E+00  0.99999998245E-14  0.12500000000E+03  0.12500000000E+03 0.  0.
        -13    1    3    3    0    0 -0.32441314423E+01 -0.42194308686E+02  0.33728931643E+01  0.42453170042E+02  0.10566000000E+00 0. -1.
         23    2    1    0    0    0 -0.23653737972E+02  0.51622053023E+01  0.16544824955E+02  0.95676307933E+02  0.91071823213E+02 0.  0.
         13    1    3    3    0    0 -0.20409606530E+02  0.47356513988E+02  0.13171931791E+02  0.53223137891E+02  0.10566000000E+00 0.  1.
         22    1    1    0    0    0  0.23653737972E+02 -0.51622053023E+01 -0.16544824955E+02  0.29323692067E+02  0.00000000000E+00 0.  1.
</event>
<event>
 5    1  0.1267644E-004  0.9118800E+02  0.7818608E-02  0.1130116E+00
         25   -1    0    0    0    0  0.00000000000E+00  0.00000000000E+00  0.99999998245E-14  0.12500000000E+03  0.12500000000E+03 0.  0.
        -13    1    3    3    0    0 -0.28227515423E+02 -0.13571953835E+02  0.91905497680E+01  0.32641506199E+02  0.10566000000E+00 0.  1.
         23    2    1    0    0    0  0.26734019599E+02 -0.18085898150E+02  0.17296341589E+02  0.88380729825E+02  0.80437444366E+02 0.  0.
         13    1    3    3    0    0  0.54961535022E+02 -0.45139443148E+01  0.81057918214E+01  0.55739223626E+02  0.10566000000E+00 0. -1.
         22    1    1    0    0    0 -0.26734019599E+02  0.18085898150E+02 -0.17296341589E+02  0.36619270175E+02  0.00000000000E+00 0. -1.
</event>
<event>
 5    1  0.1267644E-004  0.9118800E+02  0.7818608E-02  0.1130116E+00
         25   -1    0    0    0    0  0.00000000000E+00  0.00000000000E+00  0.99999998245E-14  0.12500000000E+03  0.12500000000E+03 0.  0.
        -13    1    3    3    0    0  0.13086418576E+02  0.15293964907E+02 -0.30276960168E+02  0.36357464086E+02  0.10566000000E+00 0. -1.
         23    2    1    0    0    0 -0.32020848463E+02 -0.51327908508E+01 -0.42643777105E+01  0.92291206145E+02  0.86300646210E+02 0.  0.
         13    1    3    3    0    0 -0.45107267038E+02 -0.20426755758E+02  0.26012582458E+02  0.55933742058E+02  0.10566000000E+00 0.  1.
         22    1    1    0    0    0  0.32020848463E+02  0.51327908508E+01  0.42643777105E+01  0.32708793855E+02  0.00000000000E+00 0.  1.
</event>
<event>
 5    1  0.1267644E-004  0.9118800E+02  0.7818608E-02  0.1130116E+00
         25   -1    0    0    0    0  0.00000000000E+00  0.00000000000E+00  0.99999998245E-14  0.12500000000E+03  0.12500000000E+03 0.  0.
        -13    1    3    3    0    0  0.45751814470E+02 -0.34542244157E+02 -0.17187556003E+02  0.59848294914E+02  0.10566000000E+00 0. -1.
         23    2    1    0    0    0  0.21127880505E+02 -0.17873601262E+02  0.49077442859E+01  0.96894148106E+02  0.92728296795E+02 0.  0.
         13    1    3    3    0    0 -0.24623933964E+02  0.16668642895E+02  0.22095300289E+02  0.37045853192E+02  0.10566000000E+00 0.  1.
         22    1    1    0    0    0 -0.21127880505E+02  0.17873601262E+02 -0.49077442859E+01  0.28105851894E+02  0.00000000000E+00 0. -1.
</event>
<event>
 5    1  0.1267644E-004  0.9118800E+02  0.7818608E-02  0.1130116E+00
         25   -1    0    0    0    0  0.00000000000E+00  0.00000000000E+00  0.99999998245E-14  0.12500000000E+03  0.12500000000E+03 0.  0.
        -13    1    3    3    0    0 -0.21087847529E+02 -0.22012943390E+02  0.38473909108E+02  0.49086860118E+02  0.10566000000E+00 0.  1.
         23    2    1    0    0    0 -0.19293008310E+02  0.17280112403E+02  0.12348895132E+02  0.96306487400E+02  0.91932702832E+02 0.  0.
         13    1    3    3    0    0  0.17948392184E+01  0.39293055794E+02 -0.26125013976E+02  0.47219627283E+02  0.10566000000E+00 0. -1.
         22    1    1    0    0    0  0.19293008310E+02 -0.17280112403E+02 -0.12348895132E+02  0.28693512600E+02  0.00000000000E+00 0.  1.
</event>
<event>
 5    1  0.1267644E-004  0.9118800E+02  0.7818608E-02  0.1130116E+00
         25   -1    0    0    0    0  0.00000000000E+00  0.00000000000E+00  0.99999998245E-14  0.12500000000E+03  0.12500000000E+03 0.  0.
        -13    1    3    3    0    0  0.40064127336E+02 -0.11165585024E+02 -0.26072326936E+02  0.49087493152E+02  0.10566000000E+00 0. -1.
         23    2    1    0    0    0  0.11852090738E+02 -0.17682169985E+02  0.14725586103E+02  0.99116142553E+02  0.95676724642E+02 0.  0.
         13    1    3    3    0    0 -0.28212036597E+02 -0.65165849605E+01  0.40797913039E+02  0.50028649401E+02  0.10566000000E+00 0.  1.
         22    1    1    0    0    0 -0.11852090738E+02  0.17682169985E+02 -0.14725586103E+02  0.25883857447E+02  0.00000000000E+00 0. -1.
</event>
<event>
 5    1  0.1267644E-004  0.9118800E+02  0.7818608E-02  0.1130116E+00
         25   -1    0    0    0    0  0.00000000000E+00  0.00000000000E+00  0.99999998245E-14  0.12500000000E+03  0.12500000000E+03 0.  0.
        -13    1    3    3    0    0  0.31060418335E+02  0.29191697207E+02  0.21900275512E+02  0.47922207843E+02  0.10566000000E+00 0.  1.
         23    2    1    0    0    0  0.51982623508E+01 -0.11332791641E+02  0.25994411686E+02  0.96170093015E+02  0.91747061281E+02 0.  0.
         13    1    3    3    0    0 -0.25862155984E+02 -0.40524488848E+02  0.40941361738E+01  0.48247885172E+02  0.10566000000E+00 0. -1.
         22    1    1    0    0    0 -0.51982623508E+01  0.11332791641E+02 -0.25994411686E+02  0.28829906985E+02  0.00000000000E+00 0. -1.
</event>
<event>
 5    1  0.1267644E-004  0.9118800E+02  0.7818608E-02  0.1130116E+00
         25   -1    0    0    0    0  0.00000000000E+00  0.00000000000E+00  0.99999998245E-14  0.12500000000E+03  0.12500000000E+03 0.  0.
        -13    1    3    3    0    0 -0.13202142969E+02 -0.30985107987E+02 -0.37064650954E+02  0.50081663414E+02  0.10566000000E+00 0. -1.
         23    2    1    0    0    0  0.21014382777E+02 -0.17422431217E+02 -0.93864849826E+01  0.96133904086E+02  0.91697742728E+02 0.  0.
         13    1    3    3    0    0  0.34216525746E+02  0.13562676771E+02  0.27678165971E+02  0.46052240672E+02  0.10566000000E+00 0.  1.
         22    1    1    0    0    0 -0.21014382777E+02  0.17422431217E+02  0.93864849826E+01  0.28866095914E+02  0.00000000000E+00 0.  1.
</event>
<event>
 5    1  0.1267644E-004  0.9118800E+02  0.7818608E-02  0.1130116E+00
         25   -1    0    0    0    0  0.00000000000E+00  0.00000000000E+00  0.99999998245E-14  0.12500000000E+03  0.12500000000E+03 0.  0.
        -13    1    3    3    0    0 -0.43802900069E+02  0.17606436322E+02  0.29555542284E+02  0.55697593288E+02  0.10566000000E+00 0. -1.
         23    2    1    0    0    0 -0.27303883380E+02 -0.86997141963E+01  0.36983406270E+01  0.96105972968E+02  0.91659659840E+02 0.  0.
         13    1    3    3    0    0  0.16499016689E+02 -0.26306150518E+02 -0.25857201657E+02  0.40408379679E+02  0.10566000000E+00 0.  1.
         22    1    1    0    0    0  0.27303883380E+02  0.86997141963E+01 -0.36983406270E+01  0.28894027032E+02  0.00000000000E+00 0. -1.
</event>
<event>
 5    1  0.1267644E-004  0.9118800E+02  0.7818608E-02  0.1130116E+00
         25   -1    0    0    0    0  0.00000000000E+00  0.00000000000E+00  0.99999998245E-14  0.12500000000E+03  0.12500000000E+03 0.  0.
        -13    1    3    3    0    0 -0.53971464532E+02  0.92361999299E+01 -0.26324013823E+02  0.60755174600E+02  0.10566000000E+00 0.  1.
         23    2    1    0    0    0 -0.24829499560E+02  0.13908955751E+02 -0.82315141681E+01  0.95373644774E+02  0.90655453192E+02 0.  0.
         13    1    3    3    0    0  0.29141964972E+02  0.46727558209E+01  0.18092499655E+02  0.34618470174E+02  0.10566000000E+00 0. -1.
         22    1    1    0    0    0  0.24829499560E+02 -0.13908955751E+02  0.82315141681E+01  0.29626355226E+02  0.00000000000E+00 0.  1.
</event>
<event>
 5    1  0.1267644E-004  0.9118800E+02  0.7818608E-02  0.1130116E+00
         25   -1    0    0    0    0  0.00000000000E+00  0.00000000000E+00  0.99999998245E-14  0.12500000000E+03  0.12500000000E+03 0.  0.
        -13    1    3    3    0    0  0.43984993605E+02 -0.27444061676E+02  0.55439211915E+01  0.52140218736E+02  0.10566000000E+00 0. -1.
         23    2    1    0    0    0  0.35935658853E+00 -0.26237233883E+02  0.11800655094E+02  0.96228885325E+02  0.91827127425E+02 0.  0.
         13    1    3    3    0    0 -0.43625637016E+02  0.12068277924E+01  0.62567339022E+01  0.44088666588E+02  0.10566000000E+00 0.  1.
         22    1    1    0    0    0 -0.35935658853E+00  0.26237233883E+02 -0.11800655094E+02  0.28771114675E+02  0.00000000000E+00 0. -1.
</event>
<event>
 4    1  0.1267644E-004  0.9118800E+02  0.7818608E-02  0.1130116E+00
         25   -1    0    0    0    0  0.00000000000E+00  0.00000000000E+00  0.99999998245E-14  0.12500000000E+03  0.12500000000E+03 0.  0.
        -13    1    1    0    0    0  0.15780027755E+02 -0.11630922448E+02  0.59980399353E+01  0.20500616577E+02  0.10566000000E+00 0. -1.
         13    1    1    0    0    0 -0.19685801505E+02 -0.22923972138E+02  0.37916074500E+02  0.48483802956E+02  0.10566000000E+00 0.  1.
         22    1    1    0    0    0  0.39057737507E+01  0.34554894587E+02 -0.43914114435E+02  0.56015580467E+02  0.00000000000E+00 0.  1.
</event>
<event>
 5    1  0.1267644E-004  0.9118800E+02  0.7818608E-02  0.1130116E+00
         25   -1    0    0    0    0  0.00000000000E+00  0.00000000000E+00  0.99999998245E-14  0.12500000000E+03  0.12500000000E+03 0.  0.
        -13    1    3    3    0    0 -0.57408450385E+02 -0.35813860794E+01 -0.21602117620E+01  0.57560699967E+02  0.10566000000E+00 0. -1.
         23    2    1    0    0    0 -0.23585067900E+02 -0.18867748724E+02 -0.26415591847E+01  0.94681273037E+02  0.89695698108E+02 0.  0.
         13    1    3    3    0    0  0.33823382485E+02 -0.15286362645E+02 -0.48134742274E+00  0.37120573069E+02  0.10566000000E+00 0.  1.
         22    1    1    0    0    0  0.23585067900E+02  0.18867748724E+02  0.26415591847E+01  0.30318726963E+02  0.00000000000E+00 0. -1.
</event>
<event>
 5    1  0.1267644E-004  0.9118800E+02  0.7818608E-02  0.1130116E+00
         25   -1    0    0    0    0  0.00000000000E+00  0.00000000000E+00  0.99999998245E-14  0.12500000000E+03  0.12500000000E+03 0.  0.
        -13    1    3    3    0    0  0.32847729492E+02 -0.68869188947E+01  0.14842593197E+02  0.36697639181E+02  0.10566000000E+00 0. -1.
         23    2    1    0    0    0 -0.20679692681E+02 -0.18273873623E+02 -0.83984441648E+01  0.96153544222E+02  0.91724511748E+02 0.  0.
         13    1    3    3    0    0 -0.53527422173E+02 -0.11386954729E+02 -0.23241037362E+02  0.59455905040E+02  0.10566000000E+00 0.  1.
         22    1    1    0    0    0  0.20679692681E+02  0.18273873623E+02  0.83984441648E+01  0.28846455778E+02  0.00000000000E+00 0.  1.
</event>
<event>
 5    1  0.1267644E-004  0.9118800E+02  0.7818608E-02  0.1130116E+00
         25   -1    0    0    0    0  0.00000000000E+00  0.00000000000E+00  0.99999998245E-14  0.12500000000E+03  0.12500000000E+03 0.  0.
        -13    1    3    3    0    0  0.37660064703E+02  0.18141823675E+02 -0.22638607858E+02  0.47538657632E+02  0.10566000000E+00 0.  1.
         23    2    1    0    0    0  0.15848249610E+02  0.11680719891E+02  0.20667430547E+02  0.96456192996E+02  0.92136031220E+02 0.  0.
         13    1    3    3    0    0 -0.21811815093E+02 -0.64611037840E+01  0.43306038405E+02  0.48917535364E+02  0.10566000000E+00 0. -1.
         22    1    1    0    0    0 -0.15848249610E+02 -0.11680719891E+02 -0.20667430547E+02  0.28543807004E+02  0.00000000000E+00 0. -1.
</event>
<event>
 5    1  0.1267644E-004  0.9118800E+02  0.7818608E-02  0.1130116E+00
         25   -1    0    0    0    0  0.00000000000E+00  0.00000000000E+00  0.99999998245E-14  0.12500000000E+03  0.12500000000E+03 0.  0.
        -13    1    3    3    0    0 -0.32390096072E+02 -0.94914405148E+01 -0.34309729754E+01  0.33926221513E+02  0.10566000000E+00 0. -1.
         23    2    1    0    0    0  0.28963354521E+02 -0.17050946317E+01  0.13395922158E+01  0.95955589865E+02  0.91454346350E+02 0.  0.
         13    1    3    3    0    0  0.61353450592E+02  0.77863458831E+01  0.47705651911E+01  0.62029368351E+02  0.10566000000E+00 0.  1.
         22    1    1    0    0    0 -0.28963354521E+02  0.17050946317E+01 -0.13395922158E+01  0.29044410135E+02  0.00000000000E+00 0.  1.
</event>
<event>
 5    1  0.1267644E-004  0.9118800E+02  0.7818608E-02  0.1130116E+00
         25   -1    0    0    0    0  0.00000000000E+00  0.00000000000E+00  0.99999998245E-14  0.12500000000E+03  0.12500000000E+03 0.  0.
        -13    1    3    3    0    0 -0.42618205162E+01 -0.36181749720E+02  0.39747865355E+02  0.53918327972E+02  0.10566000000E+00 0. -1.
         23    2    1    0    0    0  0.20003758966E+02 -0.21745515417E+02  0.13329810999E+02  0.92585471239E+02  0.86725819742E+02 0.  0.
         13    1    3    3    0    0  0.24265579482E+02  0.14436234303E+02 -0.26418054357E+02  0.38667143268E+02  0.10566000000E+00 0.  1.
         22    1    1    0    0    0 -0.20003758966E+02  0.21745515417E+02 -0.13329810999E+02  0.32414528761E+02  0.00000000000E+00 0. -1.
</event>
<event>
 5    1  0.1267644E-004  0.9118800E+02  0.7818608E-02  0.1130116E+00
         25   -1    0    0    0    0  0.00000000000E+00  0.00000000000E+00  0.99999998245E-14  0.12500000000E+03  0.12500000000E+03 0.  0.
        -13    1    3    3    0    0 -0.46777772493E+02 -0.10509747673E+02  0.39722725696E+02  0.62261712924E+02  0.10566000000E+00 0.  1.
         23    2    1    0    0    0 -0.21400028039E+02 -0.87452883788E+01  0.18506759902E+02  0.95386803095E+02  0.90673594688E+02 0.  0.
         13    1    3    3    0    0  0.25377744454E+02  0.17644592942E+01 -0.21215965794E+02  0.33125090170E+02  0.10566000000E+00 0. -1.
         22    1    1    0    0    0  0.21400028039E+02  0.87452883788E+01 -0.18506759902E+02  0.29613196905E+02  0.00000000000E+00 0.  1.
</event>
<event>
 5    1  0.1267644E-004  0.9118800E+02  0.7818608E-02  0.1130116E+00
         25   -1    0    0    0    0  0.00000000000E+00  0.00000000000E+00  0.99999998245E-14  0.12500000000E+03  0.12500000000E+03 0.  0.
        -13    1    3    3    0    0  0.34580802449E+02  0.22087488636E+02 -0.32862470380E+02  0.52570354533E+02  0.10566000000E+00 0.  1.
         23    2    1    0    0    0  0.18602415072E+02 -0.14274392502E+02 -0.19585012401E+02  0.94448717891E+02  0.89371021437E+02 0.  0.
         13    1    3    3    0    0 -0.15978387377E+02 -0.36361881138E+02  0.13277457979E+02  0.41878363357E+02  0.10566000000E+00 0. -1.
         22    1    1    0    0    0 -0.18602415072E+02  0.14274392502E+02  0.19585012401E+02  0.30551282109E+02  0.00000000000E+00 0.  1.
</event>
<event>
 5    1  0.1267644E-004  0.9118800E+02  0.7818608E-02  0.1130116E+00
         25   -1    0    0    0    0  0.00000000000E+00  0.00000000000E+00  0.99999998245E-14  0.12500000000E+03  0.12500000000E+03 0.  0.
        -13    1    3    3    0    0  0.38631621403E+02  0.42380658968E+02  0.22662696787E+02  0.61661425677E+02  0.10566000000E+00 0. -1.
         23    2    1    0    0    0  0.17143383935E+02  0.15729901126E+02  0.16575183716E+02  0.96433199034E+02  0.92104830268E+02 0.  0.
         13    1    3    3    0    0 -0.21488237468E+02 -0.26650757842E+02 -0.60875130706E+01  0.34771773358E+02  0.10566000000E+00 0.  1.
         22    1    1    0    0    0 -0.17143383935E+02 -0.15729901126E+02 -0.16575183716E+02  0.28566800966E+02  0.00000000000E+00 0. -1.
</event>
<event>
 5    1  0.1267644E-004  0.9118800E+02  0.7818608E-02  0.1130116E+00
         25   -1    0    0    0    0  0.00000000000E+00  0.00000000000E+00  0.99999998245E-14  0.12500000000E+03  0.12500000000E+03 0.  0.
        -13    1    3    3    0    0  0.29442705760E+02  0.39112417021E+01  0.31153424828E+02  0.43043208252E+02  0.10566000000E+00 0.  1.
         23    2    1    0    0    0 -0.91671256549E+00  0.29304541861E+02 -0.32718335111E+01  0.95499128316E+02  0.90828310999E+02 0.  0.
         13    1    3    3    0    0 -0.30359418326E+02  0.25393300159E+02 -0.34425258339E+02  0.52455920064E+02  0.10566000000E+00 0. -1.
         22    1    1    0    0    0  0.91671256549E+00 -0.29304541861E+02  0.32718335111E+01  0.29500871684E+02  0.00000000000E+00 0. -1.
</event>
<event>
 5    1  0.1267644E-004  0.9118800E+02  0.7818608E-02  0.1130116E+00
         25   -1    0    0    0    0  0.00000000000E+00  0.00000000000E+00  0.99999998245E-14  0.12500000000E+03  0.12500000000E+03 0.  0.
        -13    1    3    3    0    0 -0.39734481723E+02  0.89247185172E+00 -0.19584487239E+02  0.44307886976E+02  0.10566000000E+00 0.  1.
         23    2    1    0    0    0  0.87545490047E+01  0.17789159964E+02 -0.21579258749E+02  0.95695380080E+02  0.91097996794E+02 0.  0.
         13    1    3    3    0    0  0.48489030728E+02  0.16896688112E+02 -0.19947715099E+01  0.51387493104E+02  0.10566000000E+00 0. -1.
         22    1    1    0    0    0 -0.87545490047E+01 -0.17789159964E+02  0.21579258749E+02  0.29304619920E+02  0.00000000000E+00 0.  1.
</event>
<event>
 5    1  0.1267644E-004  0.9118800E+02  0.7818608E-02  0.1130116E+00
         25   -1    0    0    0    0  0.00000000000E+00  0.00000000000E+00  0.99999998245E-14  0.12500000000E+03  0.12500000000E+03 0.  0.
        -13    1    3    3    0    0 -0.10960317940E+02  0.28900541154E+02  0.98842494766E+01  0.32451184879E+02  0.10566000000E+00 0.  1.
         23    2    1    0    0    0  0.94832531618E+01 -0.28815864130E+02 -0.10291354194E+01  0.94646330769E+02  0.89646989309E+02 0.  0.
         13    1    3    3    0    0  0.20443571102E+02 -0.57716405284E+02 -0.10913384896E+02  0.62195145889E+02  0.10566000000E+00 0. -1.
         22    1    1    0    0    0 -0.94832531618E+01  0.28815864130E+02  0.10291354194E+01  0.30353669231E+02  0.00000000000E+00 0. -1.
</event>
<event>
 5    1  0.1267644E-004  0.9118800E+02  0.7818608E-02  0.1130116E+00
         25   -1    0    0    0    0  0.00000000000E+00  0.00000000000E+00  0.99999998245E-14  0.12500000000E+03  0.12500000000E+03 0.  0.
        -13    1    3    3    0    0 -0.39668273326E+02  0.28377768261E+02  0.48687272525E+00  0.48776201669E+02  0.10566000000E+00 0.  1.
         23    2    1    0    0    0 -0.29101839618E+02  0.23377454505E+02 -0.27188618343E+02  0.78819447646E+02  0.63873796752E+02 0.  0.
         13    1    3    3    0    0  0.10566433708E+02 -0.50003137555E+01 -0.27675491068E+02  0.30043245977E+02  0.10566000000E+00 0. -1.
         22    1    1    0    0    0  0.29101839618E+02 -0.23377454505E+02  0.27188618343E+02  0.46180552354E+02  0.00000000000E+00 0.  1.
</event>
<event>
 5    1  0.1267644E-004  0.9118800E+02  0.7818608E-02  0.1130116E+00
         25   -1    0    0    0    0  0.00000000000E+00  0.00000000000E+00  0.99999998245E-14  0.12500000000E+03  0.12500000000E+03 0.  0.
        -13    1    3    3    0    0  0.15579011680E+02 -0.33154357792E+02 -0.20455879368E+02  0.41956777883E+02  0.10566000000E+00 0. -1.
         23    2    1    0    0    0  0.48515982337E+01  0.15571503073E+02 -0.28176542095E+02  0.92443476263E+02  0.86520916926E+02 0.  0.
         13    1    3    3    0    0 -0.10727413447E+02  0.48725860866E+02 -0.77206627277E+01  0.50486698380E+02  0.10566000000E+00 0.  1.
         22    1    1    0    0    0 -0.48515982337E+01 -0.15571503073E+02  0.28176542095E+02  0.32556523737E+02  0.00000000000E+00 0.  1.
</event>
<event>
 5    1  0.1267644E-004  0.9118800E+02  0.7818608E-02  0.1130116E+00
         25   -1    0    0    0    0  0.00000000000E+00  0.00000000000E+00  0.99999998245E-14  0.12500000000E+03  0.12500000000E+03 0.  0.
        -13    1    3    3    0    0 -0.69628766081E+01 -0.17389037238E+02 -0.23833636536E+02  0.30313588723E+02  0.10566000000E+00 0.  1.
         23    2    1    0    0    0  0.17742849038E+02  0.22288794086E+02  0.16523437757E+02  0.92066384512E+02  0.85974392281E+02 0.  0.
         13    1    3    3    0    0  0.24705725647E+02  0.39677831324E+02  0.40357074293E+02  0.61752795789E+02  0.10566000000E+00 0. -1.
         22    1    1    0    0    0 -0.17742849038E+02 -0.22288794086E+02 -0.16523437757E+02  0.32933615488E+02  0.00000000000E+00 0. -1.
</event>
<event>
 5    1  0.1267644E-004  0.9118800E+02  0.7818608E-02  0.1130116E+00
         25   -1    0    0    0    0  0.00000000000E+00  0.00000000000E+00  0.99999998245E-14  0.12500000000E+03  0.12500000000E+03 0.  0.
        -13    1    3    3    0    0 -0.42075450063E+02  0.48615098378E+01  0.26910869319E+02  0.50181508820E+02  0.10566000000E+00 0.  1.
         23    2    1    0    0    0 -0.27209905906E+02  0.80904404155E+00 -0.14351283782E+02  0.94226750613E+02  0.89060022756E+02 0.  0.
         13    1    3    3    0    0  0.14865544157E+02 -0.40524657962E+01 -0.41262153101E+02  0.44045241793E+02  0.10566000000E+00 0. -1.
         22    1    1    0    0    0  0.27209905906E+02 -0.80904404155E+00  0.14351283782E+02  0.30773249387E+02  0.00000000000E+00 0. -1.
</event>
<event>
 5    1  0.1267644E-004  0.9118800E+02  0.7818608E-02  0.1130116E+00
         25   -1    0    0    0    0  0.00000000000E+00  0.00000000000E+00  0.99999998245E-14  0.12500000000E+03  0.12500000000E+03 0.  0.
        -13    1    3    3    0    0  0.21223922334E+02 -0.22240385271E+02  0.26300062267E+02  0.40457311521E+02  0.10566000000E+00 0.  1.
         23    2    1    0    0    0 -0.17530457427E+02  0.16790022941E+02  0.14544812889E+02  0.96702060323E+02  0.92468995241E+02 0.  0.
         13    1    3    3    0    0 -0.38754379761E+02  0.39030408212E+02 -0.11755249378E+02  0.56244748802E+02  0.10566000000E+00 0. -1.
         22    1    1    0    0    0  0.17530457427E+02 -0.16790022941E+02 -0.14544812889E+02  0.28297939677E+02  0.00000000000E+00 0. -1.
</event>
<event>
 5    1  0.1267644E-004  0.9118800E+02  0.7818608E-02  0.1130116E+00
         25   -1    0    0    0    0  0.00000000000E+00  0.00000000000E+00  0.99999998245E-14  0.12500000000E+03  0.12500000000E+03 0.  0.
        -13    1    3    3    0    0  0.46824909215E+02  0.41348730706E+01  0.78992271937E+01  0.47666321995E+02  0.10566000000E+00 0. -1.
         23    2    1    0    0    0  0.58686759061E+01 -0.16762586913E+02  0.22889989925E+02  0.96027990824E+02  0.91553250658E+02 0.  0.
         13    1    3    3    0    0 -0.40956233309E+02 -0.20897459984E+02  0.14990762731E+02  0.48361668829E+02  0.10566000000E+00 0.  1.
         22    1    1    0    0    0 -0.58686759061E+01  0.16762586913E+02 -0.22889989925E+02  0.28972009176E+02  0.00000000000E+00 0.  1.
</event>
<event>
 5    1  0.1267644E-004  0.9118800E+02  0.7818608E-02  0.1130116E+00
         25   -1    0    0    0    0  0.00000000000E+00  0.00000000000E+00  0.99999998245E-14  0.12500000000E+03  0.12500000000E+03 0.  0.
        -13    1    3    3    0    0 -0.71602119891E+01  0.15340903681E+02 -0.56885597977E+02  0.59351448026E+02  0.10566000000E+00 0.  1.
         23    2    1    0    0    0  0.45272245338E+01  0.17806036514E+02 -0.21391331783E+02  0.96801777117E+02  0.92603694739E+02 0.  0.
         13    1    3    3    0    0  0.11687436523E+02  0.24651328329E+01  0.35494266195E+02  0.37450329092E+02  0.10566000000E+00 0. -1.
         22    1    1    0    0    0 -0.45272245338E+01 -0.17806036514E+02  0.21391331783E+02  0.28198222883E+02  0.00000000000E+00 0.  1.
</event>
<event>
 5    1  0.1267644E-004  0.9118800E+02  0.7818608E-02  0.1130116E+00
         25   -1    0    0    0    0  0.00000000000E+00  0.00000000000E+00  0.99999998245E-14  0.12500000000E+03  0.12500000000E+03 0.  0.
        -13    1    3    3    0    0 -0.14799590184E+02 -0.47826720635E+01  0.33821138278E+02  0.37226098105E+02  0.10566000000E+00 0.  1.
         23    2    1    0    0    0  0.29482546189E+02  0.42523378775E+01 -0.23595872251E+01  0.95119060271E+02  0.90303737839E+02 0.  0.
         13    1    3    3    0    0  0.44282136373E+02  0.90350099410E+01 -0.36180725503E+02  0.57892962166E+02  0.10566000000E+00 0. -1.
         22    1    1    0    0    0 -0.29482546189E+02 -0.42523378775E+01  0.23595872251E+01  0.29880939729E+02  0.00000000000E+00 0. -1.
</event>
<event>
 5    1  0.1267644E-004  0.9118800E+02  0.7818608E-02  0.1130116E+00
         25   -1    0    0    0    0  0.00000000000E+00  0.00000000000E+00  0.99999998245E-14  0.12500000000E+03  0.12500000000E+03 0.  0.
        -13    1    3    3    0    0 -0.24257785133E+02  0.25418785856E+02  0.14273069805E+02  0.37924747852E+02  0.10566000000E+00 0.  1.
         23    2    1    0    0    0  0.28535924430E+02  0.37538467441E+01  0.33929018835E+01  0.96018934947E+02  0.91540885601E+02 0.  0.
         13    1    3    3    0    0  0.52793709563E+02 -0.21664939112E+02 -0.10880167922E+02  0.58094187094E+02  0.10566000000E+00 0. -1.
         22    1    1    0    0    0 -0.28535924430E+02 -0.37538467441E+01 -0.33929018835E+01  0.28981065053E+02  0.00000000000E+00 0. -1.
</event>
<event>
 5    1  0.1267644E-004  0.9118800E+02  0.7818608E-02  0.1130116E+00
         25   -1    0    0    0    0  0.00000000000E+00  0.00000000000E+00  0.99999998245E-14  0.12500000000E+03  0.12500000000E+03 0.  0.
        -13    1    3    3    0    0  0.29005274379E+02 -0.31838143160E+02  0.83797265423E+01  0.43877149892E+02  0.10566000000E+00 0. -1.
         23    2    1    0    0    0  0.17336750218E+02  0.13588597320E+02  0.23145451006E+02  0.93048086325E+02  0.87390054246E+02 0.  0.
         13    1    3    3    0    0 -0.11668524161E+02  0.45426740480E+02  0.14765724464E+02  0.49170936433E+02  0.10566000000E+00 0.  1.
         22    1    1    0    0    0 -0.17336750218E+02 -0.13588597320E+02 -0.23145451006E+02  0.31951913675E+02  0.00000000000E+00 0.  1.
</event>
<event>
 5    1  0.1267644E-004  0.9118800E+02  0.7818608E-02  0.1130116E+00
         25   -1    0    0    0    0  0.00000000000E+00  0.00000000000E+00  0.99999998245E-14  0.12500000000E+03  0.12500000000E+03 0.  0.
        -13    1    3    3    0    0  0.24695415803E+00 -0.21382913593E+02 -0.29204564495E+02  0.36196791729E+02  0.10566000000E+00 0.  1.
         23    2    1    0    0    0 -0.45538820864E+01  0.22127343668E+02  0.14581774471E+02  0.98111613538E+02  0.94355197972E+02 0.  0.
         13    1    3    3    0    0 -0.48008362445E+01  0.43510257260E+02  0.43786338966E+02  0.61914821809E+02  0.10566000000E+00 0. -1.
         22    1    1    0    0    0  0.45538820864E+01 -0.22127343668E+02 -0.14581774471E+02  0.26888386462E+02  0.00000000000E+00 0. -1.
</event>
<event>
 5    1  0.1267644E-004  0.9118800E+02  0.7818608E-02  0.1130116E+00
         25   -1    0    0    0    0  0.00000000000E+00  0.00000000000E+00  0.99999998245E-14  0.12500000000E+03  0.12500000000E+03 0.  0.
        -13    1    3    3    0    0  0.86753716975E+01 -0.55687614035E+02 -0.20518709873E+02  0.59978338172E+02  0.10566000000E+00 0. -1.
         23    2    1    0    0    0 -0.82087181799E+01 -0.28222257613E+02 -0.82702138639E+01  0.94466816146E+02  0.89396331225E+02 0.  0.
         13    1    3    3    0    0 -0.16884089877E+02  0.27465356423E+02  0.12248496009E+02  0.34488477974E+02  0.10566000000E+00 0.  1.
         22    1    1    0    0    0  0.82087181799E+01  0.28222257613E+02  0.82702138639E+01  0.30533183854E+02  0.00000000000E+00 0. -1.
</event>
<event>
 5    1  0.1267644E-004  0.9118800E+02  0.7818608E-02  0.1130116E+00
         25   -1    0    0    0    0  0.00000000000E+00  0.00000000000E+00  0.99999998245E-14  0.12500000000E+03  0.12500000000E+03 0.  0.
        -13    1    3    3    0    0  0.31021368121E+02 -0.96294274431E+01  0.10677286471E+02  0.34191618321E+02  0.10566000000E+00 0. -1.
         23    2    1    0    0    0 -0.20054349065E+02  0.21630765151E+02  0.92332812177E+01  0.94091742213E+02  0.88870329993E+02 0.  0.
         13    1    3    3    0    0 -0.51075717186E+02  0.31260192594E+02 -0.14440052529E+01  0.59900123892E+02  0.10566000000E+00 0.  1.
         22    1    1    0    0    0  0.20054349065E+02 -0.21630765151E+02 -0.92332812177E+01  0.30908257787E+02  0.00000000000E+00 0.  1.
</event>
<event>
 5    1  0.1267644E-004  0.9118800E+02  0.7818608E-02  0.1130116E+00
         25   -1    0    0    0    0  0.00000000000E+00  0.00000000000E+00  0.99999998245E-14  0.12500000000E+03  0.12500000000E+03 0.  0.
        -13    1    3    3    0    0 -0.30024696412E+01  0.28598446425E+02 -0.28211242355E+02  0.40283635897E+02  0.10566000000E+00 0. -1.
         23    2    1    0    0    0  0.13248265156E+02 -0.22329266007E+02 -0.13538969590E+02  0.95718327445E+02  0.91129478553E+02 0.  0.
         13    1    3    3    0    0  0.16250734797E+02 -0.50927712431E+02  0.14672272765E+02  0.55434691548E+02  0.10566000000E+00 0.  1.
         22    1    1    0    0    0 -0.13248265156E+02  0.22329266007E+02  0.13538969590E+02  0.29281672555E+02  0.00000000000E+00 0.  1.
</event>
<event>
 5    1  0.1267644E-004  0.9118800E+02  0.7818608E-02  0.1130116E+00
         25   -1    0    0    0    0  0.00000000000E+00  0.00000000000E+00  0.99999998245E-14  0.12500000000E+03  0.12500000000E+03 0.  0.
        -13    1    3    3    0    0  0.53238386347E+02 -0.16735142443E+02 -0.16555977321E+02  0.58210843685E+02  0.10566000000E+00 0. -1.
         23    2    1    0    0    0  0.37110843943E+02  0.10487076462E+01  0.85010587696E+00  0.87864609792E+02  0.79631353424E+02 0.  0.
         13    1    3    3    0    0 -0.16127542405E+02  0.17783850089E+02  0.17406083198E+02  0.29653766107E+02  0.10566000000E+00 0.  1.
         22    1    1    0    0    0 -0.37110843943E+02 -0.10487076462E+01 -0.85010587696E+00  0.37135390208E+02  0.00000000000E+00 0. -1.
</event>
<event>
 5    1  0.1267644E-004  0.9118800E+02  0.7818608E-02  0.1130116E+00
         25   -1    0    0    0    0  0.00000000000E+00  0.00000000000E+00  0.99999998245E-14  0.12500000000E+03  0.12500000000E+03 0.  0.
        -13    1    3    3    0    0  0.18564786235E+02  0.27099413862E+02  0.12055430049E+02  0.34991057105E+02  0.10566000000E+00 0. -1.
         23    2    1    0    0    0 -0.18840988219E+02 -0.58999083581E+01 -0.22038874959E+02  0.95411087124E+02  0.90707065772E+02 0.  0.
         13    1    3    3    0    0 -0.37405774454E+02 -0.32999322221E+02 -0.34094305008E+02  0.60420030019E+02  0.10566000000E+00 0.  1.
         22    1    1    0    0    0  0.18840988219E+02  0.58999083581E+01  0.22038874959E+02  0.29588912876E+02  0.00000000000E+00 0.  1.
</event>
<event>
 5    1  0.1267644E-004  0.9118800E+02  0.7818608E-02  0.1130116E+00
         25   -1    0    0    0    0  0.00000000000E+00  0.00000000000E+00  0.99999998245E-14  0.12500000000E+03  0.12500000000E+03 0.  0.
        -13    1    3    3    0    0 -0.21462293862E+02  0.16264178896E+02 -0.48690265502E+02  0.55640872492E+02  0.10566000000E+00 0. -1.
         23    2    1    0    0    0 -0.11772937846E+02 -0.13230659131E+02 -0.23214749388E+02  0.95801078860E+02  0.91242915972E+02 0.  0.
         13    1    3    3    0    0  0.96893560154E+01 -0.29494838027E+02  0.25475516114E+02  0.40160206368E+02  0.10566000000E+00 0.  1.
         22    1    1    0    0    0  0.11772937846E+02  0.13230659131E+02  0.23214749388E+02  0.29198921140E+02  0.00000000000E+00 0. -1.
</event>
<event>
 5    1  0.1267644E-004  0.9118800E+02  0.7818608E-02  0.1130116E+00
         25   -1    0    0    0    0  0.00000000000E+00  0.00000000000E+00  0.99999998245E-14  0.12500000000E+03  0.12500000000E+03 0.  0.
        -13    1    3    3    0    0 -0.31090945351E+02  0.26651814519E+02  0.45798603083E+02  0.61436872547E+02  0.10566000000E+00 0. -1.
         23    2    1    0    0    0 -0.19665081686E+02  0.83883036732E+01  0.15591724308E+02  0.98539067606E+02  0.94919791938E+02 0.  0.
         13    1    3    3    0    0  0.11425863665E+02 -0.18263510846E+02 -0.30206878774E+02  0.37102195060E+02  0.10566000000E+00 0.  1.
         22    1    1    0    0    0  0.19665081686E+02 -0.83883036732E+01 -0.15591724308E+02  0.26460932394E+02  0.00000000000E+00 0. -1.
</event>
<event>
 5    1  0.1267644E-004  0.9118800E+02  0.7818608E-02  0.1130116E+00
         25   -1    0    0    0    0  0.00000000000E+00  0.00000000000E+00  0.99999998245E-14  0.12500000000E+03  0.12500000000E+03 0.  0.
        -13    1    3    3    0    0  0.11476246855E+02 -0.12176512340E+02 -0.49491458738E+02  0.52243538804E+02  0.10566000000E+00 0.  1.
         23    2    1    0    0    0  0.27423888241E+02 -0.25304106839E+01 -0.10380950257E+02  0.95568099743E+02  0.90923181509E+02 0.  0.
         13    1    3    3    0    0  0.15947641386E+02  0.96461016558E+01  0.39110508481E+02  0.43324560940E+02  0.10566000000E+00 0. -1.
         22    1    1    0    0    0 -0.27423888241E+02  0.25304106839E+01  0.10380950257E+02  0.29431900257E+02  0.00000000000E+00 0.  1.
</event>
<event>
 5    1  0.1267644E-004  0.9118800E+02  0.7818608E-02  0.1130116E+00
         25   -1    0    0    0    0  0.00000000000E+00  0.00000000000E+00  0.99999998245E-14  0.12500000000E+03  0.12500000000E+03 0.  0.
        -13    1    3    3    0    0 -0.13642018593E+02 -0.25835334878E+02 -0.25877023186E+02  0.39028203809E+02  0.10566000000E+00 0. -1.
         23    2    1    0    0    0 -0.33723261634E+01 -0.14699768832E+02  0.27022356332E+02  0.94053860836E+02  0.88817032200E+02 0.  0.
         13    1    3    3    0    0  0.10269692430E+02  0.11135566046E+02  0.52899379518E+02  0.55025657026E+02  0.10566000000E+00 0.  1.
         22    1    1    0    0    0  0.33723261634E+01  0.14699768832E+02 -0.27022356332E+02  0.30946139164E+02  0.00000000000E+00 0.  1.
</event>
<event>
 5    1  0.1267644E-004  0.9118800E+02  0.7818608E-02  0.1130116E+00
         25   -1    0    0    0    0  0.00000000000E+00  0.00000000000E+00  0.99999998245E-14  0.12500000000E+03  0.12500000000E+03 0.  0.
        -13    1    3    3    0    0 -0.50583163329E+02 -0.74008378435E+01 -0.57306413012E+01  0.51442008387E+02  0.10566000000E+00 0. -1.
         23    2    1    0    0    0 -0.85489927121E+01 -0.75358137788E+01 -0.24880963223E+02  0.97633303148E+02  0.93719399203E+02 0.  0.
         13    1    3    3    0    0  0.42034170617E+02 -0.13497593536E+00 -0.19150321921E+02  0.46191294761E+02  0.10566000000E+00 0.  1.
         22    1    1    0    0    0  0.85489927121E+01  0.75358137788E+01  0.24880963223E+02  0.27366696852E+02  0.00000000000E+00 0. -1.
</event>
<event>
 5    1  0.1267644E-004  0.9118800E+02  0.7818608E-02  0.1130116E+00
         25   -1    0    0    0    0  0.00000000000E+00  0.00000000000E+00  0.99999998245E-14  0.12500000000E+03  0.12500000000E+03 0.  0.
        -13    1    3    3    0    0 -0.33734778989E+02 -0.32460195643E+02 -0.25130712313E+02  0.53134390747E+02  0.10566000000E+00 0. -1.
         23    2    1    0    0    0  0.57795440107E+01 -0.26764679150E+02 -0.92832940154E+01  0.96087533368E+02  0.91634509559E+02 0.  0.
         13    1    3    3    0    0  0.39514323000E+02  0.56955164938E+01  0.15847418298E+02  0.42953142621E+02  0.10566000000E+00 0.  1.
         22    1    1    0    0    0 -0.57795440107E+01  0.26764679150E+02  0.92832940154E+01  0.28912466632E+02  0.00000000000E+00 0.  1.
</event>
<event>
 5    1  0.1267644E-004  0.9118800E+02  0.7818608E-02  0.1130116E+00
         25   -1    0    0    0    0  0.00000000000E+00  0.00000000000E+00  0.99999998245E-14  0.12500000000E+03  0.12500000000E+03 0.  0.
        -13    1    3    3    0    0 -0.23121830719E+01  0.27815236078E+02 -0.55819948659E+02  0.62409225127E+02  0.10566000000E+00 0. -1.
         23    2    1    0    0    0 -0.32242224934E+01  0.12867933527E+02 -0.23975272007E+02  0.97599397967E+02  0.93674166619E+02 0.  0.
         13    1    3    3    0    0 -0.91203942152E+00 -0.14947302551E+02  0.31844676652E+02  0.35190172840E+02  0.10566000000E+00 0.  1.
         22    1    1    0    0    0  0.32242224934E+01 -0.12867933527E+02  0.23975272007E+02  0.27400602033E+02  0.00000000000E+00 0. -1.
</event>
<event>
 5    1  0.1267644E-004  0.9118800E+02  0.7818608E-02  0.1130116E+00
         25   -1    0    0    0    0  0.00000000000E+00  0.00000000000E+00  0.99999998245E-14  0.12500000000E+03  0.12500000000E+03 0.  0.
        -13    1    3    3    0    0 -0.29806531028E+02  0.23276751064E+02 -0.29140926044E+02  0.47743493449E+02  0.10566000000E+00 0.  1.
         23    2    1    0    0    0 -0.41197267525E+02  0.82365418535E+01  0.62218691241E+00  0.82982829822E+02  0.71559118604E+02 0.  0.
         13    1    3    3    0    0 -0.11390736497E+02 -0.15040209210E+02  0.29763112957E+02  0.35239336372E+02  0.10566000000E+00 0. -1.
         22    1    1    0    0    0  0.41197267525E+02 -0.82365418535E+01 -0.62218691241E+00  0.42017170178E+02  0.00000000000E+00 0.  1.
</event>
<event>
 5    1  0.1267644E-004  0.9118800E+02  0.7818608E-02  0.1130116E+00
         25   -1    0    0    0    0  0.00000000000E+00  0.00000000000E+00  0.99999998245E-14  0.12500000000E+03  0.12500000000E+03 0.  0.
        -13    1    3    3    0    0 -0.56488212207E+02  0.12441638580E+02  0.10776624771E+02  0.58837567033E+02  0.10566000000E+00 0. -1.
         23    2    1    0    0    0 -0.20747997071E+02  0.37757217953E+01  0.19104269907E+02  0.96544621138E+02  0.92255922761E+02 0.  0.
         13    1    3    3    0    0  0.35740215136E+02 -0.86659167848E+01  0.83276451357E+01  0.37707054105E+02  0.10566000000E+00 0.  1.
         22    1    1    0    0    0  0.20747997071E+02 -0.37757217953E+01 -0.19104269907E+02  0.28455378862E+02  0.00000000000E+00 0. -1.
</event>
<event>
 5    1  0.1267644E-004  0.9118800E+02  0.7818608E-02  0.1130116E+00
         25   -1    0    0    0    0  0.00000000000E+00  0.00000000000E+00  0.99999998245E-14  0.12500000000E+03  0.12500000000E+03 0.  0.
        -13    1    3    3    0    0 -0.67774305212E+01 -0.29532186747E+02  0.35931799682E+02  0.47002010712E+02  0.10566000000E+00 0.  1.
         23    2    1    0    0    0  0.24398255155E+02 -0.21614007465E+02  0.42872701782E+01  0.92124159952E+02  0.86058352227E+02 0.  0.
         13    1    3    3    0    0  0.31175685676E+02  0.79181792827E+01 -0.31644529503E+02  0.45122149240E+02  0.10566000000E+00 0. -1.
         22    1    1    0    0    0 -0.24398255155E+02  0.21614007465E+02 -0.42872701782E+01  0.32875840048E+02  0.00000000000E+00 0.  1.
</event>
<event>
 5    1  0.1267644E-004  0.9118800E+02  0.7818608E-02  0.1130116E+00
         25   -1    0    0    0    0  0.00000000000E+00  0.00000000000E+00  0.99999998245E-14  0.12500000000E+03  0.12500000000E+03 0.  0.
        -13    1    3    3    0    0  0.77245391181E+01  0.31075569641E+02  0.14944253281E+02  0.35336969356E+02  0.10566000000E+00 0.  1.
         23    2    1    0    0    0  0.77395750223E+01 -0.27701602375E+02 -0.93807035763E+00  0.96222234769E+02  0.91818073887E+02 0.  0.
         13    1    3    3    0    0  0.15035904278E-01 -0.58777172016E+02 -0.15882323639E+02  0.60885265413E+02  0.10566000000E+00 0. -1.
         22    1    1    0    0    0 -0.77395750223E+01  0.27701602375E+02  0.93807035763E+00  0.28777765231E+02  0.00000000000E+00 0. -1.
</event>
<event>
 5    1  0.1267644E-004  0.9118800E+02  0.7818608E-02  0.1130116E+00
         25   -1    0    0    0    0  0.00000000000E+00  0.00000000000E+00  0.99999998245E-14  0.12500000000E+03  0.12500000000E+03 0.  0.
        -13    1    3    3    0    0 -0.19674166560E+02  0.26797674315E+02  0.79333298779E+01  0.34178020211E+02  0.10566000000E+00 0. -1.
         23    2    1    0    0    0  0.18685541833E+02 -0.21615070806E+02  0.20736138643E+00  0.96427219976E+02  0.92096715435E+02 0.  0.
         13    1    3    3    0    0  0.38359708393E+02 -0.48412745121E+02 -0.77259684915E+01  0.62249199765E+02  0.10566000000E+00 0.  1.
         22    1    1    0    0    0 -0.18685541833E+02  0.21615070806E+02 -0.20736138643E+00  0.28572780024E+02  0.00000000000E+00 0.  1.
</event>
<event>
 5    1  0.1267644E-004  0.9118800E+02  0.7818608E-02  0.1130116E+00
         25   -1    0    0    0    0  0.00000000000E+00  0.00000000000E+00  0.99999998245E-14  0.12500000000E+03  0.12500000000E+03 0.  0.
        -13    1    3    3    0    0  0.51391664502E+02  0.10746332790E+02 -0.33474047390E+02  0.62266442498E+02  0.10566000000E+00 0. -1.
         23    2    1    0    0    0  0.24150955102E+02  0.71162234024E+01 -0.12188378797E+02  0.97027409031E+02  0.92907762096E+02 0.  0.
         13    1    3    3    0    0 -0.27240709400E+02 -0.36301093881E+01  0.21285668593E+02  0.34760966532E+02  0.10566000000E+00 0.  1.
         22    1    1    0    0    0 -0.24150955102E+02 -0.71162234024E+01  0.12188378797E+02  0.27972590969E+02  0.00000000000E+00 0. -1.
</event>
<event>
 5    1  0.1267644E-004  0.9118800E+02  0.7818608E-02  0.1130116E+00
         25   -1    0    0    0    0  0.00000000000E+00  0.00000000000E+00  0.99999998245E-14  0.12500000000E+03  0.12500000000E+03 0.  0.
        -13    1    3    3    0    0  0.33738725678E+01  0.37824955168E+02 -0.53077849268E+01  0.38344412819E+02  0.10566000000E+00 0. -1.
         23    2    1    0    0    0  0.21894819319E+02 -0.17304113995E+02 -0.57657810365E+01  0.96503338702E+02  0.92199971125E+02 0.  0.
         13    1    3    3    0    0  0.18520946752E+02 -0.55129069163E+02 -0.45799610972E+00  0.58158925883E+02  0.10566000000E+00 0.  1.
         22    1    1    0    0    0 -0.21894819319E+02  0.17304113995E+02  0.57657810365E+01  0.28496661298E+02  0.00000000000E+00 0.  1.
</event>
<event>
 5    1  0.1267644E-004  0.9118800E+02  0.7818608E-02  0.1130116E+00
         25   -1    0    0    0    0  0.00000000000E+00  0.00000000000E+00  0.99999998245E-14  0.12500000000E+03  0.12500000000E+03 0.  0.
        -13    1    3    3    0    0  0.13435427650E+02  0.19087631255E+02 -0.32383292758E+02  0.39919133219E+02  0.10566000000E+00 0.  1.
         23    2    1    0    0    0 -0.27161055824E+02  0.83613596192E+01  0.50069130298E+01  0.96143380894E+02  0.91710660359E+02 0.  0.
         13    1    3    3    0    0 -0.40596483474E+02 -0.10726271636E+02  0.37390205788E+02  0.56224247674E+02  0.10566000000E+00 0. -1.
         22    1    1    0    0    0  0.27161055824E+02 -0.83613596192E+01 -0.50069130298E+01  0.28856619106E+02  0.00000000000E+00 0. -1.
</event>
<event>
 5    1  0.1267644E-004  0.9118800E+02  0.7818608E-02  0.1130116E+00
         25   -1    0    0    0    0  0.00000000000E+00  0.00000000000E+00  0.99999998245E-14  0.12500000000E+03  0.12500000000E+03 0.  0.
        -13    1    3    3    0    0  0.29634812550E-01  0.17315478688E+02  0.30615090651E+02  0.35172739728E+02  0.10566000000E+00 0.  1.
         23    2    1    0    0    0 -0.12547486951E+02 -0.14720336926E+02 -0.20513355274E+02  0.96805576923E+02  0.92608823720E+02 0.  0.
         13    1    3    3    0    0 -0.12577121764E+02 -0.32035815614E+02 -0.51128445925E+02  0.61632837195E+02  0.10566000000E+00 0. -1.
         22    1    1    0    0    0  0.12547486951E+02  0.14720336926E+02  0.20513355274E+02  0.28194423077E+02  0.00000000000E+00 0. -1.
</event>
<event>
 5    1  0.1267644E-004  0.9118800E+02  0.7818608E-02  0.1130116E+00
         25   -1    0    0    0    0  0.00000000000E+00  0.00000000000E+00  0.99999998245E-14  0.12500000000E+03  0.12500000000E+03 0.  0.
        -13    1    3    3    0    0 -0.48062929940E+02  0.86250341447E+01 -0.34222459489E+02  0.59629056222E+02  0.10566000000E+00 0. -1.
         23    2    1    0    0    0 -0.15625051456E+02  0.14840138510E+02 -0.20037060763E+02  0.95574573104E+02  0.90932080566E+02 0.  0.
         13    1    3    3    0    0  0.32437878484E+02  0.62151043653E+01  0.14185398726E+02  0.35945516882E+02  0.10566000000E+00 0.  1.
         22    1    1    0    0    0  0.15625051456E+02 -0.14840138510E+02  0.20037060763E+02  0.29425426896E+02  0.00000000000E+00 0. -1.
</event>
<event>
 5    1  0.1267644E-004  0.9118800E+02  0.7818608E-02  0.1130116E+00
         25   -1    0    0    0    0  0.00000000000E+00  0.00000000000E+00  0.99999998245E-14  0.12500000000E+03  0.12500000000E+03 0.  0.
        -13    1    3    3    0    0 -0.12868291874E+02  0.32652369589E+02  0.25621880260E+02  0.43454137750E+02  0.10566000000E+00 0.  1.
         23    2    1    0    0    0  0.73570213354E+01 -0.14986850188E+02  0.24662528603E+02  0.95217928907E+02  0.90440489974E+02 0.  0.
         13    1    3    3    0    0  0.20225313210E+02 -0.47639219776E+02 -0.95935165681E+00  0.51763791157E+02  0.10566000000E+00 0. -1.
         22    1    1    0    0    0 -0.73570213354E+01  0.14986850188E+02 -0.24662528603E+02  0.29782071093E+02  0.00000000000E+00 0.  1.
</event>
<event>
 5    1  0.1267644E-004  0.9118800E+02  0.7818608E-02  0.1130116E+00
         25   -1    0    0    0    0  0.00000000000E+00  0.00000000000E+00  0.99999998245E-14  0.12500000000E+03  0.12500000000E+03 0.  0.
        -13    1    3    3    0    0 -0.26704897454E+02  0.20907210443E+02  0.16301626973E+02  0.37630004020E+02  0.10566000000E+00 0.  1.
         23    2    1    0    0    0  0.19696797193E+02 -0.12780331001E+02  0.18643428225E+02  0.95018704229E+02  0.90164716254E+02 0.  0.
         13    1    3    3    0    0  0.46401694646E+02 -0.33687541443E+02  0.23418012513E+01  0.57388700209E+02  0.10566000000E+00 0. -1.
         22    1    1    0    0    0 -0.19696797193E+02  0.12780331001E+02 -0.18643428225E+02  0.29981295771E+02  0.00000000000E+00 0. -1.
</event>
<event>
 5    1  0.1267644E-004  0.9118800E+02  0.7818608E-02  0.1130116E+00
         25   -1    0    0    0    0  0.00000000000E+00  0.00000000000E+00  0.99999998245E-14  0.12500000000E+03  0.12500000000E+03 0.  0.
        -13    1    3    3    0    0  0.20959300813E+02  0.36002391665E+01  0.26993762882E+02  0.34364638965E+02  0.10566000000E+00 0.  1.
         23    2    1    0    0    0 -0.11692696046E+02 -0.21572670917E+02 -0.17376067507E+02  0.94932958354E+02  0.90045763857E+02 0.  0.
         13    1    3    3    0    0 -0.32651996859E+02 -0.25172910083E+02 -0.44369830389E+02  0.60568319390E+02  0.10566000000E+00 0. -1.
         22    1    1    0    0    0  0.11692696046E+02  0.21572670917E+02  0.17376067507E+02  0.30067041646E+02  0.00000000000E+00 0. -1.
</event>
<event>
 5    1  0.1267644E-004  0.9118800E+02  0.7818608E-02  0.1130116E+00
         25   -1    0    0    0    0  0.00000000000E+00  0.00000000000E+00  0.99999998245E-14  0.12500000000E+03  0.12500000000E+03 0.  0.
        -13    1    3    3    0    0 -0.12649372315E+02  0.35210703331E+02 -0.27050967191E+02  0.46168888215E+02  0.10566000000E+00 0. -1.
         23    2    1    0    0    0 -0.29510330066E+02 -0.48594216865E+01 -0.58937690082E+01  0.94517052753E+02  0.89466547872E+02 0.  0.
         13    1    3    3    0    0 -0.16860957751E+02 -0.40070125017E+02  0.21157198183E+02  0.48348164538E+02  0.10566000000E+00 0.  1.
         22    1    1    0    0    0  0.29510330066E+02  0.48594216865E+01  0.58937690082E+01  0.30482947247E+02  0.00000000000E+00 0.  1.
</event>
<event>
 5    1  0.1267644E-004  0.9118800E+02  0.7818608E-02  0.1130116E+00
         25   -1    0    0    0    0  0.00000000000E+00  0.00000000000E+00  0.99999998245E-14  0.12500000000E+03  0.12500000000E+03 0.  0.
        -13    1    3    3    0    0  0.21368688200E+02 -0.68900219632E+01 -0.15559150650E+02  0.27316507299E+02  0.10566000000E+00 0.  1.
         23    2    1    0    0    0 -0.18371377380E+02 -0.22454259278E+02  0.25377624018E+02  0.86454895676E+02  0.77386845903E+02 0.  0.
         13    1    3    3    0    0 -0.39740065580E+02 -0.15564237315E+02  0.40936774668E+02  0.59138388376E+02  0.10566000000E+00 0. -1.
         22    1    1    0    0    0  0.18371377380E+02  0.22454259278E+02 -0.25377624018E+02  0.38545104324E+02  0.00000000000E+00 0. -1.
</event>
<event>
 5    1  0.1267644E-004  0.9118800E+02  0.7818608E-02  0.1130116E+00
         25   -1    0    0    0    0  0.00000000000E+00  0.00000000000E+00  0.99999998245E-14  0.12500000000E+03  0.12500000000E+03 0.  0.
        -13    1    3    3    0    0 -0.13228985262E+02  0.33523316861E+02  0.27214497307E+01  0.36141890890E+02  0.10566000000E+00 0.  1.
         23    2    1    0    0    0  0.40191459475E+01 -0.21040135244E+02 -0.18018131589E+02  0.97009039116E+02  0.92883043550E+02 0.  0.
         13    1    3    3    0    0  0.17248131209E+02 -0.54563452105E+02 -0.20739581320E+02  0.60867148226E+02  0.10566000000E+00 0. -1.
         22    1    1    0    0    0 -0.40191459475E+01  0.21040135244E+02  0.18018131589E+02  0.27990960884E+02  0.00000000000E+00 0. -1.
</event>
<event>
 5    1  0.1267644E-004  0.9118800E+02  0.7818608E-02  0.1130116E+00
         25   -1    0    0    0    0  0.00000000000E+00  0.00000000000E+00  0.99999998245E-14  0.12500000000E+03  0.12500000000E+03 0.  0.
        -13    1    3    3    0    0  0.19894258582E+02  0.42033475531E+02 -0.27812089389E+02  0.54185958236E+02  0.10566000000E+00 0.  1.
         23    2    1    0    0    0 -0.18687402219E+01  0.31166072433E+02  0.32158650037E+01  0.93612772524E+02  0.88194065168E+02 0.  0.
         13    1    3    3    0    0 -0.21762998804E+02 -0.10867403098E+02  0.31027954393E+02  0.39426814287E+02  0.10566000000E+00 0. -1.
         22    1    1    0    0    0  0.18687402219E+01 -0.31166072433E+02 -0.32158650037E+01  0.31387227476E+02  0.00000000000E+00 0.  1.
</event>
<event>
 5    1  0.1267644E-004  0.9118800E+02  0.7818608E-02  0.1130116E+00
         25   -1    0    0    0    0  0.00000000000E+00  0.00000000000E+00  0.99999998245E-14  0.12500000000E+03  0.12500000000E+03 0.  0.
        -13    1    3    3    0    0  0.37793038455E+02  0.58609223519E+01 -0.24134497428E+02  0.45223326908E+02  0.10566000000E+00 0.  1.
         23    2    1    0    0    0 -0.13972012020E+02  0.10147995539E+02 -0.21760844847E+02  0.97219911775E+02  0.93166399220E+02 0.  0.
         13    1    3    3    0    0 -0.51765050475E+02  0.42870731871E+01  0.23736525813E+01  0.51996584867E+02  0.10566000000E+00 0. -1.
         22    1    1    0    0    0  0.13972012020E+02 -0.10147995539E+02  0.21760844847E+02  0.27780088225E+02  0.00000000000E+00 0. -1.
</event>
<event>
 5    1  0.1267644E-004  0.9118800E+02  0.7818608E-02  0.1130116E+00
         25   -1    0    0    0    0  0.00000000000E+00  0.00000000000E+00  0.99999998245E-14  0.12500000000E+03  0.12500000000E+03 0.  0.
        -13    1    3    3    0    0  0.24286433901E+02 -0.25309818897E+02 -0.47005822361E+00  0.35080620334E+02  0.10566000000E+00 0.  1.
         23    2    1    0    0    0 -0.67380034941E+01  0.25996896752E+02 -0.11041334017E+02  0.95962948003E+02  0.91464402915E+02 0.  0.
         13    1    3    3    0    0 -0.31024437395E+02  0.51306715650E+02 -0.10571275793E+02  0.60882327669E+02  0.10566000000E+00 0. -1.
         22    1    1    0    0    0  0.67380034941E+01 -0.25996896752E+02  0.11041334017E+02  0.29037051997E+02  0.00000000000E+00 0. -1.
</event>
<event>
 5    1  0.1267644E-004  0.9118800E+02  0.7818608E-02  0.1130116E+00
         25   -1    0    0    0    0  0.00000000000E+00  0.00000000000E+00  0.99999998245E-14  0.12500000000E+03  0.12500000000E+03 0.  0.
        -13    1    3    3    0    0  0.31056099744E+02  0.30190710107E+00  0.59131906459E+01  0.31615652244E+02  0.10566000000E+00 0.  1.
         23    2    1    0    0    0 -0.24063298893E+02  0.15958648485E+02 -0.14811536108E+02  0.92548460484E+02  0.86672458837E+02 0.  0.
         13    1    3    3    0    0 -0.55119398637E+02  0.15656741384E+02 -0.20724726754E+02  0.60932808239E+02  0.10566000000E+00 0. -1.
         22    1    1    0    0    0  0.24063298893E+02 -0.15958648485E+02  0.14811536108E+02  0.32451539516E+02  0.00000000000E+00 0. -1.
</event>
<event>
 5    1  0.1267644E-004  0.9118800E+02  0.7818608E-02  0.1130116E+00
         25   -1    0    0    0    0  0.00000000000E+00  0.00000000000E+00  0.99999998245E-14  0.12500000000E+03  0.12500000000E+03 0.  0.
        -13    1    3    3    0    0 -0.33926597706E+02  0.41432871564E+02  0.21455393097E+02  0.57689183865E+02  0.10566000000E+00 0.  1.
         23    2    1    0    0    0 -0.47912271164E+01  0.18479205177E+02  0.23363048967E+02  0.94829336462E+02  0.89901802627E+02 0.  0.
         13    1    3    3    0    0  0.29135370590E+02 -0.22953666387E+02  0.19076558707E+01  0.37140152598E+02  0.10566000000E+00 0. -1.
         22    1    1    0    0    0  0.47912271164E+01 -0.18479205177E+02 -0.23363048967E+02  0.30170663538E+02  0.00000000000E+00 0.  1.
</event>
<event>
 5    1  0.1267644E-004  0.9118800E+02  0.7818608E-02  0.1130116E+00
         25   -1    0    0    0    0  0.00000000000E+00  0.00000000000E+00  0.99999998245E-14  0.12500000000E+03  0.12500000000E+03 0.  0.
        -13    1    3    3    0    0 -0.27639471740E+02  0.26523667340E+02  0.31111196039E+02  0.49349397264E+02  0.10566000000E+00 0.  1.
         23    2    1    0    0    0  0.13753928909E+02  0.62200373669E+01  0.24915238811E+02  0.95868770189E+02  0.91335603941E+02 0.  0.
         13    1    3    3    0    0  0.41393400649E+02 -0.20303629973E+02 -0.61959572281E+01  0.46519372925E+02  0.10566000000E+00 0. -1.
         22    1    1    0    0    0 -0.13753928909E+02 -0.62200373669E+01 -0.24915238811E+02  0.29131229811E+02  0.00000000000E+00 0.  1.
</event>
<event>
 5    1  0.1267644E-004  0.9118800E+02  0.7818608E-02  0.1130116E+00
         25   -1    0    0    0    0  0.00000000000E+00  0.00000000000E+00  0.99999998245E-14  0.12500000000E+03  0.12500000000E+03 0.  0.
        -13    1    3    3    0    0 -0.46283340492E+02 -0.14436618948E+02 -0.38576457243E+02  0.61957386898E+02  0.10566000000E+00 0.  1.
         23    2    1    0    0    0 -0.18787940656E+02 -0.11313025007E+02 -0.20263457721E+02  0.95140680388E+02  0.90333659823E+02 0.  0.
         13    1    3    3    0    0  0.27495399836E+02  0.31235939410E+01  0.18312999523E+02  0.33183293490E+02  0.10566000000E+00 0. -1.
         22    1    1    0    0    0  0.18787940656E+02  0.11313025007E+02  0.20263457721E+02  0.29859319612E+02  0.00000000000E+00 0.  1.
</event>
<event>
 5    1  0.1267644E-004  0.9118800E+02  0.7818608E-02  0.1130116E+00
         25   -1    0    0    0    0  0.00000000000E+00  0.00000000000E+00  0.99999998245E-14  0.12500000000E+03  0.12500000000E+03 0.  0.
        -13    1    3    3    0    0 -0.32193618511E+02  0.63998464650E+01  0.27172680031E+02  0.42611651127E+02  0.10566000000E+00 0.  1.
         23    2    1    0    0    0  0.10534173970E+02 -0.12961891011E+02 -0.12571768170E+02  0.10409476633E+03  0.10197397503E+03 0.  0.
         13    1    3    3    0    0  0.42727792481E+02 -0.19361737476E+02 -0.39744448202E+02  0.61483115205E+02  0.10566000000E+00 0. -1.
         22    1    1    0    0    0 -0.10534173970E+02  0.12961891011E+02  0.12571768170E+02  0.20905233669E+02  0.00000000000E+00 0.  1.
</event>
<event>
 5    1  0.1267644E-004  0.9118800E+02  0.7818608E-02  0.1130116E+00
         25   -1    0    0    0    0  0.00000000000E+00  0.00000000000E+00  0.99999998245E-14  0.12500000000E+03  0.12500000000E+03 0.  0.
        -13    1    3    3    0    0  0.38046723837E+02  0.11984253427E+01  0.12123118172E+02  0.39949600452E+02  0.10566000000E+00 0. -1.
         23    2    1    0    0    0 -0.42933638011E+01 -0.21599733368E+02 -0.17882982528E+02  0.96631310950E+02  0.92373306413E+02 0.  0.
         13    1    3    3    0    0 -0.42340087638E+02 -0.22798158711E+02 -0.30006100700E+02  0.56681710499E+02  0.10566000000E+00 0.  1.
         22    1    1    0    0    0  0.42933638011E+01  0.21599733368E+02  0.17882982528E+02  0.28368689050E+02  0.00000000000E+00 0.  1.
</event>
<event>
 5    1  0.1267644E-004  0.9118800E+02  0.7818608E-02  0.1130116E+00
         25   -1    0    0    0    0  0.00000000000E+00  0.00000000000E+00  0.99999998245E-14  0.12500000000E+03  0.12500000000E+03 0.  0.
        -13    1    3    3    0    0  0.43370138977E+02  0.68929182647E+01  0.19255228188E+02  0.47950560515E+02  0.10566000000E+00 0. -1.
         23    2    1    0    0    0 -0.35549609196E+01  0.22834342474E+02  0.14456206469E+02  0.97741481169E+02  0.93863572766E+02 0.  0.
         13    1    3    3    0    0 -0.46925099896E+02  0.15941424209E+02 -0.47990217193E+01  0.49790920654E+02  0.10566000000E+00 0.  1.
         22    1    1    0    0    0  0.35549609196E+01 -0.22834342474E+02 -0.14456206469E+02  0.27258518831E+02  0.00000000000E+00 0. -1.
</event>
<event>
 5    1  0.1267644E-004  0.9118800E+02  0.7818608E-02  0.1130116E+00
         25   -1    0    0    0    0  0.00000000000E+00  0.00000000000E+00  0.99999998245E-14  0.12500000000E+03  0.12500000000E+03 0.  0.
        -13    1    3    3    0    0  0.23134275994E+02 -0.31417514423E+02  0.84725977867E+01  0.39925568444E+02  0.10566000000E+00 0. -1.
         23    2    1    0    0    0  0.13803627117E+02  0.23010848230E+02 -0.69880577358E+01  0.97271454983E+02  0.93235528344E+02 0.  0.
         13    1    3    3    0    0 -0.93306488771E+01  0.54428362654E+02 -0.15460655522E+02  0.57345886538E+02  0.10566000000E+00 0.  1.
         22    1    1    0    0    0 -0.13803627117E+02 -0.23010848230E+02  0.69880577358E+01  0.27728545017E+02  0.00000000000E+00 0.  1.
</event>
<event>
 5    1  0.1267644E-004  0.9118800E+02  0.7818608E-02  0.1130116E+00
         25   -1    0    0    0    0  0.00000000000E+00  0.00000000000E+00  0.99999998245E-14  0.12500000000E+03  0.12500000000E+03 0.  0.
        -13    1    3    3    0    0  0.45127914184E+02  0.41688657195E+02 -0.10231160437E+02  0.62282907649E+02  0.10566000000E+00 0.  1.
         23    2    1    0    0    0  0.20976463701E+02  0.19468495047E+02 -0.84948335840E+01  0.95147085127E+02  0.90342522002E+02 0.  0.
         13    1    3    3    0    0 -0.24151450483E+02 -0.22220162148E+02  0.17363268526E+01  0.32864177478E+02  0.10566000000E+00 0. -1.
         22    1    1    0    0    0 -0.20976463701E+02 -0.19468495047E+02  0.84948335840E+01  0.29852914873E+02  0.00000000000E+00 0.  1.
</event>
<event>
 5    1  0.1267644E-004  0.9118800E+02  0.7818608E-02  0.1130116E+00
         25   -1    0    0    0    0  0.00000000000E+00  0.00000000000E+00  0.99999998245E-14  0.12500000000E+03  0.12500000000E+03 0.  0.
        -13    1    3    3    0    0 -0.28060738398E+02  0.94717501507E+01  0.29879125361E+02  0.42070088979E+02  0.10566000000E+00 0. -1.
         23    2    1    0    0    0 -0.11797820596E+00  0.27801424270E+02 -0.11201374921E+02  0.95026613298E+02  0.90175680338E+02 0.  0.
         13    1    3    3    0    0  0.27942760192E+02  0.18329674119E+02 -0.41080500282E+02  0.52956524318E+02  0.10566000000E+00 0.  1.
         22    1    1    0    0    0  0.11797820596E+00 -0.27801424270E+02  0.11201374921E+02  0.29973386702E+02  0.00000000000E+00 0.  1.
</event>
<event>
 5    1  0.1267644E-004  0.9118800E+02  0.7818608E-02  0.1130116E+00
         25   -1    0    0    0    0  0.00000000000E+00  0.00000000000E+00  0.99999998245E-14  0.12500000000E+03  0.12500000000E+03 0.  0.
        -13    1    3    3    0    0  0.45755164407E+02 -0.13926256971E+02  0.25783116942E+01  0.47897124740E+02  0.10566000000E+00 0. -1.
         23    2    1    0    0    0  0.84014030762E+01 -0.66287345361E+01 -0.26907465268E+02  0.96042524586E+02  0.91573091825E+02 0.  0.
         13    1    3    3    0    0 -0.37353761330E+02  0.72975224350E+01 -0.29485776963E+02  0.48145399846E+02  0.10566000000E+00 0.  1.
         22    1    1    0    0    0 -0.84014030762E+01  0.66287345361E+01  0.26907465268E+02  0.28957475414E+02  0.00000000000E+00 0. -1.
</event>
<event>
 5    1  0.1267644E-004  0.9118800E+02  0.7818608E-02  0.1130116E+00
         25   -1    0    0    0    0  0.00000000000E+00  0.00000000000E+00  0.99999998245E-14  0.12500000000E+03  0.12500000000E+03 0.  0.
        -13    1    3    3    0    0  0.36058212063E+02 -0.29387260644E+02  0.11244626045E+02  0.47856645560E+02  0.10566000000E+00 0. -1.
         23    2    1    0    0    0  0.20439939570E+01 -0.24119411511E+02 -0.19429217757E+02  0.93961017646E+02  0.88686269577E+02 0.  0.
         13    1    3    3    0    0 -0.34014218106E+02  0.52678491330E+01 -0.30673843802E+02  0.46104372086E+02  0.10566000000E+00 0.  1.
         22    1    1    0    0    0 -0.20439939570E+01  0.24119411511E+02  0.19429217757E+02  0.31038982354E+02  0.00000000000E+00 0.  1.
</event>
<event>
 5    1  0.1267644E-004  0.9118800E+02  0.7818608E-02  0.1130116E+00
         25   -1    0    0    0    0  0.00000000000E+00  0.00000000000E+00  0.99999998245E-14  0.12500000000E+03  0.12500000000E+03 0.  0.
        -13    1    3    3    0    0  0.24232219469E+02  0.14794897947E+02  0.18415523654E+02  0.33841278657E+02  0.10566000000E+00 0. -1.
         23    2    1    0    0    0 -0.24152283276E+02  0.12466351612E+02 -0.16181366873E+02  0.93368064495E+02  0.87846548729E+02 0.  0.
         13    1    3    3    0    0 -0.48384502745E+02 -0.23285463352E+01 -0.34596890528E+02  0.59526785837E+02  0.10566000000E+00 0.  1.
         22    1    1    0    0    0  0.24152283276E+02 -0.12466351612E+02  0.16181366873E+02  0.31631935505E+02  0.00000000000E+00 0.  1.
</event>
<event>
 5    1  0.1267644E-004  0.9118800E+02  0.7818608E-02  0.1130116E+00
         25   -1    0    0    0    0  0.00000000000E+00  0.00000000000E+00  0.99999998245E-14  0.12500000000E+03  0.12500000000E+03 0.  0.
        -13    1    3    3    0    0  0.74027785125E+01 -0.70330379486E+01  0.29806844793E+02  0.31507521531E+02  0.10566000000E+00 0.  1.
         23    2    1    0    0    0 -0.22701079879E+02 -0.17205615377E+02 -0.19722563783E+02  0.90353907142E+02  0.83447449245E+02 0.  0.
         13    1    3    3    0    0 -0.30103858391E+02 -0.10172577428E+02 -0.49529408576E+02  0.58846385611E+02  0.10566000000E+00 0. -1.
         22    1    1    0    0    0  0.22701079879E+02  0.17205615377E+02  0.19722563783E+02  0.34646092858E+02  0.00000000000E+00 0. -1.
</event>
<event>
 5    1  0.1267644E-004  0.9118800E+02  0.7818608E-02  0.1130116E+00
         25   -1    0    0    0    0  0.00000000000E+00  0.00000000000E+00  0.99999998245E-14  0.12500000000E+03  0.12500000000E+03 0.  0.
        -13    1    3    3    0    0 -0.23861691316E+02 -0.55098000631E+02 -0.15963809493E+02  0.62129094340E+02  0.10566000000E+00 0.  1.
         23    2    1    0    0    0 -0.11272280207E+02 -0.25993618689E+02 -0.25741889393E+01  0.96550765172E+02  0.92264247100E+02 0.  0.
         13    1    3    3    0    0  0.12589411109E+02  0.29104381941E+02  0.13389620553E+02  0.34421670832E+02  0.10566000000E+00 0. -1.
         22    1    1    0    0    0  0.11272280207E+02  0.25993618689E+02  0.25741889393E+01  0.28449234828E+02  0.00000000000E+00 0.  1.
</event>
<event>
 5    1  0.1267644E-004  0.9118800E+02  0.7818608E-02  0.1130116E+00
         25   -1    0    0    0    0  0.00000000000E+00  0.00000000000E+00  0.99999998245E-14  0.12500000000E+03  0.12500000000E+03 0.  0.
        -13    1    3    3    0    0  0.19830759767E+02  0.24823076212E+02  0.12365610884E+02  0.34093454535E+02  0.10566000000E+00 0.  1.
         23    2    1    0    0    0  0.13562800255E+02 -0.22842646151E+02 -0.19739003579E+02  0.91903711745E+02  0.85737552661E+02 0.  0.
         13    1    3    3    0    0 -0.62679595123E+01 -0.47665722363E+02 -0.32104614463E+02  0.57810257210E+02  0.10566000000E+00 0. -1.
         22    1    1    0    0    0 -0.13562800255E+02  0.22842646151E+02  0.19739003579E+02  0.33096288255E+02  0.00000000000E+00 0. -1.
</event>
<event>
 5    1  0.1267644E-004  0.9118800E+02  0.7818608E-02  0.1130116E+00
         25   -1    0    0    0    0  0.00000000000E+00  0.00000000000E+00  0.99999998245E-14  0.12500000000E+03  0.12500000000E+03 0.  0.
        -13    1    3    3    0    0 -0.33215084178E+02  0.40524409967E+02 -0.71024302558E+01  0.52876509904E+02  0.10566000000E+00 0. -1.
         23    2    1    0    0    0  0.79970032588E+01  0.27274689470E+02 -0.42619604669E+01  0.96259348409E+02  0.91868586047E+02 0.  0.
         13    1    3    3    0    0  0.41212087437E+02 -0.13249720496E+02  0.28404697889E+01  0.43382838505E+02  0.10566000000E+00 0.  1.
         22    1    1    0    0    0 -0.79970032588E+01 -0.27274689470E+02  0.42619604669E+01  0.28740651591E+02  0.00000000000E+00 0. -1.
</event>
<event>
 5    1  0.1267644E-004  0.9118800E+02  0.7818608E-02  0.1130116E+00
         25   -1    0    0    0    0  0.00000000000E+00  0.00000000000E+00  0.99999998245E-14  0.12500000000E+03  0.12500000000E+03 0.  0.
        -13    1    3    3    0    0  0.40969576892E+02  0.19683504612E+02  0.77305653705E+01  0.46105524501E+02  0.10566000000E+00 0. -1.
         23    2    1    0    0    0  0.12932812700E+02 -0.84396487407E+01 -0.23674367382E+02  0.96734102064E+02  0.92512299269E+02 0.  0.
         13    1    3    3    0    0 -0.28036764191E+02 -0.28123153353E+02 -0.31404932752E+02  0.50628577563E+02  0.10566000000E+00 0.  1.
         22    1    1    0    0    0 -0.12932812700E+02  0.84396487407E+01  0.23674367382E+02  0.28265897936E+02  0.00000000000E+00 0.  1.
</event>
<event>
 5    1  0.1267644E-004  0.9118800E+02  0.7818608E-02  0.1130116E+00
         25   -1    0    0    0    0  0.00000000000E+00  0.00000000000E+00  0.99999998245E-14  0.12500000000E+03  0.12500000000E+03 0.  0.
        -13    1    3    3    0    0 -0.10361267492E+01  0.27417817928E+02  0.55017164363E+02  0.61479344800E+02  0.10566000000E+00 0. -1.
         23    2    1    0    0    0 -0.56000023491E+01  0.72726907264E+01  0.28290164508E+02  0.95258018482E+02  0.90495881787E+02 0.  0.
         13    1    3    3    0    0 -0.45638755999E+01 -0.20145127201E+02 -0.26726999854E+02  0.33778673682E+02  0.10566000000E+00 0.  1.
         22    1    1    0    0    0  0.56000023491E+01 -0.72726907264E+01 -0.28290164508E+02  0.29741981518E+02  0.00000000000E+00 0. -1.
</event>
<event>
 5    1  0.1267644E-004  0.9118800E+02  0.7818608E-02  0.1130116E+00
         25   -1    0    0    0    0  0.00000000000E+00  0.00000000000E+00  0.99999998245E-14  0.12500000000E+03  0.12500000000E+03 0.  0.
        -13    1    3    3    0    0 -0.13350438801E+02 -0.43273015072E+02 -0.25451120113E+02  0.51947653735E+02  0.10566000000E+00 0. -1.
         23    2    1    0    0    0 -0.26718394049E+02 -0.75899103004E+01 -0.10327609089E+01  0.97205289819E+02  0.93146779090E+02 0.  0.
         13    1    3    3    0    0 -0.13367955248E+02  0.35683104771E+02  0.24418359204E+02  0.45257636084E+02  0.10566000000E+00 0.  1.
         22    1    1    0    0    0  0.26718394049E+02  0.75899103004E+01  0.10327609089E+01  0.27794710181E+02  0.00000000000E+00 0.  1.
</event>
<event>
 5    1  0.1267644E-004  0.9118800E+02  0.7818608E-02  0.1130116E+00
         25   -1    0    0    0    0  0.00000000000E+00  0.00000000000E+00  0.99999998245E-14  0.12500000000E+03  0.12500000000E+03 0.  0.
        -13    1    3    3    0    0 -0.19742458405E+02 -0.30361240650E+01 -0.27994555323E+02  0.34390245783E+02  0.10566000000E+00 0.  1.
         23    2    1    0    0    0  0.19791186005E+02  0.40520734830E+01  0.19726949059E+02  0.96764156429E+02  0.92552898967E+02 0.  0.
         13    1    3    3    0    0  0.39533644410E+02  0.70881975480E+01  0.47721504382E+02  0.62373910646E+02  0.10566000000E+00 0. -1.
         22    1    1    0    0    0 -0.19791186005E+02 -0.40520734830E+01 -0.19726949059E+02  0.28235843571E+02  0.00000000000E+00 0. -1.
</event>
<event>
 5    1  0.1267644E-004  0.9118800E+02  0.7818608E-02  0.1130116E+00
         25   -1    0    0    0    0  0.00000000000E+00  0.00000000000E+00  0.99999998245E-14  0.12500000000E+03  0.12500000000E+03 0.  0.
        -13    1    3    3    0    0 -0.38590667285E+02  0.86865498112E+01 -0.10101251200E+02  0.40825753992E+02  0.10566000000E+00 0.  1.
         23    2    1    0    0    0  0.16791559710E+02  0.99040672266E+01 -0.19968313116E+02  0.97093360041E+02  0.92996451600E+02 0.  0.
         13    1    3    3    0    0  0.55382226995E+02  0.12175174154E+01 -0.98670619158E+01  0.56267606049E+02  0.10566000000E+00 0. -1.
         22    1    1    0    0    0 -0.16791559710E+02 -0.99040672266E+01  0.19968313116E+02  0.27906639959E+02  0.00000000000E+00 0. -1.
</event>
<event>
 5    1  0.1267644E-004  0.9118800E+02  0.7818608E-02  0.1130116E+00
         25   -1    0    0    0    0  0.00000000000E+00  0.00000000000E+00  0.99999998245E-14  0.12500000000E+03  0.12500000000E+03 0.  0.
        -13    1    3    3    0    0 -0.16167683932E+02  0.57971554961E+01 -0.41487219236E+02  0.44902132906E+02  0.10566000000E+00 0. -1.
         23    2    1    0    0    0 -0.11058349281E+02 -0.25706406811E+02 -0.29131974617E+00  0.97014444670E+02  0.92890317943E+02 0.  0.
         13    1    3    3    0    0  0.51093346509E+01 -0.31503562307E+02  0.41195899490E+02  0.52112311764E+02  0.10566000000E+00 0.  1.
         22    1    1    0    0    0  0.11058349281E+02  0.25706406811E+02  0.29131974617E+00  0.27985555330E+02  0.00000000000E+00 0. -1.
</event>
<event>
 5    1  0.1267644E-004  0.9118800E+02  0.7818608E-02  0.1130116E+00
         25   -1    0    0    0    0  0.00000000000E+00  0.00000000000E+00  0.99999998245E-14  0.12500000000E+03  0.12500000000E+03 0.  0.
        -13    1    3    3    0    0  0.26131770324E+02 -0.28239330525E+02 -0.30597613552E+02  0.49158461407E+02  0.10566000000E+00 0. -1.
         23    2    1    0    0    0  0.23393062521E+02  0.13857322952E+02 -0.11098287136E+02  0.95632794637E+02  0.91012079743E+02 0.  0.
         13    1    3    3    0    0 -0.27387078030E+01  0.42096653477E+02  0.19499326416E+02  0.46474333229E+02  0.10566000000E+00 0.  1.
         22    1    1    0    0    0 -0.23393062521E+02 -0.13857322952E+02  0.11098287136E+02  0.29367205363E+02  0.00000000000E+00 0. -1.
</event>
<event>
 5    1  0.1267644E-004  0.9118800E+02  0.7818608E-02  0.1130116E+00
         25   -1    0    0    0    0  0.00000000000E+00  0.00000000000E+00  0.99999998245E-14  0.12500000000E+03  0.12500000000E+03 0.  0.
        -13    1    3    3    0    0  0.20899069129E+02 -0.33624018361E+02  0.19000786116E+02  0.43913400441E+02  0.10566000000E+00 0. -1.
         23    2    1    0    0    0  0.22914938959E+02 -0.19700700730E+01 -0.20234923369E+02  0.94366232237E+02  0.89255577189E+02 0.  0.
         13    1    3    3    0    0  0.20158698300E+01  0.31653948288E+02 -0.39235709485E+02  0.50452831796E+02  0.10566000000E+00 0.  1.
         22    1    1    0    0    0 -0.22914938959E+02  0.19700700730E+01  0.20234923369E+02  0.30633767763E+02  0.00000000000E+00 0.  1.
</event>
<event>
 5    1  0.1267644E-004  0.9118800E+02  0.7818608E-02  0.1130116E+00
         25   -1    0    0    0    0  0.00000000000E+00  0.00000000000E+00  0.99999998245E-14  0.12500000000E+03  0.12500000000E+03 0.  0.
        -13    1    3    3    0    0 -0.31922604236E+02  0.53302547270E+02 -0.65609110632E+01  0.62476162852E+02  0.10566000000E+00 0.  1.
         23    2    1    0    0    0 -0.14755360495E+02  0.25158286953E+02 -0.18859421248E+01  0.95773011728E+02  0.91204456755E+02 0.  0.
         13    1    3    3    0    0  0.17167243741E+02 -0.28144260317E+02  0.46749689384E+01  0.33296848876E+02  0.10566000000E+00 0. -1.
         22    1    1    0    0    0  0.14755360495E+02 -0.25158286953E+02  0.18859421248E+01  0.29226988272E+02  0.00000000000E+00 0.  1.
</event>
<event>
 5    1  0.1267644E-004  0.9118800E+02  0.7818608E-02  0.1130116E+00
         25   -1    0    0    0    0  0.00000000000E+00  0.00000000000E+00  0.99999998245E-14  0.12500000000E+03  0.12500000000E+03 0.  0.
        -13    1    3    3    0    0 -0.92929944594E+01 -0.34570851089E+02  0.37332885550E+02  0.51722905937E+02  0.10566000000E+00 0.  1.
         23    2    1    0    0    0  0.21638697634E+02 -0.14110475959E+02  0.12988968922E+02  0.96085434799E+02  0.91631646824E+02 0.  0.
         13    1    3    3    0    0  0.30931692094E+02  0.20460375129E+02 -0.24343916628E+02  0.44362528862E+02  0.10566000000E+00 0. -1.
         22    1    1    0    0    0 -0.21638697634E+02  0.14110475959E+02 -0.12988968922E+02  0.28914565201E+02  0.00000000000E+00 0.  1.
</event>
<event>
 5    1  0.1267644E-004  0.9118800E+02  0.7818608E-02  0.1130116E+00
         25   -1    0    0    0    0  0.00000000000E+00  0.00000000000E+00  0.99999998245E-14  0.12500000000E+03  0.12500000000E+03 0.  0.
        -13    1    3    3    0    0 -0.81076637385E+01  0.34364955489E+02 -0.26052163507E+02  0.43879502783E+02  0.10566000000E+00 0. -1.
         23    2    1    0    0    0  0.12393163164E+02  0.19653904227E+02  0.18646124981E+02  0.95208316238E+02  0.90427203094E+02 0.  0.
         13    1    3    3    0    0  0.20500826903E+02 -0.14711051262E+02  0.44698288488E+02  0.51328813455E+02  0.10566000000E+00 0.  1.
         22    1    1    0    0    0 -0.12393163164E+02 -0.19653904227E+02 -0.18646124981E+02  0.29791683762E+02  0.00000000000E+00 0.  1.
</event>
<event>
 5    1  0.1267644E-004  0.9118800E+02  0.7818608E-02  0.1130116E+00
         25   -1    0    0    0    0  0.00000000000E+00  0.00000000000E+00  0.99999998245E-14  0.12500000000E+03  0.12500000000E+03 0.  0.
        -13    1    3    3    0    0  0.59002777558E+01  0.36372389656E+02  0.49187432364E+01  0.37174846414E+02  0.10566000000E+00 0. -1.
         23    2    1    0    0    0  0.61452742793E+01 -0.20060737344E+02  0.20444539320E+02  0.95705345765E+02  0.91111670171E+02 0.  0.
         13    1    3    3    0    0  0.24499652341E+00 -0.56433126999E+02  0.15525796083E+02  0.58530499351E+02  0.10566000000E+00 0.  1.
         22    1    1    0    0    0 -0.61452742793E+01  0.20060737344E+02 -0.20444539320E+02  0.29294654235E+02  0.00000000000E+00 0.  1.
</event>
<event>
 5    1  0.1267644E-004  0.9118800E+02  0.7818608E-02  0.1130116E+00
         25   -1    0    0    0    0  0.00000000000E+00  0.00000000000E+00  0.99999998245E-14  0.12500000000E+03  0.12500000000E+03 0.  0.
        -13    1    3    3    0    0  0.46403177651E+02 -0.19032907081E+02 -0.29684370545E+02  0.58281038656E+02  0.10566000000E+00 0.  1.
         23    2    1    0    0    0  0.14608109612E+02 -0.13178734148E+02 -0.28161721802E+02  0.90646565309E+02  0.83884690661E+02 0.  0.
         13    1    3    3    0    0 -0.31795068039E+02  0.58541729332E+01  0.15226487432E+01  0.32365526653E+02  0.10566000000E+00 0. -1.
         22    1    1    0    0    0 -0.14608109612E+02  0.13178734148E+02  0.28161721802E+02  0.34353434691E+02  0.00000000000E+00 0.  1.
</event>
<event>
 5    1  0.1267644E-004  0.9118800E+02  0.7818608E-02  0.1130116E+00
         25   -1    0    0    0    0  0.00000000000E+00  0.00000000000E+00  0.99999998245E-14  0.12500000000E+03  0.12500000000E+03 0.  0.
        -13    1    3    3    0    0 -0.22803703829E+01 -0.24355907405E+02 -0.47878224834E+02  0.53765657179E+02  0.10566000000E+00 0.  1.
         23    2    1    0    0    0 -0.47709835928E+01 -0.26624848396E+02 -0.41370520632E+01  0.97636520025E+02  0.93723689675E+02 0.  0.
         13    1    3    3    0    0 -0.24906132099E+01 -0.22689409918E+01  0.43741172771E+02  0.43870862846E+02  0.10566000000E+00 0. -1.
         22    1    1    0    0    0  0.47709835928E+01  0.26624848396E+02  0.41370520632E+01  0.27363479975E+02  0.00000000000E+00 0. -1.
</event>
<event>
 5    1  0.1267644E-004  0.9118800E+02  0.7818608E-02  0.1130116E+00
         25   -1    0    0    0    0  0.00000000000E+00  0.00000000000E+00  0.99999998245E-14  0.12500000000E+03  0.12500000000E+03 0.  0.
        -13    1    3    3    0    0 -0.66690688171E+01 -0.25453214707E+02  0.54448108060E+02  0.60472723216E+02  0.10566000000E+00 0.  1.
         23    2    1    0    0    0  0.79490794104E+01 -0.84000651237E+01  0.24495947349E+02  0.97911249677E+02  0.94089385263E+02 0.  0.
         13    1    3    3    0    0  0.14618148228E+02  0.17053149583E+02 -0.29952160711E+02  0.37438526461E+02  0.10566000000E+00 0. -1.
         22    1    1    0    0    0 -0.79490794104E+01  0.84000651237E+01 -0.24495947349E+02  0.27088750323E+02  0.00000000000E+00 0.  1.
</event>
<event>
 5    1  0.1267644E-004  0.9118800E+02  0.7818608E-02  0.1130116E+00
         25   -1    0    0    0    0  0.00000000000E+00  0.00000000000E+00  0.99999998245E-14  0.12500000000E+03  0.12500000000E+03 0.  0.
        -13    1    3    3    0    0 -0.92828661981E+01  0.35605916994E+02  0.76068607210E+01  0.37574305368E+02  0.10566000000E+00 0.  1.
         23    2    1    0    0    0  0.21075385069E+02  0.48470999461E+01 -0.25170481515E+02  0.91815374442E+02  0.85608665511E+02 0.  0.
         13    1    3    3    0    0  0.30358251267E+02 -0.30758817048E+02 -0.32777342236E+02  0.54241069074E+02  0.10566000000E+00 0. -1.
         22    1    1    0    0    0 -0.21075385069E+02 -0.48470999461E+01  0.25170481515E+02  0.33184625558E+02  0.00000000000E+00 0. -1.
</event>
<event>
 5    1  0.1267644E-004  0.9118800E+02  0.7818608E-02  0.1130116E+00
         25   -1    0    0    0    0  0.00000000000E+00  0.00000000000E+00  0.99999998245E-14  0.12500000000E+03  0.12500000000E+03 0.  0.
        -13    1    3    3    0    0 -0.56686277292E+02 -0.16135098420E+01  0.25384520748E+02  0.62131493663E+02  0.10566000000E+00 0. -1.
         23    2    1    0    0    0 -0.24403451936E+02  0.37986790635E+01  0.12613140510E+02  0.97268253885E+02  0.93231236565E+02 0.  0.
         13    1    3    3    0    0  0.32282825356E+02  0.54121889054E+01 -0.12771380238E+02  0.35136760222E+02  0.10566000000E+00 0.  1.
         22    1    1    0    0    0  0.24403451936E+02 -0.37986790635E+01 -0.12613140510E+02  0.27731746115E+02  0.00000000000E+00 0. -1.
</event>
<event>
 5    1  0.1267644E-004  0.9118800E+02  0.7818608E-02  0.1130116E+00
         25   -1    0    0    0    0  0.00000000000E+00  0.00000000000E+00  0.99999998245E-14  0.12500000000E+03  0.12500000000E+03 0.  0.
        -13    1    3    3    0    0  0.36082575001E+02  0.40989619690E+02 -0.15733338004E+02  0.56830011700E+02  0.10566000000E+00 0.  1.
         23    2    1    0    0    0  0.28240318475E+02  0.68018726193E+01  0.15054032432E+01  0.95913107804E+02  0.91396263331E+02 0.  0.
         13    1    3    3    0    0 -0.78422565263E+01 -0.34187747071E+02  0.17238741248E+02  0.39083096103E+02  0.10566000000E+00 0. -1.
         22    1    1    0    0    0 -0.28240318475E+02 -0.68018726193E+01 -0.15054032432E+01  0.29086892196E+02  0.00000000000E+00 0.  1.
</event>
<event>
 5    1  0.1267644E-004  0.9118800E+02  0.7818608E-02  0.1130116E+00
         25   -1    0    0    0    0  0.00000000000E+00  0.00000000000E+00  0.99999998245E-14  0.12500000000E+03  0.12500000000E+03 0.  0.
        -13    1    3    3    0    0 -0.50887925757E+02 -0.18416927244E+02  0.22512392570E+02  0.58613848024E+02  0.10566000000E+00 0.  1.
         23    2    1    0    0    0 -0.19957427991E+02 -0.18777343330E+02 -0.11719754730E+01  0.97572621688E+02  0.93638429195E+02 0.  0.
         13    1    3    3    0    0  0.30930497766E+02 -0.36041608590E+00 -0.23684368043E+02  0.38958773664E+02  0.10566000000E+00 0. -1.
         22    1    1    0    0    0  0.19957427991E+02  0.18777343330E+02  0.11719754730E+01  0.27427378312E+02  0.00000000000E+00 0.  1.
</event>
<event>
 5    1  0.1267644E-004  0.9118800E+02  0.7818608E-02  0.1130116E+00
         25   -1    0    0    0    0  0.00000000000E+00  0.00000000000E+00  0.99999998245E-14  0.12500000000E+03  0.12500000000E+03 0.  0.
        -13    1    3    3    0    0 -0.25256678021E+02  0.11901284540E+02  0.15795163794E+02  0.32078633413E+02  0.10566000000E+00 0. -1.
         23    2    1    0    0    0  0.30162232326E+02  0.13658853292E+02 -0.54256140320E+01  0.91447625720E+02  0.85070008993E+02 0.  0.
         13    1    3    3    0    0  0.55418910347E+02  0.17575687523E+01 -0.21220777826E+02  0.59368992307E+02  0.10566000000E+00 0.  1.
         22    1    1    0    0    0 -0.30162232326E+02 -0.13658853292E+02  0.54256140320E+01  0.33552374280E+02  0.00000000000E+00 0.  1.
</event>
<event>
 5    1  0.1267644E-004  0.9118800E+02  0.7818608E-02  0.1130116E+00
         25   -1    0    0    0    0  0.00000000000E+00  0.00000000000E+00  0.99999998245E-14  0.12500000000E+03  0.12500000000E+03 0.  0.
        -13    1    3    3    0    0  0.39778328947E+02  0.37450391551E+02  0.62418478639E+01  0.54989263588E+02  0.10566000000E+00 0.  1.
         23    2    1    0    0    0  0.11409933685E+01  0.27882005352E+02  0.10849577899E+02  0.95059702257E+02  0.90221536034E+02 0.  0.
         13    1    3    3    0    0 -0.38637335579E+02 -0.95683861986E+01  0.46077300353E+01  0.40070438670E+02  0.10566000000E+00 0. -1.
         22    1    1    0    0    0 -0.11409933685E+01 -0.27882005352E+02 -0.10849577899E+02  0.29940297743E+02  0.00000000000E+00 0.  1.
</event>
<event>
 5    1  0.1267644E-004  0.9118800E+02  0.7818608E-02  0.1130116E+00
         25   -1    0    0    0    0  0.00000000000E+00  0.00000000000E+00  0.99999998245E-14  0.12500000000E+03  0.12500000000E+03 0.  0.
        -13    1    3    3    0    0 -0.29075008765E+02 -0.17813498205E+02 -0.20360792444E+02  0.39714605449E+02  0.10566000000E+00 0. -1.
         23    2    1    0    0    0  0.37904650762E+01  0.23394443935E+02 -0.22298676876E+02  0.92459277468E+02  0.86543742506E+02 0.  0.
         13    1    3    3    0    0  0.32865473841E+02  0.41207942140E+02 -0.19378844318E+01  0.52744672018E+02  0.10566000000E+00 0.  1.
         22    1    1    0    0    0 -0.37904650762E+01 -0.23394443935E+02  0.22298676876E+02  0.32540722532E+02  0.00000000000E+00 0.  1.
</event>
<event>
 5    1  0.1267644E-004  0.9118800E+02  0.7818608E-02  0.1130116E+00
         25   -1    0    0    0    0  0.00000000000E+00  0.00000000000E+00  0.99999998245E-14  0.12500000000E+03  0.12500000000E+03 0.  0.
        -13    1    3    3    0    0  0.40152709514E+02  0.11799115292E+02  0.37462236307E+01  0.42017907594E+02  0.10566000000E+00 0. -1.
         23    2    1    0    0    0 -0.12421904394E+02  0.25633531332E+02  0.26338757628E+01  0.96393725534E+02  0.92051243247E+02 0.  0.
         13    1    3    3    0    0 -0.52574613909E+02  0.13834416040E+02 -0.11123478679E+01  0.54375817940E+02  0.10566000000E+00 0.  1.
         22    1    1    0    0    0  0.12421904394E+02 -0.25633531332E+02 -0.26338757628E+01  0.28606274466E+02  0.00000000000E+00 0.  1.
</event>
<event>
 5    1  0.1267644E-004  0.9118800E+02  0.7818608E-02  0.1130116E+00
         25   -1    0    0    0    0  0.00000000000E+00  0.00000000000E+00  0.99999998245E-14  0.12500000000E+03  0.12500000000E+03 0.  0.
        -13    1    3    3    0    0 -0.27210664472E+02  0.17688298823E+02 -0.48107500986E+01  0.32809307472E+02  0.10566000000E+00 0.  1.
         23    2    1    0    0    0  0.27779307004E+02 -0.10866096179E+02 -0.49011736117E+01  0.94771148772E+02  0.89820861681E+02 0.  0.
         13    1    3    3    0    0  0.54989971476E+02 -0.28554395002E+02 -0.90423513106E-01  0.61961841300E+02  0.10566000000E+00 0. -1.
         22    1    1    0    0    0 -0.27779307004E+02  0.10866096179E+02  0.49011736117E+01  0.30228851228E+02  0.00000000000E+00 0. -1.
</event>
<event>
 5    1  0.1267644E-004  0.9118800E+02  0.7818608E-02  0.1130116E+00
         25   -1    0    0    0    0  0.00000000000E+00  0.00000000000E+00  0.99999998245E-14  0.12500000000E+03  0.12500000000E+03 0.  0.
        -13    1    3    3    0    0 -0.49987005078E+02 -0.13132773005E+02  0.23568588669E+02  0.56803696529E+02  0.10566000000E+00 0. -1.
         23    2    1    0    0    0 -0.26604983845E+02  0.11489170029E+02  0.47242312140E+01  0.95637701829E+02  0.91018819248E+02 0.  0.
         13    1    3    3    0    0  0.23382021233E+02  0.24621943034E+02 -0.18844357455E+02  0.38834005300E+02  0.10566000000E+00 0.  1.
         22    1    1    0    0    0  0.26604983845E+02 -0.11489170029E+02 -0.47242312140E+01  0.29362298171E+02  0.00000000000E+00 0. -1.
</event>
<event>
 5    1  0.1267644E-004  0.9118800E+02  0.7818608E-02  0.1130116E+00
         25   -1    0    0    0    0  0.00000000000E+00  0.00000000000E+00  0.99999998245E-14  0.12500000000E+03  0.12500000000E+03 0.  0.
        -13    1    3    3    0    0  0.25580935032E+02 -0.29222733011E+02 -0.21551147844E+02  0.44416387732E+02  0.10566000000E+00 0. -1.
         23    2    1    0    0    0  0.62457954030E+01 -0.17766774159E+02  0.23573212096E+02  0.94827751944E+02  0.89899599476E+02 0.  0.
         13    1    3    3    0    0 -0.19335139629E+02  0.11455958852E+02  0.45124359940E+02  0.50411364212E+02  0.10566000000E+00 0.  1.
         22    1    1    0    0    0 -0.62457954030E+01  0.17766774159E+02 -0.23573212096E+02  0.30172248056E+02  0.00000000000E+00 0.  1.
</event>
<event>
 5    1  0.1267644E-004  0.9118800E+02  0.7818608E-02  0.1130116E+00
         25   -1    0    0    0    0  0.00000000000E+00  0.00000000000E+00  0.99999998245E-14  0.12500000000E+03  0.12500000000E+03 0.  0.
        -13    1    3    3    0    0  0.39341705474E+01  0.40137624404E+02  0.34839910396E+02  0.53294813173E+02  0.10566000000E+00 0.  1.
         23    2    1    0    0    0 -0.38747697829E+01 -0.24632514365E+01  0.27373043539E+02  0.97244550785E+02  0.93199451159E+02 0.  0.
         13    1    3    3    0    0 -0.78089403303E+01 -0.42600875841E+02 -0.74668668573E+01  0.43949737612E+02  0.10566000000E+00 0. -1.
         22    1    1    0    0    0  0.38747697829E+01  0.24632514365E+01 -0.27373043539E+02  0.27755449215E+02  0.00000000000E+00 0.  1.
</event>
<event>
 5    1  0.1267644E-004  0.9118800E+02  0.7818608E-02  0.1130116E+00
         25   -1    0    0    0    0  0.00000000000E+00  0.00000000000E+00  0.99999998245E-14  0.12500000000E+03  0.12500000000E+03 0.  0.
        -13    1    3    3    0    0  0.68810489491E+01 -0.51137995226E+01  0.31394114598E+02  0.32543837752E+02  0.10566000000E+00 0. -1.
         23    2    1    0    0    0 -0.48973130057E+01  0.93827765469E+01 -0.28137902942E+02  0.94937369504E+02  0.90051887131E+02 0.  0.
         13    1    3    3    0    0 -0.11778361955E+02  0.14496576070E+02 -0.59532017540E+02  0.62393531752E+02  0.10566000000E+00 0.  1.
         22    1    1    0    0    0  0.48973130057E+01 -0.93827765469E+01  0.28137902942E+02  0.30062630496E+02  0.00000000000E+00 0.  1.
</event>
<event>
 5    1  0.1267644E-004  0.9118800E+02  0.7818608E-02  0.1130116E+00
         25   -1    0    0    0    0  0.00000000000E+00  0.00000000000E+00  0.99999998245E-14  0.12500000000E+03  0.12500000000E+03 0.  0.
        -13    1    3    3    0    0 -0.13961843108E+02  0.34879732216E+02  0.49349841348E+02  0.62023759863E+02  0.10566000000E+00 0. -1.
         23    2    1    0    0    0 -0.69763161029E+01  0.11434832415E+02  0.25535119250E+02  0.96164835811E+02  0.91739898368E+02 0.  0.
         13    1    3    3    0    0  0.69855270054E+01 -0.23444899801E+02 -0.23814722098E+02  0.34141075948E+02  0.10566000000E+00 0.  1.
         22    1    1    0    0    0  0.69763161029E+01 -0.11434832415E+02 -0.25535119250E+02  0.28835164189E+02  0.00000000000E+00 0. -1.
</event>
<event>
 5    1  0.1267644E-004  0.9118800E+02  0.7818608E-02  0.1130116E+00
         25   -1    0    0    0    0  0.00000000000E+00  0.00000000000E+00  0.99999998245E-14  0.12500000000E+03  0.12500000000E+03 0.  0.
        -13    1    3    3    0    0  0.20727187344E+02 -0.27772580384E+01  0.37972743910E+02  0.43350546727E+02  0.10566000000E+00 0. -1.
         23    2    1    0    0    0 -0.21537796210E+02  0.15119264424E+02  0.15568047263E+02  0.94424962504E+02  0.89337789462E+02 0.  0.
         13    1    3    3    0    0 -0.42264983554E+02  0.17896522462E+02 -0.22404696647E+02  0.51074415777E+02  0.10566000000E+00 0.  1.
         22    1    1    0    0    0  0.21537796210E+02 -0.15119264424E+02 -0.15568047263E+02  0.30575037496E+02  0.00000000000E+00 0.  1.
</event>
<event>
 5    1  0.1267644E-004  0.9118800E+02  0.7818608E-02  0.1130116E+00
         25   -1    0    0    0    0  0.00000000000E+00  0.00000000000E+00  0.99999998245E-14  0.12500000000E+03  0.12500000000E+03 0.  0.
        -13    1    3    3    0    0 -0.17044383008E+02  0.19949187496E+01 -0.57271593917E+02  0.59787434522E+02  0.10566000000E+00 0. -1.
         23    2    1    0    0    0 -0.71650039709E+01 -0.12047197232E+02 -0.25509073511E+02  0.95893556136E+02  0.91369519173E+02 0.  0.
         13    1    3    3    0    0  0.98793790368E+01 -0.14042115982E+02  0.31762520406E+02  0.36106121613E+02  0.10566000000E+00 0.  1.
         22    1    1    0    0    0  0.71650039709E+01  0.12047197232E+02  0.25509073511E+02  0.29106443864E+02  0.00000000000E+00 0. -1.
</event>
<event>
 5    1  0.1267644E-004  0.9118800E+02  0.7818608E-02  0.1130116E+00
         25   -1    0    0    0    0  0.00000000000E+00  0.00000000000E+00  0.99999998245E-14  0.12500000000E+03  0.12500000000E+03 0.  0.
        -13    1    3    3    0    0  0.93776663696E+01 -0.48705904886E+02 -0.30333315758E+02  0.58140579686E+02  0.10566000000E+00 0.  1.
         23    2    1    0    0    0  0.14183786050E+02 -0.25695857721E+02 -0.11322328024E+01  0.95627583657E+02  0.91004922473E+02 0.  0.
         13    1    3    3    0    0  0.48061196802E+01  0.23010047166E+02  0.29201082955E+02  0.37487003971E+02  0.10566000000E+00 0. -1.
         22    1    1    0    0    0 -0.14183786050E+02  0.25695857721E+02  0.11322328024E+01  0.29372416343E+02  0.00000000000E+00 0.  1.
</event>
<event>
 5    1  0.1267644E-004  0.9118800E+02  0.7818608E-02  0.1130116E+00
         25   -1    0    0    0    0  0.00000000000E+00  0.00000000000E+00  0.99999998245E-14  0.12500000000E+03  0.12500000000E+03 0.  0.
        -13    1    3    3    0    0  0.42660321051E+01  0.20903975782E+02  0.54193583391E+02  0.58242002697E+02  0.10566000000E+00 0.  1.
         23    2    1    0    0    0  0.12029630414E+02 -0.34124270512E+01  0.25180833933E+02  0.96885394119E+02  0.92716495457E+02 0.  0.
         13    1    3    3    0    0  0.77635983091E+01 -0.24316402833E+02 -0.29012749458E+02  0.38643391422E+02  0.10566000000E+00 0. -1.
         22    1    1    0    0    0 -0.12029630414E+02  0.34124270512E+01 -0.25180833933E+02  0.28114605881E+02  0.00000000000E+00 0.  1.
</event>
<event>
 5    1  0.1267644E-004  0.9118800E+02  0.7818608E-02  0.1130116E+00
         25   -1    0    0    0    0  0.00000000000E+00  0.00000000000E+00  0.99999998245E-14  0.12500000000E+03  0.12500000000E+03 0.  0.
        -13    1    3    3    0    0 -0.44384982577E+02 -0.43306080947E+02  0.44150798746E+01  0.62168701287E+02  0.10566000000E+00 0.  1.
         23    2    1    0    0    0 -0.20202870626E+02 -0.17016964024E+02 -0.21926105973E+01  0.98494517787E+02  0.94861106080E+02 0.  0.
         13    1    3    3    0    0  0.24182111951E+02  0.26289116923E+02 -0.66076904719E+01  0.36325816500E+02  0.10566000000E+00 0. -1.
         22    1    1    0    0    0  0.20202870626E+02  0.17016964024E+02  0.21926105973E+01  0.26505482213E+02  0.00000000000E+00 0.  1.
</event>
<event>
 5    1  0.1267644E-004  0.9118800E+02  0.7818608E-02  0.1130116E+00
         25   -1    0    0    0    0  0.00000000000E+00  0.00000000000E+00  0.99999998245E-14  0.12500000000E+03  0.12500000000E+03 0.  0.
        -13    1    3    3    0    0 -0.32122145372E+02  0.64144639735E+01  0.48534406962E+02  0.58554055321E+02  0.10566000000E+00 0.  1.
         23    2    1    0    0    0 -0.24287110182E+02 -0.64733431460E+01  0.14022091624E+02  0.96218287994E+02  0.91812700639E+02 0.  0.
         13    1    3    3    0    0  0.78350351897E+01 -0.12887807119E+02 -0.34512315339E+02  0.37664232673E+02  0.10566000000E+00 0. -1.
         22    1    1    0    0    0  0.24287110182E+02  0.64733431460E+01 -0.14022091624E+02  0.28781712006E+02  0.00000000000E+00 0.  1.
</event>
<event>
 5    1  0.1267644E-004  0.9118800E+02  0.7818608E-02  0.1130116E+00
         25   -1    0    0    0    0  0.00000000000E+00  0.00000000000E+00  0.99999998245E-14  0.12500000000E+03  0.12500000000E+03 0.  0.
        -13    1    3    3    0    0 -0.24686990273E+01 -0.14747435206E+02  0.53628357105E+02  0.55673990066E+02  0.10566000000E+00 0.  1.
         23    2    1    0    0    0 -0.20468947240E+02  0.24564503558E+00  0.23617779722E+02  0.93745597724E+02  0.88382121671E+02 0.  0.
         13    1    3    3    0    0 -0.18000248213E+02  0.14993080242E+02 -0.30010577382E+02  0.38071607659E+02  0.10566000000E+00 0. -1.
         22    1    1    0    0    0  0.20468947240E+02 -0.24564503558E+00 -0.23617779722E+02  0.31254402276E+02  0.00000000000E+00 0.  1.
</event>
<event>
 5    1  0.1267644E-004  0.9118800E+02  0.7818608E-02  0.1130116E+00
         25   -1    0    0    0    0  0.00000000000E+00  0.00000000000E+00  0.99999998245E-14  0.12500000000E+03  0.12500000000E+03 0.  0.
        -13    1    3    3    0    0 -0.33766277423E+02  0.19796598300E+02  0.11692772791E+02  0.40850935055E+02  0.10566000000E+00 0. -1.
         23    2    1    0    0    0  0.18037766669E+02  0.22644313994E+02 -0.55477665119E+01  0.95522827545E+02  0.90860920567E+02 0.  0.
         13    1    3    3    0    0  0.51804044092E+02  0.28477156937E+01 -0.17240539303E+02  0.54671892490E+02  0.10566000000E+00 0.  1.
         22    1    1    0    0    0 -0.18037766669E+02 -0.22644313994E+02  0.55477665119E+01  0.29477172455E+02  0.00000000000E+00 0.  1.
</event>
<event>
 5    1  0.1267644E-004  0.9118800E+02  0.7818608E-02  0.1130116E+00
         25   -1    0    0    0    0  0.00000000000E+00  0.00000000000E+00  0.99999998245E-14  0.12500000000E+03  0.12500000000E+03 0.  0.
        -13    1    3    3    0    0 -0.47209935747E+01 -0.35721564509E+02  0.19619851680E+01  0.36085710484E+02  0.10566000000E+00 0.  1.
         23    2    1    0    0    0  0.17343716701E+02  0.16171566273E+02 -0.17269929148E+02  0.95664449596E+02  0.91055545679E+02 0.  0.
         13    1    3    3    0    0  0.22064710276E+02  0.51893130782E+02 -0.19231914316E+02  0.59578739112E+02  0.10566000000E+00 0. -1.
         22    1    1    0    0    0 -0.17343716701E+02 -0.16171566273E+02  0.17269929148E+02  0.29335550404E+02  0.00000000000E+00 0. -1.
</event>
<event>
 5    1  0.1267644E-004  0.9118800E+02  0.7818608E-02  0.1130116E+00
         25   -1    0    0    0    0  0.00000000000E+00  0.00000000000E+00  0.99999998245E-14  0.12500000000E+03  0.12500000000E+03 0.  0.
        -13    1    3    3    0    0 -0.39590686508E+02  0.42241046477E+02  0.22860944754E+02  0.62244376652E+02  0.10566000000E+00 0. -1.
         23    2    1    0    0    0 -0.20688371470E+02  0.18571986913E+02  0.75152058177E+01  0.96200594963E+02  0.91788608993E+02 0.  0.
         13    1    3    3    0    0  0.18902315038E+02 -0.23669059564E+02 -0.15345738937E+02  0.33956218311E+02  0.10566000000E+00 0.  1.
         22    1    1    0    0    0  0.20688371470E+02 -0.18571986913E+02 -0.75152058177E+01  0.28799405037E+02  0.00000000000E+00 0. -1.
</event>
<event>
 5    1  0.1267644E-004  0.9118800E+02  0.7818608E-02  0.1130116E+00
         25   -1    0    0    0    0  0.00000000000E+00  0.00000000000E+00  0.99999998245E-14  0.12500000000E+03  0.12500000000E+03 0.  0.
        -13    1    3    3    0    0 -0.46507535106E+02 -0.29257520797E+02  0.22000933820E+02  0.59186194318E+02  0.10566000000E+00 0. -1.
         23    2    1    0    0    0 -0.11264781020E+02 -0.19760430092E+02  0.18171990824E+02  0.95886581455E+02  0.91359976816E+02 0.  0.
         13    1    3    3    0    0  0.35242754087E+02  0.94970907051E+01 -0.38289429961E+01  0.36700387137E+02  0.10566000000E+00 0.  1.
         22    1    1    0    0    0  0.11264781020E+02  0.19760430092E+02 -0.18171990824E+02  0.29113418545E+02  0.00000000000E+00 0. -1.
</event>
<event>
 5    1  0.1267644E-004  0.9118800E+02  0.7818608E-02  0.1130116E+00
         25   -1    0    0    0    0  0.00000000000E+00  0.00000000000E+00  0.99999998245E-14  0.12500000000E+03  0.12500000000E+03 0.  0.
        -13    1    3    3    0    0  0.46696187606E+02  0.25559943612E+02  0.28940735799E+02  0.60592260290E+02  0.10566000000E+00 0. -1.
         23    2    1    0    0    0  0.13921566135E+02  0.16630112743E+02  0.19463334616E+02  0.95859100085E+02  0.91322368679E+02 0.  0.
         13    1    3    3    0    0 -0.32774621471E+02 -0.89298308693E+01 -0.94774011831E+01  0.35266839795E+02  0.10566000000E+00 0.  1.
         22    1    1    0    0    0 -0.13921566135E+02 -0.16630112743E+02 -0.19463334616E+02  0.29140899915E+02  0.00000000000E+00 0. -1.
</event>
<event>
 5    1  0.1267644E-004  0.9118800E+02  0.7818608E-02  0.1130116E+00
         25   -1    0    0    0    0  0.00000000000E+00  0.00000000000E+00  0.99999998245E-14  0.12500000000E+03  0.12500000000E+03 0.  0.
        -13    1    3    3    0    0  0.27558762724E+02 -0.28558118075E+02 -0.11266813129E+02  0.41255348175E+02  0.10566000000E+00 0.  1.
         23    2    1    0    0    0  0.17664188208E+02  0.22312867956E+02  0.60673443005E+01  0.95901885141E+02  0.91380913135E+02 0.  0.
         13    1    3    3    0    0 -0.98945745167E+01  0.50870986031E+02  0.17334157429E+02  0.54646536967E+02  0.10566000000E+00 0. -1.
         22    1    1    0    0    0 -0.17664188208E+02 -0.22312867956E+02 -0.60673443005E+01  0.29098114859E+02  0.00000000000E+00 0. -1.
</event>
<event>
 5    1  0.1267644E-004  0.9118800E+02  0.7818608E-02  0.1130116E+00
         25   -1    0    0    0    0  0.00000000000E+00  0.00000000000E+00  0.99999998245E-14  0.12500000000E+03  0.12500000000E+03 0.  0.
        -13    1    3    3    0    0 -0.42086666682E+02 -0.46932197287E+01 -0.55302189006E+01  0.42707239538E+02  0.10566000000E+00 0.  1.
         23    2    1    0    0    0  0.11413456897E+01 -0.22916665191E+02  0.18601162297E+02  0.95462236844E+02  0.90777525913E+02 0.  0.
         13    1    3    3    0    0  0.43228012372E+02 -0.18223445462E+02  0.24131381198E+02  0.52754997306E+02  0.10566000000E+00 0. -1.
         22    1    1    0    0    0 -0.11413456897E+01  0.22916665191E+02 -0.18601162297E+02  0.29537763156E+02  0.00000000000E+00 0. -1.
</event>
<event>
 5    1  0.1267644E-004  0.9118800E+02  0.7818608E-02  0.1130116E+00
         25   -1    0    0    0    0  0.00000000000E+00  0.00000000000E+00  0.99999998245E-14  0.12500000000E+03  0.12500000000E+03 0.  0.
        -13    1    3    3    0    0  0.34485561898E+02  0.95481834248E+01 -0.24899461517E+02  0.43593762558E+02  0.10566000000E+00 0.  1.
         23    2    1    0    0    0  0.16112725342E+02  0.12294827307E+02  0.22627580684E+02  0.94622539539E+02  0.89613809677E+02 0.  0.
         13    1    3    3    0    0 -0.18372836556E+02  0.27466438824E+01  0.47527042201E+02  0.51028776981E+02  0.10566000000E+00 0. -1.
         22    1    1    0    0    0 -0.16112725342E+02 -0.12294827307E+02 -0.22627580684E+02  0.30377460461E+02  0.00000000000E+00 0. -1.
</event>
<event>
 5    1  0.1267644E-004  0.9118800E+02  0.7818608E-02  0.1130116E+00
         25   -1    0    0    0    0  0.00000000000E+00  0.00000000000E+00  0.99999998245E-14  0.12500000000E+03  0.12500000000E+03 0.  0.
        -13    1    3    3    0    0 -0.17277066125E+02  0.29843578687E+02  0.62678256916E+01  0.35049008626E+02  0.10566000000E+00 0.  1.
         23    2    1    0    0    0 -0.62322629765E+01 -0.27912501230E+02 -0.74815455345E+01  0.95437822301E+02  0.90743901037E+02 0.  0.
         13    1    3    3    0    0  0.11044803149E+02 -0.57756079917E+02 -0.13749371226E+02  0.60388813675E+02  0.10566000000E+00 0. -1.
         22    1    1    0    0    0  0.62322629765E+01  0.27912501230E+02  0.74815455345E+01  0.29562177699E+02  0.00000000000E+00 0. -1.
</event>
<event>
 5    1  0.1267644E-004  0.9118800E+02  0.7818608E-02  0.1130116E+00
         25   -1    0    0    0    0  0.00000000000E+00  0.00000000000E+00  0.99999998245E-14  0.12500000000E+03  0.12500000000E+03 0.  0.
        -13    1    3    3    0    0 -0.25979032557E+02  0.59036832966E+01 -0.50356099238E+02  0.56969390935E+02  0.10566000000E+00 0. -1.
         23    2    1    0    0    0 -0.11511103880E+02 -0.15866909345E+02 -0.21746641258E+02  0.95722351004E+02  0.91134997400E+02 0.  0.
         13    1    3    3    0    0  0.14467928676E+02 -0.21770592642E+02  0.28609457980E+02  0.38752960069E+02  0.10566000000E+00 0.  1.
         22    1    1    0    0    0  0.11511103880E+02  0.15866909345E+02  0.21746641258E+02  0.29277648996E+02  0.00000000000E+00 0. -1.
</event>
<event>
 5    1  0.1267644E-004  0.9118800E+02  0.7818608E-02  0.1130116E+00
         25   -1    0    0    0    0  0.00000000000E+00  0.00000000000E+00  0.99999998245E-14  0.12500000000E+03  0.12500000000E+03 0.  0.
        -13    1    3    3    0    0  0.14103459248E+02 -0.29659425236E+02  0.48615805716E+02  0.58669385522E+02  0.10566000000E+00 0.  1.
         23    2    1    0    0    0  0.60248529996E+01 -0.23368613023E+02  0.95642517302E+01  0.99041073993E+02  0.95578598537E+02 0.  0.
         13    1    3    3    0    0 -0.80786062483E+01  0.62908122130E+01 -0.39051553986E+02  0.40371688471E+02  0.10566000000E+00 0. -1.
         22    1    1    0    0    0 -0.60248529996E+01  0.23368613023E+02 -0.95642517302E+01  0.25958926007E+02  0.00000000000E+00 0.  1.
</event>
<event>
 5    1  0.1267644E-004  0.9118800E+02  0.7818608E-02  0.1130116E+00
         25   -1    0    0    0    0  0.00000000000E+00  0.00000000000E+00  0.99999998245E-14  0.12500000000E+03  0.12500000000E+03 0.  0.
        -13    1    3    3    0    0  0.14592415052E+02  0.28891266439E+02 -0.34610275380E+02  0.47386983228E+02  0.10566000000E+00 0. -1.
         23    2    1    0    0    0  0.23108231867E+02  0.13393414637E+02  0.10854347757E+02  0.96169620175E+02  0.91746417062E+02 0.  0.
         13    1    3    3    0    0  0.85158168144E+01 -0.15497851802E+02  0.45464623137E+02  0.48782636947E+02  0.10566000000E+00 0.  1.
         22    1    1    0    0    0 -0.23108231867E+02 -0.13393414637E+02 -0.10854347757E+02  0.28830379825E+02  0.00000000000E+00 0. -1.
</event>
<event>
 5    1  0.1267644E-004  0.9118800E+02  0.7818608E-02  0.1130116E+00
         25   -1    0    0    0    0  0.00000000000E+00  0.00000000000E+00  0.99999998245E-14  0.12500000000E+03  0.12500000000E+03 0.  0.
        -13    1    3    3    0    0 -0.18004830551E+02  0.18552837108E+02  0.31703961478E+02  0.40908850208E+02  0.10566000000E+00 0.  1.
         23    2    1    0    0    0  0.26744854255E+02 -0.49833380745E+01  0.88917508158E+01  0.96378607300E+02  0.92030711314E+02 0.  0.
         13    1    3    3    0    0  0.44749684807E+02 -0.23536175183E+02 -0.22812210662E+02  0.55469757092E+02  0.10566000000E+00 0. -1.
         22    1    1    0    0    0 -0.26744854255E+02  0.49833380745E+01 -0.88917508158E+01  0.28621392700E+02  0.00000000000E+00 0. -1.
</event>
<event>
 5    1  0.1267644E-004  0.9118800E+02  0.7818608E-02  0.1130116E+00
         25   -1    0    0    0    0  0.00000000000E+00  0.00000000000E+00  0.99999998245E-14  0.12500000000E+03  0.12500000000E+03 0.  0.
        -13    1    3    3    0    0 -0.16544948891E+02 -0.31133293610E+01  0.29355629891E+02  0.33840690357E+02  0.10566000000E+00 0. -1.
         23    2    1    0    0    0  0.82957902089E+00  0.93334261208E+01 -0.28225122774E+02  0.95260151310E+02  0.90498827768E+02 0.  0.
         13    1    3    3    0    0  0.17374527912E+02  0.12446755482E+02 -0.57580752665E+02  0.61419460953E+02  0.10566000000E+00 0.  1.
         22    1    1    0    0    0 -0.82957902089E+00 -0.93334261208E+01  0.28225122774E+02  0.29739848690E+02  0.00000000000E+00 0.  1.
</event>
<event>
 5    1  0.1267644E-004  0.9118800E+02  0.7818608E-02  0.1130116E+00
         25   -1    0    0    0    0  0.00000000000E+00  0.00000000000E+00  0.99999998245E-14  0.12500000000E+03  0.12500000000E+03 0.  0.
        -13    1    3    3    0    0 -0.39950516711E+02  0.33139622617E+01 -0.57077752712E+01  0.40492172008E+02  0.10566000000E+00 0.  1.
         23    2    1    0    0    0  0.78298085312E+01 -0.15355412517E+02  0.20597643008E+02  0.98141900799E+02  0.94395313442E+02 0.  0.
         13    1    3    3    0    0  0.47780325242E+02 -0.18669374778E+02  0.26305418279E+02  0.57649728791E+02  0.10566000000E+00 0. -1.
         22    1    1    0    0    0 -0.78298085312E+01  0.15355412517E+02 -0.20597643008E+02  0.26858099201E+02  0.00000000000E+00 0. -1.
</event>
<event>
 5    1  0.1267644E-004  0.9118800E+02  0.7818608E-02  0.1130116E+00
         25   -1    0    0    0    0  0.00000000000E+00  0.00000000000E+00  0.99999998245E-14  0.12500000000E+03  0.12500000000E+03 0.  0.
        -13    1    3    3    0    0  0.33438492830E+02  0.50530676285E+01 -0.65006695237E+01  0.34437423880E+02  0.10566000000E+00 0.  1.
         23    2    1    0    0    0 -0.25031360626E+02 -0.14190024779E+02 -0.19931443403E+01  0.96157350288E+02  0.91729698419E+02 0.  0.
         13    1    3    3    0    0 -0.58469853456E+02 -0.19243092407E+02  0.45075251834E+01  0.61719926409E+02  0.10566000000E+00 0. -1.
         22    1    1    0    0    0  0.25031360626E+02  0.14190024779E+02  0.19931443403E+01  0.28842649712E+02  0.00000000000E+00 0. -1.
</event>
<event>
 5    1  0.1267644E-004  0.9118800E+02  0.7818608E-02  0.1130116E+00
         25   -1    0    0    0    0  0.00000000000E+00  0.00000000000E+00  0.99999998245E-14  0.12500000000E+03  0.12500000000E+03 0.  0.
        -13    1    3    3    0    0  0.56361729138E+01 -0.55960918401E+02 -0.94036816526E+00  0.56251989206E+02  0.10566000000E+00 0.  1.
         23    2    1    0    0    0 -0.17079934424E+02 -0.23591310787E+02  0.11472127799E+01  0.95852269355E+02  0.91313018452E+02 0.  0.
         13    1    3    3    0    0 -0.22716107338E+02  0.32369607614E+02  0.20875809452E+01  0.39600280149E+02  0.10566000000E+00 0. -1.
         22    1    1    0    0    0  0.17079934424E+02  0.23591310787E+02 -0.11472127799E+01  0.29147730645E+02  0.00000000000E+00 0.  1.
</event>
<event>
 5    1  0.1267644E-004  0.9118800E+02  0.7818608E-02  0.1130116E+00
         25   -1    0    0    0    0  0.00000000000E+00  0.00000000000E+00  0.99999998245E-14  0.12500000000E+03  0.12500000000E+03 0.  0.
        -13    1    3    3    0    0  0.10251369358E+02 -0.59640568497E+02 -0.15149203965E+02  0.62382670103E+02  0.10566000000E+00 0. -1.
         23    2    1    0    0    0  0.33114630645E+01 -0.16867520486E+02 -0.68119832965E+01  0.10650994453E+03  0.10489273631E+03 0.  0.
         13    1    3    3    0    0 -0.69399062940E+01  0.42773048011E+02  0.83372206684E+01  0.44127274423E+02  0.10566000000E+00 0.  1.
         22    1    1    0    0    0 -0.33114630645E+01  0.16867520486E+02  0.68119832965E+01  0.18490055474E+02  0.00000000000E+00 0. -1.
</event>
<event>
 5    1  0.1267644E-004  0.9118800E+02  0.7818608E-02  0.1130116E+00
         25   -1    0    0    0    0  0.00000000000E+00  0.00000000000E+00  0.99999998245E-14  0.12500000000E+03  0.12500000000E+03 0.  0.
        -13    1    3    3    0    0 -0.42945180034E+01 -0.29276653232E+02  0.30301322163E+02  0.42352645705E+02  0.10566000000E+00 0.  1.
         23    2    1    0    0    0 -0.27878743962E+02  0.61077702662E+01 -0.29144358502E+01  0.96311619794E+02  0.91939681034E+02 0.  0.
         13    1    3    3    0    0 -0.23584225958E+02  0.35384423498E+02 -0.33215758014E+02  0.53958974089E+02  0.10566000000E+00 0. -1.
         22    1    1    0    0    0  0.27878743962E+02 -0.61077702662E+01  0.29144358502E+01  0.28688380206E+02  0.00000000000E+00 0. -1.
</event>
<event>
 5    1  0.1267644E-004  0.9118800E+02  0.7818608E-02  0.1130116E+00
         25   -1    0    0    0    0  0.00000000000E+00  0.00000000000E+00  0.99999998245E-14  0.12500000000E+03  0.12500000000E+03 0.  0.
        -13    1    3    3    0    0 -0.39809731286E+02  0.59281819202E+01  0.38573155749E+02  0.55748161893E+02  0.10566000000E+00 0.  1.
         23    2    1    0    0    0 -0.16602577383E+02  0.21290070485E+02  0.85651526570E+01  0.96675549131E+02  0.92433150345E+02 0.  0.
         13    1    3    3    0    0  0.23207153903E+02  0.15361888565E+02 -0.30008003092E+02  0.40927387238E+02  0.10566000000E+00 0. -1.
         22    1    1    0    0    0  0.16602577383E+02 -0.21290070485E+02 -0.85651526570E+01  0.28324450869E+02  0.00000000000E+00 0.  1.
</event>
<event>
 5    1  0.1267644E-004  0.9118800E+02  0.7818608E-02  0.1130116E+00
         25   -1    0    0    0    0  0.00000000000E+00  0.00000000000E+00  0.99999998245E-14  0.12500000000E+03  0.12500000000E+03 0.  0.
        -13    1    3    3    0    0  0.32597408340E+02 -0.40687398224E+02  0.93912845319E+01  0.52974171007E+02  0.10566000000E+00 0.  1.
         23    2    1    0    0    0  0.34503520671E+02 -0.44375851242E+01  0.80182527264E+01  0.89300175389E+02  0.81853795558E+02 0.  0.
         13    1    3    3    0    0  0.19061123319E+01  0.36249813100E+02 -0.13730318055E+01  0.36326004382E+02  0.10566000000E+00 0. -1.
         22    1    1    0    0    0 -0.34503520671E+02  0.44375851242E+01 -0.80182527264E+01  0.35699824611E+02  0.00000000000E+00 0.  1.
</event>
<event>
 5    1  0.1267644E-004  0.9118800E+02  0.7818608E-02  0.1130116E+00
         25   -1    0    0    0    0  0.00000000000E+00  0.00000000000E+00  0.99999998245E-14  0.12500000000E+03  0.12500000000E+03 0.  0.
        -13    1    3    3    0    0  0.42013414729E+02 -0.22205729720E+01  0.35650206605E+01  0.42222961737E+02  0.10566000000E+00 0.  1.
         23    2    1    0    0    0 -0.50863022027E+01  0.25278888714E+02 -0.80521034193E+01  0.97986502371E+02  0.94189307210E+02 0.  0.
         13    1    3    3    0    0 -0.47099716932E+02  0.27499461686E+02 -0.11617124080E+02  0.55763540633E+02  0.10566000000E+00 0. -1.
         22    1    1    0    0    0  0.50863022027E+01 -0.25278888714E+02  0.80521034193E+01  0.27013497629E+02  0.00000000000E+00 0. -1.
</event>
<event>
 5    1  0.1267644E-004  0.9118800E+02  0.7818608E-02  0.1130116E+00
         25   -1    0    0    0    0  0.00000000000E+00  0.00000000000E+00  0.99999998245E-14  0.12500000000E+03  0.12500000000E+03 0.  0.
        -13    1    3    3    0    0  0.48009160970E+02 -0.23579679230E+02 -0.22997842997E+02  0.58221926765E+02  0.10566000000E+00 0. -1.
         23    2    1    0    0    0  0.91707212128E+01 -0.13574160973E+02  0.58274755083E+01  0.10761266425E+03  0.10619871027E+03 0.  0.
         13    1    3    3    0    0 -0.38838439757E+02  0.10005518257E+02  0.28825318505E+02  0.49390737485E+02  0.10566000000E+00 0.  1.
         22    1    1    0    0    0 -0.91707212128E+01  0.13574160973E+02 -0.58274755083E+01  0.17387335750E+02  0.00000000000E+00 0. -1.
</event>
<event>
 5    1  0.1267644E-004  0.9118800E+02  0.7818608E-02  0.1130116E+00
         25   -1    0    0    0    0  0.00000000000E+00  0.00000000000E+00  0.99999998245E-14  0.12500000000E+03  0.12500000000E+03 0.  0.
        -13    1    3    3    0    0 -0.10015484487E+02  0.20664471044E+02  0.23724610157E+02  0.33018155371E+02  0.10566000000E+00 0.  1.
         23    2    1    0    0    0  0.56902224689E+01 -0.32720853534E+02  0.82042722899E+01  0.90789724182E+02  0.84097746970E+02 0.  0.
         13    1    3    3    0    0  0.15705706956E+02 -0.53385324578E+02 -0.15520337867E+02  0.57771568810E+02  0.10566000000E+00 0. -1.
         22    1    1    0    0    0 -0.56902224689E+01  0.32720853534E+02 -0.82042722899E+01  0.34210275818E+02  0.00000000000E+00 0. -1.
</event>
<event>
 5    1  0.1267644E-004  0.9118800E+02  0.7818608E-02  0.1130116E+00
         25   -1    0    0    0    0  0.00000000000E+00  0.00000000000E+00  0.99999998245E-14  0.12500000000E+03  0.12500000000E+03 0.  0.
        -13    1    3    3    0    0 -0.17148064710E+02  0.51069798745E+02  0.11470182293E+02  0.55079548955E+02  0.10566000000E+00 0.  1.
         23    2    1    0    0    0 -0.25633690945E+02  0.12376730464E+02 -0.72034477239E+00  0.96525652509E+02  0.92230218081E+02 0.  0.
         13    1    3    3    0    0 -0.84856262355E+01 -0.38693068282E+02 -0.12190527066E+02  0.41446103554E+02  0.10566000000E+00 0. -1.
         22    1    1    0    0    0  0.25633690945E+02 -0.12376730464E+02  0.72034477239E+00  0.28474347491E+02  0.00000000000E+00 0.  1.
</event>
<event>
 5    1  0.1267644E-004  0.9118800E+02  0.7818608E-02  0.1130116E+00
         25   -1    0    0    0    0  0.00000000000E+00  0.00000000000E+00  0.99999998245E-14  0.12500000000E+03  0.12500000000E+03 0.  0.
        -13    1    3    3    0    0 -0.40327258738E+01 -0.37023768333E+02  0.27522294775E+01  0.37344453814E+02  0.10566000000E+00 0.  1.
         23    2    1    0    0    0 -0.18397689222E+02  0.14391458256E+02 -0.18900700585E+02  0.94952944869E+02  0.90073504524E+02 0.  0.
         13    1    3    3    0    0 -0.14364963348E+02  0.51415226590E+02 -0.21652930062E+02  0.57608491054E+02  0.10566000000E+00 0. -1.
         22    1    1    0    0    0  0.18397689222E+02 -0.14391458256E+02  0.18900700585E+02  0.30047055131E+02  0.00000000000E+00 0. -1.
</event>
<event>
 5    1  0.1267644E-004  0.9118800E+02  0.7818608E-02  0.1130116E+00
         25   -1    0    0    0    0  0.00000000000E+00  0.00000000000E+00  0.99999998245E-14  0.12500000000E+03  0.12500000000E+03 0.  0.
        -13    1    3    3    0    0 -0.25369392639E+02  0.27822821829E+02  0.54038220049E+01  0.38038506197E+02  0.10566000000E+00 0. -1.
         23    2    1    0    0    0  0.20403742663E+02  0.77387167697E+01 -0.21125119314E+02  0.94627790367E+02  0.89621133623E+02 0.  0.
         13    1    3    3    0    0  0.45773135302E+02 -0.20084105059E+02 -0.26528941319E+02  0.56589284171E+02  0.10566000000E+00 0.  1.
         22    1    1    0    0    0 -0.20403742663E+02 -0.77387167697E+01  0.21125119314E+02  0.30372209633E+02  0.00000000000E+00 0.  1.
</event>
<event>
 5    1  0.1267644E-004  0.9118800E+02  0.7818608E-02  0.1130116E+00
         25   -1    0    0    0    0  0.00000000000E+00  0.00000000000E+00  0.99999998245E-14  0.12500000000E+03  0.12500000000E+03 0.  0.
        -13    1    3    3    0    0 -0.29274284587E+02 -0.31514910318E+02  0.74410001104E+01  0.43652639749E+02  0.10566000000E+00 0.  1.
         23    2    1    0    0    0  0.12754898702E+02 -0.18321218428E+02 -0.19558735950E+02  0.95320063384E+02  0.90581542523E+02 0.  0.
         13    1    3    3    0    0  0.42029183289E+02  0.13193691890E+02 -0.26999736061E+02  0.51667423634E+02  0.10566000000E+00 0. -1.
         22    1    1    0    0    0 -0.12754898702E+02  0.18321218428E+02  0.19558735950E+02  0.29679936616E+02  0.00000000000E+00 0. -1.
</event>
<event>
 5    1  0.1267644E-004  0.9118800E+02  0.7818608E-02  0.1130116E+00
         25   -1    0    0    0    0  0.00000000000E+00  0.00000000000E+00  0.99999998245E-14  0.12500000000E+03  0.12500000000E+03 0.  0.
        -13    1    3    3    0    0  0.42421435274E+02  0.11348386054E+02 -0.39361788213E+02  0.58972244082E+02  0.10566000000E+00 0.  1.
         23    2    1    0    0    0  0.10224487587E+02  0.16555644082E+02 -0.20873861025E+02  0.96463224227E+02  0.92145569925E+02 0.  0.
         13    1    3    3    0    0 -0.32196947686E+02  0.52072580285E+01  0.18487927188E+02  0.37490980145E+02  0.10566000000E+00 0. -1.
         22    1    1    0    0    0 -0.10224487587E+02 -0.16555644082E+02  0.20873861025E+02  0.28536775773E+02  0.00000000000E+00 0.  1.
</event>
<event>
 5    1  0.1267644E-004  0.9118800E+02  0.7818608E-02  0.1130116E+00
         25   -1    0    0    0    0  0.00000000000E+00  0.00000000000E+00  0.99999998245E-14  0.12500000000E+03  0.12500000000E+03 0.  0.
        -13    1    3    3    0    0  0.46807589999E+01  0.61466917829E+00  0.37402604773E+02  0.37699513668E+02  0.10566000000E+00 0.  1.
         23    2    1    0    0    0 -0.18389159194E+02  0.17591345225E+02 -0.13563309489E+02  0.96162871728E+02  0.91737222173E+02 0.  0.
         13    1    3    3    0    0 -0.23069918194E+02  0.16976676047E+02 -0.50965914261E+02  0.58463358060E+02  0.10566000000E+00 0. -1.
         22    1    1    0    0    0  0.18389159194E+02 -0.17591345225E+02  0.13563309489E+02  0.28837128272E+02  0.00000000000E+00 0. -1.
</event>
<event>
 5    1  0.1267644E-004  0.9118800E+02  0.7818608E-02  0.1130116E+00
         25   -1    0    0    0    0  0.00000000000E+00  0.00000000000E+00  0.99999998245E-14  0.12500000000E+03  0.12500000000E+03 0.  0.
        -13    1    3    3    0    0  0.32944361402E+02  0.17111819469E+02 -0.18903015531E+02  0.41659098333E+02  0.10566000000E+00 0.  1.
         23    2    1    0    0    0 -0.16167965042E+02  0.25921586349E+02 -0.18329272539E+01  0.94394586185E+02  0.89295277290E+02 0.  0.
         13    1    3    3    0    0 -0.49112326444E+02  0.88097668808E+01  0.17070088277E+02  0.52735487852E+02  0.10566000000E+00 0. -1.
         22    1    1    0    0    0  0.16167965042E+02 -0.25921586349E+02  0.18329272539E+01  0.30605413815E+02  0.00000000000E+00 0. -1.
</event>
<event>
 5    1  0.1267644E-004  0.9118800E+02  0.7818608E-02  0.1130116E+00
         25   -1    0    0    0    0  0.00000000000E+00  0.00000000000E+00  0.99999998245E-14  0.12500000000E+03  0.12500000000E+03 0.  0.
        -13    1    3    3    0    0  0.21396344425E+02  0.49411733513E+02  0.18891888441E+01  0.53878596511E+02  0.10566000000E+00 0. -1.
         23    2    1    0    0    0  0.23165130110E+02  0.97698308018E+01  0.15065594008E+02  0.95690531057E+02  0.91091342971E+02 0.  0.
         13    1    3    3    0    0  0.17687856848E+01 -0.39641902711E+02  0.13176405164E+02  0.41811934545E+02  0.10566000000E+00 0.  1.
         22    1    1    0    0    0 -0.23165130110E+02 -0.97698308018E+01 -0.15065594008E+02  0.29309468943E+02  0.00000000000E+00 0. -1.
</event>
<event>
 5    1  0.1267644E-004  0.9118800E+02  0.7818608E-02  0.1130116E+00
         25   -1    0    0    0    0  0.00000000000E+00  0.00000000000E+00  0.99999998245E-14  0.12500000000E+03  0.12500000000E+03 0.  0.
        -13    1    3    3    0    0 -0.53133213652E+01  0.20500525891E+02  0.28086837200E+02  0.35176476993E+02  0.10566000000E+00 0.  1.
         23    2    1    0    0    0  0.10421984509E+02 -0.29558071363E+02  0.24919257494E+01  0.93559468234E+02  0.88118483069E+02 0.  0.
         13    1    3    3    0    0  0.15735305875E+02 -0.50058597254E+02 -0.25594911451E+02  0.58382991240E+02  0.10566000000E+00 0. -1.
         22    1    1    0    0    0 -0.10421984509E+02  0.29558071363E+02 -0.24919257494E+01  0.31440531766E+02  0.00000000000E+00 0. -1.
</event>
<event>
 5    1  0.1267644E-004  0.9118800E+02  0.7818608E-02  0.1130116E+00
         25   -1    0    0    0    0  0.00000000000E+00  0.00000000000E+00  0.99999998245E-14  0.12500000000E+03  0.12500000000E+03 0.  0.
        -13    1    3    3    0    0  0.33606785711E+02  0.32374451101E+02  0.90217291900E+01  0.47528137893E+02  0.10566000000E+00 0. -1.
         23    2    1    0    0    0  0.68144390438E+01  0.10225338811E+02 -0.25608337429E+02  0.96596108028E+02  0.92325657361E+02 0.  0.
         13    1    3    3    0    0 -0.26792346667E+02 -0.22149112290E+02 -0.34630066619E+02  0.49067970136E+02  0.10566000000E+00 0.  1.
         22    1    1    0    0    0 -0.68144390438E+01 -0.10225338811E+02  0.25608337429E+02  0.28403891972E+02  0.00000000000E+00 0.  1.
</event>
<event>
 5    1  0.1267644E-004  0.9118800E+02  0.7818608E-02  0.1130116E+00
         25   -1    0    0    0    0  0.00000000000E+00  0.00000000000E+00  0.99999998245E-14  0.12500000000E+03  0.12500000000E+03 0.  0.
        -13    1    3    3    0    0  0.48965042629E+02 -0.58850384766E+01  0.29699600894E+02  0.57569840497E+02  0.10566000000E+00 0.  1.
         23    2    1    0    0    0  0.16139468341E+02 -0.18102391130E+02  0.18993816344E+02  0.94195064320E+02  0.89015538419E+02 0.  0.
         13    1    3    3    0    0 -0.32825574288E+02 -0.12217352653E+02 -0.10705784551E+02  0.36625223823E+02  0.10566000000E+00 0. -1.
         22    1    1    0    0    0 -0.16139468341E+02  0.18102391130E+02 -0.18993816344E+02  0.30804935680E+02  0.00000000000E+00 0.  1.
</event>
<event>
 5    1  0.1267644E-004  0.9118800E+02  0.7818608E-02  0.1130116E+00
         25   -1    0    0    0    0  0.00000000000E+00  0.00000000000E+00  0.99999998245E-14  0.12500000000E+03  0.12500000000E+03 0.  0.
        -13    1    3    3    0    0  0.37550989470E+02 -0.15211193857E+02  0.17081973020E+02  0.43968877573E+02  0.10566000000E+00 0.  1.
         23    2    1    0    0    0 -0.10610730808E+02  0.49912876090E+01  0.25558737283E+02  0.96879729522E+02  0.92708858155E+02 0.  0.
         13    1    3    3    0    0 -0.48161720278E+02  0.20202481467E+02  0.84767642629E+01  0.52910851949E+02  0.10566000000E+00 0. -1.
         22    1    1    0    0    0  0.10610730808E+02 -0.49912876090E+01 -0.25558737283E+02  0.28120270478E+02  0.00000000000E+00 0.  1.
</event>
<event>
 5    1  0.1267644E-004  0.9118800E+02  0.7818608E-02  0.1130116E+00
         25   -1    0    0    0    0  0.00000000000E+00  0.00000000000E+00  0.99999998245E-14  0.12500000000E+03  0.12500000000E+03 0.  0.
        -13    1    3    3    0    0 -0.14356720528E+02  0.40884870763E+02 -0.41224875235E+02  0.59809611132E+02  0.10566000000E+00 0. -1.
         23    2    1    0    0    0 -0.10047006414E+02  0.81144226205E+01 -0.25508275706E+02  0.96408771942E+02  0.92071673089E+02 0.  0.
         13    1    3    3    0    0  0.43097141140E+01 -0.32770448142E+02  0.15716599529E+02  0.36599160810E+02  0.10566000000E+00 0.  1.
         22    1    1    0    0    0  0.10047006414E+02 -0.81144226205E+01  0.25508275706E+02  0.28591228058E+02  0.00000000000E+00 0. -1.
</event>
<event>
 5    1  0.1267644E-004  0.9118800E+02  0.7818608E-02  0.1130116E+00
         25   -1    0    0    0    0  0.00000000000E+00  0.00000000000E+00  0.99999998245E-14  0.12500000000E+03  0.12500000000E+03 0.  0.
        -13    1    3    3    0    0  0.33554692031E+02  0.16426760570E+02  0.21002496361E+01  0.37418952854E+02  0.10566000000E+00 0. -1.
         23    2    1    0    0    0 -0.13475425073E+01 -0.25337687576E+02 -0.16263483001E+02  0.94861732601E+02  0.89946835132E+02 0.  0.
         13    1    3    3    0    0 -0.34902234538E+02 -0.41764448145E+02 -0.18363732637E+02  0.57442779747E+02  0.10566000000E+00 0.  1.
         22    1    1    0    0    0  0.13475425073E+01  0.25337687576E+02  0.16263483001E+02  0.30138267399E+02  0.00000000000E+00 0.  1.
</event>
<event>
 5    1  0.1267644E-004  0.9118800E+02  0.7818608E-02  0.1130116E+00
         25   -1    0    0    0    0  0.00000000000E+00  0.00000000000E+00  0.99999998245E-14  0.12500000000E+03  0.12500000000E+03 0.  0.
        -13    1    3    3    0    0  0.26859341147E+02  0.12394745917E+02  0.30766421249E+02  0.42680648703E+02  0.10566000000E+00 0. -1.
         23    2    1    0    0    0 -0.20124349279E+02 -0.73066087959E+01  0.21862773565E+02  0.94400051733E+02  0.89302927909E+02 0.  0.
         13    1    3    3    0    0 -0.46983690426E+02 -0.19701354713E+02 -0.89036476840E+01  0.51719403029E+02  0.10566000000E+00 0.  1.
         22    1    1    0    0    0  0.20124349279E+02  0.73066087959E+01 -0.21862773565E+02  0.30599948267E+02  0.00000000000E+00 0.  1.
</event>
<event>
 5    1  0.1267644E-004  0.9118800E+02  0.7818608E-02  0.1130116E+00
         25   -1    0    0    0    0  0.00000000000E+00  0.00000000000E+00  0.99999998245E-14  0.12500000000E+03  0.12500000000E+03 0.  0.
        -13    1    3    3    0    0 -0.31231012880E+02  0.11486139114E+02 -0.37244163499E+02  0.49944433484E+02  0.10566000000E+00 0.  1.
         23    2    1    0    0    0 -0.11746978594E+02 -0.22790793827E+02 -0.16669181820E+02  0.94417759861E+02  0.89327711071E+02 0.  0.
         13    1    3    3    0    0  0.19484034286E+02 -0.34276932941E+02  0.20574981679E+02  0.44473326377E+02  0.10566000000E+00 0. -1.
         22    1    1    0    0    0  0.11746978594E+02  0.22790793827E+02  0.16669181820E+02  0.30582240139E+02  0.00000000000E+00 0. -1.
</event>
<event>
 5    1  0.1267644E-004  0.9118800E+02  0.7818608E-02  0.1130116E+00
         25   -1    0    0    0    0  0.00000000000E+00  0.00000000000E+00  0.99999998245E-14  0.12500000000E+03  0.12500000000E+03 0.  0.
        -13    1    3    3    0    0 -0.12802621443E+02 -0.38654182551E+02 -0.39093700533E+02  0.56448042746E+02  0.10566000000E+00 0.  1.
         23    2    1    0    0    0 -0.11502254753E+02 -0.29844638870E+02 -0.38674431230E+01  0.92782590886E+02  0.87009469149E+02 0.  0.
         13    1    3    3    0    0  0.13003666910E+01  0.88095436806E+01  0.35226257410E+02  0.36334548140E+02  0.10566000000E+00 0. -1.
         22    1    1    0    0    0  0.11502254753E+02  0.29844638870E+02  0.38674431230E+01  0.32217409114E+02  0.00000000000E+00 0. -1.
</event>
<event>
 5    1  0.1267644E-004  0.9118800E+02  0.7818608E-02  0.1130116E+00
         25   -1    0    0    0    0  0.00000000000E+00  0.00000000000E+00  0.99999998245E-14  0.12500000000E+03  0.12500000000E+03 0.  0.
        -13    1    3    3    0    0 -0.17238966087E+02 -0.29445841560E+02 -0.10317797494E+02  0.35646986493E+02  0.10566000000E+00 0.  1.
         23    2    1    0    0    0  0.21422022999E+01 -0.29105077819E+02  0.31694672776E+02  0.81915816500E+02  0.69670324564E+02 0.  0.
         13    1    3    3    0    0  0.19381168387E+02  0.34076374086E+00  0.42012470270E+02  0.46268830006E+02  0.10566000000E+00 0. -1.
         22    1    1    0    0    0 -0.21422022999E+01  0.29105077819E+02 -0.31694672776E+02  0.43084183500E+02  0.00000000000E+00 0. -1.
</event>
<event>
 5    1  0.1267644E-004  0.9118800E+02  0.7818608E-02  0.1130116E+00
         25   -1    0    0    0    0  0.00000000000E+00  0.00000000000E+00  0.99999998245E-14  0.12500000000E+03  0.12500000000E+03 0.  0.
        -13    1    3    3    0    0  0.13465978358E+02 -0.21063949781E+02  0.35331575832E+02  0.43282259279E+02  0.10566000000E+00 0.  1.
         23    2    1    0    0    0 -0.26962002318E+02  0.13609736201E+01  0.86942929983E+01  0.96638185021E+02  0.92382607969E+02 0.  0.
         13    1    3    3    0    0 -0.40427980675E+02  0.22424923401E+02 -0.26637282833E+02  0.53355925742E+02  0.10566000000E+00 0. -1.
         22    1    1    0    0    0  0.26962002318E+02 -0.13609736201E+01 -0.86942929983E+01  0.28361814979E+02  0.00000000000E+00 0. -1.
</event>
<event>
 5    1  0.1267644E-004  0.9118800E+02  0.7818608E-02  0.1130116E+00
         25   -1    0    0    0    0  0.00000000000E+00  0.00000000000E+00  0.99999998245E-14  0.12500000000E+03  0.12500000000E+03 0.  0.
        -13    1    3    3    0    0  0.20795532118E+02  0.17816431577E+02 -0.38411644018E+02  0.47173561985E+02  0.10566000000E+00 0. -1.
         23    2    1    0    0    0 -0.10531200537E+02  0.27227101074E+02 -0.25747639041E+01  0.95693846605E+02  0.91095892615E+02 0.  0.
         13    1    3    3    0    0 -0.31326732655E+02  0.94106694969E+01  0.35836880114E+02  0.48520284620E+02  0.10566000000E+00 0.  1.
         22    1    1    0    0    0  0.10531200537E+02 -0.27227101074E+02  0.25747639041E+01  0.29306153395E+02  0.00000000000E+00 0.  1.
</event>
<event>
 5    1  0.1267644E-004  0.9118800E+02  0.7818608E-02  0.1130116E+00
         25   -1    0    0    0    0  0.00000000000E+00  0.00000000000E+00  0.99999998245E-14  0.12500000000E+03  0.12500000000E+03 0.  0.
        -13    1    3    3    0    0  0.32818193635E+02 -0.22940543736E+01  0.22063647616E+02  0.39612021270E+02  0.10566000000E+00 0.  1.
         23    2    1    0    0    0  0.99861287540E+01  0.25790183306E+02 -0.16737172632E+02  0.92673706210E+02  0.86852901808E+02 0.  0.
         13    1    3    3    0    0 -0.22832064881E+02  0.28084237680E+02 -0.38800820248E+02  0.53061684941E+02  0.10566000000E+00 0. -1.
         22    1    1    0    0    0 -0.99861287540E+01 -0.25790183306E+02  0.16737172632E+02  0.32326293790E+02  0.00000000000E+00 0. -1.
</event>
<event>
 5    1  0.1267644E-004  0.9118800E+02  0.7818608E-02  0.1130116E+00
         25   -1    0    0    0    0  0.00000000000E+00  0.00000000000E+00  0.99999998245E-14  0.12500000000E+03  0.12500000000E+03 0.  0.
        -13    1    3    3    0    0 -0.11906015824E+01 -0.28941769322E+01  0.33538961576E+02  0.33684817053E+02  0.10566000000E+00 0. -1.
         23    2    1    0    0    0  0.90311856886E+00 -0.50106835615E+01 -0.28627829845E+02  0.95922943503E+02  0.91409714340E+02 0.  0.
         13    1    3    3    0    0  0.20937201512E+01 -0.21165066294E+01 -0.62166791421E+02  0.62238126450E+02  0.10566000000E+00 0.  1.
         22    1    1    0    0    0 -0.90311856886E+00  0.50106835615E+01  0.28627829845E+02  0.29077056497E+02  0.00000000000E+00 0.  1.
</event>
<event>
 5    1  0.1267644E-004  0.9118800E+02  0.7818608E-02  0.1130116E+00
         25   -1    0    0    0    0  0.00000000000E+00  0.00000000000E+00  0.99999998245E-14  0.12500000000E+03  0.12500000000E+03 0.  0.
        -13    1    3    3    0    0 -0.20821544577E+02 -0.17901764650E+02 -0.40148684275E+02  0.48640907775E+02  0.10566000000E+00 0. -1.
         23    2    1    0    0    0 -0.19604506674E+02  0.18727404206E+02 -0.99820728728E+01  0.96108926482E+02  0.91663687578E+02 0.  0.
         13    1    3    3    0    0  0.12170379030E+01  0.36629168856E+02  0.30166611402E+02  0.47468018706E+02  0.10566000000E+00 0.  1.
         22    1    1    0    0    0  0.19604506674E+02 -0.18727404206E+02  0.99820728728E+01  0.28891073518E+02  0.00000000000E+00 0.  1.
</event>
<event>
 5    1  0.1267644E-004  0.9118800E+02  0.7818608E-02  0.1130116E+00
         25   -1    0    0    0    0  0.00000000000E+00  0.00000000000E+00  0.99999998245E-14  0.12500000000E+03  0.12500000000E+03 0.  0.
        -13    1    3    3    0    0  0.89405062391E+00 -0.32779264457E+02 -0.29178051083E+02  0.43893613817E+02  0.10566000000E+00 0. -1.
         23    2    1    0    0    0 -0.16794087364E+02 -0.22680561972E+02  0.15360877578E+02  0.92868927473E+02  0.87133414189E+02 0.  0.
         13    1    3    3    0    0 -0.17688137988E+02  0.10098702485E+02  0.44538928661E+02  0.48975313656E+02  0.10566000000E+00 0.  1.
         22    1    1    0    0    0  0.16794087364E+02  0.22680561972E+02 -0.15360877578E+02  0.32131072527E+02  0.00000000000E+00 0.  1.
</event>
<event>
 5    1  0.1267644E-004  0.9118800E+02  0.7818608E-02  0.1130116E+00
         25   -1    0    0    0    0  0.00000000000E+00  0.00000000000E+00  0.99999998245E-14  0.12500000000E+03  0.12500000000E+03 0.  0.
        -13    1    3    3    0    0 -0.17116714417E+01  0.34777037212E+02 -0.21144456518E+01  0.34883437055E+02  0.10566000000E+00 0.  1.
         23    2    1    0    0    0 -0.51891732188E+00 -0.26033585773E+02  0.10367120752E+02  0.96973333126E+02  0.92834978761E+02 0.  0.
         13    1    3    3    0    0  0.11927541198E+01 -0.60810622984E+02  0.12481566404E+02  0.62089896071E+02  0.10566000000E+00 0. -1.
         22    1    1    0    0    0  0.51891732188E+00  0.26033585773E+02 -0.10367120752E+02  0.28026666874E+02  0.00000000000E+00 0. -1.
</event>
<event>
 5    1  0.1267644E-004  0.9118800E+02  0.7818608E-02  0.1130116E+00
         25   -1    0    0    0    0  0.00000000000E+00  0.00000000000E+00  0.99999998245E-14  0.12500000000E+03  0.12500000000E+03 0.  0.
        -13    1    3    3    0    0  0.49444371969E+01  0.67698389514E+01  0.56968407817E+02  0.57582018303E+02  0.10566000000E+00 0.  1.
         23    2    1    0    0    0  0.80844728377E+01  0.20440884666E+02  0.33145222785E+02  0.85228222815E+02  0.75379411670E+02 0.  0.
         13    1    3    3    0    0  0.31400356408E+01  0.13671045715E+02 -0.23823185033E+02  0.27646204512E+02  0.10566000000E+00 0. -1.
         22    1    1    0    0    0 -0.80844728377E+01 -0.20440884666E+02 -0.33145222785E+02  0.39771777185E+02  0.00000000000E+00 0.  1.
</event>
<event>
 5    1  0.1267644E-004  0.9118800E+02  0.7818608E-02  0.1130116E+00
         25   -1    0    0    0    0  0.00000000000E+00  0.00000000000E+00  0.99999998245E-14  0.12500000000E+03  0.12500000000E+03 0.  0.
        -13    1    3    3    0    0  0.11335926948E+02  0.11525413481E+02  0.27488961486E+02  0.31890320840E+02  0.10566000000E+00 0.  1.
         23    2    1    0    0    0 -0.12131760965E+02 -0.22296701163E+02 -0.18483097975E+02  0.93600200357E+02  0.88176244472E+02 0.  0.
         13    1    3    3    0    0 -0.23467687913E+02 -0.33822114644E+02 -0.45972059461E+02  0.61709879517E+02  0.10566000000E+00 0. -1.
         22    1    1    0    0    0  0.12131760965E+02  0.22296701163E+02  0.18483097975E+02  0.31399799643E+02  0.00000000000E+00 0. -1.
</event>
<event>
 5    1  0.1267644E-004  0.9118800E+02  0.7818608E-02  0.1130116E+00
         25   -1    0    0    0    0  0.00000000000E+00  0.00000000000E+00  0.99999998245E-14  0.12500000000E+03  0.12500000000E+03 0.  0.
        -13    1    3    3    0    0 -0.23776741354E+02 -0.84821340715E+01 -0.27616173963E+02  0.37415828952E+02  0.10566000000E+00 0.  1.
         23    2    1    0    0    0  0.13296935743E+01 -0.18576405082E+02  0.23357354230E+02  0.95126652223E+02  0.90314246139E+02 0.  0.
         13    1    3    3    0    0  0.25106434928E+02 -0.10094271011E+02  0.50973528193E+02  0.57710823270E+02  0.10566000000E+00 0. -1.
         22    1    1    0    0    0 -0.13296935743E+01  0.18576405082E+02 -0.23357354230E+02  0.29873347777E+02  0.00000000000E+00 0. -1.
</event>
<event>
 5    1  0.1267644E-004  0.9118800E+02  0.7818608E-02  0.1130116E+00
         25   -1    0    0    0    0  0.00000000000E+00  0.00000000000E+00  0.99999998245E-14  0.12500000000E+03  0.12500000000E+03 0.  0.
        -13    1    3    3    0    0 -0.37398381471E+02  0.87056120330E+01  0.34233217425E+02  0.51442695855E+02  0.10566000000E+00 0. -1.
         23    2    1    0    0    0 -0.59286553408E+01  0.27477017084E+02  0.11091932360E+02  0.94781356988E+02  0.89835066912E+02 0.  0.
         13    1    3    3    0    0  0.31469726130E+02  0.18771405051E+02 -0.23141285065E+02  0.43338661133E+02  0.10566000000E+00 0.  1.
         22    1    1    0    0    0  0.59286553408E+01 -0.27477017084E+02 -0.11091932360E+02  0.30218643012E+02  0.00000000000E+00 0. -1.
</event>
<event>
 5    1  0.1267644E-004  0.9118800E+02  0.7818608E-02  0.1130116E+00
         25   -1    0    0    0    0  0.00000000000E+00  0.00000000000E+00  0.99999998245E-14  0.12500000000E+03  0.12500000000E+03 0.  0.
        -13    1    3    3    0    0  0.35879186265E+02 -0.28089650712E+02 -0.27611317269E+02  0.53279831921E+02  0.10566000000E+00 0.  1.
         23    2    1    0    0    0  0.21823090752E+02  0.85011306437E+01 -0.21981448320E+02  0.92879903760E+02  0.87149159147E+02 0.  0.
         13    1    3    3    0    0 -0.14056095513E+02  0.36590781355E+02  0.56298689489E+01  0.39600071839E+02  0.10566000000E+00 0. -1.
         22    1    1    0    0    0 -0.21823090752E+02 -0.85011306437E+01  0.21981448320E+02  0.32120096240E+02  0.00000000000E+00 0.  1.
</event>
<event>
 5    1  0.1267644E-004  0.9118800E+02  0.7818608E-02  0.1130116E+00
         25   -1    0    0    0    0  0.00000000000E+00  0.00000000000E+00  0.99999998245E-14  0.12500000000E+03  0.12500000000E+03 0.  0.
        -13    1    3    3    0    0  0.10909512030E+02  0.39864609016E+00  0.34234338778E+02  0.35932958228E+02  0.10566000000E+00 0.  1.
         23    2    1    0    0    0 -0.13025219148E+02 -0.16647238132E+02 -0.18896094869E+02  0.96647764240E+02  0.92395568400E+02 0.  0.
         13    1    3    3    0    0 -0.23934731178E+02 -0.17045884222E+02 -0.53130433647E+02  0.60714806012E+02  0.10566000000E+00 0. -1.
         22    1    1    0    0    0  0.13025219148E+02  0.16647238132E+02  0.18896094869E+02  0.28352235760E+02  0.00000000000E+00 0. -1.
</event>
<event>
 5    1  0.1267644E-004  0.9118800E+02  0.7818608E-02  0.1130116E+00
         25   -1    0    0    0    0  0.00000000000E+00  0.00000000000E+00  0.99999998245E-14  0.12500000000E+03  0.12500000000E+03 0.  0.
        -13    1    3    3    0    0  0.11703320681E+02  0.53787486643E+02 -0.19917699019E+02  0.58538767774E+02  0.10566000000E+00 0.  1.
         23    2    1    0    0    0  0.18580352451E+02  0.17511849062E+02 -0.13841321938E+02  0.95957332289E+02  0.91456727868E+02 0.  0.
         13    1    3    3    0    0  0.68770317701E+01 -0.36275637581E+02  0.60763770805E+01  0.37418564515E+02  0.10566000000E+00 0. -1.
         22    1    1    0    0    0 -0.18580352451E+02 -0.17511849062E+02  0.13841321938E+02  0.29042667711E+02  0.00000000000E+00 0.  1.
</event>
<event>
 5    1  0.1267644E-004  0.9118800E+02  0.7818608E-02  0.1130116E+00
         25   -1    0    0    0    0  0.00000000000E+00  0.00000000000E+00  0.99999998245E-14  0.12500000000E+03  0.12500000000E+03 0.  0.
        -13    1    3    3    0    0  0.26702377614E+02 -0.85641763638E+01  0.25951842941E+02  0.38208263544E+02  0.10566000000E+00 0. -1.
         23    2    1    0    0    0  0.34618995337E+01  0.26511544930E+02 -0.12751677397E+02  0.95378183050E+02  0.90661710565E+02 0.  0.
         13    1    3    3    0    0 -0.23240478080E+02  0.35075721294E+02 -0.38703520338E+02  0.57169919506E+02  0.10566000000E+00 0.  1.
         22    1    1    0    0    0 -0.34618995337E+01 -0.26511544930E+02  0.12751677397E+02  0.29621816950E+02  0.00000000000E+00 0.  1.
</event>
<event>
 5    1  0.1267644E-004  0.9118800E+02  0.7818608E-02  0.1130116E+00
         25   -1    0    0    0    0  0.00000000000E+00  0.00000000000E+00  0.99999998245E-14  0.12500000000E+03  0.12500000000E+03 0.  0.
        -13    1    3    3    0    0 -0.13180342015E+02  0.19408302797E+01 -0.56433287109E+02  0.57984612578E+02  0.10566000000E+00 0.  1.
         23    2    1    0    0    0 -0.70449357855E+01  0.17793109846E+02 -0.30584194284E+02  0.88922045260E+02  0.81274296767E+02 0.  0.
         13    1    3    3    0    0  0.61354062290E+01  0.15852279566E+02  0.25849092825E+02  0.30937432682E+02  0.10566000000E+00 0. -1.
         22    1    1    0    0    0  0.70449357855E+01 -0.17793109846E+02  0.30584194284E+02  0.36077954740E+02  0.00000000000E+00 0.  1.
</event>
<event>
 5    1  0.1267644E-004  0.9118800E+02  0.7818608E-02  0.1130116E+00
         25   -1    0    0    0    0  0.00000000000E+00  0.00000000000E+00  0.99999998245E-14  0.12500000000E+03  0.12500000000E+03 0.  0.
        -13    1    3    3    0    0 -0.27236246991E+02 -0.41454393992E+02  0.18090478356E+01  0.49634300131E+02  0.10566000000E+00 0.  1.
         23    2    1    0    0    0  0.33879576501E+01 -0.18402142620E+02 -0.23043000588E+02  0.95316722113E+02  0.90576931545E+02 0.  0.
         13    1    3    3    0    0  0.30624204641E+02  0.23052251372E+02 -0.24852048424E+02  0.45682421981E+02  0.10566000000E+00 0. -1.
         22    1    1    0    0    0 -0.33879576501E+01  0.18402142620E+02  0.23043000588E+02  0.29683277887E+02  0.00000000000E+00 0. -1.
</event>
<event>
 5    1  0.1267644E-004  0.9118800E+02  0.7818608E-02  0.1130116E+00
         25   -1    0    0    0    0  0.00000000000E+00  0.00000000000E+00  0.99999998245E-14  0.12500000000E+03  0.12500000000E+03 0.  0.
        -13    1    3    3    0    0 -0.34998709375E+02 -0.43687185512E+02 -0.19927822162E+02  0.59418928769E+02  0.10566000000E+00 0. -1.
         23    2    1    0    0    0 -0.60088111331E+01 -0.28280079209E+02 -0.43287941503E+01  0.95766335329E+02  0.91195305977E+02 0.  0.
         13    1    3    3    0    0  0.28989898242E+02  0.15407106303E+02  0.15599028011E+02  0.36347406560E+02  0.10566000000E+00 0.  1.
         22    1    1    0    0    0  0.60088111331E+01  0.28280079209E+02  0.43287941503E+01  0.29233664671E+02  0.00000000000E+00 0. -1.
</event>
<event>
 5    1  0.1267644E-004  0.9118800E+02  0.7818608E-02  0.1130116E+00
         25   -1    0    0    0    0  0.00000000000E+00  0.00000000000E+00  0.99999998245E-14  0.12500000000E+03  0.12500000000E+03 0.  0.
        -13    1    3    3    0    0  0.19774098881E+02  0.27887786220E+02 -0.31705455247E+01  0.34333760787E+02  0.10566000000E+00 0. -1.
         23    2    1    0    0    0  0.23521585446E+01 -0.28358435126E+02  0.10299623480E+02  0.94737552372E+02  0.89774094776E+02 0.  0.
         13    1    3    3    0    0 -0.17421940337E+02 -0.56246221346E+02  0.13470169004E+02  0.60403791585E+02  0.10566000000E+00 0.  1.
         22    1    1    0    0    0 -0.23521585446E+01  0.28358435126E+02 -0.10299623480E+02  0.30262447628E+02  0.00000000000E+00 0.  1.
</event>
<event>
 5    1  0.1267644E-004  0.9118800E+02  0.7818608E-02  0.1130116E+00
         25   -1    0    0    0    0  0.00000000000E+00  0.00000000000E+00  0.99999998245E-14  0.12500000000E+03  0.12500000000E+03 0.  0.
        -13    1    3    3    0    0  0.15164892484E+02 -0.16410501622E+02  0.21573393961E+02  0.31059636485E+02  0.10566000000E+00 0.  1.
         23    2    1    0    0    0  0.25720286836E+02  0.11184276420E+02 -0.25800318330E+02  0.86891239591E+02  0.78088474808E+02 0.  0.
         13    1    3    3    0    0  0.10555394352E+02  0.27594778042E+02 -0.47373712291E+02  0.55831603106E+02  0.10566000000E+00 0. -1.
         22    1    1    0    0    0 -0.25720286836E+02 -0.11184276420E+02  0.25800318330E+02  0.38108760409E+02  0.00000000000E+00 0. -1.
</event>
<event>
 5    1  0.1267644E-004  0.9118800E+02  0.7818608E-02  0.1130116E+00
         25   -1    0    0    0    0  0.00000000000E+00  0.00000000000E+00  0.99999998245E-14  0.12500000000E+03  0.12500000000E+03 0.  0.
        -13    1    3    3    0    0 -0.28430137062E+02  0.16765407177E+02  0.17698956807E+02  0.37451512750E+02  0.10566000000E+00 0.  1.
         23    2    1    0    0    0  0.11381848550E+02  0.10285141060E+02 -0.24669298096E+02  0.95949959181E+02  0.91446649995E+02 0.  0.
         13    1    3    3    0    0  0.39811985612E+02 -0.64802661176E+01 -0.42368254903E+02  0.58498446431E+02  0.10566000000E+00 0. -1.
         22    1    1    0    0    0 -0.11381848550E+02 -0.10285141060E+02  0.24669298096E+02  0.29050040819E+02  0.00000000000E+00 0. -1.
</event>
<event>
 5    1  0.1267644E-004  0.9118800E+02  0.7818608E-02  0.1130116E+00
         25   -1    0    0    0    0  0.00000000000E+00  0.00000000000E+00  0.99999998245E-14  0.12500000000E+03  0.12500000000E+03 0.  0.
        -13    1    3    3    0    0  0.11134943505E+02  0.10893422679E+01  0.32836957451E+02  0.34690785118E+02  0.10566000000E+00 0. -1.
         23    2    1    0    0    0  0.66575514233E+01  0.53909486433E+01 -0.27935933035E+02  0.95780115114E+02  0.91214191760E+02 0.  0.
         13    1    3    3    0    0 -0.44773920816E+01  0.43016063754E+01 -0.60772890486E+02  0.61089329996E+02  0.10566000000E+00 0.  1.
         22    1    1    0    0    0 -0.66575514233E+01 -0.53909486433E+01  0.27935933035E+02  0.29219884886E+02  0.00000000000E+00 0.  1.
</event>
<event>
 5    1  0.1267644E-004  0.9118800E+02  0.7818608E-02  0.1130116E+00
         25   -1    0    0    0    0  0.00000000000E+00  0.00000000000E+00  0.99999998245E-14  0.12500000000E+03  0.12500000000E+03 0.  0.
        -13    1    3    3    0    0 -0.32259281103E+02 -0.37476208540E+02  0.16767774062E+02  0.52213952492E+02  0.10566000000E+00 0.  1.
         23    2    1    0    0    0 -0.29115677813E+02 -0.49953765322E+01 -0.93532632627E+01  0.94013551109E+02  0.88760282656E+02 0.  0.
         13    1    3    3    0    0  0.31436032896E+01  0.32480832008E+02 -0.26121037324E+02  0.41799598617E+02  0.10566000000E+00 0. -1.
         22    1    1    0    0    0  0.29115677813E+02  0.49953765322E+01  0.93532632627E+01  0.30986448891E+02  0.00000000000E+00 0.  1.
</event>
<event>
 5    1  0.1267644E-004  0.9118800E+02  0.7818608E-02  0.1130116E+00
         25   -1    0    0    0    0  0.00000000000E+00  0.00000000000E+00  0.99999998245E-14  0.12500000000E+03  0.12500000000E+03 0.  0.
        -13    1    3    3    0    0 -0.47303799110E+02 -0.48311668788E+01 -0.17058339629E+02  0.50517202006E+02  0.10566000000E+00 0.  1.
         23    2    1    0    0    0 -0.22665407558E+02  0.10049157349E+02  0.16871145805E+02  0.95010971607E+02  0.90153995484E+02 0.  0.
         13    1    3    3    0    0  0.24638391552E+02  0.14880324228E+02  0.33929485434E+02  0.44493769601E+02  0.10566000000E+00 0. -1.
         22    1    1    0    0    0  0.22665407558E+02 -0.10049157349E+02 -0.16871145805E+02  0.29989028393E+02  0.00000000000E+00 0.  1.
</event>
<event>
 5    1  0.1267644E-004  0.9118800E+02  0.7818608E-02  0.1130116E+00
         25   -1    0    0    0    0  0.00000000000E+00  0.00000000000E+00  0.99999998245E-14  0.12500000000E+03  0.12500000000E+03 0.  0.
        -13    1    3    3    0    0  0.32894801783E+02 -0.11441409898E+02 -0.49304030717E+02  0.60364496634E+02  0.10566000000E+00 0.  1.
         23    2    1    0    0    0  0.25437788352E+02 -0.65421890726E+00 -0.19450731776E+02  0.92971262197E+02  0.87280098243E+02 0.  0.
         13    1    3    3    0    0 -0.74570134312E+01  0.10787190991E+02  0.29853298941E+02  0.32606765563E+02  0.10566000000E+00 0. -1.
         22    1    1    0    0    0 -0.25437788352E+02  0.65421890726E+00  0.19450731776E+02  0.32028737803E+02  0.00000000000E+00 0.  1.
</event>
<event>
 5    1  0.1267644E-004  0.9118800E+02  0.7818608E-02  0.1130116E+00
         25   -1    0    0    0    0  0.00000000000E+00  0.00000000000E+00  0.99999998245E-14  0.12500000000E+03  0.12500000000E+03 0.  0.
        -13    1    3    3    0    0  0.19730279541E+02 -0.13060325769E+02 -0.47582453445E+02  0.53140917191E+02  0.10566000000E+00 0. -1.
         23    2    1    0    0    0  0.29426329403E+02 -0.79581396370E+01 -0.90491696915E+01  0.93201756012E+02  0.87609582827E+02 0.  0.
         13    1    3    3    0    0  0.96960498614E+01  0.51021861317E+01  0.38533283754E+02  0.40060838822E+02  0.10566000000E+00 0.  1.
         22    1    1    0    0    0 -0.29426329403E+02  0.79581396370E+01  0.90491696915E+01  0.31798243988E+02  0.00000000000E+00 0. -1.
</event>
<event>
 5    1  0.1267644E-004  0.9118800E+02  0.7818608E-02  0.1130116E+00
         25   -1    0    0    0    0  0.00000000000E+00  0.00000000000E+00  0.99999998245E-14  0.12500000000E+03  0.12500000000E+03 0.  0.
        -13    1    3    3    0    0 -0.18153913452E+02 -0.20188120064E+01  0.27763506707E+02  0.33233471745E+02  0.10566000000E+00 0.  1.
         23    2    1    0    0    0  0.19413349507E+02 -0.38637063704E+01 -0.21865987616E+02  0.95505461854E+02  0.90837026942E+02 0.  0.
         13    1    3    3    0    0  0.37567262959E+02 -0.18448943640E+01 -0.49629494323E+02  0.62271990109E+02  0.10566000000E+00 0. -1.
         22    1    1    0    0    0 -0.19413349507E+02  0.38637063704E+01  0.21865987616E+02  0.29494538146E+02  0.00000000000E+00 0. -1.
</event>
<event>
 5    1  0.1267644E-004  0.9118800E+02  0.7818608E-02  0.1130116E+00
         25   -1    0    0    0    0  0.00000000000E+00  0.00000000000E+00  0.99999998245E-14  0.12500000000E+03  0.12500000000E+03 0.  0.
        -13    1    3    3    0    0 -0.22610788622E+02 -0.53423892254E+02 -0.19884410724E+02  0.61325043657E+02  0.10566000000E+00 0.  1.
         23    2    1    0    0    0 -0.10898726055E+02 -0.18799707410E+02 -0.15859752821E+02  0.98097528220E+02  0.94336536162E+02 0.  0.
         13    1    3    3    0    0  0.11712062567E+02  0.34624184844E+02  0.40246579025E+01  0.36772484563E+02  0.10566000000E+00 0. -1.
         22    1    1    0    0    0  0.10898726055E+02  0.18799707410E+02  0.15859752821E+02  0.26902471780E+02  0.00000000000E+00 0.  1.
</event>
<event>
 5    1  0.1267644E-004  0.9118800E+02  0.7818608E-02  0.1130116E+00
         25   -1    0    0    0    0  0.00000000000E+00  0.00000000000E+00  0.99999998245E-14  0.12500000000E+03  0.12500000000E+03 0.  0.
        -13    1    3    3    0    0 -0.26540102714E+02  0.18277782743E+02  0.39699080489E+02  0.51132011009E+02  0.10566000000E+00 0. -1.
         23    2    1    0    0    0  0.12259323690E+02  0.19948345180E+02  0.16277432190E+02  0.96483648700E+02  0.92173272563E+02 0.  0.
         13    1    3    3    0    0  0.38799426404E+02  0.16705624372E+01 -0.23421648299E+02  0.45351637691E+02  0.10566000000E+00 0.  1.
         22    1    1    0    0    0 -0.12259323690E+02 -0.19948345180E+02 -0.16277432190E+02  0.28516351300E+02  0.00000000000E+00 0. -1.
</event>
<event>
 5    1  0.1267644E-004  0.9118800E+02  0.7818608E-02  0.1130116E+00
         25   -1    0    0    0    0  0.00000000000E+00  0.00000000000E+00  0.99999998245E-14  0.12500000000E+03  0.12500000000E+03 0.  0.
        -13    1    3    3    0    0 -0.30326022561E+02  0.73582774958E+01  0.31714853197E+02  0.44493313761E+02  0.10566000000E+00 0. -1.
         23    2    1    0    0    0 -0.24449850997E+02 -0.28824979159E+01 -0.17299974307E+02  0.94910248937E+02  0.90014233509E+02 0.  0.
         13    1    3    3    0    0  0.58761715634E+01 -0.10240775412E+02 -0.49014827504E+02  0.50416935176E+02  0.10566000000E+00 0.  1.
         22    1    1    0    0    0  0.24449850997E+02  0.28824979159E+01  0.17299974307E+02  0.30089751063E+02  0.00000000000E+00 0. -1.
</event>
<event>
 5    1  0.1267644E-004  0.9118800E+02  0.7818608E-02  0.1130116E+00
         25   -1    0    0    0    0  0.00000000000E+00  0.00000000000E+00  0.99999998245E-14  0.12500000000E+03  0.12500000000E+03 0.  0.
        -13    1    3    3    0    0  0.40405388351E+01  0.18235137435E+02  0.56358704979E+02  0.59373066135E+02  0.10566000000E+00 0. -1.
         23    2    1    0    0    0 -0.92765132376E+01  0.83914556376E+00  0.29670451375E+02  0.93901872276E+02  0.88602867161E+02 0.  0.
         13    1    3    3    0    0 -0.13317052073E+02 -0.17395991871E+02 -0.26688253604E+02  0.34528806141E+02  0.10566000000E+00 0.  1.
         22    1    1    0    0    0  0.92765132376E+01 -0.83914556376E+00 -0.29670451375E+02  0.31098127724E+02  0.00000000000E+00 0. -1.
</event>
<event>
 5    1  0.1267644E-004  0.9118800E+02  0.7818608E-02  0.1130116E+00
         25   -1    0    0    0    0  0.00000000000E+00  0.00000000000E+00  0.99999998245E-14  0.12500000000E+03  0.12500000000E+03 0.  0.
        -13    1    3    3    0    0  0.42389429204E+02  0.35895136581E+02  0.14918030078E+02  0.57514201062E+02  0.10566000000E+00 0.  1.
         23    2    1    0    0    0  0.25855611324E+02  0.12022348143E+02 -0.89613847460E+01  0.95110939988E+02  0.90292496904E+02 0.  0.
         13    1    3    3    0    0 -0.16533817880E+02 -0.23872788438E+02 -0.23879414824E+02  0.37596738926E+02  0.10566000000E+00 0. -1.
         22    1    1    0    0    0 -0.25855611324E+02 -0.12022348143E+02  0.89613847460E+01  0.29889060012E+02  0.00000000000E+00 0.  1.
</event>
<event>
 5    1  0.1267644E-004  0.9118800E+02  0.7818608E-02  0.1130116E+00
         25   -1    0    0    0    0  0.00000000000E+00  0.00000000000E+00  0.99999998245E-14  0.12500000000E+03  0.12500000000E+03 0.  0.
        -13    1    3    3    0    0  0.11475082405E+02 -0.34855156048E+02  0.48059309240E+02  0.60467080201E+02  0.10566000000E+00 0.  1.
         23    2    1    0    0    0  0.14345997605E+02 -0.25992337329E+02  0.22271607861E+02  0.87886205209E+02  0.79665245259E+02 0.  0.
         13    1    3    3    0    0  0.28709151996E+01  0.88628187190E+01 -0.25787701379E+02  0.27419125008E+02  0.10566000000E+00 0. -1.
         22    1    1    0    0    0 -0.14345997605E+02  0.25992337329E+02 -0.22271607861E+02  0.37113794791E+02  0.00000000000E+00 0.  1.
</event>
<event>
 5    1  0.1267644E-004  0.9118800E+02  0.7818608E-02  0.1130116E+00
         25   -1    0    0    0    0  0.00000000000E+00  0.00000000000E+00  0.99999998245E-14  0.12500000000E+03  0.12500000000E+03 0.  0.
        -13    1    3    3    0    0  0.50797784669E+02  0.94557979965E+01 -0.17575449302E+02  0.54577785089E+02  0.10566000000E+00 0. -1.
         23    2    1    0    0    0  0.26645435016E+02 -0.14787600710E+02  0.27872546056E+01  0.94399001157E+02  0.89301457375E+02 0.  0.
         13    1    3    3    0    0 -0.24152349654E+02 -0.24243398707E+02  0.20362703907E+02  0.39821216068E+02  0.10566000000E+00 0.  1.
         22    1    1    0    0    0 -0.26645435016E+02  0.14787600710E+02 -0.27872546056E+01  0.30600998843E+02  0.00000000000E+00 0. -1.
</event>
<event>
 5    1  0.1267644E-004  0.9118800E+02  0.7818608E-02  0.1130116E+00
         25   -1    0    0    0    0  0.00000000000E+00  0.00000000000E+00  0.99999998245E-14  0.12500000000E+03  0.12500000000E+03 0.  0.
        -13    1    3    3    0    0  0.33284981415E+02 -0.26299749311E+01  0.90673132456E+01  0.34598180436E+02  0.10566000000E+00 0.  1.
         23    2    1    0    0    0 -0.27159732742E+02 -0.99862904877E+01  0.76460185402E+00  0.96052431945E+02  0.91586614668E+02 0.  0.
         13    1    3    3    0    0 -0.60444714157E+02 -0.73563155566E+01 -0.83027113916E+01  0.61454251509E+02  0.10566000000E+00 0. -1.
         22    1    1    0    0    0  0.27159732742E+02  0.99862904877E+01 -0.76460185402E+00  0.28947568055E+02  0.00000000000E+00 0. -1.
</event>
<event>
 5    1  0.1267644E-004  0.9118800E+02  0.7818608E-02  0.1130116E+00
         25   -1    0    0    0    0  0.00000000000E+00  0.00000000000E+00  0.99999998245E-14  0.12500000000E+03  0.12500000000E+03 0.  0.
        -13    1    3    3    0    0 -0.47245626217E+02  0.19841430032E+02  0.18501256194E+02  0.54480631303E+02  0.10566000000E+00 0. -1.
         23    2    1    0    0    0 -0.19057616994E+02 -0.10819303355E+02  0.18793023279E+02  0.96130850124E+02  0.91693579552E+02 0.  0.
         13    1    3    3    0    0  0.28188009223E+02 -0.30660733388E+02  0.29176708541E+00  0.41650218821E+02  0.10566000000E+00 0.  1.
         22    1    1    0    0    0  0.19057616994E+02  0.10819303355E+02 -0.18793023279E+02  0.28869149876E+02  0.00000000000E+00 0. -1.
</event>
<event>
 5    1  0.1267644E-004  0.9118800E+02  0.7818608E-02  0.1130116E+00
         25   -1    0    0    0    0  0.00000000000E+00  0.00000000000E+00  0.99999998245E-14  0.12500000000E+03  0.12500000000E+03 0.  0.
        -13    1    3    3    0    0  0.42884118379E+01 -0.43974981537E+02  0.79485402698E+01  0.44892983124E+02  0.10566000000E+00 0. -1.
         23    2    1    0    0    0 -0.52445539402E+01 -0.80350368331E+01 -0.27260068733E+02  0.96100544810E+02  0.91652256942E+02 0.  0.
         13    1    3    3    0    0 -0.95329657781E+01  0.35939944704E+02 -0.35208609003E+02  0.51207561686E+02  0.10566000000E+00 0.  1.
         22    1    1    0    0    0  0.52445539402E+01  0.80350368331E+01  0.27260068733E+02  0.28899455190E+02  0.00000000000E+00 0.  1.
</event>
<event>
 5    1  0.1267644E-004  0.9118800E+02  0.7818608E-02  0.1130116E+00
         25   -1    0    0    0    0  0.00000000000E+00  0.00000000000E+00  0.99999998245E-14  0.12500000000E+03  0.12500000000E+03 0.  0.
        -13    1    3    3    0    0 -0.28588767920E+02 -0.45397799563E+02 -0.20305040057E+02  0.57363609302E+02  0.10566000000E+00 0.  1.
         23    2    1    0    0    0 -0.26381957997E+02 -0.87411901713E+01 -0.89389406191E+01  0.95805466731E+02  0.91248927023E+02 0.  0.
         13    1    3    3    0    0  0.22068099229E+01  0.36656609392E+02  0.11366099438E+02  0.38441857430E+02  0.10566000000E+00 0. -1.
         22    1    1    0    0    0  0.26381957997E+02  0.87411901713E+01  0.89389406191E+01  0.29194533269E+02  0.00000000000E+00 0.  1.
</event>
<event>
 5    1  0.1267644E-004  0.9118800E+02  0.7818608E-02  0.1130116E+00
         25   -1    0    0    0    0  0.00000000000E+00  0.00000000000E+00  0.99999998245E-14  0.12500000000E+03  0.12500000000E+03 0.  0.
        -13    1    3    3    0    0 -0.34621106474E+02 -0.16952267844E+02 -0.71626570708E+01  0.39208611540E+02  0.10566000000E+00 0. -1.
         23    2    1    0    0    0 -0.23112840068E+01  0.28938630808E+02 -0.60597927926E+01  0.95343508713E+02  0.90613890647E+02 0.  0.
         13    1    3    3    0    0  0.32309822468E+02  0.45890898652E+02  0.11028642783E+01  0.56134897173E+02  0.10566000000E+00 0.  1.
         22    1    1    0    0    0  0.23112840068E+01 -0.28938630808E+02  0.60597927926E+01  0.29656491287E+02  0.00000000000E+00 0.  1.
</event>
<event>
 5    1  0.1267644E-004  0.9118800E+02  0.7818608E-02  0.1130116E+00
         25   -1    0    0    0    0  0.00000000000E+00  0.00000000000E+00  0.99999998245E-14  0.12500000000E+03  0.12500000000E+03 0.  0.
        -13    1    3    3    0    0 -0.28193630217E+02 -0.35146436813E+02  0.12578379074E+02  0.46780119599E+02  0.10566000000E+00 0. -1.
         23    2    1    0    0    0  0.18508591652E+02 -0.21638606725E+02  0.66731120658E+01  0.95754014111E+02  0.91178415909E+02 0.  0.
         13    1    3    3    0    0  0.46702221870E+02  0.13507830088E+02 -0.59052670082E+01  0.48973894512E+02  0.10566000000E+00 0.  1.
         22    1    1    0    0    0 -0.18508591652E+02  0.21638606725E+02 -0.66731120658E+01  0.29245985889E+02  0.00000000000E+00 0.  1.
</event>
<event>
 5    1  0.1267644E-004  0.9118800E+02  0.7818608E-02  0.1130116E+00
         25   -1    0    0    0    0  0.00000000000E+00  0.00000000000E+00  0.99999998245E-14  0.12500000000E+03  0.12500000000E+03 0.  0.
        -13    1    3    3    0    0  0.15150818753E+02 -0.54748031940E+02  0.23397176802E+02  0.61435603330E+02  0.10566000000E+00 0.  1.
         23    2    1    0    0    0  0.65960359362E+01 -0.28441854574E+02  0.33219056248E+01  0.95614938512E+02  0.90987552050E+02 0.  0.
         13    1    3    3    0    0 -0.85547828171E+01  0.26306177366E+02 -0.20075271177E+02  0.34179335182E+02  0.10566000000E+00 0. -1.
         22    1    1    0    0    0 -0.65960359362E+01  0.28441854574E+02 -0.33219056248E+01  0.29385061488E+02  0.00000000000E+00 0.  1.
</event>
<event>
 5    1  0.1267644E-004  0.9118800E+02  0.7818608E-02  0.1130116E+00
         25   -1    0    0    0    0  0.00000000000E+00  0.00000000000E+00  0.99999998245E-14  0.12500000000E+03  0.12500000000E+03 0.  0.
        -13    1    3    3    0    0 -0.41046491243E+02  0.55476412797E+01  0.92761175969E+01  0.42445827697E+02  0.10566000000E+00 0. -1.
         23    2    1    0    0    0  0.13202019385E+02  0.18375078604E+02  0.14004486724E+02  0.98390556602E+02  0.94724015701E+02 0.  0.
         13    1    3    3    0    0  0.54248510628E+02  0.12827437325E+02  0.47283691268E+01  0.55944728905E+02  0.10566000000E+00 0.  1.
         22    1    1    0    0    0 -0.13202019385E+02 -0.18375078604E+02 -0.14004486724E+02  0.26609443398E+02  0.00000000000E+00 0.  1.
</event>
<event>
 5    1  0.1267644E-004  0.9118800E+02  0.7818608E-02  0.1130116E+00
         25   -1    0    0    0    0  0.00000000000E+00  0.00000000000E+00  0.99999998245E-14  0.12500000000E+03  0.12500000000E+03 0.  0.
        -13    1    3    3    0    0  0.19774028188E+01 -0.47051393570E+02 -0.20284098998E+02  0.51275721301E+02  0.10566000000E+00 0. -1.
         23    2    1    0    0    0 -0.22247206950E+02 -0.78122879443E+01 -0.13336442788E+02  0.97910689078E+02  0.94088640491E+02 0.  0.
         13    1    3    3    0    0 -0.24224609769E+02  0.39239105625E+02  0.69476562097E+01  0.46634967777E+02  0.10566000000E+00 0.  1.
         22    1    1    0    0    0  0.22247206950E+02  0.78122879443E+01  0.13336442788E+02  0.27089310922E+02  0.00000000000E+00 0. -1.
</event>
<event>
 5    1  0.1267644E-004  0.9118800E+02  0.7818608E-02  0.1130116E+00
         25   -1    0    0    0    0  0.00000000000E+00  0.00000000000E+00  0.99999998245E-14  0.12500000000E+03  0.12500000000E+03 0.  0.
        -13    1    3    3    0    0 -0.48293038675E+01 -0.38100240818E+02 -0.18994111589E+02  0.42845512779E+02  0.10566000000E+00 0.  1.
         23    2    1    0    0    0 -0.13296757535E+02  0.12124729227E+02 -0.25069872417E+02  0.94140458156E+02  0.88938824701E+02 0.  0.
         13    1    3    3    0    0 -0.84674536678E+01  0.50224970044E+02 -0.60757608282E+01  0.51294945377E+02  0.10566000000E+00 0. -1.
         22    1    1    0    0    0  0.13296757535E+02 -0.12124729227E+02  0.25069872417E+02  0.30859541844E+02  0.00000000000E+00 0. -1.
</event>
<event>
 5    1  0.1267644E-004  0.9118800E+02  0.7818608E-02  0.1130116E+00
         25   -1    0    0    0    0  0.00000000000E+00  0.00000000000E+00  0.99999998245E-14  0.12500000000E+03  0.12500000000E+03 0.  0.
        -13    1    3    3    0    0  0.45453459795E+02  0.41963175744E+02  0.74629106513E+01  0.62310764121E+02  0.10566000000E+00 0. -1.
         23    2    1    0    0    0  0.22906604640E+02  0.21824409350E+02  0.72413043489E+01  0.92543045918E+02  0.86664649538E+02 0.  0.
         13    1    3    3    0    0 -0.22546855156E+02 -0.20138766394E+02 -0.22160630245E+00  0.30232281798E+02  0.10566000000E+00 0.  1.
         22    1    1    0    0    0 -0.22906604640E+02 -0.21824409350E+02 -0.72413043489E+01  0.32456954082E+02  0.00000000000E+00 0. -1.
</event>
<event>
 5    1  0.1267644E-004  0.9118800E+02  0.7818608E-02  0.1130116E+00
         25   -1    0    0    0    0  0.00000000000E+00  0.00000000000E+00  0.99999998245E-14  0.12500000000E+03  0.12500000000E+03 0.  0.
        -13    1    3    3    0    0  0.35128581817E+02 -0.46448719368E+02  0.22291498407E+02  0.62357219763E+02  0.10566000000E+00 0.  1.
         23    2    1    0    0    0  0.14139927371E+02 -0.21887310952E+02  0.12379362307E+02  0.96151420522E+02  0.91721617574E+02 0.  0.
         13    1    3    3    0    0 -0.20988654446E+02  0.24561408416E+02 -0.99121360998E+01  0.33794200758E+02  0.10566000000E+00 0. -1.
         22    1    1    0    0    0 -0.14139927371E+02  0.21887310952E+02 -0.12379362307E+02  0.28848579478E+02  0.00000000000E+00 0.  1.
</event>
<event>
 5    1  0.1267644E-004  0.9118800E+02  0.7818608E-02  0.1130116E+00
         25   -1    0    0    0    0  0.00000000000E+00  0.00000000000E+00  0.99999998245E-14  0.12500000000E+03  0.12500000000E+03 0.  0.
        -13    1    3    3    0    0  0.10355216780E+02 -0.10907078148E+01 -0.43802990453E+02  0.45023697036E+02  0.10566000000E+00 0.  1.
         23    2    1    0    0    0 -0.25995891753E+02  0.98308886536E+01 -0.11289539860E+02  0.95001892226E+02  0.90141405894E+02 0.  0.
         13    1    3    3    0    0 -0.36351108533E+02  0.10921596468E+02  0.32513450593E+02  0.49978195190E+02  0.10566000000E+00 0. -1.
         22    1    1    0    0    0  0.25995891753E+02 -0.98308886536E+01  0.11289539860E+02  0.29998107774E+02  0.00000000000E+00 0. -1.
</event>
<event>
 5    1  0.1267644E-004  0.9118800E+02  0.7818608E-02  0.1130116E+00
         25   -1    0    0    0    0  0.00000000000E+00  0.00000000000E+00  0.99999998245E-14  0.12500000000E+03  0.12500000000E+03 0.  0.
        -13    1    3    3    0    0  0.20913896863E+01 -0.35831547236E+02 -0.33291841283E+02  0.48955403667E+02  0.10566000000E+00 0.  1.
         23    2    1    0    0    0 -0.23197901696E+02  0.36394059219E+00 -0.17829960257E+02  0.95739402285E+02  0.91158381794E+02 0.  0.
         13    1    3    3    0    0 -0.25289291383E+02  0.36195487828E+02  0.15461881026E+02  0.46783998618E+02  0.10566000000E+00 0. -1.
         22    1    1    0    0    0  0.23197901696E+02 -0.36394059219E+00  0.17829960257E+02  0.29260597715E+02  0.00000000000E+00 0.  1.
</event>
<event>
 5    1  0.1267644E-004  0.9118800E+02  0.7818608E-02  0.1130116E+00
         25   -1    0    0    0    0  0.00000000000E+00  0.00000000000E+00  0.99999998245E-14  0.12500000000E+03  0.12500000000E+03 0.  0.
        -13    1    3    3    0    0 -0.24337884039E+02 -0.33842340740E+02  0.95588642960E+01  0.42767039609E+02  0.10566000000E+00 0.  1.
         23    2    1    0    0    0 -0.20985859065E+02  0.19006955455E+02 -0.55969571250E+00  0.96680679816E+02  0.92440088458E+02 0.  0.
         13    1    3    3    0    0  0.33520249735E+01  0.52849296195E+02 -0.10118560009E+02  0.53913640208E+02  0.10566000000E+00 0. -1.
         22    1    1    0    0    0  0.20985859065E+02 -0.19006955455E+02  0.55969571250E+00  0.28319320184E+02  0.00000000000E+00 0. -1.
</event>
<event>
 5    1  0.1267644E-004  0.9118800E+02  0.7818608E-02  0.1130116E+00
         25   -1    0    0    0    0  0.00000000000E+00  0.00000000000E+00  0.99999998245E-14  0.12500000000E+03  0.12500000000E+03 0.  0.
        -13    1    3    3    0    0 -0.22805812562E+02 -0.75373799643E+00 -0.26414702866E+02  0.34905886310E+02  0.10566000000E+00 0.  1.
         23    2    1    0    0    0 -0.61514762471E+01  0.60407453542E+01  0.29825963487E+02  0.93952949216E+02  0.88674896696E+02 0.  0.
         13    1    3    3    0    0  0.16654336315E+02  0.67944833507E+01  0.56240666352E+02  0.59047062906E+02  0.10566000000E+00 0. -1.
         22    1    1    0    0    0  0.61514762471E+01 -0.60407453542E+01 -0.29825963487E+02  0.31047050784E+02  0.00000000000E+00 0. -1.
</event>
<event>
 5    1  0.1267644E-004  0.9118800E+02  0.7818608E-02  0.1130116E+00
         25   -1    0    0    0    0  0.00000000000E+00  0.00000000000E+00  0.99999998245E-14  0.12500000000E+03  0.12500000000E+03 0.  0.
        -13    1    3    3    0    0 -0.23592269924E+02 -0.36502080588E+02 -0.26384141382E+02  0.50844185192E+02  0.10566000000E+00 0.  1.
         23    2    1    0    0    0 -0.22791150363E+02  0.78435350387E+01 -0.14912709372E+02  0.96656632565E+02  0.92407565389E+02 0.  0.
         13    1    3    3    0    0  0.80111956063E+00  0.44345615626E+02  0.11471432010E+02  0.45812447372E+02  0.10566000000E+00 0. -1.
         22    1    1    0    0    0  0.22791150363E+02 -0.78435350387E+01  0.14912709372E+02  0.28343367435E+02  0.00000000000E+00 0.  1.
</event>
<event>
 5    1  0.1267644E-004  0.9118800E+02  0.7818608E-02  0.1130116E+00
         25   -1    0    0    0    0  0.00000000000E+00  0.00000000000E+00  0.99999998245E-14  0.12500000000E+03  0.12500000000E+03 0.  0.
        -13    1    3    3    0    0  0.18948752178E+02 -0.28917336207E+02  0.32926425970E+02  0.47743358005E+02  0.10566000000E+00 0. -1.
         23    2    1    0    0    0  0.13529650530E+02  0.16733077134E+02  0.20300949664E+02  0.95416628470E+02  0.90714701771E+02 0.  0.
         13    1    3    3    0    0 -0.54191016480E+01  0.45650413341E+02 -0.12625476305E+02  0.47673270465E+02  0.10566000000E+00 0.  1.
         22    1    1    0    0    0 -0.13529650530E+02 -0.16733077134E+02 -0.20300949664E+02  0.29583371530E+02  0.00000000000E+00 0. -1.
</event>
<event>
 5    1  0.1267644E-004  0.9118800E+02  0.7818608E-02  0.1130116E+00
         25   -1    0    0    0    0  0.00000000000E+00  0.00000000000E+00  0.99999998245E-14  0.12500000000E+03  0.12500000000E+03 0.  0.
        -13    1    3    3    0    0  0.65156356213E+01 -0.48993527156E+02 -0.14949053949E+02  0.51636272026E+02  0.10566000000E+00 0.  1.
         23    2    1    0    0    0  0.49752382222E+01 -0.69843679170E+01 -0.28050442562E+02  0.95668076802E+02  0.91060524930E+02 0.  0.
         13    1    3    3    0    0 -0.15403973991E+01  0.42009159239E+02 -0.13101388613E+02  0.44031804775E+02  0.10566000000E+00 0. -1.
         22    1    1    0    0    0 -0.49752382222E+01  0.69843679170E+01  0.28050442562E+02  0.29331923198E+02  0.00000000000E+00 0.  1.
</event>
<event>
 5    1  0.1267644E-004  0.9118800E+02  0.7818608E-02  0.1130116E+00
         25   -1    0    0    0    0  0.00000000000E+00  0.00000000000E+00  0.99999998245E-14  0.12500000000E+03  0.12500000000E+03 0.  0.
        -13    1    3    3    0    0  0.14840773853E+02 -0.12122331343E+02  0.51962301724E+02  0.55383133265E+02  0.10566000000E+00 0.  1.
         23    2    1    0    0    0  0.12336867685E+02  0.14751292945E+02  0.23994032206E+02  0.94250812542E+02  0.89093788423E+02 0.  0.
         13    1    3    3    0    0 -0.25039061675E+01  0.26873624288E+02 -0.27968269519E+02  0.38867679277E+02  0.10566000000E+00 0. -1.
         22    1    1    0    0    0 -0.12336867685E+02 -0.14751292945E+02 -0.23994032206E+02  0.30749187458E+02  0.00000000000E+00 0.  1.
</event>
<event>
 5    1  0.1267644E-004  0.9118800E+02  0.7818608E-02  0.1130116E+00
         25   -1    0    0    0    0  0.00000000000E+00  0.00000000000E+00  0.99999998245E-14  0.12500000000E+03  0.12500000000E+03 0.  0.
        -13    1    3    3    0    0 -0.31637893516E+02  0.14396938995E+02  0.14935987702E+02  0.37832830336E+02  0.10566000000E+00 0. -1.
         23    2    1    0    0    0  0.22117194679E+02  0.87078418100E+01  0.22324071633E+02  0.92390783761E+02  0.86444756580E+02 0.  0.
         13    1    3    3    0    0  0.53755088196E+02 -0.56890971848E+01  0.73880839310E+01  0.54557953425E+02  0.10566000000E+00 0.  1.
         22    1    1    0    0    0 -0.22117194679E+02 -0.87078418100E+01 -0.22324071633E+02  0.32609216239E+02  0.00000000000E+00 0.  1.
</event>
<event>
 5    1  0.1267644E-004  0.9118800E+02  0.7818608E-02  0.1130116E+00
         25   -1    0    0    0    0  0.00000000000E+00  0.00000000000E+00  0.99999998245E-14  0.12500000000E+03  0.12500000000E+03 0.  0.
        -13    1    3    3    0    0 -0.31980052858E+02 -0.21065998104E+02 -0.46819398119E+02  0.60486091469E+02  0.10566000000E+00 0. -1.
         23    2    1    0    0    0 -0.24805820594E+02 -0.87514116032E+01 -0.16605581052E+02  0.93892745822E+02  0.88589990719E+02 0.  0.
         13    1    3    3    0    0  0.71742322631E+01  0.12314586501E+02  0.30213817068E+02  0.33406654353E+02  0.10566000000E+00 0.  1.
         22    1    1    0    0    0  0.24805820594E+02  0.87514116032E+01  0.16605581052E+02  0.31107254178E+02  0.00000000000E+00 0. -1.
</event>
<event>
 5    1  0.1267644E-004  0.9118800E+02  0.7818608E-02  0.1130116E+00
         25   -1    0    0    0    0  0.00000000000E+00  0.00000000000E+00  0.99999998245E-14  0.12500000000E+03  0.12500000000E+03 0.  0.
        -13    1    3    3    0    0 -0.30717983330E+02  0.62509668631E+00 -0.51096582427E+02  0.59622622766E+02  0.10566000000E+00 0. -1.
         23    2    1    0    0    0 -0.55317173290E+01 -0.74657593834E+01 -0.30402404644E+02  0.93209377673E+02  0.87620456620E+02 0.  0.
         13    1    3    3    0    0  0.25186266001E+02 -0.80908560697E+01  0.20694177783E+02  0.33586754907E+02  0.10566000000E+00 0.  1.
         22    1    1    0    0    0  0.55317173290E+01  0.74657593834E+01  0.30402404644E+02  0.31790622327E+02  0.00000000000E+00 0. -1.
</event>
<event>
 5    1  0.1267644E-004  0.9118800E+02  0.7818608E-02  0.1130116E+00
         25   -1    0    0    0    0  0.00000000000E+00  0.00000000000E+00  0.99999998245E-14  0.12500000000E+03  0.12500000000E+03 0.  0.
        -13    1    3    3    0    0  0.39766140939E+02  0.22153107928E+02 -0.38463703545E+02  0.59595082100E+02  0.10566000000E+00 0. -1.
         23    2    1    0    0    0  0.96638928074E+01  0.58816720551E+01 -0.27070607475E+02  0.95660561024E+02  0.91050207336E+02 0.  0.
         13    1    3    3    0    0 -0.30102248132E+02 -0.16271435873E+02  0.11393096069E+02  0.36065478924E+02  0.10566000000E+00 0.  1.
         22    1    1    0    0    0 -0.96638928074E+01 -0.58816720551E+01  0.27070607475E+02  0.29339438976E+02  0.00000000000E+00 0. -1.
</event>
<event>
 5    1  0.1267644E-004  0.9118800E+02  0.7818608E-02  0.1130116E+00
         25   -1    0    0    0    0  0.00000000000E+00  0.00000000000E+00  0.99999998245E-14  0.12500000000E+03  0.12500000000E+03 0.  0.
        -13    1    3    3    0    0  0.32151543617E+02  0.13605455190E+02  0.16257903367E+02  0.38511826155E+02  0.10566000000E+00 0.  1.
         23    2    1    0    0    0 -0.16270020937E+02  0.19838123629E+02 -0.13823459045E+02  0.95856342879E+02  0.91318594601E+02 0.  0.
         13    1    3    3    0    0 -0.48421564554E+02  0.62326684382E+01 -0.30081362412E+02  0.57344516724E+02  0.10566000000E+00 0. -1.
         22    1    1    0    0    0  0.16270020937E+02 -0.19838123629E+02  0.13823459045E+02  0.29143657121E+02  0.00000000000E+00 0. -1.
</event>
<event>
 5    1  0.1267644E-004  0.9118800E+02  0.7818608E-02  0.1130116E+00
         25   -1    0    0    0    0  0.00000000000E+00  0.00000000000E+00  0.99999998245E-14  0.12500000000E+03  0.12500000000E+03 0.  0.
        -13    1    3    3    0    0 -0.21065213008E+02 -0.38771245487E+02 -0.30795135887E+02  0.53808031316E+02  0.10566000000E+00 0.  1.
         23    2    1    0    0    0  0.41074898526E+01 -0.29602560693E+02  0.63527200048E+00  0.95107080387E+02  0.90287153553E+02 0.  0.
         13    1    3    3    0    0  0.25172702861E+02  0.91686847942E+01  0.31430407888E+02  0.41299049071E+02  0.10566000000E+00 0. -1.
         22    1    1    0    0    0 -0.41074898526E+01  0.29602560693E+02 -0.63527200048E+00  0.29892919613E+02  0.00000000000E+00 0.  1.
</event>
<event>
 5    1  0.1267644E-004  0.9118800E+02  0.7818608E-02  0.1130116E+00
         25   -1    0    0    0    0  0.00000000000E+00  0.00000000000E+00  0.99999998245E-14  0.12500000000E+03  0.12500000000E+03 0.  0.
        -13    1    3    3    0    0  0.28635759796E+01  0.26158457579E+02  0.25413517267E+02  0.36583097111E+02  0.10566000000E+00 0. -1.
         23    2    1    0    0    0  0.15778198383E+02 -0.34065310293E+01 -0.24287660866E+02  0.95837584664E+02  0.91292914106E+02 0.  0.
         13    1    3    3    0    0  0.12914622404E+02 -0.29564988609E+02 -0.49701178133E+02  0.59254487553E+02  0.10566000000E+00 0.  1.
         22    1    1    0    0    0 -0.15778198383E+02  0.34065310293E+01  0.24287660866E+02  0.29162415336E+02  0.00000000000E+00 0.  1.
</event>
<event>
 5    1  0.1267644E-004  0.9118800E+02  0.7818608E-02  0.1130116E+00
         25   -1    0    0    0    0  0.00000000000E+00  0.00000000000E+00  0.99999998245E-14  0.12500000000E+03  0.12500000000E+03 0.  0.
        -13    1    3    3    0    0 -0.13010012791E+02 -0.41918287275E+02 -0.15526280978E+02  0.46556200510E+02  0.10566000000E+00 0. -1.
         23    2    1    0    0    0  0.14102831483E+02 -0.22885593936E+02  0.17171318192E+02  0.93101811429E+02  0.87466867198E+02 0.  0.
         13    1    3    3    0    0  0.27112844274E+02  0.19032693339E+02  0.32697599169E+02  0.46545610919E+02  0.10566000000E+00 0.  1.
         22    1    1    0    0    0 -0.14102831483E+02  0.22885593936E+02 -0.17171318192E+02  0.31898188571E+02  0.00000000000E+00 0. -1.
</event>
<event>
 5    1  0.1267644E-004  0.9118800E+02  0.7818608E-02  0.1130116E+00
         25   -1    0    0    0    0  0.00000000000E+00  0.00000000000E+00  0.99999998245E-14  0.12500000000E+03  0.12500000000E+03 0.  0.
        -13    1    3    3    0    0  0.19681510746E+01  0.29612000455E+02  0.17770278074E+02  0.34591012365E+02  0.10566000000E+00 0. -1.
         23    2    1    0    0    0  0.95798268518E+01 -0.26439584813E+02 -0.64885740932E+01  0.96139537056E+02  0.91705421127E+02 0.  0.
         13    1    3    3    0    0  0.76116757772E+01 -0.56051585267E+02 -0.24258852167E+02  0.61548524691E+02  0.10566000000E+00 0.  1.
         22    1    1    0    0    0 -0.95798268518E+01  0.26439584813E+02  0.64885740932E+01  0.28860462944E+02  0.00000000000E+00 0.  1.
</event>
<event>
 5    1  0.1267644E-004  0.9118800E+02  0.7818608E-02  0.1130116E+00
         25   -1    0    0    0    0  0.00000000000E+00  0.00000000000E+00  0.99999998245E-14  0.12500000000E+03  0.12500000000E+03 0.  0.
        -13    1    3    3    0    0  0.49399502151E+02  0.18259663793E+02  0.28113129326E+02  0.59699960964E+02  0.10566000000E+00 0. -1.
         23    2    1    0    0    0  0.15556718699E+02  0.19316924578E+02  0.15029262089E+02  0.95999417406E+02  0.91514230323E+02 0.  0.
         13    1    3    3    0    0 -0.33842783451E+02  0.10572607851E+01 -0.13083867237E+02  0.36299456442E+02  0.10566000000E+00 0.  1.
         22    1    1    0    0    0 -0.15556718699E+02 -0.19316924578E+02 -0.15029262089E+02  0.29000582594E+02  0.00000000000E+00 0. -1.
</event>
<event>
 5    1  0.1267644E-004  0.9118800E+02  0.7818608E-02  0.1130116E+00
         25   -1    0    0    0    0  0.00000000000E+00  0.00000000000E+00  0.99999998245E-14  0.12500000000E+03  0.12500000000E+03 0.  0.
        -13    1    3    3    0    0 -0.10266291470E+02 -0.21478997477E+02 -0.20658932939E+02  0.31520576571E+02  0.10566000000E+00 0.  1.
         23    2    1    0    0    0  0.11099801126E+02  0.23886274224E+02  0.16487803771E+02  0.93925776687E+02  0.88636584838E+02 0.  0.
         13    1    3    3    0    0  0.21366092596E+02  0.45365271700E+02  0.37146736710E+02  0.62405200116E+02  0.10566000000E+00 0. -1.
         22    1    1    0    0    0 -0.11099801126E+02 -0.23886274224E+02 -0.16487803771E+02  0.31074223313E+02  0.00000000000E+00 0. -1.
</event>
<event>
 5    1  0.1267644E-004  0.9118800E+02  0.7818608E-02  0.1130116E+00
         25   -1    0    0    0    0  0.00000000000E+00  0.00000000000E+00  0.99999998245E-14  0.12500000000E+03  0.12500000000E+03 0.  0.
        -13    1    3    3    0    0 -0.14887825709E+02  0.10436890313E+02 -0.47518572915E+02  0.50878305491E+02  0.10566000000E+00 0.  1.
         23    2    1    0    0    0  0.14124606101E+02  0.21327692082E+02 -0.17630754003E+02  0.93932035249E+02  0.88645410553E+02 0.  0.
         13    1    3    3    0    0  0.29012431810E+02  0.10890801769E+02  0.29887818912E+02  0.43053729758E+02  0.10566000000E+00 0. -1.
         22    1    1    0    0    0 -0.14124606101E+02 -0.21327692082E+02  0.17630754003E+02  0.31067964751E+02  0.00000000000E+00 0.  1.
</event>
<event>
 5    1  0.1267644E-004  0.9118800E+02  0.7818608E-02  0.1130116E+00
         25   -1    0    0    0    0  0.00000000000E+00  0.00000000000E+00  0.99999998245E-14  0.12500000000E+03  0.12500000000E+03 0.  0.
        -13    1    3    3    0    0  0.12958443796E+02  0.38809872229E+02 -0.37563844825E+02  0.55544406110E+02  0.10566000000E+00 0. -1.
         23    2    1    0    0    0 -0.15199521953E+02  0.16709045504E+02 -0.15751244601E+02  0.97462400691E+02  0.93491176978E+02 0.  0.
         13    1    3    3    0    0 -0.28157965749E+02 -0.22100826726E+02  0.21812600224E+02  0.41917994581E+02  0.10566000000E+00 0.  1.
         22    1    1    0    0    0  0.15199521953E+02 -0.16709045504E+02  0.15751244601E+02  0.27537599309E+02  0.00000000000E+00 0. -1.
</event>
<event>
 5    1  0.1267644E-004  0.9118800E+02  0.7818608E-02  0.1130116E+00
         25   -1    0    0    0    0  0.00000000000E+00  0.00000000000E+00  0.99999998245E-14  0.12500000000E+03  0.12500000000E+03 0.  0.
        -13    1    3    3    0    0 -0.50212392847E+02 -0.12410783205E+02 -0.23358841846E+02  0.56753489687E+02  0.10566000000E+00 0. -1.
         23    2    1    0    0    0 -0.28427567669E+02 -0.24093101772E+01  0.71840886872E+01  0.95579896170E+02  0.90939397636E+02 0.  0.
         13    1    3    3    0    0  0.21784825178E+02  0.10001473028E+02  0.30542930533E+02  0.38826406483E+02  0.10566000000E+00 0.  1.
         22    1    1    0    0    0  0.28427567669E+02  0.24093101772E+01 -0.71840886872E+01  0.29420103830E+02  0.00000000000E+00 0. -1.
</event>
<event>
 5    1  0.1267644E-004  0.9118800E+02  0.7818608E-02  0.1130116E+00
         25   -1    0    0    0    0  0.00000000000E+00  0.00000000000E+00  0.99999998245E-14  0.12500000000E+03  0.12500000000E+03 0.  0.
        -13    1    3    3    0    0  0.40959608355E+02  0.16054904362E+02  0.43491474264E+02  0.61862500502E+02  0.10566000000E+00 0. -1.
         23    2    1    0    0    0  0.15280488995E+02  0.12671482141E+02  0.18015377265E+02  0.98193030355E+02  0.94462995870E+02 0.  0.
         13    1    3    3    0    0 -0.25679119360E+02 -0.33834222215E+01 -0.25476096999E+02  0.36330529853E+02  0.10566000000E+00 0.  1.
         22    1    1    0    0    0 -0.15280488995E+02 -0.12671482141E+02 -0.18015377265E+02  0.26806969645E+02  0.00000000000E+00 0. -1.
</event>
<event>
 5    1  0.1267644E-004  0.9118800E+02  0.7818608E-02  0.1130116E+00
         25   -1    0    0    0    0  0.00000000000E+00  0.00000000000E+00  0.99999998245E-14  0.12500000000E+03  0.12500000000E+03 0.  0.
        -13    1    3    3    0    0 -0.16446198028E+02  0.27817601332E+02 -0.77917868768E+01  0.33241833286E+02  0.10566000000E+00 0.  1.
         23    2    1    0    0    0  0.26862949985E+02 -0.69840886714E+01  0.15181322180E+02  0.93363500200E+02  0.87840053791E+02 0.  0.
         13    1    3    3    0    0  0.43309148013E+02 -0.34801690003E+02  0.22973109057E+02  0.60121666914E+02  0.10566000000E+00 0. -1.
         22    1    1    0    0    0 -0.26862949985E+02  0.69840886714E+01 -0.15181322180E+02  0.31636499800E+02  0.00000000000E+00 0. -1.
</event>
<event>
 5    1  0.1267644E-004  0.9118800E+02  0.7818608E-02  0.1130116E+00
         25   -1    0    0    0    0  0.00000000000E+00  0.00000000000E+00  0.99999998245E-14  0.12500000000E+03  0.12500000000E+03 0.  0.
        -13    1    3    3    0    0  0.13294619005E+02 -0.44448070694E+02  0.89983915425E+01  0.47258439430E+02  0.10566000000E+00 0.  1.
         23    2    1    0    0    0  0.30484895197E+02 -0.10160494391E+01  0.30484388532E+01  0.94346220933E+02  0.89227547502E+02 0.  0.
         13    1    3    3    0    0  0.17190276192E+02  0.43432021255E+02 -0.59499526894E+01  0.47087781503E+02  0.10566000000E+00 0. -1.
         22    1    1    0    0    0 -0.30484895197E+02  0.10160494391E+01 -0.30484388532E+01  0.30653779067E+02  0.00000000000E+00 0.  1.
</event>
<event>
 5    1  0.1267644E-004  0.9118800E+02  0.7818608E-02  0.1130116E+00
         25   -1    0    0    0    0  0.00000000000E+00  0.00000000000E+00  0.99999998245E-14  0.12500000000E+03  0.12500000000E+03 0.  0.
        -13    1    3    3    0    0 -0.31707779946E+02 -0.31134752948E+02  0.76338413663E+00  0.44444910503E+02  0.10566000000E+00 0.  1.
         23    2    1    0    0    0  0.17265518342E+02 -0.18513290389E+02 -0.12554943052E+02  0.96742847991E+02  0.92524115763E+02 0.  0.
         13    1    3    3    0    0  0.48973298288E+02  0.12621462559E+02 -0.13318327189E+02  0.52297937488E+02  0.10566000000E+00 0. -1.
         22    1    1    0    0    0 -0.17265518342E+02  0.18513290389E+02  0.12554943052E+02  0.28257152009E+02  0.00000000000E+00 0. -1.
</event>
<event>
 5    1  0.1267644E-004  0.9118800E+02  0.7818608E-02  0.1130116E+00
         25   -1    0    0    0    0  0.00000000000E+00  0.00000000000E+00  0.99999998245E-14  0.12500000000E+03  0.12500000000E+03 0.  0.
        -13    1    3    3    0    0 -0.93639162642E+00  0.55922509870E+02 -0.53252147380E+01  0.56183387362E+02  0.10566000000E+00 0.  1.
         23    2    1    0    0    0 -0.19814747488E+02  0.21497034140E+02 -0.42187867347E+01  0.95461129739E+02  0.90776001425E+02 0.  0.
         13    1    3    3    0    0 -0.18878355861E+02 -0.34425475730E+02  0.11064280032E+01  0.39277742377E+02  0.10566000000E+00 0. -1.
         22    1    1    0    0    0  0.19814747488E+02 -0.21497034140E+02  0.42187867347E+01  0.29538870261E+02  0.00000000000E+00 0.  1.
</event>
<event>
 5    1  0.1267644E-004  0.9118800E+02  0.7818608E-02  0.1130116E+00
         25   -1    0    0    0    0  0.00000000000E+00  0.00000000000E+00  0.99999998245E-14  0.12500000000E+03  0.12500000000E+03 0.  0.
        -13    1    3    3    0    0 -0.19580633184E+02 -0.27925445921E+02 -0.13204248628E+02  0.36573146865E+02  0.10566000000E+00 0.  1.
         23    2    1    0    0    0  0.16666646546E+02  0.10721691307E+02  0.18138473938E+02  0.98134855139E+02  0.94385982989E+02 0.  0.
         13    1    3    3    0    0  0.36247279730E+02  0.38647137228E+02  0.31342722565E+02  0.61561708274E+02  0.10566000000E+00 0. -1.
         22    1    1    0    0    0 -0.16666646546E+02 -0.10721691307E+02 -0.18138473938E+02  0.26865144861E+02  0.00000000000E+00 0. -1.
</event>
<event>
 5    1  0.1267644E-004  0.9118800E+02  0.7818608E-02  0.1130116E+00
         25   -1    0    0    0    0  0.00000000000E+00  0.00000000000E+00  0.99999998245E-14  0.12500000000E+03  0.12500000000E+03 0.  0.
        -13    1    3    3    0    0  0.29205271844E+02  0.36100414754E+02 -0.10370628884E+02  0.47578870903E+02  0.10566000000E+00 0. -1.
         23    2    1    0    0    0 -0.72620176794E+01  0.39423002414E+02 -0.45673960624E+01  0.84654354300E+02  0.74421694250E+02 0.  0.
         13    1    3    3    0    0 -0.36467289523E+02  0.33225876600E+01  0.58032328216E+01  0.37075483397E+02  0.10566000000E+00 0.  1.
         22    1    1    0    0    0  0.72620176794E+01 -0.39423002414E+02  0.45673960624E+01  0.40345645700E+02  0.00000000000E+00 0.  1.
</event>
<event>
 5    1  0.1267644E-004  0.9118800E+02  0.7818608E-02  0.1130116E+00
         25   -1    0    0    0    0  0.00000000000E+00  0.00000000000E+00  0.99999998245E-14  0.12500000000E+03  0.12500000000E+03 0.  0.
        -13    1    3    3    0    0 -0.15861920031E+02  0.30065471948E+02  0.31016062056E+02  0.46016740215E+02  0.10566000000E+00 0. -1.
         23    2    1    0    0    0  0.24494625283E+02  0.15345496773E+02  0.68892803296E+01  0.95285809410E+02  0.90534260656E+02 0.  0.
         13    1    3    3    0    0  0.40356545314E+02 -0.14719975175E+02 -0.24126781727E+02  0.49269069195E+02  0.10566000000E+00 0.  1.
         22    1    1    0    0    0 -0.24494625283E+02 -0.15345496773E+02 -0.68892803296E+01  0.29714190590E+02  0.00000000000E+00 0.  1.
</event>
<event>
 5    1  0.1267644E-004  0.9118800E+02  0.7818608E-02  0.1130116E+00
         25   -1    0    0    0    0  0.00000000000E+00  0.00000000000E+00  0.99999998245E-14  0.12500000000E+03  0.12500000000E+03 0.  0.
        -13    1    3    3    0    0  0.47602504623E+01 -0.44441083309E+01  0.55126912750E+02  0.55510339187E+02  0.10566000000E+00 0. -1.
         23    2    1    0    0    0 -0.18137696648E+02  0.24801367728E+00  0.17572398222E+02  0.99744768270E+02  0.96494518329E+02 0.  0.
         13    1    3    3    0    0 -0.22897947110E+02  0.46921220082E+01 -0.37554514528E+02  0.44234429083E+02  0.10566000000E+00 0.  1.
         22    1    1    0    0    0  0.18137696648E+02 -0.24801367728E+00 -0.17572398222E+02  0.25255231730E+02  0.00000000000E+00 0. -1.
</event>
<event>
 5    1  0.1267644E-004  0.9118800E+02  0.7818608E-02  0.1130116E+00
         25   -1    0    0    0    0  0.00000000000E+00  0.00000000000E+00  0.99999998245E-14  0.12500000000E+03  0.12500000000E+03 0.  0.
        -13    1    3    3    0    0  0.34341152170E+00  0.14215184851E+02  0.50307368002E+02  0.52278407122E+02  0.10566000000E+00 0. -1.
         23    2    1    0    0    0  0.11508020265E+02  0.24952448607E+02  0.95017902271E+01  0.95925212995E+02  0.91412817748E+02 0.  0.
         13    1    3    3    0    0  0.11164608743E+02  0.10737263755E+02 -0.40805577775E+02  0.43646805873E+02  0.10566000000E+00 0.  1.
         22    1    1    0    0    0 -0.11508020265E+02 -0.24952448607E+02 -0.95017902271E+01  0.29074787005E+02  0.00000000000E+00 0.  1.
</event>
<event>
 5    1  0.1267644E-004  0.9118800E+02  0.7818608E-02  0.1130116E+00
         25   -1    0    0    0    0  0.00000000000E+00  0.00000000000E+00  0.99999998245E-14  0.12500000000E+03  0.12500000000E+03 0.  0.
        -13    1    3    3    0    0  0.14459760475E+02  0.85652986101E+01  0.35538355053E+02  0.39312019246E+02  0.10566000000E+00 0.  1.
         23    2    1    0    0    0 -0.24987725875E+02 -0.13554611664E+02  0.42407855821E+00  0.96569492013E+02  0.92289614818E+02 0.  0.
         13    1    3    3    0    0 -0.39447486350E+02 -0.22119910274E+02 -0.35114276495E+02  0.57257472767E+02  0.10566000000E+00 0. -1.
         22    1    1    0    0    0  0.24987725875E+02  0.13554611664E+02 -0.42407855821E+00  0.28430507987E+02  0.00000000000E+00 0. -1.
</event>
<event>
 5    1  0.1267644E-004  0.9118800E+02  0.7818608E-02  0.1130116E+00
         25   -1    0    0    0    0  0.00000000000E+00  0.00000000000E+00  0.99999998245E-14  0.12500000000E+03  0.12500000000E+03 0.  0.
        -13    1    3    3    0    0  0.38290873152E+02  0.26975524215E+02 -0.14204692205E+02  0.48945421830E+02  0.10566000000E+00 0.  1.
         23    2    1    0    0    0  0.66164896058E+01  0.19694581560E+02  0.20023256197E+02  0.96145446351E+02  0.91713475498E+02 0.  0.
         13    1    3    3    0    0 -0.31674383546E+02 -0.72809426547E+01  0.34227948402E+02  0.47200024522E+02  0.10566000000E+00 0. -1.
         22    1    1    0    0    0 -0.66164896058E+01 -0.19694581560E+02 -0.20023256197E+02  0.28854553649E+02  0.00000000000E+00 0. -1.
</event>
<event>
 5    1  0.1267644E-004  0.9118800E+02  0.7818608E-02  0.1130116E+00
         25   -1    0    0    0    0  0.00000000000E+00  0.00000000000E+00  0.99999998245E-14  0.12500000000E+03  0.12500000000E+03 0.  0.
        -13    1    3    3    0    0  0.11601661463E+02 -0.99206593954E+01  0.53847631552E+02  0.55969604424E+02  0.10566000000E+00 0.  1.
         23    2    1    0    0    0  0.22541653335E+02  0.43121656116E+01  0.18857996543E+02  0.95295708375E+02  0.90547927054E+02 0.  0.
         13    1    3    3    0    0  0.10939991873E+02  0.14232825007E+02 -0.34989635009E+02  0.39326103951E+02  0.10566000000E+00 0. -1.
         22    1    1    0    0    0 -0.22541653335E+02 -0.43121656116E+01 -0.18857996543E+02  0.29704291625E+02  0.00000000000E+00 0. -1.
</event>
<event>
 5    1  0.1267644E-004  0.9118800E+02  0.7818608E-02  0.1130116E+00
         25   -1    0    0    0    0  0.00000000000E+00  0.00000000000E+00  0.99999998245E-14  0.12500000000E+03  0.12500000000E+03 0.  0.
        -13    1    3    3    0    0 -0.29482253434E+02  0.14534553487E+02  0.11254019349E+02  0.34743641550E+02  0.10566000000E+00 0.  1.
         23    2    1    0    0    0  0.14809334938E+02 -0.12384049617E+02 -0.21538259730E+02  0.96076346731E+02  0.91619248430E+02 0.  0.
         13    1    3    3    0    0  0.44291588372E+02 -0.26918603104E+02 -0.32792279079E+02  0.61332705181E+02  0.10566000000E+00 0. -1.
         22    1    1    0    0    0 -0.14809334938E+02  0.12384049617E+02  0.21538259730E+02  0.28923653269E+02  0.00000000000E+00 0. -1.
</event>
<event>
 5    1  0.1267644E-004  0.9118800E+02  0.7818608E-02  0.1130116E+00
         25   -1    0    0    0    0  0.00000000000E+00  0.00000000000E+00  0.99999998245E-14  0.12500000000E+03  0.12500000000E+03 0.  0.
        -13    1    3    3    0    0 -0.38463671167E+01  0.24106061301E+02 -0.36584982735E+02  0.43981460381E+02  0.10566000000E+00 0. -1.
         23    2    1    0    0    0  0.26671931615E+02  0.11853030520E+02  0.32444209753E+01  0.95633138812E+02  0.91012552447E+02 0.  0.
         13    1    3    3    0    0  0.30518298732E+02 -0.12253030781E+02  0.39829403710E+02  0.51651678431E+02  0.10566000000E+00 0.  1.
         22    1    1    0    0    0 -0.26671931615E+02 -0.11853030520E+02 -0.32444209753E+01  0.29366861188E+02  0.00000000000E+00 0.  1.
</event>
<event>
 5    1  0.1267644E-004  0.9118800E+02  0.7818608E-02  0.1130116E+00
         25   -1    0    0    0    0  0.00000000000E+00  0.00000000000E+00  0.99999998245E-14  0.12500000000E+03  0.12500000000E+03 0.  0.
        -13    1    3    3    0    0  0.27321447276E+02 -0.28569824964E+02 -0.16760027405E+02  0.42937233986E+02  0.10566000000E+00 0. -1.
         23    2    1    0    0    0 -0.21249074455E+02 -0.18941097597E+02  0.32624662041E+01  0.96348088561E+02  0.91989250134E+02 0.  0.
         13    1    3    3    0    0 -0.48570521731E+02  0.96287273670E+01  0.20022493609E+02  0.53410854574E+02  0.10566000000E+00 0.  1.
         22    1    1    0    0    0  0.21249074455E+02  0.18941097597E+02 -0.32624662041E+01  0.28651911439E+02  0.00000000000E+00 0.  1.
</event>
<event>
 5    1  0.1267644E-004  0.9118800E+02  0.7818608E-02  0.1130116E+00
         25   -1    0    0    0    0  0.00000000000E+00  0.00000000000E+00  0.99999998245E-14  0.12500000000E+03  0.12500000000E+03 0.  0.
        -13    1    3    3    0    0  0.24209208089E+02  0.10994027883E+02  0.38461889925E+02  0.46757700393E+02  0.10566000000E+00 0.  1.
         23    2    1    0    0    0  0.22927147083E+02 -0.66476031409E+01 -0.10577789920E+02  0.98889957096E+02  0.95380759453E+02 0.  0.
         13    1    3    3    0    0 -0.12820610058E+01 -0.17641631023E+02 -0.49039679845E+02  0.52132256703E+02  0.10566000000E+00 0. -1.
         22    1    1    0    0    0 -0.22927147083E+02  0.66476031409E+01  0.10577789920E+02  0.26110042904E+02  0.00000000000E+00 0. -1.
</event>
<event>
 5    1  0.1267644E-004  0.9118800E+02  0.7818608E-02  0.1130116E+00
         25   -1    0    0    0    0  0.00000000000E+00  0.00000000000E+00  0.99999998245E-14  0.12500000000E+03  0.12500000000E+03 0.  0.
        -13    1    3    3    0    0  0.35922412754E+02 -0.15007700115E+02 -0.23853017772E+02  0.45657731237E+02  0.10566000000E+00 0.  1.
         23    2    1    0    0    0  0.20015086697E+02 -0.17348918797E+02  0.19638530496E+02  0.92026365700E+02  0.85916188375E+02 0.  0.
         13    1    3    3    0    0 -0.15907326057E+02 -0.23412186822E+01  0.43491548268E+02  0.46368634463E+02  0.10566000000E+00 0. -1.
         22    1    1    0    0    0 -0.20015086697E+02  0.17348918797E+02 -0.19638530496E+02  0.32973634300E+02  0.00000000000E+00 0. -1.
</event>
<event>
 5    1  0.1267644E-004  0.9118800E+02  0.7818608E-02  0.1130116E+00
         25   -1    0    0    0    0  0.00000000000E+00  0.00000000000E+00  0.99999998245E-14  0.12500000000E+03  0.12500000000E+03 0.  0.
        -13    1    3    3    0    0 -0.25266558822E+02 -0.32810627889E+02 -0.33456453749E+01  0.41546850713E+02  0.10566000000E+00 0. -1.
         23    2    1    0    0    0  0.11899343055E+02 -0.40547029879E+00 -0.26444820430E+02  0.95998494886E+02  0.91512970236E+02 0.  0.
         13    1    3    3    0    0  0.37165901877E+02  0.32405157590E+02 -0.23099175056E+02  0.54451644172E+02  0.10566000000E+00 0.  1.
         22    1    1    0    0    0 -0.11899343055E+02  0.40547029879E+00  0.26444820430E+02  0.29001505114E+02  0.00000000000E+00 0.  1.
</event>
<event>
 5    1  0.1267644E-004  0.9118800E+02  0.7818608E-02  0.1130116E+00
         25   -1    0    0    0    0  0.00000000000E+00  0.00000000000E+00  0.99999998245E-14  0.12500000000E+03  0.12500000000E+03 0.  0.
        -13    1    3    3    0    0 -0.34765387838E+02  0.16169728115E+01 -0.22274286646E+02  0.41320718801E+02  0.10566000000E+00 0. -1.
         23    2    1    0    0    0  0.15111237580E+02  0.21650592008E+02 -0.11795272809E+02  0.96082425825E+02  0.91627542018E+02 0.  0.
         13    1    3    3    0    0  0.49876625418E+02  0.20033619197E+02  0.10479013837E+02  0.54761707024E+02  0.10566000000E+00 0.  1.
         22    1    1    0    0    0 -0.15111237580E+02 -0.21650592008E+02  0.11795272809E+02  0.28917574175E+02  0.00000000000E+00 0.  1.
</event>
<event>
 5    1  0.1267644E-004  0.9118800E+02  0.7818608E-02  0.1130116E+00
         25   -1    0    0    0    0  0.00000000000E+00  0.00000000000E+00  0.99999998245E-14  0.12500000000E+03  0.12500000000E+03 0.  0.
        -13    1    3    3    0    0 -0.44627955834E+02  0.68258864763E+01  0.43217247174E+02  0.62497910249E+02  0.10566000000E+00 0. -1.
         23    2    1    0    0    0 -0.20012135103E+02  0.34156496229E+01  0.19343380286E+02  0.96958627448E+02  0.92815175818E+02 0.  0.
         13    1    3    3    0    0  0.24615820731E+02 -0.34102368534E+01 -0.23873866889E+02  0.34460717200E+02  0.10566000000E+00 0.  1.
         22    1    1    0    0    0  0.20012135103E+02 -0.34156496229E+01 -0.19343380286E+02  0.28041372552E+02  0.00000000000E+00 0. -1.
</event>
<event>
 5    1  0.1267644E-004  0.9118800E+02  0.7818608E-02  0.1130116E+00
         25   -1    0    0    0    0  0.00000000000E+00  0.00000000000E+00  0.99999998245E-14  0.12500000000E+03  0.12500000000E+03 0.  0.
        -13    1    3    3    0    0 -0.17097103591E+02  0.11420092236E+00 -0.72589600417E+01  0.18574920133E+02  0.10566000000E+00 0. -1.
         23    2    1    0    0    0  0.28550851863E+02  0.19861758565E+02  0.28666184110E+02  0.79929048082E+02  0.66009560069E+02 0.  0.
         13    1    3    3    0    0  0.45647955454E+02  0.19747557642E+02  0.35925144152E+02  0.61354127948E+02  0.10566000000E+00 0.  1.
         22    1    1    0    0    0 -0.28550851863E+02 -0.19861758565E+02 -0.28666184110E+02  0.45070951918E+02  0.00000000000E+00 0.  1.
</event>
<event>
 5    1  0.1267644E-004  0.9118800E+02  0.7818608E-02  0.1130116E+00
         25   -1    0    0    0    0  0.00000000000E+00  0.00000000000E+00  0.99999998245E-14  0.12500000000E+03  0.12500000000E+03 0.  0.
        -13    1    3    3    0    0  0.17934002530E+02 -0.15322744669E+02  0.40277668539E+02  0.46676725441E+02  0.10566000000E+00 0.  1.
         23    2    1    0    0    0 -0.11968840699E+02 -0.15241613804E+02 -0.84581950805E+01  0.10385523698E+03  0.10167993532E+03 0.  0.
         13    1    3    3    0    0 -0.29902843229E+02  0.81130864662E-01 -0.48735863619E+02  0.57178511542E+02  0.10566000000E+00 0. -1.
         22    1    1    0    0    0  0.11968840699E+02  0.15241613804E+02  0.84581950805E+01  0.21144763017E+02  0.00000000000E+00 0. -1.
</event>
<event>
 5    1  0.1267644E-004  0.9118800E+02  0.7818608E-02  0.1130116E+00
         25   -1    0    0    0    0  0.00000000000E+00  0.00000000000E+00  0.99999998245E-14  0.12500000000E+03  0.12500000000E+03 0.  0.
        -13    1    3    3    0    0 -0.30884658111E+02  0.78376868957E+01 -0.47178846065E+02  0.56931064653E+02  0.10566000000E+00 0. -1.
         23    2    1    0    0    0 -0.26668629151E+02  0.81885156473E+01 -0.85062165604E+01  0.95834553158E+02  0.91288763216E+02 0.  0.
         13    1    3    3    0    0  0.42160289599E+01  0.35082875157E+00  0.38672629505E+02  0.38903488505E+02  0.10566000000E+00 0.  1.
         22    1    1    0    0    0  0.26668629151E+02 -0.81885156473E+01  0.85062165604E+01  0.29165446842E+02  0.00000000000E+00 0. -1.
</event>
<event>
 5    1  0.1267644E-004  0.9118800E+02  0.7818608E-02  0.1130116E+00
         25   -1    0    0    0    0  0.00000000000E+00  0.00000000000E+00  0.99999998245E-14  0.12500000000E+03  0.12500000000E+03 0.  0.
        -13    1    3    3    0    0 -0.25415812283E+02 -0.36958076397E+01  0.43610643907E+02  0.50611480261E+02  0.10566000000E+00 0.  1.
         23    2    1    0    0    0  0.16733093095E+02  0.41277660129E+01  0.15009367158E+02  0.10214576715E+03  0.99556224251E+02 0.  0.
         13    1    3    3    0    0  0.42148905378E+02  0.78235736526E+01 -0.28601276750E+02  0.51534286888E+02  0.10566000000E+00 0. -1.
         22    1    1    0    0    0 -0.16733093095E+02 -0.41277660129E+01 -0.15009367158E+02  0.22854232852E+02  0.00000000000E+00 0. -1.
</event>
<event>
 5    1  0.1267644E-004  0.9118800E+02  0.7818608E-02  0.1130116E+00
         25   -1    0    0    0    0  0.00000000000E+00  0.00000000000E+00  0.99999998245E-14  0.12500000000E+03  0.12500000000E+03 0.  0.
        -13    1    3    3    0    0  0.16996593943E+02 -0.25869787051E+02 -0.33086156302E+02  0.45308222108E+02  0.10566000000E+00 0.  1.
         23    2    1    0    0    0  0.25715769201E+02  0.14624666091E+02 -0.59610441278E+01  0.94821933611E+02  0.89891509070E+02 0.  0.
         13    1    3    3    0    0  0.87191752583E+01  0.40494453141E+02  0.27125112174E+02  0.49513711504E+02  0.10566000000E+00 0. -1.
         22    1    1    0    0    0 -0.25715769201E+02 -0.14624666091E+02  0.59610441278E+01  0.30178066389E+02  0.00000000000E+00 0. -1.
</event>
<event>
 5    1  0.1267644E-004  0.9118800E+02  0.7818608E-02  0.1130116E+00
         25   -1    0    0    0    0  0.00000000000E+00  0.00000000000E+00  0.99999998245E-14  0.12500000000E+03  0.12500000000E+03 0.  0.
        -13    1    3    3    0    0  0.12081193605E+02  0.11083340105E+02 -0.11333896631E+02  0.19931483730E+02  0.10566000000E+00 0. -1.
         23    2    1    0    0    0  0.29663633684E+02 -0.20989328694E+02  0.31959341888E+02  0.76606998272E+02  0.59386442627E+02 0.  0.
         13    1    3    3    0    0  0.17582440079E+02 -0.32072668799E+02  0.43293238519E+02  0.56675514541E+02  0.10566000000E+00 0.  1.
         22    1    1    0    0    0 -0.29663633684E+02  0.20989328694E+02 -0.31959341888E+02  0.48393001728E+02  0.00000000000E+00 0.  1.
</event>
<event>
 5    1  0.1267644E-004  0.9118800E+02  0.7818608E-02  0.1130116E+00
         25   -1    0    0    0    0  0.00000000000E+00  0.00000000000E+00  0.99999998245E-14  0.12500000000E+03  0.12500000000E+03 0.  0.
        -13    1    3    3    0    0 -0.50166923109E+01  0.30067301474E+02  0.11650517880E+02  0.32633656715E+02  0.10566000000E+00 0. -1.
         23    2    1    0    0    0 -0.75586889392E+01 -0.29329537410E+02 -0.48357704356E+01  0.94328511303E+02  0.89202734408E+02 0.  0.
         13    1    3    3    0    0 -0.25419966283E+01 -0.59396838884E+02 -0.16486288316E+02  0.61694854589E+02  0.10566000000E+00 0.  1.
         22    1    1    0    0    0  0.75586889392E+01  0.29329537410E+02  0.48357704356E+01  0.30671488697E+02  0.00000000000E+00 0.  1.
</event>
<event>
 5    1  0.1267644E-004  0.9118800E+02  0.7818608E-02  0.1130116E+00
         25   -1    0    0    0    0  0.00000000000E+00  0.00000000000E+00  0.99999998245E-14  0.12500000000E+03  0.12500000000E+03 0.  0.
        -13    1    3    3    0    0  0.55156823819E+02  0.26117891718E+02 -0.88246600124E+01  0.61662835403E+02  0.10566000000E+00 0.  1.
         23    2    1    0    0    0  0.22071430331E+02  0.11375811634E+02 -0.10765549230E+02  0.97936109344E+02  0.94122406132E+02 0.  0.
         13    1    3    3    0    0 -0.33085393487E+02 -0.14742080084E+02 -0.19408892175E+01  0.36273273941E+02  0.10566000000E+00 0. -1.
         22    1    1    0    0    0 -0.22071430331E+02 -0.11375811634E+02  0.10765549230E+02  0.27063890656E+02  0.00000000000E+00 0.  1.
</event>
<event>
 5    1  0.1267644E-004  0.9118800E+02  0.7818608E-02  0.1130116E+00
         25   -1    0    0    0    0  0.00000000000E+00  0.00000000000E+00  0.99999998245E-14  0.12500000000E+03  0.12500000000E+03 0.  0.
        -13    1    3    3    0    0  0.13958040277E+02  0.24586764118E+02  0.35058709204E+02  0.45038429294E+02  0.10566000000E+00 0. -1.
         23    2    1    0    0    0  0.22609070111E+01 -0.22091785325E+02  0.19014631641E+02  0.95764492551E+02  0.91192780075E+02 0.  0.
         13    1    3    3    0    0 -0.11697133265E+02 -0.46678549443E+02 -0.16044077563E+02  0.50726063258E+02  0.10566000000E+00 0.  1.
         22    1    1    0    0    0 -0.22609070111E+01  0.22091785325E+02 -0.19014631641E+02  0.29235507449E+02  0.00000000000E+00 0.  1.
</event>
<event>
 5    1  0.1267644E-004  0.9118800E+02  0.7818608E-02  0.1130116E+00
         25   -1    0    0    0    0  0.00000000000E+00  0.00000000000E+00  0.99999998245E-14  0.12500000000E+03  0.12500000000E+03 0.  0.
        -13    1    3    3    0    0  0.10524959898E+02 -0.26716523153E+02  0.11809187947E+01  0.28739400193E+02  0.10566000000E+00 0.  1.
         23    2    1    0    0    0 -0.26653905796E+02 -0.24669194344E+02  0.31629833387E+02  0.76839370811E+02  0.59873555956E+02 0.  0.
         13    1    3    3    0    0 -0.37178865694E+02  0.20473288090E+01  0.30448914592E+02  0.48099970618E+02  0.10566000000E+00 0. -1.
         22    1    1    0    0    0  0.26653905796E+02  0.24669194344E+02 -0.31629833387E+02  0.48160629189E+02  0.00000000000E+00 0.  1.
</event>
<event>
 5    1  0.1267644E-004  0.9118800E+02  0.7818608E-02  0.1130116E+00
         25   -1    0    0    0    0  0.00000000000E+00  0.00000000000E+00  0.99999998245E-14  0.12500000000E+03  0.12500000000E+03 0.  0.
        -13    1    3    3    0    0  0.52045463044E+02 -0.13611444147E+02  0.87024598061E+01  0.54495372335E+02  0.10566000000E+00 0.  1.
         23    2    1    0    0    0  0.24817961400E+02  0.12047266317E+02 -0.91304385583E+01  0.95940875064E+02  0.91434231916E+02 0.  0.
         13    1    3    3    0    0 -0.27227501644E+02  0.25658710463E+02 -0.17832898364E+02  0.41445502730E+02  0.10566000000E+00 0. -1.
         22    1    1    0    0    0 -0.24817961400E+02 -0.12047266317E+02  0.91304385583E+01  0.29059124936E+02  0.00000000000E+00 0.  1.
</event>
<event>
 5    1  0.1267644E-004  0.9118800E+02  0.7818608E-02  0.1130116E+00
         25   -1    0    0    0    0  0.00000000000E+00  0.00000000000E+00  0.99999998245E-14  0.12500000000E+03  0.12500000000E+03 0.  0.
        -13    1    3    3    0    0  0.36309234225E+01  0.34721903243E+02  0.10794957332E+02  0.36542255508E+02  0.10566000000E+00 0.  1.
         23    2    1    0    0    0  0.62056732285E+01 -0.12909525626E+02 -0.25004969336E+02  0.96183082684E+02  0.91764757238E+02 0.  0.
         13    1    3    3    0    0  0.25747498060E+01 -0.47631428869E+02 -0.35799926669E+02  0.59640827176E+02  0.10566000000E+00 0. -1.
         22    1    1    0    0    0 -0.62056732285E+01  0.12909525626E+02  0.25004969336E+02  0.28816917316E+02  0.00000000000E+00 0. -1.
</event>
<event>
 5    1  0.1267644E-004  0.9118800E+02  0.7818608E-02  0.1130116E+00
         25   -1    0    0    0    0  0.00000000000E+00  0.00000000000E+00  0.99999998245E-14  0.12500000000E+03  0.12500000000E+03 0.  0.
        -13    1    3    3    0    0  0.24999440032E+02 -0.37493281299E+02  0.28359825851E+02  0.53244802852E+02  0.10566000000E+00 0. -1.
         23    2    1    0    0    0  0.88472095506E+01  0.12646264708E+01  0.28392776834E+02  0.95233875407E+02  0.90462527335E+02 0.  0.
         13    1    3    3    0    0 -0.16152230481E+02  0.38757907770E+02  0.32950983210E-01  0.41989072555E+02  0.10566000000E+00 0.  1.
         22    1    1    0    0    0 -0.88472095506E+01 -0.12646264708E+01 -0.28392776834E+02  0.29766124593E+02  0.00000000000E+00 0.  1.
</event>
<event>
 5    1  0.1267644E-004  0.9118800E+02  0.7818608E-02  0.1130116E+00
         25   -1    0    0    0    0  0.00000000000E+00  0.00000000000E+00  0.99999998245E-14  0.12500000000E+03  0.12500000000E+03 0.  0.
        -13    1    3    3    0    0  0.11740370906E+02  0.31927505929E+02 -0.11656889479E+02  0.35959646553E+02  0.10566000000E+00 0.  1.
         23    2    1    0    0    0 -0.23814757362E+02 -0.91881341049E+01  0.13800351368E+02  0.95982519503E+02  0.91491146434E+02 0.  0.
         13    1    3    3    0    0 -0.35555128267E+02 -0.41115640034E+02  0.25457240847E+02  0.60022872950E+02  0.10566000000E+00 0. -1.
         22    1    1    0    0    0  0.23814757362E+02  0.91881341049E+01 -0.13800351368E+02  0.29017480497E+02  0.00000000000E+00 0. -1.
</event>
<event>
 5    1  0.1267644E-004  0.9118800E+02  0.7818608E-02  0.1130116E+00
         25   -1    0    0    0    0  0.00000000000E+00  0.00000000000E+00  0.99999998245E-14  0.12500000000E+03  0.12500000000E+03 0.  0.
        -13    1    3    3    0    0  0.49967005670E+02 -0.88698915299E+01 -0.13457535720E+02  0.52502314835E+02  0.10566000000E+00 0. -1.
         23    2    1    0    0    0  0.91460197215E+01 -0.21380570780E+02 -0.18213660435E+02  0.95461619712E+02  0.90776676123E+02 0.  0.
         13    1    3    3    0    0 -0.40820985949E+02 -0.12510679250E+02 -0.47561247154E+01  0.42959304876E+02  0.10566000000E+00 0.  1.
         22    1    1    0    0    0 -0.91460197215E+01  0.21380570780E+02  0.18213660435E+02  0.29538380288E+02  0.00000000000E+00 0.  1.
</event>
<event>
 5    1  0.1267644E-004  0.9118800E+02  0.7818608E-02  0.1130116E+00
         25   -1    0    0    0    0  0.00000000000E+00  0.00000000000E+00  0.99999998245E-14  0.12500000000E+03  0.12500000000E+03 0.  0.
        -13    1    3    3    0    0  0.37907471140E+02  0.30316919342E+02  0.47455481922E+01  0.48771132428E+02  0.10566000000E+00 0.  1.
         23    2    1    0    0    0  0.78199668505E+01  0.21684437063E+02  0.28701428382E+02  0.88187791652E+02  0.80137057052E+02 0.  0.
         13    1    3    3    0    0 -0.30087504290E+02 -0.86324822788E+01  0.23955880190E+02  0.39416659224E+02  0.10566000000E+00 0. -1.
         22    1    1    0    0    0 -0.78199668505E+01 -0.21684437063E+02 -0.28701428382E+02  0.36812208348E+02  0.00000000000E+00 0.  1.
</event>
<event>
 5    1  0.1267644E-004  0.9118800E+02  0.7818608E-02  0.1130116E+00
         25   -1    0    0    0    0  0.00000000000E+00  0.00000000000E+00  0.99999998245E-14  0.12500000000E+03  0.12500000000E+03 0.  0.
        -13    1    3    3    0    0  0.11930968811E+02  0.14041791938E+02  0.30957229154E+02  0.36026117450E+02  0.10566000000E+00 0. -1.
         23    2    1    0    0    0 -0.21651630568E+02  0.93827792006E+01 -0.17820593278E+02  0.95429690625E+02  0.90732698936E+02 0.  0.
         13    1    3    3    0    0 -0.33582599380E+02 -0.46590127373E+01 -0.48777822431E+02  0.59403573175E+02  0.10566000000E+00 0.  1.
         22    1    1    0    0    0  0.21651630568E+02 -0.93827792006E+01  0.17820593278E+02  0.29570309375E+02  0.00000000000E+00 0.  1.
</event>
<event>
 5    1  0.1267644E-004  0.9118800E+02  0.7818608E-02  0.1130116E+00
         25   -1    0    0    0    0  0.00000000000E+00  0.00000000000E+00  0.99999998245E-14  0.12500000000E+03  0.12500000000E+03 0.  0.
        -13    1    3    3    0    0 -0.36344875057E+02  0.27111673425E+02  0.11069162272E+02  0.46674728668E+02  0.10566000000E+00 0. -1.
         23    2    1    0    0    0 -0.83466316943E+01  0.41310691755E+02  0.18559464546E+02  0.78949014797E+02  0.64126856303E+02 0.  0.
         13    1    3    3    0    0  0.27998243363E+02  0.14199018330E+02  0.74903022741E+01  0.32274286129E+02  0.10566000000E+00 0.  1.
         22    1    1    0    0    0  0.83466316943E+01 -0.41310691755E+02 -0.18559464546E+02  0.46050985203E+02  0.00000000000E+00 0. -1.
</event>
<event>
 5    1  0.1267644E-004  0.9118800E+02  0.7818608E-02  0.1130116E+00
         25   -1    0    0    0    0  0.00000000000E+00  0.00000000000E+00  0.99999998245E-14  0.12500000000E+03  0.12500000000E+03 0.  0.
        -13    1    3    3    0    0  0.40699605944E+02 -0.12239599893E+02  0.47043945873E+00  0.42502919980E+02  0.10566000000E+00 0.  1.
         23    2    1    0    0    0 -0.93169825443E+01 -0.26822826827E+02 -0.84808765010E+01  0.95365637024E+02  0.90644411058E+02 0.  0.
         13    1    3    3    0    0 -0.50016588488E+02 -0.14583226934E+02 -0.89513159597E+01  0.52862717044E+02  0.10566000000E+00 0. -1.
         22    1    1    0    0    0  0.93169825443E+01  0.26822826827E+02  0.84808765010E+01  0.29634362976E+02  0.00000000000E+00 0. -1.
</event>
<event>
 5    1  0.1267644E-004  0.9118800E+02  0.7818608E-02  0.1130116E+00
         25   -1    0    0    0    0  0.00000000000E+00  0.00000000000E+00  0.99999998245E-14  0.12500000000E+03  0.12500000000E+03 0.  0.
        -13    1    3    3    0    0 -0.18784035552E+02  0.20347141675E+02  0.54956651131E+02  0.61539343785E+02  0.10566000000E+00 0.  1.
         23    2    1    0    0    0 -0.32140693188E+01  0.14874836092E+02  0.25511359876E+02  0.95294437002E+02  0.90546171926E+02 0.  0.
         13    1    3    3    0    0  0.15569966234E+02 -0.54723055837E+01 -0.29445291255E+02  0.33755093216E+02  0.10566000000E+00 0. -1.
         22    1    1    0    0    0  0.32140693188E+01 -0.14874836092E+02 -0.25511359876E+02  0.29705562998E+02  0.00000000000E+00 0.  1.
</event>
<event>
 5    1  0.1267644E-004  0.9118800E+02  0.7818608E-02  0.1130116E+00
         25   -1    0    0    0    0  0.00000000000E+00  0.00000000000E+00  0.99999998245E-14  0.12500000000E+03  0.12500000000E+03 0.  0.
        -13    1    3    3    0    0  0.32313991294E+02 -0.81375288654E+01 -0.21866334828E+01  0.33394699271E+02  0.10566000000E+00 0.  1.
         23    2    1    0    0    0 -0.22802288163E+02  0.14831043755E+02 -0.14220395207E+02  0.94305964030E+02  0.89171133263E+02 0.  0.
         13    1    3    3    0    0 -0.55116279456E+02  0.22968572620E+02 -0.12033761724E+02  0.60911264759E+02  0.10566000000E+00 0. -1.
         22    1    1    0    0    0  0.22802288163E+02 -0.14831043755E+02  0.14220395207E+02  0.30694035970E+02  0.00000000000E+00 0. -1.
</event>
<event>
 5    1  0.1267644E-004  0.9118800E+02  0.7818608E-02  0.1130116E+00
         25   -1    0    0    0    0  0.00000000000E+00  0.00000000000E+00  0.99999998245E-14  0.12500000000E+03  0.12500000000E+03 0.  0.
        -13    1    3    3    0    0 -0.27775969186E+02 -0.21656337842E+02 -0.89694754281E+01  0.36345069631E+02  0.10566000000E+00 0.  1.
         23    2    1    0    0    0  0.23875481188E+02 -0.58001768986E+01  0.15805928733E+02  0.95785140131E+02  0.91221077788E+02 0.  0.
         13    1    3    3    0    0  0.51651450375E+02  0.15856160943E+02  0.24775404162E+02  0.59440070500E+02  0.10566000000E+00 0. -1.
         22    1    1    0    0    0 -0.23875481188E+02  0.58001768986E+01 -0.15805928733E+02  0.29214859869E+02  0.00000000000E+00 0. -1.
</event>
<event>
 5    1  0.1267644E-004  0.9118800E+02  0.7818608E-02  0.1130116E+00
         25   -1    0    0    0    0  0.00000000000E+00  0.00000000000E+00  0.99999998245E-14  0.12500000000E+03  0.12500000000E+03 0.  0.
        -13    1    3    3    0    0 -0.15999540747E+02  0.50652322703E+01 -0.31532020723E+02  0.35720041671E+02  0.10566000000E+00 0.  1.
         23    2    1    0    0    0  0.25318395231E+02 -0.14422569859E+02  0.64804878554E+01  0.95149901487E+02  0.90346418699E+02 0.  0.
         13    1    3    3    0    0  0.41317935978E+02 -0.19487802129E+02  0.38012508578E+02  0.59429859816E+02  0.10566000000E+00 0. -1.
         22    1    1    0    0    0 -0.25318395231E+02  0.14422569859E+02 -0.64804878554E+01  0.29850098513E+02  0.00000000000E+00 0. -1.
</event>
<event>
 5    1  0.1267644E-004  0.9118800E+02  0.7818608E-02  0.1130116E+00
         25   -1    0    0    0    0  0.00000000000E+00  0.00000000000E+00  0.99999998245E-14  0.12500000000E+03  0.12500000000E+03 0.  0.
        -13    1    3    3    0    0 -0.22741593165E+02  0.91766437244E+01 -0.42517993883E+02  0.49083416931E+02  0.10566000000E+00 0. -1.
         23    2    1    0    0    0 -0.79556959564E+01 -0.24089114370E+02 -0.10573230076E+02  0.97515973302E+02  0.93562777457E+02 0.  0.
         13    1    3    3    0    0  0.14785897208E+02 -0.33265758095E+02  0.31944763807E+02  0.48432556371E+02  0.10566000000E+00 0.  1.
         22    1    1    0    0    0  0.79556959564E+01  0.24089114370E+02  0.10573230076E+02  0.27484026698E+02  0.00000000000E+00 0. -1.
</event>
<event>
 5    1  0.1267644E-004  0.9118800E+02  0.7818608E-02  0.1130116E+00
         25   -1    0    0    0    0  0.00000000000E+00  0.00000000000E+00  0.99999998245E-14  0.12500000000E+03  0.12500000000E+03 0.  0.
        -13    1    3    3    0    0 -0.22720831256E+02 -0.27005407437E+02  0.29943575790E+02  0.46283443032E+02  0.10566000000E+00 0.  1.
         23    2    1    0    0    0  0.21634018836E+02 -0.16025276425E+02  0.84323159144E+01  0.96787516820E+02  0.92584443645E+02 0.  0.
         13    1    3    3    0    0  0.44354850092E+02  0.10980131012E+02 -0.21511259876E+02  0.50504073788E+02  0.10566000000E+00 0. -1.
         22    1    1    0    0    0 -0.21634018836E+02  0.16025276425E+02 -0.84323159144E+01  0.28212483180E+02  0.00000000000E+00 0. -1.
</event>
<event>
 5    1  0.1267644E-004  0.9118800E+02  0.7818608E-02  0.1130116E+00
         25   -1    0    0    0    0  0.00000000000E+00  0.00000000000E+00  0.99999998245E-14  0.12500000000E+03  0.12500000000E+03 0.  0.
        -13    1    3    3    0    0  0.10364446153E+02  0.38664573885E+02  0.47529318636E+02  0.62140311488E+02  0.10566000000E+00 0. -1.
         23    2    1    0    0    0  0.80195679410E+01  0.20843816049E+02  0.19986975954E+02  0.95029058319E+02  0.90179069521E+02 0.  0.
         13    1    3    3    0    0 -0.23448782121E+01 -0.17820757836E+02 -0.27542342682E+02  0.32888746831E+02  0.10566000000E+00 0.  1.
         22    1    1    0    0    0 -0.80195679410E+01 -0.20843816049E+02 -0.19986975954E+02  0.29970941681E+02  0.00000000000E+00 0. -1.
</event>
<event>
 5    1  0.1267644E-004  0.9118800E+02  0.7818608E-02  0.1130116E+00
         25   -1    0    0    0    0  0.00000000000E+00  0.00000000000E+00  0.99999998245E-14  0.12500000000E+03  0.12500000000E+03 0.  0.
        -13    1    3    3    0    0 -0.22394069876E+02  0.15754872360E+02 -0.20998043909E+02  0.34505642737E+02  0.10566000000E+00 0.  1.
         23    2    1    0    0    0  0.10828366919E+02 -0.18369256926E+02  0.18801311042E+02  0.96571626373E+02  0.92292505618E+02 0.  0.
         13    1    3    3    0    0  0.33222436795E+02 -0.34124129287E+02  0.39799354951E+02  0.62065983636E+02  0.10566000000E+00 0. -1.
         22    1    1    0    0    0 -0.10828366919E+02  0.18369256926E+02 -0.18801311042E+02  0.28428373627E+02  0.00000000000E+00 0. -1.
</event>
<event>
 5    1  0.1267644E-004  0.9118800E+02  0.7818608E-02  0.1130116E+00
         25   -1    0    0    0    0  0.00000000000E+00  0.00000000000E+00  0.99999998245E-14  0.12500000000E+03  0.12500000000E+03 0.  0.
        -13    1    3    3    0    0 -0.16630326646E+01 -0.52333166820E+01  0.26082883499E+02  0.26654854282E+02  0.10566000000E+00 0.  1.
         23    2    1    0    0    0 -0.28443516887E+02  0.13955314948E+02 -0.23056213250E+02  0.85816158463E+02  0.76348147428E+02 0.  0.
         13    1    3    3    0    0 -0.26780484222E+02  0.19188631630E+02 -0.49139096749E+02  0.59161304181E+02  0.10566000000E+00 0. -1.
         22    1    1    0    0    0  0.28443516887E+02 -0.13955314948E+02  0.23056213250E+02  0.39183841537E+02  0.00000000000E+00 0. -1.
</event>
<event>
 5    1  0.1267644E-004  0.9118800E+02  0.7818608E-02  0.1130116E+00
         25   -1    0    0    0    0  0.00000000000E+00  0.00000000000E+00  0.99999998245E-14  0.12500000000E+03  0.12500000000E+03 0.  0.
        -13    1    3    3    0    0 -0.64744778472E+01  0.44778405987E+02 -0.41310491269E+02  0.61266568037E+02  0.10566000000E+00 0.  1.
         23    2    1    0    0    0 -0.10948191888E+02  0.16146507884E+02 -0.15287883618E+02  0.10021508507E+03  0.97101860271E+02 0.  0.
         13    1    3    3    0    0 -0.44737140404E+01 -0.28631898102E+02  0.26022607651E+02  0.38948517035E+02  0.10566000000E+00 0. -1.
         22    1    1    0    0    0  0.10948191888E+02 -0.16146507884E+02  0.15287883618E+02  0.24784914928E+02  0.00000000000E+00 0.  1.
</event>
<event>
 5    1  0.1267644E-004  0.9118800E+02  0.7818608E-02  0.1130116E+00
         25   -1    0    0    0    0  0.00000000000E+00  0.00000000000E+00  0.99999998245E-14  0.12500000000E+03  0.12500000000E+03 0.  0.
        -13    1    3    3    0    0 -0.50982418075E+02  0.16331330277E+02  0.26893285252E+02  0.59909759281E+02  0.10566000000E+00 0. -1.
         23    2    1    0    0    0 -0.31893885389E+02  0.66262923811E+01  0.25590225050E+01  0.92324684055E+02  0.86349122832E+02 0.  0.
         13    1    3    3    0    0  0.19088532686E+02 -0.97050378960E+01 -0.24334262747E+02  0.32414924775E+02  0.10566000000E+00 0.  1.
         22    1    1    0    0    0  0.31893885389E+02 -0.66262923811E+01 -0.25590225050E+01  0.32675315945E+02  0.00000000000E+00 0. -1.
</event>
<event>
 5    1  0.1267644E-004  0.9118800E+02  0.7818608E-02  0.1130116E+00
         25   -1    0    0    0    0  0.00000000000E+00  0.00000000000E+00  0.99999998245E-14  0.12500000000E+03  0.12500000000E+03 0.  0.
        -13    1    3    3    0    0 -0.16931654751E+02  0.23822338888E+02  0.31771767121E+02  0.43169909806E+02  0.10566000000E+00 0.  1.
         23    2    1    0    0    0  0.21925508735E+02 -0.85188856068E+01  0.17440761874E+02  0.95717248763E+02  0.91127998939E+02 0.  0.
         13    1    3    3    0    0  0.38857163486E+02 -0.32341224495E+02 -0.14331005246E+02  0.52547338956E+02  0.10566000000E+00 0. -1.
         22    1    1    0    0    0 -0.21925508735E+02  0.85188856068E+01 -0.17440761874E+02  0.29282751237E+02  0.00000000000E+00 0. -1.
</event>
<event>
 5    1  0.1267644E-004  0.9118800E+02  0.7818608E-02  0.1130116E+00
         25   -1    0    0    0    0  0.00000000000E+00  0.00000000000E+00  0.99999998245E-14  0.12500000000E+03  0.12500000000E+03 0.  0.
        -13    1    3    3    0    0 -0.37127468691E+02  0.10893799884E+02 -0.48415820225E+02  0.61977629992E+02  0.10566000000E+00 0. -1.
         23    2    1    0    0    0 -0.18127973946E+02 -0.17577633070E+00 -0.25227429001E+02  0.93934303312E+02  0.88648608720E+02 0.  0.
         13    1    3    3    0    0  0.18999494745E+02 -0.11069576215E+02  0.23188391223E+02  0.31956673320E+02  0.10566000000E+00 0.  1.
         22    1    1    0    0    0  0.18127973946E+02  0.17577633070E+00  0.25227429001E+02  0.31065696688E+02  0.00000000000E+00 0. -1.
</event>
<event>
 5    1  0.1267644E-004  0.9118800E+02  0.7818608E-02  0.1130116E+00
         25   -1    0    0    0    0  0.00000000000E+00  0.00000000000E+00  0.99999998245E-14  0.12500000000E+03  0.12500000000E+03 0.  0.
        -13    1    3    3    0    0 -0.14547241799E+02 -0.20662463438E+02  0.50284281314E+02  0.56276813615E+02  0.10566000000E+00 0.  1.
         23    2    1    0    0    0  0.14674994745E+01 -0.25341215516E+02  0.14482440463E+02  0.95775492472E+02  0.91207856668E+02 0.  0.
         13    1    3    3    0    0  0.16014741274E+02 -0.46787520773E+01 -0.35801840851E+02  0.39498678857E+02  0.10566000000E+00 0. -1.
         22    1    1    0    0    0 -0.14674994745E+01  0.25341215516E+02 -0.14482440463E+02  0.29224507528E+02  0.00000000000E+00 0.  1.
</event>
<event>
 5    1  0.1267644E-004  0.9118800E+02  0.7818608E-02  0.1130116E+00
         25   -1    0    0    0    0  0.00000000000E+00  0.00000000000E+00  0.99999998245E-14  0.12500000000E+03  0.12500000000E+03 0.  0.
        -13    1    3    3    0    0  0.27250270798E+02  0.42055058627E+02  0.13076216026E+02  0.51789997145E+02  0.10566000000E+00 0.  1.
         23    2    1    0    0    0 -0.87166070566E+00  0.17378901669E+02 -0.17658353875E+02  0.10020880243E+03  0.97093772232E+02 0.  0.
         13    1    3    3    0    0 -0.28121931503E+02 -0.24676156958E+02 -0.30734569901E+02  0.48418805280E+02  0.10566000000E+00 0. -1.
         22    1    1    0    0    0  0.87166070566E+00 -0.17378901669E+02  0.17658353875E+02  0.24791197575E+02  0.00000000000E+00 0. -1.
</event>
<event>
 5    1  0.1267644E-004  0.9118800E+02  0.7818608E-02  0.1130116E+00
         25   -1    0    0    0    0  0.00000000000E+00  0.00000000000E+00  0.99999998245E-14  0.12500000000E+03  0.12500000000E+03 0.  0.
        -13    1    3    3    0    0 -0.33478269612E+02  0.16780352927E+02  0.23402485352E+02  0.44159509341E+02  0.10566000000E+00 0. -1.
         23    2    1    0    0    0  0.13297077225E+02  0.25640783064E+02  0.29773159624E+01  0.95963360574E+02  0.91464966755E+02 0.  0.
         13    1    3    3    0    0  0.46775346837E+02  0.88604301369E+01 -0.20425169390E+02  0.51803851233E+02  0.10566000000E+00 0.  1.
         22    1    1    0    0    0 -0.13297077225E+02 -0.25640783064E+02 -0.29773159624E+01  0.29036639426E+02  0.00000000000E+00 0.  1.
</event>
<event>
 5    1  0.1267644E-004  0.9118800E+02  0.7818608E-02  0.1130116E+00
         25   -1    0    0    0    0  0.00000000000E+00  0.00000000000E+00  0.99999998245E-14  0.12500000000E+03  0.12500000000E+03 0.  0.
        -13    1    3    3    0    0 -0.35872480601E+01 -0.27919916989E+02  0.28958817528E+02  0.40385819169E+02  0.10566000000E+00 0.  1.
         23    2    1    0    0    0 -0.14061328701E+02  0.23305548443E+02  0.98768027296E+01  0.96044503368E+02  0.91575792882E+02 0.  0.
         13    1    3    3    0    0 -0.10474080641E+02  0.51225465431E+02 -0.19082014799E+02  0.55658684199E+02  0.10566000000E+00 0. -1.
         22    1    1    0    0    0  0.14061328701E+02 -0.23305548443E+02 -0.98768027296E+01  0.28955496632E+02  0.00000000000E+00 0. -1.
</event>
<event>
 5    1  0.1267644E-004  0.9118800E+02  0.7818608E-02  0.1130116E+00
         25   -1    0    0    0    0  0.00000000000E+00  0.00000000000E+00  0.99999998245E-14  0.12500000000E+03  0.12500000000E+03 0.  0.
        -13    1    3    3    0    0 -0.98277235604E+01  0.70428045702E+00  0.38391051269E+02  0.39635390031E+02  0.10566000000E+00 0. -1.
         23    2    1    0    0    0  0.18729869716E+02 -0.23649065344E+02 -0.19923886125E+01  0.94766642204E+02  0.89814589856E+02 0.  0.
         13    1    3    3    0    0  0.28557593277E+02 -0.24353345801E+02 -0.40383439881E+02  0.55131252173E+02  0.10566000000E+00 0.  1.
         22    1    1    0    0    0 -0.18729869716E+02  0.23649065344E+02  0.19923886125E+01  0.30233357796E+02  0.00000000000E+00 0.  1.
</event>
<event>
 5    1  0.1267644E-004  0.9118800E+02  0.7818608E-02  0.1130116E+00
         25   -1    0    0    0    0  0.00000000000E+00  0.00000000000E+00  0.99999998245E-14  0.12500000000E+03  0.12500000000E+03 0.  0.
        -13    1    3    3    0    0 -0.15640158275E+02  0.34729622898E+02  0.24654588675E+02  0.45372030639E+02  0.10566000000E+00 0. -1.
         23    2    1    0    0    0 -0.26923436483E+02 -0.14482236007E+01 -0.95242496040E+01  0.96404893527E+02  0.92066407456E+02 0.  0.
         13    1    3    3    0    0 -0.11283278208E+02 -0.36177846499E+02 -0.34178838279E+02  0.51032862888E+02  0.10566000000E+00 0.  1.
         22    1    1    0    0    0  0.26923436483E+02  0.14482236007E+01  0.95242496040E+01  0.28595106473E+02  0.00000000000E+00 0.  1.
</event>
<event>
 5    1  0.1267644E-004  0.9118800E+02  0.7818608E-02  0.1130116E+00
         25   -1    0    0    0    0  0.00000000000E+00  0.00000000000E+00  0.99999998245E-14  0.12500000000E+03  0.12500000000E+03 0.  0.
        -13    1    3    3    0    0  0.37600298345E+02 -0.12801541609E+00 -0.40322601827E+02  0.55133675786E+02  0.10566000000E+00 0. -1.
         23    2    1    0    0    0 -0.14173124471E+01 -0.61311989591E+01 -0.27721941549E+02  0.96572787360E+02  0.92294078033E+02 0.  0.
         13    1    3    3    0    0 -0.39017610792E+02 -0.60031835430E+01  0.12600660278E+02  0.41439111574E+02  0.10566000000E+00 0.  1.
         22    1    1    0    0    0  0.14173124471E+01  0.61311989591E+01  0.27721941549E+02  0.28427212640E+02  0.00000000000E+00 0. -1.
</event>
<event>
 5    1  0.1267644E-004  0.9118800E+02  0.7818608E-02  0.1130116E+00
         25   -1    0    0    0    0  0.00000000000E+00  0.00000000000E+00  0.99999998245E-14  0.12500000000E+03  0.12500000000E+03 0.  0.
        -13    1    3    3    0    0  0.11476821658E+02 -0.36469478300E+02 -0.10141006480E+02  0.39554917005E+02  0.10566000000E+00 0. -1.
         23    2    1    0    0    0  0.23318105028E+02  0.95460401349E+01  0.17310956505E+02  0.94429914631E+02  0.89344718130E+02 0.  0.
         13    1    3    3    0    0  0.11841283370E+02  0.46015518435E+02  0.27451962985E+02  0.54874997626E+02  0.10566000000E+00 0.  1.
         22    1    1    0    0    0 -0.23318105028E+02 -0.95460401349E+01 -0.17310956505E+02  0.30570085369E+02  0.00000000000E+00 0.  1.
</event>
<event>
 5    1  0.1267644E-004  0.9118800E+02  0.7818608E-02  0.1130116E+00
         25   -1    0    0    0    0  0.00000000000E+00  0.00000000000E+00  0.99999998245E-14  0.12500000000E+03  0.12500000000E+03 0.  0.
        -13    1    3    3    0    0  0.26864172025E+02  0.78094342489E+01 -0.11325267800E+01  0.27999371114E+02  0.10566000000E+00 0. -1.
         23    2    1    0    0    0 -0.30240884016E+02  0.22441817664E+02  0.37731709197E+01  0.87153163079E+02  0.78506628826E+02 0.  0.
         13    1    3    3    0    0 -0.57105056041E+02  0.14632383416E+02  0.49056976997E+01  0.59153791964E+02  0.10566000000E+00 0.  1.
         22    1    1    0    0    0  0.30240884016E+02 -0.22441817664E+02 -0.37731709197E+01  0.37846836921E+02  0.00000000000E+00 0.  1.
</event>
<event>
 5    1  0.1267644E-004  0.9118800E+02  0.7818608E-02  0.1130116E+00
         25   -1    0    0    0    0  0.00000000000E+00  0.00000000000E+00  0.99999998245E-14  0.12500000000E+03  0.12500000000E+03 0.  0.
        -13    1    3    3    0    0 -0.93519262119E+01  0.19029246076E+02  0.52008567189E+02  0.56164694917E+02  0.10566000000E+00 0. -1.
         23    2    1    0    0    0  0.11902231864E+02  0.19416789176E+02  0.19440511509E+02  0.95056581474E+02  0.90217212152E+02 0.  0.
         13    1    3    3    0    0  0.21254158076E+02  0.38754310031E+00 -0.32568055679E+02  0.38891886557E+02  0.10566000000E+00 0.  1.
         22    1    1    0    0    0 -0.11902231864E+02 -0.19416789176E+02 -0.19440511509E+02  0.29943418526E+02  0.00000000000E+00 0. -1.
</event>
<event>
 5    1  0.1267644E-004  0.9118800E+02  0.7818608E-02  0.1130116E+00
         25   -1    0    0    0    0  0.00000000000E+00  0.00000000000E+00  0.99999998245E-14  0.12500000000E+03  0.12500000000E+03 0.  0.
        -13    1    3    3    0    0 -0.36180236392E+02 -0.40080317994E+02 -0.92732544805E+00  0.54002893371E+02  0.10566000000E+00 0.  1.
         23    2    1    0    0    0 -0.24257917969E+02 -0.61256250956E+01  0.17533162685E+02  0.94448704434E+02  0.89371002616E+02 0.  0.
         13    1    3    3    0    0  0.11922318423E+02  0.33954692899E+02  0.18460488133E+02  0.40445811063E+02  0.10566000000E+00 0. -1.
         22    1    1    0    0    0  0.24257917969E+02  0.61256250956E+01 -0.17533162685E+02  0.30551295566E+02  0.00000000000E+00 0.  1.
</event>
<event>
 5    1  0.1267644E-004  0.9118800E+02  0.7818608E-02  0.1130116E+00
         25   -1    0    0    0    0  0.00000000000E+00  0.00000000000E+00  0.99999998245E-14  0.12500000000E+03  0.12500000000E+03 0.  0.
        -13    1    3    3    0    0 -0.61860319409E+01  0.31867939194E+02  0.33941179893E+02  0.46966449687E+02  0.10566000000E+00 0.  1.
         23    2    1    0    0    0  0.23881815151E+02  0.17085691006E+02 -0.13181090992E+01  0.95606134251E+02  0.90975455826E+02 0.  0.
         13    1    3    3    0    0  0.30067847092E+02 -0.14782248187E+02 -0.35259288992E+02  0.48639684564E+02  0.10566000000E+00 0. -1.
         22    1    1    0    0    0 -0.23881815151E+02 -0.17085691006E+02  0.13181090992E+01  0.29393865749E+02  0.00000000000E+00 0.  1.
</event>
<event>
 5    1  0.1267644E-004  0.9118800E+02  0.7818608E-02  0.1130116E+00
         25   -1    0    0    0    0  0.00000000000E+00  0.00000000000E+00  0.99999998245E-14  0.12500000000E+03  0.12500000000E+03 0.  0.
        -13    1    3    3    0    0 -0.17766617653E+02 -0.17705358744E+02  0.42738242206E+02  0.49555029432E+02  0.10566000000E+00 0.  1.
         23    2    1    0    0    0 -0.12743828358E+02 -0.25477202644E+02 -0.31247933935E+01  0.96342412008E+02  0.91981536201E+02 0.  0.
         13    1    3    3    0    0  0.50227892959E+01 -0.77718438998E+01 -0.45863035599E+02  0.46787382576E+02  0.10566000000E+00 0. -1.
         22    1    1    0    0    0  0.12743828358E+02  0.25477202644E+02  0.31247933935E+01  0.28657587992E+02  0.00000000000E+00 0.  1.
</event>
<event>
 5    1  0.1267644E-004  0.9118800E+02  0.7818608E-02  0.1130116E+00
         25   -1    0    0    0    0  0.00000000000E+00  0.00000000000E+00  0.99999998245E-14  0.12500000000E+03  0.12500000000E+03 0.  0.
        -13    1    3    3    0    0  0.42590357996E+02 -0.35234664407E+02 -0.11578906239E+02  0.56475679755E+02  0.10566000000E+00 0.  1.
         23    2    1    0    0    0  0.18150088411E+02 -0.18778753248E+02  0.13888053690E+02  0.95420525391E+02  0.90720071361E+02 0.  0.
         13    1    3    3    0    0 -0.24440269585E+02  0.16455911159E+02  0.25466959930E+02  0.38944845635E+02  0.10566000000E+00 0. -1.
         22    1    1    0    0    0 -0.18150088411E+02  0.18778753248E+02 -0.13888053690E+02  0.29579474609E+02  0.00000000000E+00 0.  1.
</event>
<event>
 5    1  0.1267644E-004  0.9118800E+02  0.7818608E-02  0.1130116E+00
         25   -1    0    0    0    0  0.00000000000E+00  0.00000000000E+00  0.99999998245E-14  0.12500000000E+03  0.12500000000E+03 0.  0.
        -13    1    3    3    0    0 -0.17678362231E+02 -0.24915335936E+02 -0.15452296898E+02  0.34235699196E+02  0.10566000000E+00 0. -1.
         23    2    1    0    0    0  0.24451673101E+02  0.14264659868E+02  0.67400281499E+01  0.95900295224E+02  0.91378738260E+02 0.  0.
         13    1    3    3    0    0  0.42130035332E+02  0.39179995804E+02  0.22192325048E+02  0.61664596028E+02  0.10566000000E+00 0.  1.
         22    1    1    0    0    0 -0.24451673101E+02 -0.14264659868E+02 -0.67400281499E+01  0.29099704776E+02  0.00000000000E+00 0.  1.
</event>
<event>
 5    1  0.1267644E-004  0.9118800E+02  0.7818608E-02  0.1130116E+00
         25   -1    0    0    0    0  0.00000000000E+00  0.00000000000E+00  0.99999998245E-14  0.12500000000E+03  0.12500000000E+03 0.  0.
        -13    1    3    3    0    0  0.41739620216E+02 -0.39219238214E+02  0.82928427569E+01  0.57871641992E+02  0.10566000000E+00 0. -1.
         23    2    1    0    0    0  0.26789724314E+02 -0.29716317340E+01  0.72188156990E+01  0.97096035693E+02  0.93000047974E+02 0.  0.
         13    1    3    3    0    0 -0.14949895902E+02  0.36247606480E+02 -0.10740270579E+01  0.39224393700E+02  0.10566000000E+00 0.  1.
         22    1    1    0    0    0 -0.26789724314E+02  0.29716317340E+01 -0.72188156990E+01  0.27903964307E+02  0.00000000000E+00 0. -1.
</event>
<event>
 5    1  0.1267644E-004  0.9118800E+02  0.7818608E-02  0.1130116E+00
         25   -1    0    0    0    0  0.00000000000E+00  0.00000000000E+00  0.99999998245E-14  0.12500000000E+03  0.12500000000E+03 0.  0.
        -13    1    3    3    0    0 -0.19791626468E+02  0.25719636081E+02  0.20503080443E+02  0.38387441046E+02  0.10566000000E+00 0.  1.
         23    2    1    0    0    0 -0.15921177393E+02 -0.25190442448E+02 -0.38449697846E+01  0.94952935702E+02  0.90073491802E+02 0.  0.
         13    1    3    3    0    0  0.38704490752E+01 -0.50910078528E+02 -0.24348050227E+02  0.56565494656E+02  0.10566000000E+00 0. -1.
         22    1    1    0    0    0  0.15921177393E+02  0.25190442448E+02  0.38449697846E+01  0.30047064298E+02  0.00000000000E+00 0.  1.
</event>
<event>
 5    1  0.1267644E-004  0.9118800E+02  0.7818608E-02  0.1130116E+00
         25   -1    0    0    0    0  0.00000000000E+00  0.00000000000E+00  0.99999998245E-14  0.12500000000E+03  0.12500000000E+03 0.  0.
        -13    1    3    3    0    0  0.15897665436E+01 -0.20356010501E+02  0.56304234762E+02  0.59892174258E+02  0.10566000000E+00 0.  1.
         23    2    1    0    0    0 -0.96323936812E+01 -0.18172875104E+02  0.29451715433E+02  0.89077306066E+02  0.81512738369E+02 0.  0.
         13    1    3    3    0    0 -0.11222160225E+02  0.21831353977E+01 -0.26852519329E+02  0.29185131808E+02  0.10566000000E+00 0. -1.
         22    1    1    0    0    0  0.96323936812E+01  0.18172875104E+02 -0.29451715433E+02  0.35922693934E+02  0.00000000000E+00 0.  1.
</event>
<event>
 5    1  0.1267644E-004  0.9118800E+02  0.7818608E-02  0.1130116E+00
         25   -1    0    0    0    0  0.00000000000E+00  0.00000000000E+00  0.99999998245E-14  0.12500000000E+03  0.12500000000E+03 0.  0.
        -13    1    3    3    0    0  0.25164822211E+02 -0.26021096279E+02 -0.41052465055E+02  0.54732821776E+02  0.10566000000E+00 0.  1.
         23    2    1    0    0    0  0.13100231885E+02 -0.25334377607E+02 -0.11164665456E+01  0.96457167945E+02  0.92137353914E+02 0.  0.
         13    1    3    3    0    0 -0.12064590326E+02  0.68671867213E+00  0.39935998509E+02  0.41724346169E+02  0.10566000000E+00 0. -1.
         22    1    1    0    0    0 -0.13100231885E+02  0.25334377607E+02  0.11164665456E+01  0.28542832055E+02  0.00000000000E+00 0.  1.
</event>
<event>
 5    1  0.1267644E-004  0.9118800E+02  0.7818608E-02  0.1130116E+00
         25   -1    0    0    0    0  0.00000000000E+00  0.00000000000E+00  0.99999998245E-14  0.12500000000E+03  0.12500000000E+03 0.  0.
        -13    1    3    3    0    0 -0.49628183417E+02 -0.13406732380E+02 -0.17840539450E+02  0.54415007804E+02  0.10566000000E+00 0. -1.
         23    2    1    0    0    0 -0.16556022473E+02  0.12105786621E+02 -0.20150038771E+02  0.96248025941E+02  0.91853178961E+02 0.  0.
         13    1    3    3    0    0  0.33072160944E+02  0.25512519001E+02 -0.23094993218E+01  0.41833018137E+02  0.10566000000E+00 0.  1.
         22    1    1    0    0    0  0.16556022473E+02 -0.12105786621E+02  0.20150038771E+02  0.28751974059E+02  0.00000000000E+00 0. -1.
</event>
<event>
 5    1  0.1267644E-004  0.9118800E+02  0.7818608E-02  0.1130116E+00
         25   -1    0    0    0    0  0.00000000000E+00  0.00000000000E+00  0.99999998245E-14  0.12500000000E+03  0.12500000000E+03 0.  0.
        -13    1    3    3    0    0  0.45717308674E+00 -0.20964152481E+02  0.31720804710E+02  0.38025324614E+02  0.10566000000E+00 0.  1.
         23    2    1    0    0    0 -0.10469727376E+02  0.26827691301E+02  0.40475687226E+00  0.96198888216E+02  0.91786284672E+02 0.  0.
         13    1    3    3    0    0 -0.10926900463E+02  0.47791843783E+02 -0.31316047838E+02  0.58173563602E+02  0.10566000000E+00 0. -1.
         22    1    1    0    0    0  0.10469727376E+02 -0.26827691301E+02 -0.40475687226E+00  0.28801111784E+02  0.00000000000E+00 0. -1.
</event>
<event>
 5    1  0.1267644E-004  0.9118800E+02  0.7818608E-02  0.1130116E+00
         25   -1    0    0    0    0  0.00000000000E+00  0.00000000000E+00  0.99999998245E-14  0.12500000000E+03  0.12500000000E+03 0.  0.
        -13    1    3    3    0    0  0.21913576574E+01 -0.43918936671E+01 -0.51325113676E+02  0.51559375832E+02  0.10566000000E+00 0. -1.
         23    2    1    0    0    0  0.61766343690E+01 -0.25680894658E+02 -0.13047573358E+02  0.95539885725E+02  0.90884384970E+02 0.  0.
         13    1    3    3    0    0  0.39852767116E+01 -0.21289000990E+02  0.38277540318E+02  0.43980509893E+02  0.10566000000E+00 0.  1.
         22    1    1    0    0    0 -0.61766343690E+01  0.25680894658E+02  0.13047573358E+02  0.29460114275E+02  0.00000000000E+00 0. -1.
</event>
<event>
 5    1  0.1267644E-004  0.9118800E+02  0.7818608E-02  0.1130116E+00
         25   -1    0    0    0    0  0.00000000000E+00  0.00000000000E+00  0.99999998245E-14  0.12500000000E+03  0.12500000000E+03 0.  0.
        -13    1    3    3    0    0 -0.27740777076E+02 -0.17259932951E+02  0.16868510680E+02  0.36769740478E+02  0.10566000000E+00 0.  1.
         23    2    1    0    0    0  0.26442819243E+02  0.48012300394E+01  0.12280192308E+02  0.95452113062E+02  0.90763584468E+02 0.  0.
         13    1    3    3    0    0  0.54183596319E+02  0.22061162990E+02 -0.45883183723E+01  0.58682372583E+02  0.10566000000E+00 0. -1.
         22    1    1    0    0    0 -0.26442819243E+02 -0.48012300394E+01 -0.12280192308E+02  0.29547886938E+02  0.00000000000E+00 0. -1.
</event>
<event>
 5    1  0.1267644E-004  0.9118800E+02  0.7818608E-02  0.1130116E+00
         25   -1    0    0    0    0  0.00000000000E+00  0.00000000000E+00  0.99999998245E-14  0.12500000000E+03  0.12500000000E+03 0.  0.
        -13    1    3    3    0    0  0.13313964986E+02  0.47148290061E+02  0.36126649119E+02  0.60871741062E+02  0.10566000000E+00 0.  1.
         23    2    1    0    0    0  0.14855015464E+02  0.19191464449E+02  0.11570103260E+02  0.98114109991E+02  0.94358505169E+02 0.  0.
         13    1    3    3    0    0  0.15410504785E+01 -0.27956825612E+02 -0.24556545859E+02  0.37242368929E+02  0.10566000000E+00 0. -1.
         22    1    1    0    0    0 -0.14855015464E+02 -0.19191464449E+02 -0.11570103260E+02  0.26885890009E+02  0.00000000000E+00 0.  1.
</event>
<event>
 5    1  0.1267644E-004  0.9118800E+02  0.7818608E-02  0.1130116E+00
         25   -1    0    0    0    0  0.00000000000E+00  0.00000000000E+00  0.99999998245E-14  0.12500000000E+03  0.12500000000E+03 0.  0.
        -13    1    3    3    0    0 -0.34292845964E+02 -0.16102742809E+02 -0.48494132943E+02  0.61538522116E+02  0.10566000000E+00 0. -1.
         23    2    1    0    0    0 -0.91102562801E+01 -0.43871051397E+01 -0.25404172282E+02  0.97657442871E+02  0.93751590481E+02 0.  0.
         13    1    3    3    0    0  0.25182589684E+02  0.11715637669E+02  0.23089960661E+02  0.36118920755E+02  0.10566000000E+00 0.  1.
         22    1    1    0    0    0  0.91102562801E+01  0.43871051397E+01  0.25404172282E+02  0.27342557129E+02  0.00000000000E+00 0. -1.
</event>
<event>
 5    1  0.1267644E-004  0.9118800E+02  0.7818608E-02  0.1130116E+00
         25   -1    0    0    0    0  0.00000000000E+00  0.00000000000E+00  0.99999998245E-14  0.12500000000E+03  0.12500000000E+03 0.  0.
        -13    1    3    3    0    0  0.28075390710E+02  0.21632425948E+02  0.32734293274E+01  0.35593762368E+02  0.10566000000E+00 0.  1.
         23    2    1    0    0    0 -0.96067278858E+00 -0.26835208736E+02 -0.14055821307E+02  0.94691297740E+02  0.89709667455E+02 0.  0.
         13    1    3    3    0    0 -0.29036063499E+02 -0.48467634684E+02 -0.17329250634E+02  0.59097535371E+02  0.10566000000E+00 0. -1.
         22    1    1    0    0    0  0.96067278858E+00  0.26835208736E+02  0.14055821307E+02  0.30308702260E+02  0.00000000000E+00 0. -1.
</event>
<event>
 5    1  0.1267644E-004  0.9118800E+02  0.7818608E-02  0.1130116E+00
         25   -1    0    0    0    0  0.00000000000E+00  0.00000000000E+00  0.99999998245E-14  0.12500000000E+03  0.12500000000E+03 0.  0.
        -13    1    3    3    0    0  0.35266813716E+02  0.24084601381E+02 -0.34448783169E+02  0.54868442653E+02  0.10566000000E+00 0.  1.
         23    2    1    0    0    0  0.10747160290E+02 -0.79955425893E+01 -0.25454971716E+02  0.96235686334E+02  0.91836384857E+02 0.  0.
         13    1    3    3    0    0 -0.24519653426E+02 -0.32080143970E+02  0.89938114523E+01  0.41367243681E+02  0.10566000000E+00 0. -1.
         22    1    1    0    0    0 -0.10747160290E+02  0.79955425893E+01  0.25454971716E+02  0.28764313666E+02  0.00000000000E+00 0.  1.
</event>
<event>
 5    1  0.1267644E-004  0.9118800E+02  0.7818608E-02  0.1130116E+00
         25   -1    0    0    0    0  0.00000000000E+00  0.00000000000E+00  0.99999998245E-14  0.12500000000E+03  0.12500000000E+03 0.  0.
        -13    1    3    3    0    0 -0.17963455177E+02 -0.43178065850E+02 -0.13779741439E+02  0.48753702737E+02  0.10566000000E+00 0.  1.
         23    2    1    0    0    0 -0.27674413134E+02 -0.23066362669E+01  0.80365550260E+01  0.96090141303E+02  0.91638067012E+02 0.  0.
         13    1    3    3    0    0 -0.97109579577E+01  0.40871429583E+02  0.21816296465E+02  0.47336438566E+02  0.10566000000E+00 0. -1.
         22    1    1    0    0    0  0.27674413134E+02  0.23066362669E+01 -0.80365550260E+01  0.28909858697E+02  0.00000000000E+00 0.  1.
</event>
<event>
 5    1  0.1267644E-004  0.9118800E+02  0.7818608E-02  0.1130116E+00
         25   -1    0    0    0    0  0.00000000000E+00  0.00000000000E+00  0.99999998245E-14  0.12500000000E+03  0.12500000000E+03 0.  0.
        -13    1    3    3    0    0 -0.32942407739E+02  0.18349654001E+01  0.52550016617E+02  0.62049051050E+02  0.10566000000E+00 0.  1.
         23    2    1    0    0    0 -0.20794542984E+02  0.31341221474E+01  0.24079361275E+02  0.93030461702E+02  0.87364840900E+02 0.  0.
         13    1    3    3    0    0  0.12147864754E+02  0.12991567473E+01 -0.28470655342E+02  0.30981410652E+02  0.10566000000E+00 0. -1.
         22    1    1    0    0    0  0.20794542984E+02 -0.31341221474E+01 -0.24079361275E+02  0.31969538298E+02  0.00000000000E+00 0.  1.
</event>
<event>
 5    1  0.1267644E-004  0.9118800E+02  0.7818608E-02  0.1130116E+00
         25   -1    0    0    0    0  0.00000000000E+00  0.00000000000E+00  0.99999998245E-14  0.12500000000E+03  0.12500000000E+03 0.  0.
        -13    1    3    3    0    0  0.34053344340E+02 -0.41981989183E+02  0.26272795510E+02  0.60103149871E+02  0.10566000000E+00 0. -1.
         23    2    1    0    0    0  0.23927782205E+02 -0.18842199504E+02  0.25343290840E+02  0.85378671981E+02  0.75628486665E+02 0.  0.
         13    1    3    3    0    0 -0.10125562135E+02  0.23139789679E+02 -0.92950467029E+00  0.25275522110E+02  0.10566000000E+00 0.  1.
         22    1    1    0    0    0 -0.23927782205E+02  0.18842199504E+02 -0.25343290840E+02  0.39621328019E+02  0.00000000000E+00 0. -1.
</event>
<event>
 5    1  0.1267644E-004  0.9118800E+02  0.7818608E-02  0.1130116E+00
         25   -1    0    0    0    0  0.00000000000E+00  0.00000000000E+00  0.99999998245E-14  0.12500000000E+03  0.12500000000E+03 0.  0.
        -13    1    3    3    0    0  0.50502033045E+02  0.28253627586E+02 -0.91718642710E+01  0.58590588593E+02  0.10566000000E+00 0. -1.
         23    2    1    0    0    0  0.14117334299E+02  0.25242885314E+02 -0.70329040160E+00  0.96069099494E+02  0.91609360185E+02 0.  0.
         13    1    3    3    0    0 -0.36384698747E+02 -0.30107422718E+01  0.84685738694E+01  0.37478510901E+02  0.10566000000E+00 0.  1.
         22    1    1    0    0    0 -0.14117334299E+02 -0.25242885314E+02  0.70329040160E+00  0.28930900506E+02  0.00000000000E+00 0. -1.
</event>
<event>
 5    1  0.1267644E-004  0.9118800E+02  0.7818608E-02  0.1130116E+00
         25   -1    0    0    0    0  0.00000000000E+00  0.00000000000E+00  0.99999998245E-14  0.12500000000E+03  0.12500000000E+03 0.  0.
        -13    1    3    3    0    0 -0.89230546018E+01 -0.35163732133E+02 -0.76801676575E+01  0.37082409580E+02  0.10566000000E+00 0. -1.
         23    2    1    0    0    0  0.27188518171E+02  0.61540999203E+01  0.10974596806E+02  0.95041190925E+02  0.90195885334E+02 0.  0.
         13    1    3    3    0    0  0.36111572773E+02  0.41317832054E+02  0.18654764463E+02  0.57958781345E+02  0.10566000000E+00 0.  1.
         22    1    1    0    0    0 -0.27188518171E+02 -0.61540999203E+01 -0.10974596806E+02  0.29958809075E+02  0.00000000000E+00 0.  1.
</event>
<event>
 5    1  0.1267644E-004  0.9118800E+02  0.7818608E-02  0.1130116E+00
         25   -1    0    0    0    0  0.00000000000E+00  0.00000000000E+00  0.99999998245E-14  0.12500000000E+03  0.12500000000E+03 0.  0.
        -13    1    3    3    0    0  0.34016939092E+02  0.14662211941E+02  0.16820417991E+02  0.40682554364E+02  0.10566000000E+00 0.  1.
         23    2    1    0    0    0  0.10651247891E+02 -0.25979793612E+02 -0.10593485252E+02  0.94989656991E+02  0.90124437572E+02 0.  0.
         13    1    3    3    0    0 -0.23365691201E+02 -0.40642005553E+02 -0.27413903243E+02  0.54307102627E+02  0.10566000000E+00 0. -1.
         22    1    1    0    0    0 -0.10651247891E+02  0.25979793612E+02  0.10593485252E+02  0.30010343009E+02  0.00000000000E+00 0. -1.
</event>
<event>
 5    1  0.1267644E-004  0.9118800E+02  0.7818608E-02  0.1130116E+00
         25   -1    0    0    0    0  0.00000000000E+00  0.00000000000E+00  0.99999998245E-14  0.12500000000E+03  0.12500000000E+03 0.  0.
        -13    1    3    3    0    0  0.30926960432E+02 -0.13753311650E+02  0.30175860675E+01  0.33981575194E+02  0.10566000000E+00 0. -1.
         23    2    1    0    0    0 -0.19463959993E+02  0.20963770392E+02  0.77662670331E+01  0.95358132459E+02  0.90634061560E+02 0.  0.
         13    1    3    3    0    0 -0.50390920425E+02  0.34717082042E+02  0.47486809657E+01  0.61376557266E+02  0.10566000000E+00 0.  1.
         22    1    1    0    0    0  0.19463959993E+02 -0.20963770392E+02 -0.77662670331E+01  0.29641867541E+02  0.00000000000E+00 0.  1.
</event>
<event>
 5    1  0.1267644E-004  0.9118800E+02  0.7818608E-02  0.1130116E+00
         25   -1    0    0    0    0  0.00000000000E+00  0.00000000000E+00  0.99999998245E-14  0.12500000000E+03  0.12500000000E+03 0.  0.
        -13    1    3    3    0    0  0.41783589677E+02  0.63845010979E+01 -0.98574304008E+00  0.42280173533E+02  0.10566000000E+00 0.  1.
         23    2    1    0    0    0 -0.82748151319E+01  0.26946999869E+02 -0.42346692148E+01  0.96494811160E+02  0.92188409196E+02 0.  0.
         13    1    3    3    0    0 -0.50058404809E+02  0.20562498772E+02 -0.32489261747E+01  0.54214637628E+02  0.10566000000E+00 0. -1.
         22    1    1    0    0    0  0.82748151319E+01 -0.26946999869E+02  0.42346692148E+01  0.28505188840E+02  0.00000000000E+00 0. -1.
</event>
<event>
 5    1  0.1267644E-004  0.9118800E+02  0.7818608E-02  0.1130116E+00
         25   -1    0    0    0    0  0.00000000000E+00  0.00000000000E+00  0.99999998245E-14  0.12500000000E+03  0.12500000000E+03 0.  0.
        -13    1    3    3    0    0 -0.35554173932E+02 -0.19180282266E+02  0.29613992975E-02  0.40397941588E+02  0.10566000000E+00 0.  1.
         23    2    1    0    0    0 -0.42877704344E+01  0.20860895531E+02  0.20742748797E+02  0.95270829724E+02  0.90513575949E+02 0.  0.
         13    1    3    3    0    0  0.31266403497E+02  0.40041177797E+02  0.20739787398E+02  0.54872888136E+02  0.10566000000E+00 0. -1.
         22    1    1    0    0    0  0.42877704344E+01 -0.20860895531E+02 -0.20742748797E+02  0.29729170276E+02  0.00000000000E+00 0. -1.
</event>
<event>
 5    1  0.1267644E-004  0.9118800E+02  0.7818608E-02  0.1130116E+00
         25   -1    0    0    0    0  0.00000000000E+00  0.00000000000E+00  0.99999998245E-14  0.12500000000E+03  0.12500000000E+03 0.  0.
        -13    1    3    3    0    0 -0.51823742587E+02  0.24216018360E+02  0.14351206505E+02  0.58975284086E+02  0.10566000000E+00 0. -1.
         23    2    1    0    0    0 -0.18693882874E+02  0.23951904728E+02  0.12863379548E+01  0.94589316641E+02  0.89567455922E+02 0.  0.
         13    1    3    3    0    0  0.33129859712E+02 -0.26411363180E+00 -0.13064868550E+02  0.35614032555E+02  0.10566000000E+00 0.  1.
         22    1    1    0    0    0  0.18693882874E+02 -0.23951904728E+02 -0.12863379548E+01  0.30410683359E+02  0.00000000000E+00 0. -1.
</event>
<event>
 5    1  0.1267644E-004  0.9118800E+02  0.7818608E-02  0.1130116E+00
         25   -1    0    0    0    0  0.00000000000E+00  0.00000000000E+00  0.99999998245E-14  0.12500000000E+03  0.12500000000E+03 0.  0.
        -13    1    3    3    0    0 -0.17399089740E+02  0.29604490481E+02 -0.43280921392E+02  0.55248561076E+02  0.10566000000E+00 0. -1.
         23    2    1    0    0    0 -0.47365637498E+01  0.29610777209E+02 -0.62720337983E+01  0.94363884531E+02  0.89252289230E+02 0.  0.
         13    1    3    3    0    0  0.12662525990E+02  0.62867279250E-02  0.37008887594E+02  0.39115323455E+02  0.10566000000E+00 0.  1.
         22    1    1    0    0    0  0.47365637498E+01 -0.29610777209E+02  0.62720337983E+01  0.30636115469E+02  0.00000000000E+00 0. -1.
</event>
<event>
 5    1  0.1267644E-004  0.9118800E+02  0.7818608E-02  0.1130116E+00
         25   -1    0    0    0    0  0.00000000000E+00  0.00000000000E+00  0.99999998245E-14  0.12500000000E+03  0.12500000000E+03 0.  0.
        -13    1    3    3    0    0 -0.26486301855E+02  0.19194863851E+02  0.45719197364E+02  0.56215862137E+02  0.10566000000E+00 0. -1.
         23    2    1    0    0    0 -0.20476062634E+02  0.19312535970E+02  0.62146981431E+01  0.96175259592E+02  0.91754100170E+02 0.  0.
         13    1    3    3    0    0  0.60102392210E+01  0.11767211900E+00 -0.39504499221E+02  0.39959397454E+02  0.10566000000E+00 0.  1.
         22    1    1    0    0    0  0.20476062634E+02 -0.19312535970E+02 -0.62146981431E+01  0.28824740408E+02  0.00000000000E+00 0. -1.
</event>
<event>
 5    1  0.1267644E-004  0.9118800E+02  0.7818608E-02  0.1130116E+00
         25   -1    0    0    0    0  0.00000000000E+00  0.00000000000E+00  0.99999998245E-14  0.12500000000E+03  0.12500000000E+03 0.  0.
        -13    1    3    3    0    0  0.44274651836E+01 -0.16861491706E+02  0.53117439539E+02  0.55905150905E+02  0.10566000000E+00 0. -1.
         23    2    1    0    0    0  0.19078520905E+02  0.31702772665E+01  0.21996292526E+02  0.95710454037E+02  0.91118678157E+02 0.  0.
         13    1    3    3    0    0  0.14651055721E+02  0.20031768972E+02 -0.31121147013E+02  0.39805303131E+02  0.10566000000E+00 0.  1.
         22    1    1    0    0    0 -0.19078520905E+02 -0.31702772665E+01 -0.21996292526E+02  0.29289545963E+02  0.00000000000E+00 0. -1.
</event>
<event>
 5    1  0.1267644E-004  0.9118800E+02  0.7818608E-02  0.1130116E+00
         25   -1    0    0    0    0  0.00000000000E+00  0.00000000000E+00  0.99999998245E-14  0.12500000000E+03  0.12500000000E+03 0.  0.
        -13    1    3    3    0    0  0.18275533768E+02  0.16764722526E+02  0.22120110650E+02  0.33231935170E+02  0.10566000000E+00 0. -1.
         23    2    1    0    0    0 -0.10704456729E+02 -0.25087298447E+02 -0.12705169241E+02  0.94910479188E+02  0.90014553252E+02 0.  0.
         13    1    3    3    0    0 -0.28979990497E+02 -0.41852020973E+02 -0.34825279891E+02  0.61678544019E+02  0.10566000000E+00 0.  1.
         22    1    1    0    0    0  0.10704456729E+02  0.25087298447E+02  0.12705169241E+02  0.30089520812E+02  0.00000000000E+00 0.  1.
</event>
<event>
 5    1  0.1267644E-004  0.9118800E+02  0.7818608E-02  0.1130116E+00
         25   -1    0    0    0    0  0.00000000000E+00  0.00000000000E+00  0.99999998245E-14  0.12500000000E+03  0.12500000000E+03 0.  0.
        -13    1    3    3    0    0 -0.10620597989E+02  0.49259783296E+02  0.28202915202E+02  0.57747198564E+02  0.10566000000E+00 0. -1.
         23    2    1    0    0    0 -0.20563969100E+02  0.28094955311E+02  0.66401724609E+01  0.89555744762E+02  0.82243152849E+02 0.  0.
         13    1    3    3    0    0 -0.99433711108E+01 -0.21164827986E+02 -0.21562742741E+02  0.31808546198E+02  0.10566000000E+00 0.  1.
         22    1    1    0    0    0  0.20563969100E+02 -0.28094955311E+02 -0.66401724609E+01  0.35444255238E+02  0.00000000000E+00 0. -1.
</event>
<event>
 5    1  0.1267644E-004  0.9118800E+02  0.7818608E-02  0.1130116E+00
         25   -1    0    0    0    0  0.00000000000E+00  0.00000000000E+00  0.99999998245E-14  0.12500000000E+03  0.12500000000E+03 0.  0.
        -13    1    3    3    0    0 -0.22361618746E+02  0.28008456242E+02 -0.10418857271E+02  0.37323978417E+02  0.10566000000E+00 0. -1.
         23    2    1    0    0    0  0.25713761966E+02 -0.42930712250E+01 -0.14102656232E+02  0.95360281246E+02  0.90637025059E+02 0.  0.
         13    1    3    3    0    0  0.48075380712E+02 -0.32301527467E+02 -0.36837989612E+01  0.58036302829E+02  0.10566000000E+00 0.  1.
         22    1    1    0    0    0 -0.25713761966E+02  0.42930712250E+01  0.14102656232E+02  0.29639718754E+02  0.00000000000E+00 0.  1.
</event>
<event>
 5    1  0.1267644E-004  0.9118800E+02  0.7818608E-02  0.1130116E+00
         25   -1    0    0    0    0  0.00000000000E+00  0.00000000000E+00  0.99999998245E-14  0.12500000000E+03  0.12500000000E+03 0.  0.
        -13    1    3    3    0    0  0.43130500182E+01  0.99133636187E+01  0.33757446293E+02  0.35446488161E+02  0.10566000000E+00 0. -1.
         23    2    1    0    0    0  0.45570679042E+01 -0.26688338625E+01 -0.26997311728E+02  0.97491012694E+02  0.93529424105E+02 0.  0.
         13    1    3    3    0    0  0.24401788607E+00 -0.12582197481E+02 -0.60754758021E+02  0.62044524532E+02  0.10566000000E+00 0.  1.
         22    1    1    0    0    0 -0.45570679042E+01  0.26688338625E+01  0.26997311728E+02  0.27508987306E+02  0.00000000000E+00 0.  1.
</event>
<event>
 5    1  0.1267644E-004  0.9118800E+02  0.7818608E-02  0.1130116E+00
         25   -1    0    0    0    0  0.00000000000E+00  0.00000000000E+00  0.99999998245E-14  0.12500000000E+03  0.12500000000E+03 0.  0.
        -13    1    3    3    0    0  0.23929207775E+02 -0.32234582030E+02 -0.99217197526E+01  0.41353681218E+02  0.10566000000E+00 0.  1.
         23    2    1    0    0    0 -0.25792603125E+01 -0.65148892861E+01  0.29090977705E+02  0.95077076513E+02  0.90245604482E+02 0.  0.
         13    1    3    3    0    0 -0.26508468087E+02  0.25719692744E+02  0.39012697457E+02  0.53723395296E+02  0.10566000000E+00 0. -1.
         22    1    1    0    0    0  0.25792603125E+01  0.65148892861E+01 -0.29090977705E+02  0.29922923487E+02  0.00000000000E+00 0. -1.
</event>
<event>
 5    1  0.1267644E-004  0.9118800E+02  0.7818608E-02  0.1130116E+00
         25   -1    0    0    0    0  0.00000000000E+00  0.00000000000E+00  0.99999998245E-14  0.12500000000E+03  0.12500000000E+03 0.  0.
        -13    1    3    3    0    0 -0.14316415859E+02 -0.36438704076E+02 -0.29067955188E+02  0.48761625287E+02  0.10566000000E+00 0.  1.
         23    2    1    0    0    0 -0.25380124586E+02  0.60595121951E+01 -0.15140389185E+02  0.94832139673E+02  0.89905700143E+02 0.  0.
         13    1    3    3    0    0 -0.11063708727E+02  0.42498216271E+02  0.13927566003E+02  0.46070514386E+02  0.10566000000E+00 0. -1.
         22    1    1    0    0    0  0.25380124586E+02 -0.60595121951E+01  0.15140389185E+02  0.30167860327E+02  0.00000000000E+00 0. -1.
</event>
<event>
 5    1  0.1267644E-004  0.9118800E+02  0.7818608E-02  0.1130116E+00
         25   -1    0    0    0    0  0.00000000000E+00  0.00000000000E+00  0.99999998245E-14  0.12500000000E+03  0.12500000000E+03 0.  0.
        -13    1    3    3    0    0  0.47815789721E+02 -0.34605395631E+02  0.60312422625E+01  0.59331864969E+02  0.10566000000E+00 0.  1.
         23    2    1    0    0    0  0.26839177397E+02 -0.57845989015E+01  0.11194027688E+02  0.95350222873E+02  0.90623152220E+02 0.  0.
         13    1    3    3    0    0 -0.20976612324E+02  0.28820796730E+02  0.51627854258E+01  0.36018357904E+02  0.10566000000E+00 0. -1.
         22    1    1    0    0    0 -0.26839177397E+02  0.57845989015E+01 -0.11194027688E+02  0.29649777127E+02  0.00000000000E+00 0.  1.
</event>
<event>
 5    1  0.1267644E-004  0.9118800E+02  0.7818608E-02  0.1130116E+00
         25   -1    0    0    0    0  0.00000000000E+00  0.00000000000E+00  0.99999998245E-14  0.12500000000E+03  0.12500000000E+03 0.  0.
        -13    1    3    3    0    0 -0.51018663973E+02 -0.13648949935E+02 -0.26156364301E+02  0.58935256557E+02  0.10566000000E+00 0.  1.
         23    2    1    0    0    0 -0.30361165467E+02 -0.15427681477E+02 -0.18358605052E+01  0.90894514986E+02  0.84253360446E+02 0.  0.
         13    1    3    3    0    0  0.20657498506E+02 -0.17787315411E+01  0.24320503796E+02  0.31959258429E+02  0.10566000000E+00 0. -1.
         22    1    1    0    0    0  0.30361165467E+02  0.15427681477E+02  0.18358605052E+01  0.34105485014E+02  0.00000000000E+00 0.  1.
</event>
<event>
 5    1  0.1267644E-004  0.9118800E+02  0.7818608E-02  0.1130116E+00
         25   -1    0    0    0    0  0.00000000000E+00  0.00000000000E+00  0.99999998245E-14  0.12500000000E+03  0.12500000000E+03 0.  0.
        -13    1    3    3    0    0  0.34256678198E+02 -0.25780285349E+02  0.86657257866E+01  0.43740702798E+02  0.10566000000E+00 0. -1.
         23    2    1    0    0    0  0.20051332131E+02  0.22390897217E+02 -0.11853187079E+01  0.94919887320E+02  0.90027617041E+02 0.  0.
         13    1    3    3    0    0 -0.14205346067E+02  0.48171182566E+02 -0.98510444945E+01  0.51179184522E+02  0.10566000000E+00 0.  1.
         22    1    1    0    0    0 -0.20051332131E+02 -0.22390897217E+02  0.11853187079E+01  0.30080112680E+02  0.00000000000E+00 0.  1.
</event>
<event>
 5    1  0.1267644E-004  0.9118800E+02  0.7818608E-02  0.1130116E+00
         25   -1    0    0    0    0  0.00000000000E+00  0.00000000000E+00  0.99999998245E-14  0.12500000000E+03  0.12500000000E+03 0.  0.
        -13    1    3    3    0    0 -0.51774992035E+02  0.37108835453E+01  0.31671882174E+02  0.60807398739E+02  0.10566000000E+00 0.  1.
         23    2    1    0    0    0 -0.27033413530E+02 -0.76102387467E+01  0.11620139824E+02  0.94606763410E+02  0.89591801257E+02 0.  0.
         13    1    3    3    0    0  0.24741578505E+02 -0.11321122292E+02 -0.20051742350E+02  0.33799364671E+02  0.10566000000E+00 0. -1.
         22    1    1    0    0    0  0.27033413530E+02  0.76102387467E+01 -0.11620139824E+02  0.30393236590E+02  0.00000000000E+00 0.  1.
</event>
<event>
 5    1  0.1267644E-004  0.9118800E+02  0.7818608E-02  0.1130116E+00
         25   -1    0    0    0    0  0.00000000000E+00  0.00000000000E+00  0.99999998245E-14  0.12500000000E+03  0.12500000000E+03 0.  0.
        -13    1    3    3    0    0  0.10689552549E+01  0.60569602468E+02 -0.14036497795E+02  0.62184032057E+02  0.10566000000E+00 0.  1.
         23    2    1    0    0    0  0.48252916372E+01  0.26980881664E+02 -0.70921536357E+01  0.96688340601E+02  0.92450446998E+02 0.  0.
         13    1    3    3    0    0  0.37563363823E+01 -0.33588720804E+02  0.69443441590E+01  0.34504308544E+02  0.10566000000E+00 0. -1.
         22    1    1    0    0    0 -0.48252916372E+01 -0.26980881664E+02  0.70921536357E+01  0.28311659399E+02  0.00000000000E+00 0.  1.
</event>
<event>
 5    1  0.1267644E-004  0.9118800E+02  0.7818608E-02  0.1130116E+00
         25   -1    0    0    0    0  0.00000000000E+00  0.00000000000E+00  0.99999998245E-14  0.12500000000E+03  0.12500000000E+03 0.  0.
        -13    1    3    3    0    0 -0.31542345183E+02 -0.11918240687E+02  0.11386287075E+02  0.35589643130E+02  0.10566000000E+00 0. -1.
         23    2    1    0    0    0 -0.33827032097E+02  0.27960248261E+02 -0.86371541224E+01  0.80271440727E+02  0.66654783637E+02 0.  0.
         13    1    3    3    0    0 -0.22846869145E+01  0.39878488948E+02 -0.20023441198E+02  0.44681797597E+02  0.10566000000E+00 0.  1.
         22    1    1    0    0    0  0.33827032097E+02 -0.27960248261E+02  0.86371541224E+01  0.44728559273E+02  0.00000000000E+00 0.  1.
</event>
<event>
 5    1  0.1267644E-004  0.9118800E+02  0.7818608E-02  0.1130116E+00
         25   -1    0    0    0    0  0.00000000000E+00  0.00000000000E+00  0.99999998245E-14  0.12500000000E+03  0.12500000000E+03 0.  0.
        -13    1    3    3    0    0 -0.23548115864E+02  0.64161744559E+01  0.36155886906E+02  0.43622704838E+02  0.10566000000E+00 0.  1.
         23    2    1    0    0    0 -0.26854264626E+02 -0.25448930657E+01 -0.13950546906E+02  0.94631500395E+02  0.89626308072E+02 0.  0.
         13    1    3    3    0    0 -0.33061487615E+01 -0.89610675217E+01 -0.50106433812E+02  0.51008795557E+02  0.10566000000E+00 0. -1.
         22    1    1    0    0    0  0.26854264626E+02  0.25448930657E+01  0.13950546906E+02  0.30368499605E+02  0.00000000000E+00 0. -1.
</event>
<event>
 5    1  0.1267644E-004  0.9118800E+02  0.7818608E-02  0.1130116E+00
         25   -1    0    0    0    0  0.00000000000E+00  0.00000000000E+00  0.99999998245E-14  0.12500000000E+03  0.12500000000E+03 0.  0.
        -13    1    3    3    0    0 -0.24558968734E+02  0.14590489665E+02 -0.10083938701E+02  0.30293932028E+02  0.10566000000E+00 0.  1.
         23    2    1    0    0    0  0.11362284751E+02 -0.14346640488E+02  0.28970189088E+02  0.90733406007E+02  0.84013995868E+02 0.  0.
         13    1    3    3    0    0  0.35921253485E+02 -0.28937130153E+02  0.39054127790E+02  0.60439473979E+02  0.10566000000E+00 0. -1.
         22    1    1    0    0    0 -0.11362284751E+02  0.14346640488E+02 -0.28970189088E+02  0.34266593993E+02  0.00000000000E+00 0. -1.
</event>
<event>
 5    1  0.1267644E-004  0.9118800E+02  0.7818608E-02  0.1130116E+00
         25   -1    0    0    0    0  0.00000000000E+00  0.00000000000E+00  0.99999998245E-14  0.12500000000E+03  0.12500000000E+03 0.  0.
        -13    1    3    3    0    0  0.20384219338E+02 -0.17575175002E+02 -0.34555433100E+02  0.43800596972E+02  0.10566000000E+00 0.  1.
         23    2    1    0    0    0  0.34839129102E+01 -0.17672392317E+02  0.18318004330E+02  0.99309527408E+02  0.95929045925E+02 0.  0.
         13    1    3    3    0    0 -0.16900306428E+02 -0.97217314803E-01  0.52873437429E+02  0.55508930436E+02  0.10566000000E+00 0. -1.
         22    1    1    0    0    0 -0.34839129102E+01  0.17672392317E+02 -0.18318004330E+02  0.25690472592E+02  0.00000000000E+00 0.  1.
</event>
<event>
 5    1  0.1267644E-004  0.9118800E+02  0.7818608E-02  0.1130116E+00
         25   -1    0    0    0    0  0.00000000000E+00  0.00000000000E+00  0.99999998245E-14  0.12500000000E+03  0.12500000000E+03 0.  0.
        -13    1    3    3    0    0 -0.81967497129E+01  0.54159271703E+02 -0.23341337700E+02  0.59541940067E+02  0.10566000000E+00 0.  1.
         23    2    1    0    0    0 -0.15816792156E+00  0.19152688287E+02 -0.22475728868E+02  0.95470203626E+02  0.90788495452E+02 0.  0.
         13    1    3    3    0    0  0.80385817913E+01 -0.35006583416E+02  0.86560883122E+00  0.35928263559E+02  0.10566000000E+00 0. -1.
         22    1    1    0    0    0  0.15816792156E+00 -0.19152688287E+02  0.22475728868E+02  0.29529796374E+02  0.00000000000E+00 0.  1.
</event>
<event>
 5    1  0.1267644E-004  0.9118800E+02  0.7818608E-02  0.1130116E+00
         25   -1    0    0    0    0  0.00000000000E+00  0.00000000000E+00  0.99999998245E-14  0.12500000000E+03  0.12500000000E+03 0.  0.
        -13    1    3    3    0    0 -0.14409524461E+02  0.13584049578E+02 -0.57231924719E+02  0.60561251384E+02  0.10566000000E+00 0.  1.
         23    2    1    0    0    0  0.13546827861E+01 -0.12731437401E+01 -0.27966771522E+02  0.96971507893E+02  0.92832521097E+02 0.  0.
         13    1    3    3    0    0  0.15764207247E+02 -0.14857193318E+02  0.29265153196E+02  0.36410256509E+02  0.10566000000E+00 0. -1.
         22    1    1    0    0    0 -0.13546827861E+01  0.12731437401E+01  0.27966771522E+02  0.28028492107E+02  0.00000000000E+00 0.  1.
</event>
<event>
 5    1  0.1267644E-004  0.9118800E+02  0.7818608E-02  0.1130116E+00
         25   -1    0    0    0    0  0.00000000000E+00  0.00000000000E+00  0.99999998245E-14  0.12500000000E+03  0.12500000000E+03 0.  0.
        -13    1    3    3    0    0  0.32285967749E+01  0.33043584420E+02 -0.49955157935E+01  0.33574821675E+02  0.10566000000E+00 0.  1.
         23    2    1    0    0    0 -0.33291910977E+01 -0.28852234732E+02 -0.19101945019E+01  0.95893577935E+02  0.91369548996E+02 0.  0.
         13    1    3    3    0    0 -0.65577878726E+01 -0.61895819152E+02  0.30853212916E+01  0.62318756260E+02  0.10566000000E+00 0. -1.
         22    1    1    0    0    0  0.33291910977E+01  0.28852234732E+02  0.19101945019E+01  0.29106422065E+02  0.00000000000E+00 0. -1.
</event>
<event>
 5    1  0.1267644E-004  0.9118800E+02  0.7818608E-02  0.1130116E+00
         25   -1    0    0    0    0  0.00000000000E+00  0.00000000000E+00  0.99999998245E-14  0.12500000000E+03  0.12500000000E+03 0.  0.
        -13    1    3    3    0    0 -0.69415931291E+01 -0.13759991681E+02  0.16184260759E+02  0.22348703466E+02  0.10566000000E+00 0. -1.
         23    2    1    0    0    0 -0.18025006338E+02 -0.21073737588E+02 -0.37899321278E+02  0.78038719963E+02  0.62327201050E+02 0.  0.
         13    1    3    3    0    0 -0.11083413209E+02 -0.73137459063E+01 -0.54083582037E+02  0.55690016497E+02  0.10566000000E+00 0.  1.
         22    1    1    0    0    0  0.18025006338E+02  0.21073737588E+02  0.37899321278E+02  0.46961280037E+02  0.00000000000E+00 0.  1.
</event>
<event>
 5    1  0.1267644E-004  0.9118800E+02  0.7818608E-02  0.1130116E+00
         25   -1    0    0    0    0  0.00000000000E+00  0.00000000000E+00  0.99999998245E-14  0.12500000000E+03  0.12500000000E+03 0.  0.
        -13    1    3    3    0    0  0.34839673181E+02 -0.99205896158E+00  0.78163657595E+01  0.35719654898E+02  0.10566000000E+00 0.  1.
         23    2    1    0    0    0 -0.26272120824E+02 -0.51641371359E+01  0.82752402662E+01  0.96975506313E+02  0.92837904858E+02 0.  0.
         13    1    3    3    0    0 -0.61111794004E+02 -0.41720781743E+01  0.45887450672E+00  0.61255851415E+02  0.10566000000E+00 0. -1.
         22    1    1    0    0    0  0.26272120824E+02  0.51641371359E+01 -0.82752402662E+01  0.28024493687E+02  0.00000000000E+00 0. -1.
</event>
<event>
 5    1  0.1267644E-004  0.9118800E+02  0.7818608E-02  0.1130116E+00
         25   -1    0    0    0    0  0.00000000000E+00  0.00000000000E+00  0.99999998245E-14  0.12500000000E+03  0.12500000000E+03 0.  0.
        -13    1    3    3    0    0 -0.21262338821E+02  0.48964067317E+02 -0.40989212489E+01  0.53538577305E+02  0.10566000000E+00 0.  1.
         23    2    1    0    0    0 -0.70786906454E+01  0.14454929748E+02 -0.24213124003E+02  0.95925471126E+02  0.91413170722E+02 0.  0.
         13    1    3    3    0    0  0.14183648175E+02 -0.34509137569E+02 -0.20114202754E+02  0.42386893821E+02  0.10566000000E+00 0. -1.
         22    1    1    0    0    0  0.70786906454E+01 -0.14454929748E+02  0.24213124003E+02  0.29074528874E+02  0.00000000000E+00 0.  1.
</event>
<event>
 5    1  0.1267644E-004  0.9118800E+02  0.7818608E-02  0.1130116E+00
         25   -1    0    0    0    0  0.00000000000E+00  0.00000000000E+00  0.99999998245E-14  0.12500000000E+03  0.12500000000E+03 0.  0.
        -13    1    3    3    0    0  0.15024222250E+02 -0.31354390908E+02  0.45137263234E+02  0.56975510351E+02  0.10566000000E+00 0. -1.
         23    2    1    0    0    0  0.97822811993E+00 -0.32037833029E+02  0.16341277022E+02  0.89021992688E+02  0.81427870978E+02 0.  0.
         13    1    3    3    0    0 -0.14045994130E+02 -0.68344212075E+00 -0.28795986212E+02  0.32046482337E+02  0.10566000000E+00 0.  1.
         22    1    1    0    0    0 -0.97822811993E+00  0.32037833029E+02 -0.16341277022E+02  0.35978007312E+02  0.00000000000E+00 0. -1.
</event>
<event>
 5    1  0.1267644E-004  0.9118800E+02  0.7818608E-02  0.1130116E+00
         25   -1    0    0    0    0  0.00000000000E+00  0.00000000000E+00  0.99999998245E-14  0.12500000000E+03  0.12500000000E+03 0.  0.
        -13    1    3    3    0    0  0.59480136652E+02  0.12959854729E+02 -0.83808875196E+01  0.61449938409E+02  0.10566000000E+00 0.  1.
         23    2    1    0    0    0  0.21068951981E+02  0.10597611676E+02 -0.84908499118E+01  0.99933994275E+02  0.96739333101E+02 0.  0.
         13    1    3    3    0    0 -0.38411184672E+02 -0.23622430537E+01 -0.10996239221E+00  0.38484055866E+02  0.10566000000E+00 0. -1.
         22    1    1    0    0    0 -0.21068951981E+02 -0.10597611676E+02  0.84908499118E+01  0.25066005725E+02  0.00000000000E+00 0.  1.
</event>
<event>
 5    1  0.1267644E-004  0.9118800E+02  0.7818608E-02  0.1130116E+00
         25   -1    0    0    0    0  0.00000000000E+00  0.00000000000E+00  0.99999998245E-14  0.12500000000E+03  0.12500000000E+03 0.  0.
        -13    1    3    3    0    0  0.33498423643E+02 -0.38229026264E+02  0.22221352130E+02  0.55474340827E+02  0.10566000000E+00 0. -1.
         23    2    1    0    0    0  0.19775553109E+02  0.30626067398E+01  0.15894793311E+02  0.99444246925E+02  0.96104431382E+02 0.  0.
         13    1    3    3    0    0 -0.13722870534E+02  0.41291633003E+02 -0.63265588189E+01  0.43969906098E+02  0.10566000000E+00 0.  1.
         22    1    1    0    0    0 -0.19775553109E+02 -0.30626067398E+01 -0.15894793311E+02  0.25555753075E+02  0.00000000000E+00 0. -1.
</event>
<event>
 5    1  0.1267644E-004  0.9118800E+02  0.7818608E-02  0.1130116E+00
         25   -1    0    0    0    0  0.00000000000E+00  0.00000000000E+00  0.99999998245E-14  0.12500000000E+03  0.12500000000E+03 0.  0.
        -13    1    3    3    0    0  0.43744311166E+02 -0.17566779229E+02  0.10103329615E+02  0.48210423409E+02  0.10566000000E+00 0.  1.
         23    2    1    0    0    0  0.48483327092E+01 -0.19676711654E+02  0.27473376726E+02  0.90861081735E+02  0.84203743585E+02 0.  0.
         13    1    3    3    0    0 -0.38895978457E+02 -0.21099324252E+01  0.17370047111E+02  0.42650658326E+02  0.10566000000E+00 0. -1.
         22    1    1    0    0    0 -0.48483327092E+01  0.19676711654E+02 -0.27473376726E+02  0.34138918265E+02  0.00000000000E+00 0.  1.
</event>
<event>
 5    1  0.1267644E-004  0.9118800E+02  0.7818608E-02  0.1130116E+00
         25   -1    0    0    0    0  0.00000000000E+00  0.00000000000E+00  0.99999998245E-14  0.12500000000E+03  0.12500000000E+03 0.  0.
        -13    1    3    3    0    0 -0.44606354618E+02  0.20961479897E+01 -0.21262343889E+02  0.49459267488E+02  0.10566000000E+00 0.  1.
         23    2    1    0    0    0 -0.17844903127E+02  0.23505421650E+02  0.78889947428E+01  0.94451977927E+02  0.89375581015E+02 0.  0.
         13    1    3    3    0    0  0.26761451491E+02  0.21409273660E+02  0.29151338632E+02  0.44992710439E+02  0.10566000000E+00 0. -1.
         22    1    1    0    0    0  0.17844903127E+02 -0.23505421650E+02 -0.78889947428E+01  0.30548022073E+02  0.00000000000E+00 0.  1.
</event>
<event>
 5    1  0.1267644E-004  0.9118800E+02  0.7818608E-02  0.1130116E+00
         25   -1    0    0    0    0  0.00000000000E+00  0.00000000000E+00  0.99999998245E-14  0.12500000000E+03  0.12500000000E+03 0.  0.
        -13    1    3    3    0    0  0.31058078143E+02  0.15618195265E+02 -0.36114545545E+01  0.34951194676E+02  0.10566000000E+00 0. -1.
         23    2    1    0    0    0 -0.27082447384E+02  0.60625134246E+01 -0.12542132495E+02  0.94544817964E+02  0.89505332193E+02 0.  0.
         13    1    3    3    0    0 -0.58140525527E+02 -0.95556818406E+01 -0.89306779401E+01  0.59593623287E+02  0.10566000000E+00 0.  1.
         22    1    1    0    0    0  0.27082447384E+02 -0.60625134246E+01  0.12542132495E+02  0.30455182036E+02  0.00000000000E+00 0.  1.
</event>
<event>
 5    1  0.1267644E-004  0.9118800E+02  0.7818608E-02  0.1130116E+00
         25   -1    0    0    0    0  0.00000000000E+00  0.00000000000E+00  0.99999998245E-14  0.12500000000E+03  0.12500000000E+03 0.  0.
        -13    1    3    3    0    0 -0.16954527791E+02  0.48459556187E+02 -0.88165892637E+01  0.52091534904E+02  0.10566000000E+00 0. -1.
         23    2    1    0    0    0  0.18154769320E+02  0.21049092095E+02 -0.44831156453E+01  0.96844036991E+02  0.92660721170E+02 0.  0.
         13    1    3    3    0    0  0.35109297111E+02 -0.27410464092E+02  0.43334736184E+01  0.44752502086E+02  0.10566000000E+00 0.  1.
         22    1    1    0    0    0 -0.18154769320E+02 -0.21049092095E+02  0.44831156453E+01  0.28155963009E+02  0.00000000000E+00 0. -1.
</event>
<event>
 5    1  0.1267644E-004  0.9118800E+02  0.7818608E-02  0.1130116E+00
         25   -1    0    0    0    0  0.00000000000E+00  0.00000000000E+00  0.99999998245E-14  0.12500000000E+03  0.12500000000E+03 0.  0.
        -13    1    3    3    0    0  0.26501949345E+02  0.48239346671E+02  0.21538369716E+02  0.59104148927E+02  0.10566000000E+00 0.  1.
         23    2    1    0    0    0  0.70408668075E+01  0.33661792635E+02  0.15602731779E+01  0.90574362153E+02  0.83777028703E+02 0.  0.
         13    1    3    3    0    0 -0.19461082537E+02 -0.14577554036E+02 -0.19978096538E+02  0.31470213227E+02  0.10566000000E+00 0. -1.
         22    1    1    0    0    0 -0.70408668075E+01 -0.33661792635E+02 -0.15602731779E+01  0.34425637847E+02  0.00000000000E+00 0.  1.
</event>
<event>
 5    1  0.1267644E-004  0.9118800E+02  0.7818608E-02  0.1130116E+00
         25   -1    0    0    0    0  0.00000000000E+00  0.00000000000E+00  0.99999998245E-14  0.12500000000E+03  0.12500000000E+03 0.  0.
        -13    1    3    3    0    0  0.76137057783E+01 -0.49136947625E+02  0.18333223960E+02  0.52995531910E+02  0.10566000000E+00 0.  1.
         23    2    1    0    0    0 -0.84634369854E+01 -0.29448577241E+02 -0.11574706355E+02  0.92246033914E+02  0.86235192808E+02 0.  0.
         13    1    3    3    0    0 -0.16077142764E+02  0.19688370384E+02 -0.29907930315E+02  0.39250502004E+02  0.10566000000E+00 0. -1.
         22    1    1    0    0    0  0.84634369854E+01  0.29448577241E+02  0.11574706355E+02  0.32753966086E+02  0.00000000000E+00 0.  1.
</event>
<event>
 5    1  0.1267644E-004  0.9118800E+02  0.7818608E-02  0.1130116E+00
         25   -1    0    0    0    0  0.00000000000E+00  0.00000000000E+00  0.99999998245E-14  0.12500000000E+03  0.12500000000E+03 0.  0.
        -13    1    3    3    0    0  0.44312219397E+02  0.34768256695E+02  0.18508801079E+02  0.59287362422E+02  0.10566000000E+00 0.  1.
         23    2    1    0    0    0  0.27026272937E+02  0.52991668830E+01  0.15867668779E+01  0.97413437553E+02  0.93425689123E+02 0.  0.
         13    1    3    3    0    0 -0.17285946460E+02 -0.29469089812E+02 -0.16922034202E+02  0.38126075131E+02  0.10566000000E+00 0. -1.
         22    1    1    0    0    0 -0.27026272937E+02 -0.52991668830E+01 -0.15867668779E+01  0.27586562447E+02  0.00000000000E+00 0.  1.
</event>
<event>
 5    1  0.1267644E-004  0.9118800E+02  0.7818608E-02  0.1130116E+00
         25   -1    0    0    0    0  0.00000000000E+00  0.00000000000E+00  0.99999998245E-14  0.12500000000E+03  0.12500000000E+03 0.  0.
        -13    1    3    3    0    0 -0.44769835251E+02  0.10281407996E+02 -0.40573086791E+02  0.61288106796E+02  0.10566000000E+00 0.  1.
         23    2    1    0    0    0 -0.19851314145E+02 -0.40732206022E+01 -0.18788589445E+02  0.97365295502E+02  0.93361254680E+02 0.  0.
         13    1    3    3    0    0  0.24918521106E+02 -0.14354628598E+02  0.21784497346E+02  0.36077188706E+02  0.10566000000E+00 0. -1.
         22    1    1    0    0    0  0.19851314145E+02  0.40732206022E+01  0.18788589445E+02  0.27634704498E+02  0.00000000000E+00 0.  1.
</event>
<event>
 5    1  0.1267644E-004  0.9118800E+02  0.7818608E-02  0.1130116E+00
         25   -1    0    0    0    0  0.00000000000E+00  0.00000000000E+00  0.99999998245E-14  0.12500000000E+03  0.12500000000E+03 0.  0.
        -13    1    3    3    0    0 -0.31581239732E+02 -0.32311394890E+01 -0.21473172463E+02  0.38326534738E+02  0.10566000000E+00 0. -1.
         23    2    1    0    0    0  0.13947271321E+02  0.19243053531E+02  0.11223565382E+02  0.98717117616E+02  0.95153977342E+02 0.  0.
         13    1    3    3    0    0  0.45528511053E+02  0.22474193020E+02  0.32696737845E+02  0.60390582878E+02  0.10566000000E+00 0.  1.
         22    1    1    0    0    0 -0.13947271321E+02 -0.19243053531E+02 -0.11223565382E+02  0.26282882384E+02  0.00000000000E+00 0.  1.
</event>
<event>
 5    1  0.1267644E-004  0.9118800E+02  0.7818608E-02  0.1130116E+00
         25   -1    0    0    0    0  0.00000000000E+00  0.00000000000E+00  0.99999998245E-14  0.12500000000E+03  0.12500000000E+03 0.  0.
        -13    1    3    3    0    0  0.53046133878E+02  0.29722242176E+01  0.11211732764E+02  0.54299544674E+02  0.10566000000E+00 0.  1.
         23    2    1    0    0    0  0.22525930864E+02  0.13494170021E+02 -0.13982983232E+02  0.95250478896E+02  0.90485466922E+02 0.  0.
         13    1    3    3    0    0 -0.30520203014E+02  0.10521945803E+02 -0.25194715996E+02  0.40950934222E+02  0.10566000000E+00 0. -1.
         22    1    1    0    0    0 -0.22525930864E+02 -0.13494170021E+02  0.13982983232E+02  0.29749521104E+02  0.00000000000E+00 0. -1.
</event>
<event>
 5    1  0.1267644E-004  0.9118800E+02  0.7818608E-02  0.1130116E+00
         25   -1    0    0    0    0  0.00000000000E+00  0.00000000000E+00  0.99999998245E-14  0.12500000000E+03  0.12500000000E+03 0.  0.
        -13    1    3    3    0    0 -0.45441903536E+02  0.39849360257E+02 -0.15173253826E+01  0.60458676384E+02  0.10566000000E+00 0. -1.
         23    2    1    0    0    0 -0.12981789410E+02  0.24873914763E+02  0.40957277251E+01  0.96644868586E+02  0.92391650848E+02 0.  0.
         13    1    3    3    0    0  0.32460114126E+02 -0.14975445493E+02  0.56130531077E+01  0.36186192201E+02  0.10566000000E+00 0.  1.
         22    1    1    0    0    0  0.12981789410E+02 -0.24873914763E+02 -0.40957277251E+01  0.28355131414E+02  0.00000000000E+00 0. -1.
</event>
<event>
 5    1  0.1267644E-004  0.9118800E+02  0.7818608E-02  0.1130116E+00
         25   -1    0    0    0    0  0.00000000000E+00  0.00000000000E+00  0.99999998245E-14  0.12500000000E+03  0.12500000000E+03 0.  0.
        -13    1    3    3    0    0  0.18893829461E+02  0.40280937711E+01  0.39164080965E+02  0.43669654601E+02  0.10566000000E+00 0.  1.
         23    2    1    0    0    0  0.15531255194E+01 -0.27745449057E+02 -0.28540345566E+00  0.97209649204E+02  0.93152629061E+02 0.  0.
         13    1    3    3    0    0 -0.17340703942E+02 -0.31773542828E+02 -0.39449484420E+02  0.53539994603E+02  0.10566000000E+00 0. -1.
         22    1    1    0    0    0 -0.15531255194E+01  0.27745449057E+02  0.28540345566E+00  0.27790350796E+02  0.00000000000E+00 0. -1.
</event>
<event>
 5    1  0.1267644E-004  0.9118800E+02  0.7818608E-02  0.1130116E+00
         25   -1    0    0    0    0  0.00000000000E+00  0.00000000000E+00  0.99999998245E-14  0.12500000000E+03  0.12500000000E+03 0.  0.
        -13    1    3    3    0    0 -0.18710658614E+02 -0.21538040987E+02  0.95618996822E+01  0.30090148635E+02  0.10566000000E+00 0. -1.
         23    2    1    0    0    0  0.19637891986E+02  0.26309506467E+02 -0.12394541387E+00  0.92169339108E+02  0.86123950077E+02 0.  0.
         13    1    3    3    0    0  0.38348550600E+02  0.47847547454E+02 -0.96858450961E+01  0.62079190472E+02  0.10566000000E+00 0.  1.
         22    1    1    0    0    0 -0.19637891986E+02 -0.26309506467E+02  0.12394541387E+00  0.32830660892E+02  0.00000000000E+00 0.  1.
</event>
<event>
 5    1  0.1267644E-004  0.9118800E+02  0.7818608E-02  0.1130116E+00
         25   -1    0    0    0    0  0.00000000000E+00  0.00000000000E+00  0.99999998245E-14  0.12500000000E+03  0.12500000000E+03 0.  0.
        -13    1    3    3    0    0  0.37326803908E+02 -0.35501335584E+01 -0.30509643282E+01  0.37619320643E+02  0.10566000000E+00 0.  1.
         23    2    1    0    0    0 -0.16136230207E+02 -0.16731964342E+02  0.16979834514E+02  0.96213695337E+02  0.91806447673E+02 0.  0.
         13    1    3    3    0    0 -0.53463034115E+02 -0.13181830784E+02  0.20030798842E+02  0.58594374694E+02  0.10566000000E+00 0. -1.
         22    1    1    0    0    0  0.16136230207E+02  0.16731964342E+02 -0.16979834514E+02  0.28786304663E+02  0.00000000000E+00 0. -1.
</event>
<event>
 5    1  0.1267644E-004  0.9118800E+02  0.7818608E-02  0.1130116E+00
         25   -1    0    0    0    0  0.00000000000E+00  0.00000000000E+00  0.99999998245E-14  0.12500000000E+03  0.12500000000E+03 0.  0.
        -13    1    3    3    0    0  0.18005666204E+02  0.25158765024E+02  0.48900537046E+02  0.57865716624E+02  0.10566000000E+00 0.  1.
         23    2    1    0    0    0 -0.81311579282E+01  0.13478377203E+02  0.26339187942E+02  0.94315554385E+02  0.89184575999E+02 0.  0.
         13    1    3    3    0    0 -0.26136824132E+02 -0.11680387821E+02 -0.22561349104E+02  0.36449837761E+02  0.10566000000E+00 0. -1.
         22    1    1    0    0    0  0.81311579282E+01 -0.13478377203E+02 -0.26339187942E+02  0.30684445615E+02  0.00000000000E+00 0.  1.
</event>
<event>
 5    1  0.1267644E-004  0.9118800E+02  0.7818608E-02  0.1130116E+00
         25   -1    0    0    0    0  0.00000000000E+00  0.00000000000E+00  0.99999998245E-14  0.12500000000E+03  0.12500000000E+03 0.  0.
        -13    1    3    3    0    0  0.91036169423E+01  0.26678872585E+02 -0.17057019722E+02  0.32948310574E+02  0.10566000000E+00 0. -1.
         23    2    1    0    0    0  0.75879997908E+01 -0.26833933789E+02  0.12878150658E+02  0.94283807075E+02  0.89140068257E+02 0.  0.
         13    1    3    3    0    0 -0.15156171515E+01 -0.53512806374E+02  0.29935170380E+02  0.61335496501E+02  0.10566000000E+00 0.  1.
         22    1    1    0    0    0 -0.75879997908E+01  0.26833933789E+02 -0.12878150658E+02  0.30716192925E+02  0.00000000000E+00 0.  1.
</event>
<event>
 5    1  0.1267644E-004  0.9118800E+02  0.7818608E-02  0.1130116E+00
         25   -1    0    0    0    0  0.00000000000E+00  0.00000000000E+00  0.99999998245E-14  0.12500000000E+03  0.12500000000E+03 0.  0.
        -13    1    3    3    0    0 -0.67268655355E+01  0.30602604030E+01 -0.57307785909E+02  0.57782431616E+02  0.10566000000E+00 0.  1.
         23    2    1    0    0    0 -0.12232600416E+02  0.15341576586E+02 -0.22255240688E+02  0.95330213631E+02  0.90595548499E+02 0.  0.
         13    1    3    3    0    0 -0.55057348807E+01  0.12281316183E+02  0.35052545221E+02  0.37547782015E+02  0.10566000000E+00 0. -1.
         22    1    1    0    0    0  0.12232600416E+02 -0.15341576586E+02  0.22255240688E+02  0.29669786369E+02  0.00000000000E+00 0.  1.
</event>
<event>
 5    1  0.1267644E-004  0.9118800E+02  0.7818608E-02  0.1130116E+00
         25   -1    0    0    0    0  0.00000000000E+00  0.00000000000E+00  0.99999998245E-14  0.12500000000E+03  0.12500000000E+03 0.  0.
        -13    1    3    3    0    0 -0.42828870317E+02 -0.15738986411E+02  0.31593796176E+02  0.55499612131E+02  0.10566000000E+00 0. -1.
         23    2    1    0    0    0 -0.24132777269E+02  0.13061260409E+02  0.16251059084E+02  0.93108239567E+02  0.87476053248E+02 0.  0.
         13    1    3    3    0    0  0.18696093048E+02  0.28800246820E+02 -0.15342737092E+02  0.37608627436E+02  0.10566000000E+00 0.  1.
         22    1    1    0    0    0  0.24132777269E+02 -0.13061260409E+02 -0.16251059084E+02  0.31891760433E+02  0.00000000000E+00 0. -1.
</event>
<event>
 5    1  0.1267644E-004  0.9118800E+02  0.7818608E-02  0.1130116E+00
         25   -1    0    0    0    0  0.00000000000E+00  0.00000000000E+00  0.99999998245E-14  0.12500000000E+03  0.12500000000E+03 0.  0.
        -13    1    3    3    0    0  0.32615681851E+02 -0.31453689383E+02 -0.15607829912E+02  0.47924240182E+02  0.10566000000E+00 0. -1.
         23    2    1    0    0    0  0.22602945954E+02 -0.77945989257E+00  0.19160398367E+02  0.95358448268E+02  0.90634497113E+02 0.  0.
         13    1    3    3    0    0 -0.10012735897E+02  0.30674229491E+02  0.34768228279E+02  0.47434208086E+02  0.10566000000E+00 0.  1.
         22    1    1    0    0    0 -0.22602945954E+02  0.77945989257E+00 -0.19160398367E+02  0.29641551732E+02  0.00000000000E+00 0. -1.
</event>
<event>
 5    1  0.1267644E-004  0.9118800E+02  0.7818608E-02  0.1130116E+00
         25   -1    0    0    0    0  0.00000000000E+00  0.00000000000E+00  0.99999998245E-14  0.12500000000E+03  0.12500000000E+03 0.  0.
        -13    1    3    3    0    0  0.26945931627E+02  0.23135259004E+02  0.23448100686E+01  0.35592593874E+02  0.10566000000E+00 0. -1.
         23    2    1    0    0    0 -0.21055021612E+02 -0.87964067360E+01 -0.17154093858E+02  0.96452607078E+02  0.92131166114E+02 0.  0.
         13    1    3    3    0    0 -0.48000953239E+02 -0.31931665740E+02 -0.19498903926E+02  0.60860013204E+02  0.10566000000E+00 0.  1.
         22    1    1    0    0    0  0.21055021612E+02  0.87964067360E+01  0.17154093858E+02  0.28547392922E+02  0.00000000000E+00 0.  1.
</event>
<event>
 5    1  0.1267644E-004  0.9118800E+02  0.7818608E-02  0.1130116E+00
         25   -1    0    0    0    0  0.00000000000E+00  0.00000000000E+00  0.99999998245E-14  0.12500000000E+03  0.12500000000E+03 0.  0.
        -13    1    3    3    0    0 -0.32519064761E+02  0.13247928745E+02  0.36305449599E+02  0.50508355978E+02  0.10566000000E+00 0. -1.
         23    2    1    0    0    0 -0.62220974147E+01 -0.20638301615E+02  0.17007021732E+02  0.97542892032E+02  0.93598734008E+02 0.  0.
         13    1    3    3    0    0  0.26296967347E+02 -0.33886230360E+02 -0.19298427866E+02  0.47034536054E+02  0.10566000000E+00 0.  1.
         22    1    1    0    0    0  0.62220974147E+01  0.20638301615E+02 -0.17007021732E+02  0.27457107968E+02  0.00000000000E+00 0. -1.
</event>
<event>
 5    1  0.1267644E-004  0.9118800E+02  0.7818608E-02  0.1130116E+00
         25   -1    0    0    0    0  0.00000000000E+00  0.00000000000E+00  0.99999998245E-14  0.12500000000E+03  0.12500000000E+03 0.  0.
        -13    1    3    3    0    0  0.51049738866E+00 -0.19634418825E+02 -0.40744827467E+02  0.45231881892E+02  0.10566000000E+00 0.  1.
         23    2    1    0    0    0  0.16556101096E+02 -0.21993224292E+02  0.77784822678E+01  0.96393861068E+02  0.92051427294E+02 0.  0.
         13    1    3    3    0    0  0.16045603707E+02 -0.23588054663E+01  0.48523309734E+02  0.51161979176E+02  0.10566000000E+00 0. -1.
         22    1    1    0    0    0 -0.16556101096E+02  0.21993224292E+02 -0.77784822678E+01  0.28606138932E+02  0.00000000000E+00 0.  1.
</event>
<event>
 5    1  0.1267644E-004  0.9118800E+02  0.7818608E-02  0.1130116E+00
         25   -1    0    0    0    0  0.00000000000E+00  0.00000000000E+00  0.99999998245E-14  0.12500000000E+03  0.12500000000E+03 0.  0.
        -13    1    3    3    0    0 -0.36348580595E+02  0.21103430644E+02  0.23200385178E+01  0.42094748354E+02  0.10566000000E+00 0. -1.
         23    2    1    0    0    0 -0.46424848114E+01 -0.15192167355E+02 -0.23396036626E+02  0.96720517261E+02  0.92493942047E+02 0.  0.
         13    1    3    3    0    0  0.31706095784E+02 -0.36295597998E+02 -0.25716075144E+02  0.54625768908E+02  0.10566000000E+00 0.  1.
         22    1    1    0    0    0  0.46424848114E+01  0.15192167355E+02  0.23396036626E+02  0.28279482739E+02  0.00000000000E+00 0.  1.
</event>
<event>
 5    1  0.1267644E-004  0.9118800E+02  0.7818608E-02  0.1130116E+00
         25   -1    0    0    0    0  0.00000000000E+00  0.00000000000E+00  0.99999998245E-14  0.12500000000E+03  0.12500000000E+03 0.  0.
        -13    1    3    3    0    0 -0.74813284597E+01 -0.47088476048E+02 -0.60202036804E+01  0.48057765954E+02  0.10566000000E+00 0.  1.
         23    2    1    0    0    0  0.24461508793E+02 -0.14843253188E+02  0.75065992563E+01  0.95418982269E+02  0.90717945122E+02 0.  0.
         13    1    3    3    0    0  0.31942837253E+02  0.32245222861E+02  0.13526802937E+02  0.47361216315E+02  0.10566000000E+00 0. -1.
         22    1    1    0    0    0 -0.24461508793E+02  0.14843253188E+02 -0.75065992563E+01  0.29581017731E+02  0.00000000000E+00 0.  1.
</event>
<event>
 5    1  0.1267644E-004  0.9118800E+02  0.7818608E-02  0.1130116E+00
         25   -1    0    0    0    0  0.00000000000E+00  0.00000000000E+00  0.99999998245E-14  0.12500000000E+03  0.12500000000E+03 0.  0.
        -13    1    3    3    0    0 -0.28560554012E+02  0.26926532065E+02  0.18704800921E+02  0.43481307663E+02  0.10566000000E+00 0.  1.
         23    2    1    0    0    0  0.20092784995E+02  0.20419805003E+02  0.14884353719E+02  0.92716375191E+02  0.86914289951E+02 0.  0.
         13    1    3    3    0    0  0.48653339007E+02 -0.65067270628E+01 -0.38204472014E+01  0.49235067528E+02  0.10566000000E+00 0. -1.
         22    1    1    0    0    0 -0.20092784995E+02 -0.20419805003E+02 -0.14884353719E+02  0.32283624809E+02  0.00000000000E+00 0. -1.
</event>
<event>
 5    1  0.1267644E-004  0.9118800E+02  0.7818608E-02  0.1130116E+00
         25   -1    0    0    0    0  0.00000000000E+00  0.00000000000E+00  0.99999998245E-14  0.12500000000E+03  0.12500000000E+03 0.  0.
        -13    1    3    3    0    0  0.37754361218E+02  0.11487480309E+01 -0.26017405324E+02  0.45865324122E+02  0.10566000000E+00 0. -1.
         23    2    1    0    0    0 -0.14277284850E+02  0.78375777661E+01 -0.20797068647E+02  0.98584350240E+02  0.94979405979E+02 0.  0.
         13    1    3    3    0    0 -0.52031646068E+02  0.66888297352E+01  0.52203366766E+01  0.52719026118E+02  0.10566000000E+00 0.  1.
         22    1    1    0    0    0  0.14277284850E+02 -0.78375777661E+01  0.20797068647E+02  0.26415649760E+02  0.00000000000E+00 0. -1.
</event>
<event>
 5    1  0.1267644E-004  0.9118800E+02  0.7818608E-02  0.1130116E+00
         25   -1    0    0    0    0  0.00000000000E+00  0.00000000000E+00  0.99999998245E-14  0.12500000000E+03  0.12500000000E+03 0.  0.
        -13    1    3    3    0    0  0.51792612587E+02 -0.10530450111E+02  0.20335735282E+02  0.56629659999E+02  0.10566000000E+00 0. -1.
         23    2    1    0    0    0  0.14612979460E+02 -0.47659543232E+01  0.26117439988E+02  0.94695311240E+02  0.89715259628E+02 0.  0.
         13    1    3    3    0    0 -0.37179633126E+02  0.57644957883E+01  0.57817047062E+01  0.38065651242E+02  0.10566000000E+00 0.  1.
         22    1    1    0    0    0 -0.14612979460E+02  0.47659543232E+01 -0.26117439988E+02  0.30304688760E+02  0.00000000000E+00 0. -1.
</event>
<event>
 5    1  0.1267644E-004  0.9118800E+02  0.7818608E-02  0.1130116E+00
         25   -1    0    0    0    0  0.00000000000E+00  0.00000000000E+00  0.99999998245E-14  0.12500000000E+03  0.12500000000E+03 0.  0.
        -13    1    3    3    0    0 -0.22192292469E+02 -0.24609089361E+02 -0.64236917876E+01  0.33754704923E+02  0.10566000000E+00 0.  1.
         23    2    1    0    0    0  0.12121117552E+02  0.25932277711E+02  0.51083136927E+01  0.95922527848E+02  0.91409145943E+02 0.  0.
         13    1    3    3    0    0  0.34313410022E+02  0.50541367071E+02  0.11532005480E+02  0.62167822925E+02  0.10566000000E+00 0. -1.
         22    1    1    0    0    0 -0.12121117552E+02 -0.25932277711E+02 -0.51083136927E+01  0.29077472152E+02  0.00000000000E+00 0. -1.
</event>
<event>
 5    1  0.1267644E-004  0.9118800E+02  0.7818608E-02  0.1130116E+00
         25   -1    0    0    0    0  0.00000000000E+00  0.00000000000E+00  0.99999998245E-14  0.12500000000E+03  0.12500000000E+03 0.  0.
        -13    1    3    3    0    0  0.15262420783E+02  0.36004863738E+02 -0.31529534484E+02  0.50233598416E+02  0.10566000000E+00 0. -1.
         23    2    1    0    0    0  0.26098628948E+02  0.56734555861E+01  0.37786809613E+01  0.98025846426E+02  0.94241506813E+02 0.  0.
         13    1    3    3    0    0  0.10836208165E+02 -0.30331408152E+02  0.35308215445E+02  0.47792248010E+02  0.10566000000E+00 0.  1.
         22    1    1    0    0    0 -0.26098628948E+02 -0.56734555861E+01 -0.37786809613E+01  0.26974153574E+02  0.00000000000E+00 0. -1.
</event>
<event>
 5    1  0.1267644E-004  0.9118800E+02  0.7818608E-02  0.1130116E+00
         25   -1    0    0    0    0  0.00000000000E+00  0.00000000000E+00  0.99999998245E-14  0.12500000000E+03  0.12500000000E+03 0.  0.
        -13    1    3    3    0    0  0.29383373516E+02  0.14870379195E+02 -0.14702172538E+02  0.36064884000E+02  0.10566000000E+00 0.  1.
         23    2    1    0    0    0 -0.21332517689E+02 -0.15718517705E+02 -0.13401409545E+02  0.95305793704E+02  0.90561848623E+02 0.  0.
         13    1    3    3    0    0 -0.50715891205E+02 -0.30588896899E+02  0.13007629928E+01  0.59240909704E+02  0.10566000000E+00 0. -1.
         22    1    1    0    0    0  0.21332517689E+02  0.15718517705E+02  0.13401409545E+02  0.29694206296E+02  0.00000000000E+00 0. -1.
</event>
<event>
 5    1  0.1267644E-004  0.9118800E+02  0.7818608E-02  0.1130116E+00
         25   -1    0    0    0    0  0.00000000000E+00  0.00000000000E+00  0.99999998245E-14  0.12500000000E+03  0.12500000000E+03 0.  0.
        -13    1    3    3    0    0  0.35656522084E+02  0.17772803611E+02  0.95743160776E+00  0.39852075914E+02  0.10566000000E+00 0.  1.
         23    2    1    0    0    0  0.21261251165E+01 -0.24899703956E+02  0.14926720676E+02  0.95891192823E+02  0.91366285936E+02 0.  0.
         13    1    3    3    0    0 -0.33530396967E+02 -0.42672507568E+02  0.13969289068E+02  0.56039116909E+02  0.10566000000E+00 0. -1.
         22    1    1    0    0    0 -0.21261251165E+01  0.24899703956E+02 -0.14926720676E+02  0.29108807177E+02  0.00000000000E+00 0. -1.
</event>
<event>
 5    1  0.1267644E-004  0.9118800E+02  0.7818608E-02  0.1130116E+00
         25   -1    0    0    0    0  0.00000000000E+00  0.00000000000E+00  0.99999998245E-14  0.12500000000E+03  0.12500000000E+03 0.  0.
        -13    1    3    3    0    0  0.33717957371E+02 -0.12937458228E+02  0.10321252067E+02  0.37560855727E+02  0.10566000000E+00 0.  1.
         23    2    1    0    0    0 -0.63961868490E+01  0.11539150950E+02 -0.25258768025E+02  0.96503183108E+02  0.92199760179E+02 0.  0.
         13    1    3    3    0    0 -0.40114144220E+02  0.24476609178E+02 -0.35580020092E+02  0.58942327381E+02  0.10566000000E+00 0. -1.
         22    1    1    0    0    0  0.63961868490E+01 -0.11539150950E+02  0.25258768025E+02  0.28496816892E+02  0.00000000000E+00 0. -1.
</event>
<event>
 5    1  0.1267644E-004  0.9118800E+02  0.7818608E-02  0.1130116E+00
         25   -1    0    0    0    0  0.00000000000E+00  0.00000000000E+00  0.99999998245E-14  0.12500000000E+03  0.12500000000E+03 0.  0.
        -13    1    3    3    0    0  0.20000967882E+02 -0.21256838392E+01 -0.21019647523E+02  0.29092851253E+02  0.10566000000E+00 0.  1.
         23    2    1    0    0    0 -0.16628478408E+02 -0.90334801915E+01  0.28325632544E+02  0.90934599408E+02  0.84312809536E+02 0.  0.
         13    1    3    3    0    0 -0.36629446289E+02 -0.69077963523E+01  0.49345280067E+02  0.61841748155E+02  0.10566000000E+00 0. -1.
         22    1    1    0    0    0  0.16628478408E+02  0.90334801915E+01 -0.28325632544E+02  0.34065400592E+02  0.00000000000E+00 0. -1.
</event>
<event>
 5    1  0.1267644E-004  0.9118800E+02  0.7818608E-02  0.1130116E+00
         25   -1    0    0    0    0  0.00000000000E+00  0.00000000000E+00  0.99999998245E-14  0.12500000000E+03  0.12500000000E+03 0.  0.
        -13    1    3    3    0    0  0.58529644879E+02 -0.73772355292E+01  0.17484953391E+02  0.61529486369E+02  0.10566000000E+00 0. -1.
         23    2    1    0    0    0  0.30631484659E+02 -0.80247482745E+00  0.15614885200E+01  0.94318245411E+02  0.89188347629E+02 0.  0.
         13    1    3    3    0    0 -0.27898160220E+02  0.65747607018E+01 -0.15923464871E+02  0.32788759042E+02  0.10566000000E+00 0.  1.
         22    1    1    0    0    0 -0.30631484659E+02  0.80247482745E+00 -0.15614885200E+01  0.30681754589E+02  0.00000000000E+00 0. -1.
</event>
<event>
 5    1  0.1267644E-004  0.9118800E+02  0.7818608E-02  0.1130116E+00
         25   -1    0    0    0    0  0.00000000000E+00  0.00000000000E+00  0.99999998245E-14  0.12500000000E+03  0.12500000000E+03 0.  0.
        -13    1    3    3    0    0  0.20945282834E+02 -0.44938350412E+02  0.23826188933E+02  0.55007805391E+02  0.10566000000E+00 0.  1.
         23    2    1    0    0    0  0.54263772672E+01 -0.64046916262E+01  0.27053183853E+02  0.96674386120E+02  0.92431577559E+02 0.  0.
         13    1    3    3    0    0 -0.15518905567E+02  0.38533658786E+02  0.32269949196E+01  0.41666580730E+02  0.10566000000E+00 0. -1.
         22    1    1    0    0    0 -0.54263772672E+01  0.64046916262E+01 -0.27053183853E+02  0.28325613880E+02  0.00000000000E+00 0.  1.
</event>
<event>
 5    1  0.1267644E-004  0.9118800E+02  0.7818608E-02  0.1130116E+00
         25   -1    0    0    0    0  0.00000000000E+00  0.00000000000E+00  0.99999998245E-14  0.12500000000E+03  0.12500000000E+03 0.  0.
        -13    1    3    3    0    0  0.23809539535E+02 -0.25756135851E+02  0.49122637535E+01  0.35417710345E+02  0.10566000000E+00 0. -1.
         23    2    1    0    0    0 -0.75044934968E+01  0.17773429802E+02 -0.22268989113E+02  0.95536122019E+02  0.90879208319E+02 0.  0.
         13    1    3    3    0    0 -0.31314033032E+02  0.43529565653E+02 -0.27181252867E+02  0.60118411674E+02  0.10566000000E+00 0.  1.
         22    1    1    0    0    0  0.75044934968E+01 -0.17773429802E+02  0.22268989113E+02  0.29463877981E+02  0.00000000000E+00 0.  1.
</event>
<event>
 5    1  0.1267644E-004  0.9118800E+02  0.7818608E-02  0.1130116E+00
         25   -1    0    0    0    0  0.00000000000E+00  0.00000000000E+00  0.99999998245E-14  0.12500000000E+03  0.12500000000E+03 0.  0.
        -13    1    3    3    0    0 -0.15524914130E+02 -0.19093135751E+02  0.51716236661E+02  0.57272603311E+02  0.10566000000E+00 0. -1.
         23    2    1    0    0    0 -0.19342500304E+01 -0.22781896388E+02  0.12496820087E+02  0.98943779275E+02  0.95451269340E+02 0.  0.
         13    1    3    3    0    0  0.13590664099E+02 -0.36887606364E+01 -0.39219416575E+02  0.41671175964E+02  0.10566000000E+00 0.  1.
         22    1    1    0    0    0  0.19342500304E+01  0.22781896388E+02 -0.12496820087E+02  0.26056220725E+02  0.00000000000E+00 0. -1.
</event>
<event>
 5    1  0.1267644E-004  0.9118800E+02  0.7818608E-02  0.1130116E+00
         25   -1    0    0    0    0  0.00000000000E+00  0.00000000000E+00  0.99999998245E-14  0.12500000000E+03  0.12500000000E+03 0.  0.
        -13    1    3    3    0    0 -0.14237174954E+02  0.31585265632E+02 -0.33336454453E+02  0.48079689217E+02  0.10566000000E+00 0.  1.
         23    2    1    0    0    0 -0.40390345013E+01  0.27604279785E+02  0.11934943950E+02  0.94656088761E+02  0.89660594412E+02 0.  0.
         13    1    3    3    0    0  0.10198140452E+02 -0.39809858463E+01  0.45271398404E+02  0.46576399544E+02  0.10566000000E+00 0. -1.
         22    1    1    0    0    0  0.40390345013E+01 -0.27604279785E+02 -0.11934943950E+02  0.30343911239E+02  0.00000000000E+00 0. -1.
</event>
<event>
 5    1  0.1267644E-004  0.9118800E+02  0.7818608E-02  0.1130116E+00
         25   -1    0    0    0    0  0.00000000000E+00  0.00000000000E+00  0.99999998245E-14  0.12500000000E+03  0.12500000000E+03 0.  0.
        -13    1    3    3    0    0 -0.17718408233E+02 -0.17688044108E+02  0.31245838971E+02  0.40039012371E+02  0.10566000000E+00 0. -1.
         23    2    1    0    0    0 -0.13353028118E+02  0.13771826274E+02 -0.18036632460E+02  0.98669662567E+02  0.95091617095E+02 0.  0.
         13    1    3    3    0    0  0.43653801146E+01  0.31459870382E+02 -0.49282471431E+02  0.58630650196E+02  0.10566000000E+00 0.  1.
         22    1    1    0    0    0  0.13353028118E+02 -0.13771826274E+02  0.18036632460E+02  0.26330337433E+02  0.00000000000E+00 0.  1.
</event>
<event>
 5    1  0.1267644E-004  0.9118800E+02  0.7818608E-02  0.1130116E+00
         25   -1    0    0    0    0  0.00000000000E+00  0.00000000000E+00  0.99999998245E-14  0.12500000000E+03  0.12500000000E+03 0.  0.
        -13    1    3    3    0    0 -0.50751819996E+02  0.32978297579E+02  0.67259727782E+01  0.60897990262E+02  0.10566000000E+00 0. -1.
         23    2    1    0    0    0 -0.21884554577E+02  0.16181493238E+02  0.12929616793E+02  0.94867800563E+02  0.89955267443E+02 0.  0.
         13    1    3    3    0    0  0.28867265418E+02 -0.16796804341E+02  0.62036440152E+01  0.33969810301E+02  0.10566000000E+00 0.  1.
         22    1    1    0    0    0  0.21884554577E+02 -0.16181493238E+02 -0.12929616793E+02  0.30132199437E+02  0.00000000000E+00 0. -1.
</event>
<event>
 5    1  0.1267644E-004  0.9118800E+02  0.7818608E-02  0.1130116E+00
         25   -1    0    0    0    0  0.00000000000E+00  0.00000000000E+00  0.99999998245E-14  0.12500000000E+03  0.12500000000E+03 0.  0.
        -13    1    3    3    0    0  0.17457806876E+02 -0.15769405110E+02 -0.24047003744E+02  0.33641027207E+02  0.10566000000E+00 0. -1.
         23    2    1    0    0    0 -0.11733205638E+02  0.90601452766E+01  0.25030884614E+02  0.95908772258E+02  0.91390333539E+02 0.  0.
         13    1    3    3    0    0 -0.29191012515E+02  0.24829550386E+02  0.49077888358E+02  0.62267745051E+02  0.10566000000E+00 0.  1.
         22    1    1    0    0    0  0.11733205638E+02 -0.90601452766E+01 -0.25030884614E+02  0.29091227742E+02  0.00000000000E+00 0.  1.
</event>
<event>
 5    1  0.1267644E-004  0.9118800E+02  0.7818608E-02  0.1130116E+00
         25   -1    0    0    0    0  0.00000000000E+00  0.00000000000E+00  0.99999998245E-14  0.12500000000E+03  0.12500000000E+03 0.  0.
        -13    1    3    3    0    0 -0.45325887077E+02  0.69532149974E+01  0.82894057826E+01  0.46599449035E+02  0.10566000000E+00 0.  1.
         23    2    1    0    0    0 -0.24435988248E+01  0.46257840288E+01  0.29879059101E+02  0.94666401040E+02  0.89674970087E+02 0.  0.
         13    1    3    3    0    0  0.42882288252E+02 -0.23274309686E+01  0.21589653318E+02  0.48066952005E+02  0.10566000000E+00 0. -1.
         22    1    1    0    0    0  0.24435988248E+01 -0.46257840288E+01 -0.29879059101E+02  0.30333598960E+02  0.00000000000E+00 0. -1.
</event>
<event>
 5    1  0.1267644E-004  0.9118800E+02  0.7818608E-02  0.1130116E+00
         25   -1    0    0    0    0  0.00000000000E+00  0.00000000000E+00  0.99999998245E-14  0.12500000000E+03  0.12500000000E+03 0.  0.
        -13    1    3    3    0    0 -0.17771159512E+02 -0.30264943385E+02 -0.38723870296E+02  0.52262129724E+02  0.10566000000E+00 0.  1.
         23    2    1    0    0    0 -0.15957265241E+02  0.64279392075E+01 -0.30612527070E+02  0.89884767834E+02  0.82741718368E+02 0.  0.
         13    1    3    3    0    0  0.18138942712E+01  0.36692882593E+02  0.81113432257E+01  0.37622638110E+02  0.10566000000E+00 0. -1.
         22    1    1    0    0    0  0.15957265241E+02 -0.64279392075E+01  0.30612527070E+02  0.35115232166E+02  0.00000000000E+00 0. -1.
</event>
<event>
 5    1  0.1267644E-004  0.9118800E+02  0.7818608E-02  0.1130116E+00
         25   -1    0    0    0    0  0.00000000000E+00  0.00000000000E+00  0.99999998245E-14  0.12500000000E+03  0.12500000000E+03 0.  0.
        -13    1    3    3    0    0 -0.38051958824E+02  0.14550616609E+02 -0.82817948223E+01  0.41572482528E+02  0.10566000000E+00 0.  1.
         23    2    1    0    0    0  0.15989942918E+02  0.95274521417E+01 -0.20609107571E+02  0.97229765329E+02  0.93179618653E+02 0.  0.
         13    1    3    3    0    0  0.54041901742E+02 -0.50231644668E+01 -0.12327312748E+02  0.55657282801E+02  0.10566000000E+00 0. -1.
         22    1    1    0    0    0 -0.15989942918E+02 -0.95274521417E+01  0.20609107571E+02  0.27770234671E+02  0.00000000000E+00 0.  1.
</event>
<event>
 5    1  0.1267644E-004  0.9118800E+02  0.7818608E-02  0.1130116E+00
         25   -1    0    0    0    0  0.00000000000E+00  0.00000000000E+00  0.99999998245E-14  0.12500000000E+03  0.12500000000E+03 0.  0.
        -13    1    3    3    0    0 -0.34140425207E+02  0.84879341068E+00 -0.60075839259E+01  0.34675514592E+02  0.10566000000E+00 0. -1.
         23    2    1    0    0    0  0.20221887364E+02 -0.32158655088E+01  0.21134837373E+02  0.95573007793E+02  0.90929928782E+02 0.  0.
         13    1    3    3    0    0  0.54362312571E+02 -0.40646589195E+01  0.27142421299E+02  0.60897493201E+02  0.10566000000E+00 0.  1.
         22    1    1    0    0    0 -0.20221887364E+02  0.32158655088E+01 -0.21134837373E+02  0.29426992207E+02  0.00000000000E+00 0.  1.
</event>
<event>
 5    1  0.1267644E-004  0.9118800E+02  0.7818608E-02  0.1130116E+00
         25   -1    0    0    0    0  0.00000000000E+00  0.00000000000E+00  0.99999998245E-14  0.12500000000E+03  0.12500000000E+03 0.  0.
        -13    1    3    3    0    0 -0.35591445581E+01  0.39754630056E+02 -0.13580334756E+02  0.42160820403E+02  0.10566000000E+00 0. -1.
         23    2    1    0    0    0  0.28040053030E+02 -0.74182008886E+00  0.44495621726E+01  0.96599410666E+02  0.92330128704E+02 0.  0.
         13    1    3    3    0    0  0.31599197588E+02 -0.40496450145E+02  0.18029896929E+02  0.54438590264E+02  0.10566000000E+00 0.  1.
         22    1    1    0    0    0 -0.28040053030E+02  0.74182008886E+00 -0.44495621726E+01  0.28400589334E+02  0.00000000000E+00 0.  1.
</event>
<event>
 5    1  0.1267644E-004  0.9118800E+02  0.7818608E-02  0.1130116E+00
         25   -1    0    0    0    0  0.00000000000E+00  0.00000000000E+00  0.99999998245E-14  0.12500000000E+03  0.12500000000E+03 0.  0.
        -13    1    3    3    0    0  0.20222102139E+02 -0.38607417839E+02 -0.28422896093E+01  0.43675575570E+02  0.10566000000E+00 0. -1.
         23    2    1    0    0    0  0.22180441803E+02  0.86404418767E+01  0.17803634203E+02  0.95274613119E+02  0.90518800697E+02 0.  0.
         13    1    3    3    0    0  0.19583396640E+01  0.47247859715E+02  0.20645923812E+02  0.51599037549E+02  0.10566000000E+00 0.  1.
         22    1    1    0    0    0 -0.22180441803E+02 -0.86404418767E+01 -0.17803634203E+02  0.29725386881E+02  0.00000000000E+00 0.  1.
</event>
<event>
 5    1  0.1267644E-004  0.9118800E+02  0.7818608E-02  0.1130116E+00
         25   -1    0    0    0    0  0.00000000000E+00  0.00000000000E+00  0.99999998245E-14  0.12500000000E+03  0.12500000000E+03 0.  0.
        -13    1    3    3    0    0 -0.34998074791E+02  0.59802551769E+01 -0.48252079569E+02  0.59907453942E+02  0.10566000000E+00 0. -1.
         23    2    1    0    0    0 -0.63425229965E+01 -0.11555676716E+01 -0.29305606045E+02  0.94993642669E+02  0.90129965424E+02 0.  0.
         13    1    3    3    0    0  0.28655551794E+02 -0.71358228485E+01  0.18946473524E+02  0.35086188727E+02  0.10566000000E+00 0.  1.
         22    1    1    0    0    0  0.63425229965E+01  0.11555676716E+01  0.29305606045E+02  0.30006357331E+02  0.00000000000E+00 0. -1.
</event>
<event>
 5    1  0.1267644E-004  0.9118800E+02  0.7818608E-02  0.1130116E+00
         25   -1    0    0    0    0  0.00000000000E+00  0.00000000000E+00  0.99999998245E-14  0.12500000000E+03  0.12500000000E+03 0.  0.
        -13    1    3    3    0    0 -0.17763173207E+02  0.22432548281E+02 -0.35030055513E+02  0.45231244710E+02  0.10566000000E+00 0.  1.
         23    2    1    0    0    0  0.24762492137E+02  0.33582787371E+01 -0.13901567419E+02  0.96404324984E+02  0.92065635533E+02 0.  0.
         13    1    3    3    0    0  0.42525665344E+02 -0.19074269544E+02  0.21128488094E+02  0.51173080274E+02  0.10566000000E+00 0. -1.
         22    1    1    0    0    0 -0.24762492137E+02 -0.33582787371E+01  0.13901567419E+02  0.28595675016E+02  0.00000000000E+00 0.  1.
</event>
<event>
 5    1  0.1267644E-004  0.9118800E+02  0.7818608E-02  0.1130116E+00
         25   -1    0    0    0    0  0.00000000000E+00  0.00000000000E+00  0.99999998245E-14  0.12500000000E+03  0.12500000000E+03 0.  0.
        -13    1    3    3    0    0 -0.18142212405E+02 -0.31773017341E+02  0.15242037112E+02  0.39635783848E+02  0.10566000000E+00 0.  1.
         23    2    1    0    0    0 -0.14015028399E+02  0.23870628247E+02  0.95327197525E+01  0.95723718477E+02  0.91136872995E+02 0.  0.
         13    1    3    3    0    0  0.41271840062E+01  0.55643645588E+02 -0.57093173596E+01  0.56087934629E+02  0.10566000000E+00 0. -1.
         22    1    1    0    0    0  0.14015028399E+02 -0.23870628247E+02 -0.95327197525E+01  0.29276281523E+02  0.00000000000E+00 0. -1.
</event>
<event>
 5    1  0.1267644E-004  0.9118800E+02  0.7818608E-02  0.1130116E+00
         25   -1    0    0    0    0  0.00000000000E+00  0.00000000000E+00  0.99999998245E-14  0.12500000000E+03  0.12500000000E+03 0.  0.
        -13    1    3    3    0    0  0.35154236831E+02  0.32205428698E+02  0.10048701294E+02  0.48723685888E+02  0.10566000000E+00 0. -1.
         23    2    1    0    0    0  0.44082025240E+01  0.18435314153E+02 -0.22508333105E+02  0.95573513349E+02  0.90930623760E+02 0.  0.
         13    1    3    3    0    0 -0.30746034307E+02 -0.13770114545E+02 -0.32557034399E+02  0.46849827461E+02  0.10566000000E+00 0.  1.
         22    1    1    0    0    0 -0.44082025240E+01 -0.18435314153E+02  0.22508333105E+02  0.29426486651E+02  0.00000000000E+00 0. -1.
</event>
<event>
 5    1  0.1267644E-004  0.9118800E+02  0.7818608E-02  0.1130116E+00
         25   -1    0    0    0    0  0.00000000000E+00  0.00000000000E+00  0.99999998245E-14  0.12500000000E+03  0.12500000000E+03 0.  0.
        -13    1    3    3    0    0  0.43954891668E+02  0.38240106915E+02 -0.17457439863E+02  0.60820322665E+02  0.10566000000E+00 0.  1.
         23    2    1    0    0    0  0.15881493560E+02  0.20938962522E+02 -0.16809910821E+02  0.93803283971E+02  0.88463670468E+02 0.  0.
         13    1    3    3    0    0 -0.28073398108E+02 -0.17301144393E+02  0.64752904157E+00  0.32982961306E+02  0.10566000000E+00 0. -1.
         22    1    1    0    0    0 -0.15881493560E+02 -0.20938962522E+02  0.16809910821E+02  0.31196716029E+02  0.00000000000E+00 0.  1.
</event>
<event>
 5    1  0.1267644E-004  0.9118800E+02  0.7818608E-02  0.1130116E+00
         25   -1    0    0    0    0  0.00000000000E+00  0.00000000000E+00  0.99999998245E-14  0.12500000000E+03  0.12500000000E+03 0.  0.
        -13    1    3    3    0    0  0.29750587634E+02  0.23375085255E+02 -0.54816311772E+01  0.38230243521E+02  0.10566000000E+00 0.  1.
         23    2    1    0    0    0 -0.10062376500E+02  0.22349593328E+01  0.28507674238E+02  0.94686076557E+02  0.89702392049E+02 0.  0.
         13    1    3    3    0    0 -0.39812964135E+02 -0.21140125922E+02  0.33989305415E+02  0.56455833036E+02  0.10566000000E+00 0. -1.
         22    1    1    0    0    0  0.10062376500E+02 -0.22349593328E+01 -0.28507674238E+02  0.30313923443E+02  0.00000000000E+00 0. -1.
</event>
<event>
 5    1  0.1267644E-004  0.9118800E+02  0.7818608E-02  0.1130116E+00
         25   -1    0    0    0    0  0.00000000000E+00  0.00000000000E+00  0.99999998245E-14  0.12500000000E+03  0.12500000000E+03 0.  0.
        -13    1    3    3    0    0  0.24868784714E+02 -0.21504650166E+02  0.11988287011E+02  0.34994808493E+02  0.10566000000E+00 0.  1.
         23    2    1    0    0    0 -0.48864784159E+01  0.29635180190E+02  0.42778858576E+01  0.94661544475E+02  0.89668200154E+02 0.  0.
         13    1    3    3    0    0 -0.29755263130E+02  0.51139830356E+02 -0.77104011538E+01  0.59666735983E+02  0.10566000000E+00 0. -1.
         22    1    1    0    0    0  0.48864784159E+01 -0.29635180190E+02 -0.42778858576E+01  0.30338455525E+02  0.00000000000E+00 0. -1.
</event>
<event>
 5    1  0.1267644E-004  0.9118800E+02  0.7818608E-02  0.1130116E+00
         25   -1    0    0    0    0  0.00000000000E+00  0.00000000000E+00  0.99999998245E-14  0.12500000000E+03  0.12500000000E+03 0.  0.
        -13    1    3    3    0    0 -0.33100407343E+02 -0.87230556967E+01 -0.52811972543E+01  0.34635687888E+02  0.10566000000E+00 0.  1.
         23    2    1    0    0    0  0.25075350612E+02  0.76202380726E+00 -0.16950082422E+02  0.94723620053E+02  0.89754693544E+02 0.  0.
         13    1    3    3    0    0  0.58175757955E+02  0.94850795040E+01 -0.11668885168E+02  0.60087932165E+02  0.10566000000E+00 0. -1.
         22    1    1    0    0    0 -0.25075350612E+02 -0.76202380726E+00  0.16950082422E+02  0.30276379947E+02  0.00000000000E+00 0.  1.
</event>
<event>
 5    1  0.1267644E-004  0.9118800E+02  0.7818608E-02  0.1130116E+00
         25   -1    0    0    0    0  0.00000000000E+00  0.00000000000E+00  0.99999998245E-14  0.12500000000E+03  0.12500000000E+03 0.  0.
        -13    1    3    3    0    0 -0.17823733777E+02  0.18218719780E+02  0.28017472365E+02  0.37876076327E+02  0.10566000000E+00 0.  1.
         23    2    1    0    0    0  0.71707268827E+01  0.16123298448E+02 -0.23757147344E+02  0.95406383682E+02  0.90700583903E+02 0.  0.
         13    1    3    3    0    0  0.24994460660E+02 -0.20954213316E+01 -0.51774619709E+02  0.57530307354E+02  0.10566000000E+00 0. -1.
         22    1    1    0    0    0 -0.71707268827E+01 -0.16123298448E+02  0.23757147344E+02  0.29593616318E+02  0.00000000000E+00 0. -1.
</event>
<event>
 5    1  0.1267644E-004  0.9118800E+02  0.7818608E-02  0.1130116E+00
         25   -1    0    0    0    0  0.00000000000E+00  0.00000000000E+00  0.99999998245E-14  0.12500000000E+03  0.12500000000E+03 0.  0.
        -13    1    3    3    0    0  0.13603197978E+02 -0.39877802920E+02  0.13265165464E+02  0.44173090675E+02  0.10566000000E+00 0.  1.
         23    2    1    0    0    0  0.11117681731E+02  0.11700950776E+02  0.23179133938E+02  0.96754870398E+02  0.92540356599E+02 0.  0.
         13    1    3    3    0    0 -0.24855162463E+01  0.51578753696E+02  0.99139684740E+01  0.52581779723E+02  0.10566000000E+00 0. -1.
         22    1    1    0    0    0 -0.11117681731E+02 -0.11700950776E+02 -0.23179133938E+02  0.28245129602E+02  0.00000000000E+00 0. -1.
</event>
<event>
 5    1  0.1267644E-004  0.9118800E+02  0.7818608E-02  0.1130116E+00
         25   -1    0    0    0    0  0.00000000000E+00  0.00000000000E+00  0.99999998245E-14  0.12500000000E+03  0.12500000000E+03 0.  0.
        -13    1    3    3    0    0  0.25626824294E+02  0.21658534974E+02  0.21538421104E+02  0.39871556382E+02  0.10566000000E+00 0. -1.
         23    2    1    0    0    0 -0.61466107148E+00 -0.26704017822E+02  0.12007158130E+02  0.95714265888E+02  0.91123907248E+02 0.  0.
         13    1    3    3    0    0 -0.26241485366E+02 -0.48362552796E+02 -0.95312629732E+01  0.55842709507E+02  0.10566000000E+00 0.  1.
         22    1    1    0    0    0  0.61466107148E+00  0.26704017822E+02 -0.12007158130E+02  0.29285734112E+02  0.00000000000E+00 0.  1.
</event>
<event>
 5    1  0.1267644E-004  0.9118800E+02  0.7818608E-02  0.1130116E+00
         25   -1    0    0    0    0  0.00000000000E+00  0.00000000000E+00  0.99999998245E-14  0.12500000000E+03  0.12500000000E+03 0.  0.
        -13    1    3    3    0    0  0.44940571263E+02  0.33817800989E+02 -0.26571890892E+02  0.62204301770E+02  0.10566000000E+00 0.  1.
         23    2    1    0    0    0  0.18590735423E+02  0.19351138235E+02 -0.12812106396E+02  0.95263960168E+02  0.90504088538E+02 0.  0.
         13    1    3    3    0    0 -0.26349835839E+02 -0.14466662754E+02  0.13759784496E+02  0.33059658398E+02  0.10566000000E+00 0. -1.
         22    1    1    0    0    0 -0.18590735423E+02 -0.19351138235E+02  0.12812106396E+02  0.29736039832E+02  0.00000000000E+00 0.  1.
</event>
<event>
 5    1  0.1267644E-004  0.9118800E+02  0.7818608E-02  0.1130116E+00
         25   -1    0    0    0    0  0.00000000000E+00  0.00000000000E+00  0.99999998245E-14  0.12500000000E+03  0.12500000000E+03 0.  0.
        -13    1    3    3    0    0  0.92335469712E+00  0.29118965917E+02  0.18988656476E+02  0.34775666763E+02  0.10566000000E+00 0.  1.
         23    2    1    0    0    0 -0.18609362890E+02 -0.14799665060E+02 -0.17794695835E+02  0.95301689056E+02  0.90556182914E+02 0.  0.
         13    1    3    3    0    0 -0.19532717587E+02 -0.43918630978E+02 -0.36783352312E+02  0.60526022293E+02  0.10566000000E+00 0. -1.
         22    1    1    0    0    0  0.18609362890E+02  0.14799665060E+02  0.17794695835E+02  0.29698310944E+02  0.00000000000E+00 0. -1.
</event>
<event>
 5    1  0.1267644E-004  0.9118800E+02  0.7818608E-02  0.1130116E+00
         25   -1    0    0    0    0  0.00000000000E+00  0.00000000000E+00  0.99999998245E-14  0.12500000000E+03  0.12500000000E+03 0.  0.
        -13    1    3    3    0    0 -0.59059490457E+01 -0.23309410617E+02  0.23632916200E+02  0.33715497172E+02  0.10566000000E+00 0.  1.
         23    2    1    0    0    0  0.18860133691E+02  0.17297758829E+02 -0.15301882435E+02  0.95182811846E+02  0.90391940800E+02 0.  0.
         13    1    3    3    0    0  0.24766082736E+02  0.40607169446E+02 -0.38934798635E+02  0.61467314674E+02  0.10566000000E+00 0. -1.
         22    1    1    0    0    0 -0.18860133691E+02 -0.17297758829E+02  0.15301882435E+02  0.29817188154E+02  0.00000000000E+00 0. -1.
</event>
<event>
 5    1  0.1267644E-004  0.9118800E+02  0.7818608E-02  0.1130116E+00
         25   -1    0    0    0    0  0.00000000000E+00  0.00000000000E+00  0.99999998245E-14  0.12500000000E+03  0.12500000000E+03 0.  0.
        -13    1    3    3    0    0  0.32276695975E+02  0.26640474608E+02  0.13953901851E+02  0.44116012188E+02  0.10566000000E+00 0. -1.
         23    2    1    0    0    0 -0.16418926498E+02  0.13442107946E+02  0.21103728560E+02  0.95072775395E+02  0.90239646768E+02 0.  0.
         13    1    3    3    0    0 -0.48695622474E+02 -0.13198366662E+02  0.71498267089E+01  0.50956763208E+02  0.10566000000E+00 0.  1.
         22    1    1    0    0    0  0.16418926498E+02 -0.13442107946E+02 -0.21103728560E+02  0.29927224605E+02  0.00000000000E+00 0. -1.
</event>
<event>
 5    1  0.1267644E-004  0.9118800E+02  0.7818608E-02  0.1130116E+00
         25   -1    0    0    0    0  0.00000000000E+00  0.00000000000E+00  0.99999998245E-14  0.12500000000E+03  0.12500000000E+03 0.  0.
        -13    1    3    3    0    0 -0.10365267564E+02 -0.42502676420E+02 -0.63792966929E+01  0.44211116983E+02  0.10566000000E+00 0.  1.
         23    2    1    0    0    0  0.19520801235E+02 -0.93409090530E+00 -0.19843110719E+02  0.97148909363E+02  0.93071087566E+02 0.  0.
         13    1    3    3    0    0  0.29886068799E+02  0.41568585515E+02 -0.13463814026E+02  0.52937792380E+02  0.10566000000E+00 0. -1.
         22    1    1    0    0    0 -0.19520801235E+02  0.93409090530E+00  0.19843110719E+02  0.27851090637E+02  0.00000000000E+00 0. -1.
</event>
<event>
 5    1  0.1267644E-004  0.9118800E+02  0.7818608E-02  0.1130116E+00
         25   -1    0    0    0    0  0.00000000000E+00  0.00000000000E+00  0.99999998245E-14  0.12500000000E+03  0.12500000000E+03 0.  0.
        -13    1    3    3    0    0 -0.26279773151E+02 -0.15244286890E+02 -0.23400598389E+02  0.38348584441E+02  0.10566000000E+00 0. -1.
         23    2    1    0    0    0  0.25579834986E+02  0.62811563868E+01 -0.13632596199E+02  0.95341467289E+02  0.90611074501E+02 0.  0.
         13    1    3    3    0    0  0.51859608137E+02  0.21525443277E+02  0.97680021894E+01  0.56992882847E+02  0.10566000000E+00 0.  1.
         22    1    1    0    0    0 -0.25579834986E+02 -0.62811563868E+01  0.13632596199E+02  0.29658532711E+02  0.00000000000E+00 0.  1.
</event>
<event>
 5    1  0.1267644E-004  0.9118800E+02  0.7818608E-02  0.1130116E+00
         25   -1    0    0    0    0  0.00000000000E+00  0.00000000000E+00  0.99999998245E-14  0.12500000000E+03  0.12500000000E+03 0.  0.
        -13    1    3    3    0    0 -0.27259829443E+02 -0.26878442460E+02  0.19039522048E+02  0.42755859647E+02  0.10566000000E+00 0.  1.
         23    2    1    0    0    0  0.15477500398E+01  0.16594619148E+02  0.24688363658E+02  0.95212549371E+02  0.90433054481E+02 0.  0.
         13    1    3    3    0    0  0.28807579483E+02  0.43473061608E+02  0.56488416108E+01  0.52456689724E+02  0.10566000000E+00 0. -1.
         22    1    1    0    0    0 -0.15477500398E+01 -0.16594619148E+02 -0.24688363658E+02  0.29787450629E+02  0.00000000000E+00 0.  1.
</event>
<event>
 5    1  0.1267644E-004  0.9118800E+02  0.7818608E-02  0.1130116E+00
         25   -1    0    0    0    0  0.00000000000E+00  0.00000000000E+00  0.99999998245E-14  0.12500000000E+03  0.12500000000E+03 0.  0.
        -13    1    3    3    0    0  0.12388921222E+02 -0.16265077272E+02 -0.53461530744E+02  0.57237964160E+02  0.10566000000E+00 0.  1.
         23    2    1    0    0    0  0.36742843747E+01 -0.23643063139E+02 -0.16468229006E+02  0.95953530906E+02  0.91451532116E+02 0.  0.
         13    1    3    3    0    0 -0.87146368474E+01 -0.73779858674E+01  0.36993301738E+02  0.38715566745E+02  0.10566000000E+00 0. -1.
         22    1    1    0    0    0 -0.36742843747E+01  0.23643063139E+02  0.16468229006E+02  0.29046469094E+02  0.00000000000E+00 0.  1.
</event>
<event>
 5    1  0.1267644E-004  0.9118800E+02  0.7818608E-02  0.1130116E+00
         25   -1    0    0    0    0  0.00000000000E+00  0.00000000000E+00  0.99999998245E-14  0.12500000000E+03  0.12500000000E+03 0.  0.
        -13    1    3    3    0    0 -0.28725052545E+02 -0.29959120889E+02  0.46014488304E+02  0.61967909970E+02  0.10566000000E+00 0.  1.
         23    2    1    0    0    0 -0.86437005742E+01 -0.14346067293E+02  0.24712945666E+02  0.95146141123E+02  0.90341215847E+02 0.  0.
         13    1    3    3    0    0  0.20081351970E+02  0.15613053597E+02 -0.21301542638E+02  0.33178231152E+02  0.10566000000E+00 0. -1.
         22    1    1    0    0    0  0.86437005742E+01  0.14346067293E+02 -0.24712945666E+02  0.29853858877E+02  0.00000000000E+00 0.  1.
</event>
<event>
 5    1  0.1267644E-004  0.9118800E+02  0.7818608E-02  0.1130116E+00
         25   -1    0    0    0    0  0.00000000000E+00  0.00000000000E+00  0.99999998245E-14  0.12500000000E+03  0.12500000000E+03 0.  0.
        -13    1    3    3    0    0 -0.19184714682E+02  0.86279695852E+01  0.34293110358E+02  0.40230880162E+02  0.10566000000E+00 0.  1.
         23    2    1    0    0    0  0.12977470966E+01  0.24627636355E+02 -0.15126761882E+02  0.96068640803E+02  0.91608734304E+02 0.  0.
         13    1    3    3    0    0  0.20482461778E+02  0.15999666770E+02 -0.49419872239E+02  0.55837760641E+02  0.10566000000E+00 0. -1.
         22    1    1    0    0    0 -0.12977470966E+01 -0.24627636355E+02  0.15126761882E+02  0.28931359197E+02  0.00000000000E+00 0. -1.
</event>
<event>
 4    1  0.1267644E-004  0.9118800E+02  0.7818608E-02  0.1130116E+00
         25   -1    0    0    0    0  0.00000000000E+00  0.00000000000E+00  0.99999998245E-14  0.12500000000E+03  0.12500000000E+03 0.  0.
        -13    1    1    0    0    0 -0.17720913381E+02  0.22225949616E+02  0.18086933247E+02  0.33692312561E+02  0.10566000000E+00 0.  1.
         13    1    1    0    0    0  0.90446356566E+01 -0.98040151370E+01  0.34284689868E+02  0.36788249079E+02  0.10566000000E+00 0. -1.
         22    1    1    0    0    0  0.86762777239E+01 -0.12421934480E+02 -0.52371623115E+02  0.54519438359E+02  0.00000000000E+00 0.  1.
</event>
<event>
 5    1  0.1267644E-004  0.9118800E+02  0.7818608E-02  0.1130116E+00
         25   -1    0    0    0    0  0.00000000000E+00  0.00000000000E+00  0.99999998245E-14  0.12500000000E+03  0.12500000000E+03 0.  0.
        -13    1    3    3    0    0  0.15210831925E+02  0.33969687278E+01  0.42178282188E+02  0.44965847671E+02  0.10566000000E+00 0.  1.
         23    2    1    0    0    0  0.49032394002E+01 -0.30996567677E+02  0.13863559704E+02  0.90692169231E+02  0.83952619422E+02 0.  0.
         13    1    3    3    0    0 -0.10307592525E+02 -0.34393536405E+02 -0.28314722484E+02  0.45726321560E+02  0.10566000000E+00 0. -1.
         22    1    1    0    0    0 -0.49032394002E+01  0.30996567677E+02 -0.13863559704E+02  0.34307830769E+02  0.00000000000E+00 0. -1.
</event>
<event>
 5    1  0.1267644E-004  0.9118800E+02  0.7818608E-02  0.1130116E+00
         25   -1    0    0    0    0  0.00000000000E+00  0.00000000000E+00  0.99999998245E-14  0.12500000000E+03  0.12500000000E+03 0.  0.
        -13    1    3    3    0    0  0.62945483505E+01 -0.53274733059E+02  0.29059627520E+02  0.61010586271E+02  0.10566000000E+00 0.  1.
         23    2    1    0    0    0 -0.67356764991E+01 -0.24578514160E+02  0.13571287881E+02  0.96126958059E+02  0.91688273594E+02 0.  0.
         13    1    3    3    0    0 -0.13030224850E+02  0.28696218899E+02 -0.15488339640E+02  0.35116371788E+02  0.10566000000E+00 0. -1.
         22    1    1    0    0    0  0.67356764991E+01  0.24578514160E+02 -0.13571287881E+02  0.28873041941E+02  0.00000000000E+00 0.  1.
</event>
<event>
 5    1  0.1267644E-004  0.9118800E+02  0.7818608E-02  0.1130116E+00
         25   -1    0    0    0    0  0.00000000000E+00  0.00000000000E+00  0.99999998245E-14  0.12500000000E+03  0.12500000000E+03 0.  0.
        -13    1    3    3    0    0  0.31465475874E+02 -0.19976463816E+01  0.23982422696E+02  0.39613564917E+02  0.10566000000E+00 0.  1.
         23    2    1    0    0    0 -0.23899512028E+02 -0.56976997967E+01  0.16016911958E+02  0.95670971260E+02  0.91064498105E+02 0.  0.
         13    1    3    3    0    0 -0.55364987902E+02 -0.37000534151E+01 -0.79655107382E+01  0.56057406344E+02  0.10566000000E+00 0. -1.
         22    1    1    0    0    0  0.23899512028E+02  0.56976997967E+01 -0.16016911958E+02  0.29329028740E+02  0.00000000000E+00 0.  1.
</event>
<event>
 5    1  0.1267644E-004  0.9118800E+02  0.7818608E-02  0.1130116E+00
         25   -1    0    0    0    0  0.00000000000E+00  0.00000000000E+00  0.99999998245E-14  0.12500000000E+03  0.12500000000E+03 0.  0.
        -13    1    3    3    0    0 -0.20655360399E+02  0.32471108676E+02  0.55958855120E+01  0.38888840437E+02  0.10566000000E+00 0. -1.
         23    2    1    0    0    0  0.75720486174E+01 -0.52028464647E+01 -0.27218555810E+02  0.96272742700E+02  0.91886809037E+02 0.  0.
         13    1    3    3    0    0  0.28227409016E+02 -0.37673955140E+02 -0.32814441322E+02  0.57383902263E+02  0.10566000000E+00 0.  1.
         22    1    1    0    0    0 -0.75720486174E+01  0.52028464647E+01  0.27218555810E+02  0.28727257300E+02  0.00000000000E+00 0.  1.
</event>
<event>
 5    1  0.1267644E-004  0.9118800E+02  0.7818608E-02  0.1130116E+00
         25   -1    0    0    0    0  0.00000000000E+00  0.00000000000E+00  0.99999998245E-14  0.12500000000E+03  0.12500000000E+03 0.  0.
        -13    1    3    3    0    0 -0.14914052117E+02  0.25144916510E+02 -0.14435345630E+02  0.32605001830E+02  0.10566000000E+00 0. -1.
         23    2    1    0    0    0  0.30729578743E+02 -0.29290910102E+01  0.11398904529E+02  0.92093745149E+02  0.86014163295E+02 0.  0.
         13    1    3    3    0    0  0.45643630860E+02 -0.28074007520E+02  0.25834250160E+02  0.59488743319E+02  0.10566000000E+00 0.  1.
         22    1    1    0    0    0 -0.30729578743E+02  0.29290910102E+01 -0.11398904529E+02  0.32906254851E+02  0.00000000000E+00 0.  1.
</event>
<event>
 5    1  0.1267644E-004  0.9118800E+02  0.7818608E-02  0.1130116E+00
         25   -1    0    0    0    0  0.00000000000E+00  0.00000000000E+00  0.99999998245E-14  0.12500000000E+03  0.12500000000E+03 0.  0.
        -13    1    3    3    0    0 -0.18472755202E+02  0.12571113942E+02 -0.53127273612E+02  0.57635006341E+02  0.10566000000E+00 0. -1.
         23    2    1    0    0    0  0.69765392741E+01 -0.11152310272E+01 -0.28609284200E+02  0.95531254134E+02  0.90872512530E+02 0.  0.
         13    1    3    3    0    0  0.25449294476E+02 -0.13686344970E+02  0.24517989412E+02  0.37896247793E+02  0.10566000000E+00 0.  1.
         22    1    1    0    0    0 -0.69765392741E+01  0.11152310272E+01  0.28609284200E+02  0.29468745866E+02  0.00000000000E+00 0.  1.
</event>
<event>
 5    1  0.1267644E-004  0.9118800E+02  0.7818608E-02  0.1130116E+00
         25   -1    0    0    0    0  0.00000000000E+00  0.00000000000E+00  0.99999998245E-14  0.12500000000E+03  0.12500000000E+03 0.  0.
        -13    1    3    3    0    0 -0.51118865792E+02 -0.11181595931E+02  0.21699432531E+02  0.56648416250E+02  0.10566000000E+00 0.  1.
         23    2    1    0    0    0 -0.23592845810E+02 -0.18432262330E+02 -0.37439732311E+01  0.94827363331E+02  0.89899059131E+02 0.  0.
         13    1    3    3    0    0  0.27526019983E+02 -0.72506663999E+01 -0.25443405763E+02  0.38178947080E+02  0.10566000000E+00 0. -1.
         22    1    1    0    0    0  0.23592845810E+02  0.18432262330E+02  0.37439732311E+01  0.30172636669E+02  0.00000000000E+00 0.  1.
</event>
<event>
 5    1  0.1267644E-004  0.9118800E+02  0.7818608E-02  0.1130116E+00
         25   -1    0    0    0    0  0.00000000000E+00  0.00000000000E+00  0.99999998245E-14  0.12500000000E+03  0.12500000000E+03 0.  0.
        -13    1    3    3    0    0 -0.36194688497E+02 -0.56403361861E+01  0.11647861089E+02  0.38438947692E+02  0.10566000000E+00 0.  1.
         23    2    1    0    0    0  0.21670111199E+02 -0.11444572789E+02  0.14248444582E+02  0.96652334510E+02  0.92401751215E+02 0.  0.
         13    1    3    3    0    0  0.57864799695E+02 -0.58042366033E+01  0.26005834929E+01  0.58213386819E+02  0.10566000000E+00 0. -1.
         22    1    1    0    0    0 -0.21670111199E+02  0.11444572789E+02 -0.14248444582E+02  0.28347665490E+02  0.00000000000E+00 0. -1.
</event>
<event>
 5    1  0.1267644E-004  0.9118800E+02  0.7818608E-02  0.1130116E+00
         25   -1    0    0    0    0  0.00000000000E+00  0.00000000000E+00  0.99999998245E-14  0.12500000000E+03  0.12500000000E+03 0.  0.
        -13    1    3    3    0    0 -0.14859430692E+01 -0.53419563662E+01 -0.34284716355E+02  0.34730353644E+02  0.10566000000E+00 0.  1.
         23    2    1    0    0    0 -0.38897510008E+01  0.10627694996E+02  0.25735865009E+02  0.96885718726E+02  0.92716933090E+02 0.  0.
         13    1    3    3    0    0 -0.24038079316E+01  0.15969651362E+02  0.60020581364E+02  0.62155365083E+02  0.10566000000E+00 0. -1.
         22    1    1    0    0    0  0.38897510008E+01 -0.10627694996E+02 -0.25735865009E+02  0.28114281274E+02  0.00000000000E+00 0. -1.
</event>
<event>
 5    1  0.1267644E-004  0.9118800E+02  0.7818608E-02  0.1130116E+00
         25   -1    0    0    0    0  0.00000000000E+00  0.00000000000E+00  0.99999998245E-14  0.12500000000E+03  0.12500000000E+03 0.  0.
        -13    1    3    3    0    0  0.49352481928E+02 -0.11743233949E+02 -0.14164642263E+02  0.52670857886E+02  0.10566000000E+00 0. -1.
         23    2    1    0    0    0  0.14692426058E+02  0.10323233364E+02 -0.24102413599E+02  0.94944004394E+02  0.90061096477E+02 0.  0.
         13    1    3    3    0    0 -0.34660055870E+02  0.22066467313E+02 -0.99377713354E+01  0.42273146508E+02  0.10566000000E+00 0.  1.
         22    1    1    0    0    0 -0.14692426058E+02 -0.10323233364E+02  0.24102413599E+02  0.30055995606E+02  0.00000000000E+00 0. -1.
</event>
<event>
 5    1  0.1267644E-004  0.9118800E+02  0.7818608E-02  0.1130116E+00
         25   -1    0    0    0    0  0.00000000000E+00  0.00000000000E+00  0.99999998245E-14  0.12500000000E+03  0.12500000000E+03 0.  0.
        -13    1    3    3    0    0 -0.42338632763E+02  0.12498250914E+02 -0.39800232234E+02  0.59437662724E+02  0.10566000000E+00 0.  1.
         23    2    1    0    0    0 -0.25463759526E+02 -0.60979692873E+01 -0.14567021263E+02  0.95036916262E+02  0.90189961002E+02 0.  0.
         13    1    3    3    0    0  0.16874873237E+02 -0.18596220201E+02  0.25233210971E+02  0.35599253538E+02  0.10566000000E+00 0. -1.
         22    1    1    0    0    0  0.25463759526E+02  0.60979692873E+01  0.14567021263E+02  0.29963083738E+02  0.00000000000E+00 0.  1.
</event>
<event>
 5    1  0.1267644E-004  0.9118800E+02  0.7818608E-02  0.1130116E+00
         25   -1    0    0    0    0  0.00000000000E+00  0.00000000000E+00  0.99999998245E-14  0.12500000000E+03  0.12500000000E+03 0.  0.
        -13    1    3    3    0    0 -0.24498797081E+02  0.17753719279E+02  0.16992270626E+02  0.34700634457E+02  0.10566000000E+00 0.  1.
         23    2    1    0    0    0  0.29272380773E+02  0.45105926635E+01 -0.62018658481E+01  0.94739780862E+02  0.89777197637E+02 0.  0.
         13    1    3    3    0    0  0.53771177853E+02 -0.13243126615E+02 -0.23194136474E+02  0.60039146405E+02  0.10566000000E+00 0. -1.
         22    1    1    0    0    0 -0.29272380773E+02 -0.45105926635E+01  0.62018658481E+01  0.30260219138E+02  0.00000000000E+00 0. -1.
</event>
<event>
 5    1  0.1267644E-004  0.9118800E+02  0.7818608E-02  0.1130116E+00
         25   -1    0    0    0    0  0.00000000000E+00  0.00000000000E+00  0.99999998245E-14  0.12500000000E+03  0.12500000000E+03 0.  0.
        -13    1    3    3    0    0 -0.30146240103E+02  0.41070005123E+02  0.18190852498E+02  0.54096759532E+02  0.10566000000E+00 0.  1.
         23    2    1    0    0    0  0.84758371061E+01  0.24505613519E+02  0.11434043671E+02  0.96660941031E+02  0.92413393281E+02 0.  0.
         13    1    3    3    0    0  0.38622077209E+02 -0.16564391604E+02 -0.67568088278E+01  0.42564181499E+02  0.10566000000E+00 0. -1.
         22    1    1    0    0    0 -0.84758371061E+01 -0.24505613519E+02 -0.11434043671E+02  0.28339058969E+02  0.00000000000E+00 0.  1.
</event>
<event>
 5    1  0.1267644E-004  0.9118800E+02  0.7818608E-02  0.1130116E+00
         25   -1    0    0    0    0  0.00000000000E+00  0.00000000000E+00  0.99999998245E-14  0.12500000000E+03  0.12500000000E+03 0.  0.
        -13    1    3    3    0    0  0.52212831634E+02  0.19500358711E+01  0.57894075500E+01  0.52569105290E+02  0.10566000000E+00 0. -1.
         23    2    1    0    0    0  0.14671039612E+02 -0.18756168521E+02  0.15576333776E+02  0.96545555096E+02  0.92257188197E+02 0.  0.
         13    1    3    3    0    0 -0.37541792022E+02 -0.20706204393E+02  0.97869262256E+01  0.43976449806E+02  0.10566000000E+00 0.  1.
         22    1    1    0    0    0 -0.14671039612E+02  0.18756168521E+02 -0.15576333776E+02  0.28454444904E+02  0.00000000000E+00 0. -1.
</event>
<event>
 5    1  0.1267644E-004  0.9118800E+02  0.7818608E-02  0.1130116E+00
         25   -1    0    0    0    0  0.00000000000E+00  0.00000000000E+00  0.99999998245E-14  0.12500000000E+03  0.12500000000E+03 0.  0.
        -13    1    3    3    0    0  0.10393465244E+02  0.13384641444E+02  0.42653955238E+02  0.45897100212E+02  0.10566000000E+00 0.  1.
         23    2    1    0    0    0 -0.11592553892E+02  0.19672407731E+02 -0.74570006562E+01  0.10097922169E+03  0.98080606765E+02 0.  0.
         13    1    3    3    0    0 -0.21986019135E+02  0.62877662868E+01 -0.50110955894E+02  0.55082121482E+02  0.10566000000E+00 0. -1.
         22    1    1    0    0    0  0.11592553892E+02 -0.19672407731E+02  0.74570006562E+01  0.24020778306E+02  0.00000000000E+00 0. -1.
</event>
<event>
 5    1  0.1267644E-004  0.9118800E+02  0.7818608E-02  0.1130116E+00
         25   -1    0    0    0    0  0.00000000000E+00  0.00000000000E+00  0.99999998245E-14  0.12500000000E+03  0.12500000000E+03 0.  0.
        -13    1    3    3    0    0 -0.24154148344E+02 -0.11236940053E+02  0.44628532647E+02  0.51975078588E+02  0.10566000000E+00 0.  1.
         23    2    1    0    0    0 -0.27444749364E+02 -0.10136768673E+02  0.10161138135E+01  0.95725423418E+02  0.91139211400E+02 0.  0.
         13    1    3    3    0    0 -0.32906010199E+01  0.11001713808E+01 -0.43612418834E+02  0.43750344830E+02  0.10566000000E+00 0. -1.
         22    1    1    0    0    0  0.27444749364E+02  0.10136768673E+02 -0.10161138135E+01  0.29274576582E+02  0.00000000000E+00 0. -1.
</event>
<event>
 5    1  0.1267644E-004  0.9118800E+02  0.7818608E-02  0.1130116E+00
         25   -1    0    0    0    0  0.00000000000E+00  0.00000000000E+00  0.99999998245E-14  0.12500000000E+03  0.12500000000E+03 0.  0.
        -13    1    3    3    0    0 -0.26245006444E+02  0.25129895949E+02 -0.21970250808E+02  0.42461925512E+02  0.10566000000E+00 0.  1.
         23    2    1    0    0    0 -0.18741184032E+02 -0.72683356001E+01  0.20423859954E+02  0.96343504458E+02  0.91983020794E+02 0.  0.
         13    1    3    3    0    0  0.75038224113E+01 -0.32398231549E+02  0.42394110762E+02  0.53881578945E+02  0.10566000000E+00 0. -1.
         22    1    1    0    0    0  0.18741184032E+02  0.72683356001E+01 -0.20423859954E+02  0.28656495542E+02  0.00000000000E+00 0.  1.
</event>
<event>
 5    1  0.1267644E-004  0.9118800E+02  0.7818608E-02  0.1130116E+00
         25   -1    0    0    0    0  0.00000000000E+00  0.00000000000E+00  0.99999998245E-14  0.12500000000E+03  0.12500000000E+03 0.  0.
        -13    1    3    3    0    0 -0.21736493002E+02 -0.41471913225E+01  0.27199470623E+02  0.35064179587E+02  0.10566000000E+00 0. -1.
         23    2    1    0    0    0  0.27825650783E+02  0.12399765911E+02 -0.11577164468E+01  0.94514571620E+02  0.89463081240E+02 0.  0.
         13    1    3    3    0    0  0.49562143785E+02  0.16546957233E+02 -0.28357187070E+02  0.59450392033E+02  0.10566000000E+00 0.  1.
         22    1    1    0    0    0 -0.27825650783E+02 -0.12399765911E+02  0.11577164468E+01  0.30485428380E+02  0.00000000000E+00 0.  1.
</event>
<event>
 5    1  0.1267644E-004  0.9118800E+02  0.7818608E-02  0.1130116E+00
         25   -1    0    0    0    0  0.00000000000E+00  0.00000000000E+00  0.99999998245E-14  0.12500000000E+03  0.12500000000E+03 0.  0.
        -13    1    3    3    0    0  0.30295805783E+02  0.41016374864E+02  0.29395607482E+02  0.58858234414E+02  0.10566000000E+00 0.  1.
         23    2    1    0    0    0  0.17579780590E+02  0.23823565964E+02 -0.22500040719E+00  0.95391528137E+02  0.90680108262E+02 0.  0.
         13    1    3    3    0    0 -0.12716025193E+02 -0.17192808899E+02 -0.29620607889E+02  0.36533293724E+02  0.10566000000E+00 0. -1.
         22    1    1    0    0    0 -0.17579780590E+02 -0.23823565964E+02  0.22500040719E+00  0.29608471863E+02  0.00000000000E+00 0.  1.
</event>
<event>
 5    1  0.1267644E-004  0.9118800E+02  0.7818608E-02  0.1130116E+00
         25   -1    0    0    0    0  0.00000000000E+00  0.00000000000E+00  0.99999998245E-14  0.12500000000E+03  0.12500000000E+03 0.  0.
        -13    1    3    3    0    0 -0.17605630519E+02  0.43721342842E+02 -0.38855274094E+02  0.61084020291E+02  0.10566000000E+00 0.  1.
         23    2    1    0    0    0 -0.17021925387E+02  0.18149907376E+02 -0.15762059398E+02  0.95544820522E+02  0.90891171906E+02 0.  0.
         13    1    3    3    0    0  0.58370513172E+00 -0.25571435466E+02  0.23093214697E+02  0.34460800231E+02  0.10566000000E+00 0. -1.
         22    1    1    0    0    0  0.17021925387E+02 -0.18149907376E+02  0.15762059398E+02  0.29455179478E+02  0.00000000000E+00 0.  1.
</event>
<event>
 5    1  0.1267644E-004  0.9118800E+02  0.7818608E-02  0.1130116E+00
         25   -1    0    0    0    0  0.00000000000E+00  0.00000000000E+00  0.99999998245E-14  0.12500000000E+03  0.12500000000E+03 0.  0.
        -13    1    3    3    0    0 -0.23652158917E+02  0.37925489062E+02  0.17607305306E+02  0.48039522335E+02  0.10566000000E+00 0.  1.
         23    2    1    0    0    0  0.20065310129E+02  0.13907734875E+02  0.10499448540E+02  0.98424067663E+02  0.94768227353E+02 0.  0.
         13    1    3    3    0    0  0.43717469046E+02 -0.24017754187E+02 -0.71078567658E+01  0.50384545327E+02  0.10566000000E+00 0. -1.
         22    1    1    0    0    0 -0.20065310129E+02 -0.13907734875E+02 -0.10499448540E+02  0.26575932337E+02  0.00000000000E+00 0. -1.
</event>
<event>
 5    1  0.1267644E-004  0.9118800E+02  0.7818608E-02  0.1130116E+00
         25   -1    0    0    0    0  0.00000000000E+00  0.00000000000E+00  0.99999998245E-14  0.12500000000E+03  0.12500000000E+03 0.  0.
        -13    1    3    3    0    0  0.17153302719E+02 -0.57201513053E+02 -0.78006322893E+01  0.60225492259E+02  0.10566000000E+00 0.  1.
         23    2    1    0    0    0  0.11023407733E+02 -0.22738837118E+02 -0.14501317995E+02  0.95864824436E+02  0.91330203707E+02 0.  0.
         13    1    3    3    0    0 -0.61298949855E+01  0.34462675935E+02 -0.67006857057E+01  0.35639332178E+02  0.10566000000E+00 0. -1.
         22    1    1    0    0    0 -0.11023407733E+02  0.22738837118E+02  0.14501317995E+02  0.29135175564E+02  0.00000000000E+00 0.  1.
</event>
<event>
 5    1  0.1267644E-004  0.9118800E+02  0.7818608E-02  0.1130116E+00
         25   -1    0    0    0    0  0.00000000000E+00  0.00000000000E+00  0.99999998245E-14  0.12500000000E+03  0.12500000000E+03 0.  0.
        -13    1    3    3    0    0 -0.26439734085E+02 -0.23050318828E+02 -0.27825413852E+02  0.44773223657E+02  0.10566000000E+00 0. -1.
         23    2    1    0    0    0  0.19425632496E+01  0.16441877275E+02 -0.26897558465E+02  0.93415390906E+02  0.87913865382E+02 0.  0.
         13    1    3    3    0    0  0.28382297335E+02  0.39492196102E+02  0.92785538783E+00  0.48642167249E+02  0.10566000000E+00 0.  1.
         22    1    1    0    0    0 -0.19425632496E+01 -0.16441877275E+02  0.26897558465E+02  0.31584609094E+02  0.00000000000E+00 0. -1.
</event>
<event>
 5    1  0.1267644E-004  0.9118800E+02  0.7818608E-02  0.1130116E+00
         25   -1    0    0    0    0  0.00000000000E+00  0.00000000000E+00  0.99999998245E-14  0.12500000000E+03  0.12500000000E+03 0.  0.
        -13    1    3    3    0    0  0.25507227481E+02  0.28143345509E+02  0.44852655694E+02  0.58774470963E+02  0.10566000000E+00 0. -1.
         23    2    1    0    0    0  0.13911854368E+02  0.43184282945E+00  0.29210659773E+02  0.92642793313E+02  0.86808400102E+02 0.  0.
         13    1    3    3    0    0 -0.11595373112E+02 -0.27711502679E+02 -0.15641995921E+02  0.33868322350E+02  0.10566000000E+00 0.  1.
         22    1    1    0    0    0 -0.13911854368E+02 -0.43184282945E+00 -0.29210659773E+02  0.32357206687E+02  0.00000000000E+00 0. -1.
</event>
<event>
 5    1  0.1267644E-004  0.9118800E+02  0.7818608E-02  0.1130116E+00
         25   -1    0    0    0    0  0.00000000000E+00  0.00000000000E+00  0.99999998245E-14  0.12500000000E+03  0.12500000000E+03 0.  0.
        -13    1    3    3    0    0  0.35532615024E+02  0.23921753508E+02 -0.39936923835E+02  0.58564375441E+02  0.10566000000E+00 0.  1.
         23    2    1    0    0    0  0.15583513221E+02  0.23155571054E+02 -0.84663670475E+01  0.95833139934E+02  0.91286828094E+02 0.  0.
         13    1    3    3    0    0 -0.19949101803E+02 -0.76618245488E+00  0.31470556787E+02  0.37268764493E+02  0.10566000000E+00 0. -1.
         22    1    1    0    0    0 -0.15583513221E+02 -0.23155571054E+02  0.84663670475E+01  0.29166860066E+02  0.00000000000E+00 0.  1.
</event>
<event>
 5    1  0.1267644E-004  0.9118800E+02  0.7818608E-02  0.1130116E+00
         25   -1    0    0    0    0  0.00000000000E+00  0.00000000000E+00  0.99999998245E-14  0.12500000000E+03  0.12500000000E+03 0.  0.
        -13    1    3    3    0    0  0.38998757878E+02  0.81340008001E+01 -0.18628200677E+02  0.43978245868E+02  0.10566000000E+00 0. -1.
         23    2    1    0    0    0 -0.10637616585E+02  0.24381542177E+02 -0.53803202203E+01  0.97860244451E+02  0.94021599183E+02 0.  0.
         13    1    3    3    0    0 -0.49636374464E+02  0.16247541377E+02  0.13247880457E+02  0.53881998584E+02  0.10566000000E+00 0.  1.
         22    1    1    0    0    0  0.10637616585E+02 -0.24381542177E+02  0.53803202203E+01  0.27139755549E+02  0.00000000000E+00 0.  1.
</event>
<event>
 5    1  0.1267644E-004  0.9118800E+02  0.7818608E-02  0.1130116E+00
         25   -1    0    0    0    0  0.00000000000E+00  0.00000000000E+00  0.99999998245E-14  0.12500000000E+03  0.12500000000E+03 0.  0.
        -13    1    3    3    0    0 -0.16670279775E+02  0.44231251790E+02 -0.20288140911E+02  0.51438523388E+02  0.10566000000E+00 0. -1.
         23    2    1    0    0    0  0.15991220356E+02  0.29280119859E+02 -0.24420566014E+01  0.91548420248E+02  0.85217985555E+02 0.  0.
         13    1    3    3    0    0  0.32661500132E+02 -0.14951131931E+02  0.17846084310E+02  0.40109896860E+02  0.10566000000E+00 0.  1.
         22    1    1    0    0    0 -0.15991220356E+02 -0.29280119859E+02  0.24420566014E+01  0.33451579752E+02  0.00000000000E+00 0. -1.
</event>
<event>
 5    1  0.1267644E-004  0.9118800E+02  0.7818608E-02  0.1130116E+00
         25   -1    0    0    0    0  0.00000000000E+00  0.00000000000E+00  0.99999998245E-14  0.12500000000E+03  0.12500000000E+03 0.  0.
        -13    1    3    3    0    0 -0.33402648196E+02  0.17772507448E+02  0.13171068372E+02  0.40063538705E+02  0.10566000000E+00 0.  1.
         23    2    1    0    0    0  0.10504346274E+01 -0.23620540063E+02  0.19583056812E+02  0.94299357664E+02  0.89161871985E+02 0.  0.
         13    1    3    3    0    0  0.34453082824E+02 -0.41393047511E+02  0.64119884402E+01  0.54235818958E+02  0.10566000000E+00 0. -1.
         22    1    1    0    0    0 -0.10504346274E+01  0.23620540063E+02 -0.19583056812E+02  0.30700642336E+02  0.00000000000E+00 0.  1.
</event>
<event>
 5    1  0.1267644E-004  0.9118800E+02  0.7818608E-02  0.1130116E+00
         25   -1    0    0    0    0  0.00000000000E+00  0.00000000000E+00  0.99999998245E-14  0.12500000000E+03  0.12500000000E+03 0.  0.
        -13    1    3    3    0    0  0.43926142569E+02 -0.28757181259E+00 -0.72539264887E+01  0.44522121604E+02  0.10566000000E+00 0.  1.
         23    2    1    0    0    0 -0.34446387648E+01  0.51881730277E+01  0.23117137225E+02  0.10105872374E+03  0.98181876813E+02 0.  0.
         13    1    3    3    0    0 -0.47370781334E+02  0.54757448403E+01  0.30371063713E+02  0.56536602134E+02  0.10566000000E+00 0. -1.
         22    1    1    0    0    0  0.34446387648E+01 -0.51881730277E+01 -0.23117137225E+02  0.23941276262E+02  0.00000000000E+00 0. -1.
</event>
<event>
 5    1  0.1267644E-004  0.9118800E+02  0.7818608E-02  0.1130116E+00
         25   -1    0    0    0    0  0.00000000000E+00  0.00000000000E+00  0.99999998245E-14  0.12500000000E+03  0.12500000000E+03 0.  0.
        -13    1    3    3    0    0  0.25354995985E+01 -0.43919552962E+01 -0.31940014873E+02  0.32340280513E+02  0.10566000000E+00 0.  1.
         23    2    1    0    0    0 -0.59295101230E+01  0.15917205687E+01  0.29611514687E+02  0.94758729082E+02  0.89803576045E+02 0.  0.
         13    1    3    3    0    0 -0.84650097215E+01  0.59836758648E+01  0.61551529561E+02  0.62418448569E+02  0.10566000000E+00 0. -1.
         22    1    1    0    0    0  0.59295101230E+01 -0.15917205687E+01 -0.29611514687E+02  0.30241270918E+02  0.00000000000E+00 0. -1.
</event>
<event>
 5    1  0.1267644E-004  0.9118800E+02  0.7818608E-02  0.1130116E+00
         25   -1    0    0    0    0  0.00000000000E+00  0.00000000000E+00  0.99999998245E-14  0.12500000000E+03  0.12500000000E+03 0.  0.
        -13    1    3    3    0    0 -0.24888895913E+02  0.30062320313E+02  0.19839070191E+02  0.43781275820E+02  0.10566000000E+00 0. -1.
         23    2    1    0    0    0 -0.20640725075E+02 -0.45258529054E+01 -0.19437365044E+02  0.96288782054E+02  0.91908625892E+02 0.  0.
         13    1    3    3    0    0  0.42481708385E+01 -0.34588173219E+02 -0.39276435235E+02  0.52507506233E+02  0.10566000000E+00 0.  1.
         22    1    1    0    0    0  0.20640725075E+02  0.45258529054E+01  0.19437365044E+02  0.28711217946E+02  0.00000000000E+00 0. -1.
</event>
<event>
 5    1  0.1267644E-004  0.9118800E+02  0.7818608E-02  0.1130116E+00
         25   -1    0    0    0    0  0.00000000000E+00  0.00000000000E+00  0.99999998245E-14  0.12500000000E+03  0.12500000000E+03 0.  0.
        -13    1    3    3    0    0 -0.17270316736E+02  0.42581253575E+01 -0.54017535055E+02  0.56870912857E+02  0.10566000000E+00 0. -1.
         23    2    1    0    0    0  0.80318408393E+01  0.12060118836E+02 -0.24601207654E+02  0.96448706655E+02  0.92125874019E+02 0.  0.
         13    1    3    3    0    0  0.25302157576E+02  0.78019934783E+01  0.29416327400E+02  0.39577793799E+02  0.10566000000E+00 0.  1.
         22    1    1    0    0    0 -0.80318408393E+01 -0.12060118836E+02  0.24601207654E+02  0.28551293345E+02  0.00000000000E+00 0. -1.
</event>
<event>
 5    1  0.1267644E-004  0.9118800E+02  0.7818608E-02  0.1130116E+00
         25   -1    0    0    0    0  0.00000000000E+00  0.00000000000E+00  0.99999998245E-14  0.12500000000E+03  0.12500000000E+03 0.  0.
        -13    1    3    3    0    0  0.27860971226E+02 -0.30490973516E+02 -0.21252346691E+02  0.46450044000E+02  0.10566000000E+00 0.  1.
         23    2    1    0    0    0 -0.13247376924E+02 -0.22672535946E+02  0.80498342078E+01  0.97534809078E+02  0.93587938697E+02 0.  0.
         13    1    3    3    0    0 -0.41108348150E+02  0.78184375700E+01  0.29302180899E+02  0.51084765078E+02  0.10566000000E+00 0. -1.
         22    1    1    0    0    0  0.13247376924E+02  0.22672535946E+02 -0.80498342078E+01  0.27465190922E+02  0.00000000000E+00 0. -1.
</event>
<event>
 5    1  0.1267644E-004  0.9118800E+02  0.7818608E-02  0.1130116E+00
         25   -1    0    0    0    0  0.00000000000E+00  0.00000000000E+00  0.99999998245E-14  0.12500000000E+03  0.12500000000E+03 0.  0.
        -13    1    3    3    0    0 -0.43039867482E+02 -0.41085198361E+02 -0.11251892662E+02  0.60556089452E+02  0.10566000000E+00 0.  1.
         23    2    1    0    0    0 -0.27575969714E+02 -0.11226019361E+02 -0.39520336293E+01  0.94965416831E+02  0.90090810895E+02 0.  0.
         13    1    3    3    0    0  0.15463897768E+02  0.29859179000E+02  0.72998590326E+01  0.34409327379E+02  0.10566000000E+00 0. -1.
         22    1    1    0    0    0  0.27575969714E+02  0.11226019361E+02  0.39520336293E+01  0.30034583169E+02  0.00000000000E+00 0.  1.
</event>
<event>
 5    1  0.1267644E-004  0.9118800E+02  0.7818608E-02  0.1130116E+00
         25   -1    0    0    0    0  0.00000000000E+00  0.00000000000E+00  0.99999998245E-14  0.12500000000E+03  0.12500000000E+03 0.  0.
        -13    1    3    3    0    0 -0.98239157408E+01 -0.23087093530E+02  0.23191238774E+02  0.34166766427E+02  0.10566000000E+00 0.  1.
         23    2    1    0    0    0  0.39230707607E+01  0.30124925392E+02 -0.18552921275E+01  0.94564104696E+02  0.89532263313E+02 0.  0.
         13    1    3    3    0    0  0.13746986501E+02  0.53212018923E+02 -0.25046530902E+02  0.60397338269E+02  0.10566000000E+00 0. -1.
         22    1    1    0    0    0 -0.39230707607E+01 -0.30124925392E+02  0.18552921275E+01  0.30435895304E+02  0.00000000000E+00 0. -1.
</event>
<event>
 5    1  0.1267644E-004  0.9118800E+02  0.7818608E-02  0.1130116E+00
         25   -1    0    0    0    0  0.00000000000E+00  0.00000000000E+00  0.99999998245E-14  0.12500000000E+03  0.12500000000E+03 0.  0.
        -13    1    3    3    0    0 -0.15975115335E+02 -0.34749910283E+02  0.23937067681E+02  0.45119341172E+02  0.10566000000E+00 0.  1.
         23    2    1    0    0    0  0.70615838699E+01  0.99646166423E+01  0.26849209265E+02  0.95503566492E+02  0.90834418713E+02 0.  0.
         13    1    3    3    0    0  0.23036699205E+02  0.44714526925E+02  0.29121415837E+01  0.50384225319E+02  0.10566000000E+00 0. -1.
         22    1    1    0    0    0 -0.70615838699E+01 -0.99646166423E+01 -0.26849209265E+02  0.29496433508E+02  0.00000000000E+00 0. -1.
</event>
<event>
 5    1  0.1267644E-004  0.9118800E+02  0.7818608E-02  0.1130116E+00
         25   -1    0    0    0    0  0.00000000000E+00  0.00000000000E+00  0.99999998245E-14  0.12500000000E+03  0.12500000000E+03 0.  0.
        -13    1    3    3    0    0  0.23211667287E+02  0.45551060586E+00 -0.24352850511E+02  0.33646121324E+02  0.10566000000E+00 0.  1.
         23    2    1    0    0    0 -0.18774465568E+02 -0.64227318493E+01  0.21189683296E+02  0.95970106442E+02  0.91474185487E+02 0.  0.
         13    1    3    3    0    0 -0.41986132854E+02 -0.68782424551E+01  0.45542533807E+02  0.62323985118E+02  0.10566000000E+00 0. -1.
         22    1    1    0    0    0  0.18774465568E+02  0.64227318493E+01 -0.21189683296E+02  0.29029893558E+02  0.00000000000E+00 0. -1.
</event>
<event>
 5    1  0.1267644E-004  0.9118800E+02  0.7818608E-02  0.1130116E+00
         25   -1    0    0    0    0  0.00000000000E+00  0.00000000000E+00  0.99999998245E-14  0.12500000000E+03  0.12500000000E+03 0.  0.
        -13    1    3    3    0    0 -0.50501965952E+01  0.10858142404E+02  0.60421345611E+02  0.61596703740E+02  0.10566000000E+00 0. -1.
         23    2    1    0    0    0  0.51191098604E+01  0.54447324026E+01  0.28611088225E+02  0.95428987740E+02  0.90731730585E+02 0.  0.
         13    1    3    3    0    0  0.10169306456E+02 -0.54134100011E+01 -0.31810257386E+02  0.33832284000E+02  0.10566000000E+00 0.  1.
         22    1    1    0    0    0 -0.51191098604E+01 -0.54447324026E+01 -0.28611088225E+02  0.29571012260E+02  0.00000000000E+00 0. -1.
</event>
<event>
 5    1  0.1267644E-004  0.9118800E+02  0.7818608E-02  0.1130116E+00
         25   -1    0    0    0    0  0.00000000000E+00  0.00000000000E+00  0.99999998245E-14  0.12500000000E+03  0.12500000000E+03 0.  0.
        -13    1    3    3    0    0 -0.17226605016E+01 -0.47271736191E+02  0.94657659994E+01  0.48241024986E+02  0.10566000000E+00 0.  1.
         23    2    1    0    0    0 -0.23787512703E+02 -0.16112046454E+02 -0.13982677910E+02  0.93047549655E+02  0.87389286608E+02 0.  0.
         13    1    3    3    0    0 -0.22064852201E+02  0.31159689737E+02 -0.23448443909E+02  0.44806524669E+02  0.10566000000E+00 0. -1.
         22    1    1    0    0    0  0.23787512703E+02  0.16112046454E+02  0.13982677910E+02  0.31952450345E+02  0.00000000000E+00 0. -1.
</event>
<event>
 5    1  0.1267644E-004  0.9118800E+02  0.7818608E-02  0.1130116E+00
         25   -1    0    0    0    0  0.00000000000E+00  0.00000000000E+00  0.99999998245E-14  0.12500000000E+03  0.12500000000E+03 0.  0.
        -13    1    3    3    0    0  0.86159802919E+01 -0.56192938786E+02 -0.45753126944E+01  0.57033552722E+02  0.10566000000E+00 0. -1.
         23    2    1    0    0    0  0.15581190451E+02 -0.18962797223E+02 -0.14895346121E+02  0.96290550154E+02  0.91911030559E+02 0.  0.
         13    1    3    3    0    0  0.69652101592E+01  0.37230141563E+02 -0.10320033427E+02  0.39256997431E+02  0.10566000000E+00 0.  1.
         22    1    1    0    0    0 -0.15581190451E+02  0.18962797223E+02  0.14895346121E+02  0.28709449846E+02  0.00000000000E+00 0. -1.
</event>
<event>
 5    1  0.1267644E-004  0.9118800E+02  0.7818608E-02  0.1130116E+00
         25   -1    0    0    0    0  0.00000000000E+00  0.00000000000E+00  0.99999998245E-14  0.12500000000E+03  0.12500000000E+03 0.  0.
        -13    1    3    3    0    0  0.28576202500E+02 -0.18123698267E+02 -0.24964015541E+02  0.42050933689E+02  0.10566000000E+00 0. -1.
         23    2    1    0    0    0  0.41541148658E+01 -0.19982916398E+02  0.21982897532E+02  0.95002976781E+02  0.90142909845E+02 0.  0.
         13    1    3    3    0    0 -0.24422087634E+02 -0.18592181315E+01  0.46946913073E+02  0.52952043092E+02  0.10566000000E+00 0.  1.
         22    1    1    0    0    0 -0.41541148658E+01  0.19982916398E+02 -0.21982897532E+02  0.29997023219E+02  0.00000000000E+00 0. -1.
</event>
<event>
 5    1  0.1267644E-004  0.9118800E+02  0.7818608E-02  0.1130116E+00
         25   -1    0    0    0    0  0.00000000000E+00  0.00000000000E+00  0.99999998245E-14  0.12500000000E+03  0.12500000000E+03 0.  0.
        -13    1    3    3    0    0  0.21953272105E+02 -0.42019349263E+01  0.42752616420E+02  0.48243132030E+02  0.10566000000E+00 0. -1.
         23    2    1    0    0    0  0.23550302203E+02 -0.16085367042E+02 -0.37211695610E+01  0.96238865293E+02  0.91840711687E+02 0.  0.
         13    1    3    3    0    0  0.15970300981E+01 -0.11883432116E+02 -0.46473785981E+02  0.47995733263E+02  0.10566000000E+00 0.  1.
         22    1    1    0    0    0 -0.23550302203E+02  0.16085367042E+02  0.37211695610E+01  0.28761134707E+02  0.00000000000E+00 0.  1.
</event>
<event>
 5    1  0.1267644E-004  0.9118800E+02  0.7818608E-02  0.1130116E+00
         25   -1    0    0    0    0  0.00000000000E+00  0.00000000000E+00  0.99999998245E-14  0.12500000000E+03  0.12500000000E+03 0.  0.
        -13    1    3    3    0    0 -0.17912678295E+02  0.90459375243E+01  0.30961184136E+02  0.36895787247E+02  0.10566000000E+00 0.  1.
         23    2    1    0    0    0  0.20661196933E+02 -0.17650832769E+02 -0.66511756756E+01  0.97023669039E+02  0.92902730099E+02 0.  0.
         13    1    3    3    0    0  0.38573875228E+02 -0.26696770293E+02 -0.37612359812E+02  0.60127881793E+02  0.10566000000E+00 0. -1.
         22    1    1    0    0    0 -0.20661196933E+02  0.17650832769E+02  0.66511756756E+01  0.27976330961E+02  0.00000000000E+00 0. -1.
</event>
<event>
 5    1  0.1267644E-004  0.9118800E+02  0.7818608E-02  0.1130116E+00
         25   -1    0    0    0    0  0.00000000000E+00  0.00000000000E+00  0.99999998245E-14  0.12500000000E+03  0.12500000000E+03 0.  0.
        -13    1    3    3    0    0 -0.82335369751E-01  0.35049763266E+02  0.87263941658E+01  0.36119991740E+02  0.10566000000E+00 0. -1.
         23    2    1    0    0    0 -0.19402854694E+01 -0.84824697817E+01 -0.29598725013E+02  0.94148719253E+02  0.88950434588E+02 0.  0.
         13    1    3    3    0    0 -0.18579500997E+01 -0.43532233048E+02 -0.38325119179E+02  0.58028727513E+02  0.10566000000E+00 0.  1.
         22    1    1    0    0    0  0.19402854694E+01  0.84824697817E+01  0.29598725013E+02  0.30851280747E+02  0.00000000000E+00 0.  1.
</event>
<event>
 5    1  0.1267644E-004  0.9118800E+02  0.7818608E-02  0.1130116E+00
         25   -1    0    0    0    0  0.00000000000E+00  0.00000000000E+00  0.99999998245E-14  0.12500000000E+03  0.12500000000E+03 0.  0.
        -13    1    3    3    0    0  0.17799149512E+02 -0.34850355630E+02 -0.26431078443E+01  0.39221858625E+02  0.10566000000E+00 0. -1.
         23    2    1    0    0    0  0.21294410245E+02  0.18458039983E+02  0.11622430645E+02  0.94516692407E+02  0.89466044406E+02 0.  0.
         13    1    3    3    0    0  0.34952607338E+01  0.53308395614E+02  0.14265538489E+02  0.55294833782E+02  0.10566000000E+00 0.  1.
         22    1    1    0    0    0 -0.21294410245E+02 -0.18458039983E+02 -0.11622430645E+02  0.30483307593E+02  0.00000000000E+00 0.  1.
</event>
<event>
 5    1  0.1267644E-004  0.9118800E+02  0.7818608E-02  0.1130116E+00
         25   -1    0    0    0    0  0.00000000000E+00  0.00000000000E+00  0.99999998245E-14  0.12500000000E+03  0.12500000000E+03 0.  0.
        -13    1    3    3    0    0  0.44398395371E+02  0.23916484250E+02 -0.31470330926E+02  0.59444163911E+02  0.10566000000E+00 0. -1.
         23    2    1    0    0    0  0.26267267610E+02 -0.95764907024E+00 -0.10468903206E+02  0.96707167449E+02  0.92475898818E+02 0.  0.
         13    1    3    3    0    0 -0.18131127762E+02 -0.24874133320E+02  0.21001427720E+02  0.37263003538E+02  0.10566000000E+00 0.  1.
         22    1    1    0    0    0 -0.26267267610E+02  0.95764907024E+00  0.10468903206E+02  0.28292832551E+02  0.00000000000E+00 0. -1.
</event>
<event>
 5    1  0.1267644E-004  0.9118800E+02  0.7818608E-02  0.1130116E+00
         25   -1    0    0    0    0  0.00000000000E+00  0.00000000000E+00  0.99999998245E-14  0.12500000000E+03  0.12500000000E+03 0.  0.
        -13    1    3    3    0    0  0.24214988979E+02  0.32915712670E+02  0.14099755726E+02  0.43227585029E+02  0.10566000000E+00 0. -1.
         23    2    1    0    0    0 -0.18628962616E+02  0.17577722722E+02 -0.13087555944E+02  0.96237199287E+02  0.91838444139E+02 0.  0.
         13    1    3    3    0    0 -0.42843951595E+02 -0.15337989949E+02 -0.27187311670E+02  0.53009614259E+02  0.10566000000E+00 0.  1.
         22    1    1    0    0    0  0.18628962616E+02 -0.17577722722E+02  0.13087555944E+02  0.28762800713E+02  0.00000000000E+00 0.  1.
</event>
<event>
 5    1  0.1267644E-004  0.9118800E+02  0.7818608E-02  0.1130116E+00
         25   -1    0    0    0    0  0.00000000000E+00  0.00000000000E+00  0.99999998245E-14  0.12500000000E+03  0.12500000000E+03 0.  0.
        -13    1    3    3    0    0  0.15494093919E+02  0.22861258985E+02 -0.44194808100E+02  0.52114262306E+02  0.10566000000E+00 0.  1.
         23    2    1    0    0    0 -0.77818157284E+00  0.11406645809E+02  0.99771384040E+01  0.10982566555E+03  0.10877231444E+03 0.  0.
         13    1    3    3    0    0 -0.16272275492E+02 -0.11454613177E+02  0.54171946504E+02  0.57711403247E+02  0.10566000000E+00 0. -1.
         22    1    1    0    0    0  0.77818157284E+00 -0.11406645809E+02 -0.99771384040E+01  0.15174334447E+02  0.00000000000E+00 0. -1.
</event>
<event>
 5    1  0.1267644E-004  0.9118800E+02  0.7818608E-02  0.1130116E+00
         25   -1    0    0    0    0  0.00000000000E+00  0.00000000000E+00  0.99999998245E-14  0.12500000000E+03  0.12500000000E+03 0.  0.
        -13    1    3    3    0    0  0.63672667330E+01  0.21955231620E+02  0.34438320543E+02  0.41335013814E+02  0.10566000000E+00 0. -1.
         23    2    1    0    0    0 -0.28400901916E+02  0.10149361599E+02 -0.40974450433E+01  0.94563018770E+02  0.89530747190E+02 0.  0.
         13    1    3    3    0    0 -0.34768168649E+02 -0.11805870021E+02 -0.38535765586E+02  0.53228004956E+02  0.10566000000E+00 0.  1.
         22    1    1    0    0    0  0.28400901916E+02 -0.10149361599E+02  0.40974450433E+01  0.30436981230E+02  0.00000000000E+00 0. -1.
</event>
<event>
 5    1  0.1267644E-004  0.9118800E+02  0.7818608E-02  0.1130116E+00
         25   -1    0    0    0    0  0.00000000000E+00  0.00000000000E+00  0.99999998245E-14  0.12500000000E+03  0.12500000000E+03 0.  0.
        -13    1    3    3    0    0  0.38721090880E+02  0.25001160662E+02 -0.10020055523E+01  0.46102018313E+02  0.10566000000E+00 0.  1.
         23    2    1    0    0    0 -0.45333629405E+01  0.16634022183E+02 -0.23724236995E+02  0.95672853966E+02  0.91067082370E+02 0.  0.
         13    1    3    3    0    0 -0.43254453820E+02 -0.83671384784E+01 -0.22722231442E+02  0.49570835653E+02  0.10566000000E+00 0. -1.
         22    1    1    0    0    0  0.45333629405E+01 -0.16634022183E+02  0.23724236995E+02  0.29327146034E+02  0.00000000000E+00 0.  1.
</event>
<event>
 5    1  0.1267644E-004  0.9118800E+02  0.7818608E-02  0.1130116E+00
         25   -1    0    0    0    0  0.00000000000E+00  0.00000000000E+00  0.99999998245E-14  0.12500000000E+03  0.12500000000E+03 0.  0.
        -13    1    3    3    0    0  0.29958985876E+01 -0.37881224662E+01 -0.37054517617E+02  0.37368084243E+02  0.10566000000E+00 0.  1.
         23    2    1    0    0    0 -0.27744349229E+01 -0.26034985692E+02  0.15391265570E+02  0.94628812585E+02  0.89622559361E+02 0.  0.
         13    1    3    3    0    0 -0.57703335105E+01 -0.22246863226E+02  0.52445783186E+02  0.57260728342E+02  0.10566000000E+00 0. -1.
         22    1    1    0    0    0  0.27744349229E+01  0.26034985692E+02 -0.15391265570E+02  0.30371187415E+02  0.00000000000E+00 0. -1.
</event>
<event>
 5    1  0.1267644E-004  0.9118800E+02  0.7818608E-02  0.1130116E+00
         25   -1    0    0    0    0  0.00000000000E+00  0.00000000000E+00  0.99999998245E-14  0.12500000000E+03  0.12500000000E+03 0.  0.
        -13    1    3    3    0    0 -0.29639026662E+02 -0.23565121443E+02 -0.76650315002E+01  0.38633544000E+02  0.10566000000E+00 0. -1.
         23    2    1    0    0    0  0.16866767475E+02  0.54939682141E+01 -0.23354897234E+02  0.95672150494E+02  0.91066116770E+02 0.  0.
         13    1    3    3    0    0  0.46505794137E+02  0.29059089657E+02 -0.15689865734E+02  0.57038606494E+02  0.10566000000E+00 0.  1.
         22    1    1    0    0    0 -0.16866767475E+02 -0.54939682141E+01  0.23354897234E+02  0.29327849506E+02  0.00000000000E+00 0.  1.
</event>
<event>
 5    1  0.1267644E-004  0.9118800E+02  0.7818608E-02  0.1130116E+00
         25   -1    0    0    0    0  0.00000000000E+00  0.00000000000E+00  0.99999998245E-14  0.12500000000E+03  0.12500000000E+03 0.  0.
        -13    1    3    3    0    0 -0.66164785751E+01  0.55832790616E+02 -0.21593317949E+02  0.60227575419E+02  0.10566000000E+00 0.  1.
         23    2    1    0    0    0 -0.15342438857E+01  0.20565898272E+02 -0.20567732115E+02  0.95873694358E+02  0.91342342807E+02 0.  0.
         13    1    3    3    0    0  0.50822346894E+01 -0.35266892344E+02  0.10255858345E+01  0.35646118939E+02  0.10566000000E+00 0. -1.
         22    1    1    0    0    0  0.15342438857E+01 -0.20565898272E+02  0.20567732115E+02  0.29126305642E+02  0.00000000000E+00 0.  1.
</event>
<event>
 5    1  0.1267644E-004  0.9118800E+02  0.7818608E-02  0.1130116E+00
         25   -1    0    0    0    0  0.00000000000E+00  0.00000000000E+00  0.99999998245E-14  0.12500000000E+03  0.12500000000E+03 0.  0.
        -13    1    3    3    0    0  0.20742359202E+02 -0.56285956392E+02  0.63073489644E+01  0.60317063649E+02  0.10566000000E+00 0.  1.
         23    2    1    0    0    0  0.19776168550E+02 -0.28654988370E+02 -0.42763607647E+01  0.89921624006E+02  0.82797379195E+02 0.  0.
         13    1    3    3    0    0 -0.96619065245E+00  0.27630968023E+02 -0.10583709729E+02  0.29604560357E+02  0.10566000000E+00 0. -1.
         22    1    1    0    0    0 -0.19776168550E+02  0.28654988370E+02  0.42763607647E+01  0.35078375994E+02  0.00000000000E+00 0.  1.
</event>
<event>
 5    1  0.1267644E-004  0.9118800E+02  0.7818608E-02  0.1130116E+00
         25   -1    0    0    0    0  0.00000000000E+00  0.00000000000E+00  0.99999998245E-14  0.12500000000E+03  0.12500000000E+03 0.  0.
        -13    1    3    3    0    0 -0.36730233629E+02 -0.39839105328E+02 -0.60218197612E+01  0.54520985437E+02  0.10566000000E+00 0. -1.
         23    2    1    0    0    0 -0.25805487075E+02 -0.66221824919E+01 -0.19487705445E+02  0.91991711228E+02  0.85865754565E+02 0.  0.
         13    1    3    3    0    0  0.10924746555E+02  0.33216922836E+02 -0.13465885684E+02  0.37470725791E+02  0.10566000000E+00 0.  1.
         22    1    1    0    0    0  0.25805487075E+02  0.66221824919E+01  0.19487705445E+02  0.33008288772E+02  0.00000000000E+00 0. -1.
</event>
<event>
 5    1  0.1267644E-004  0.9118800E+02  0.7818608E-02  0.1130116E+00
         25   -1    0    0    0    0  0.00000000000E+00  0.00000000000E+00  0.99999998245E-14  0.12500000000E+03  0.12500000000E+03 0.  0.
        -13    1    3    3    0    0  0.33569340422E+01  0.44390894035E+02  0.23557514920E+02  0.50366538025E+02  0.10566000000E+00 0. -1.
         23    2    1    0    0    0 -0.63570706578E+01  0.22489075275E+01  0.30142737693E+02  0.94112226237E+02  0.88899137000E+02 0.  0.
         13    1    3    3    0    0 -0.97140047000E+01 -0.42141986508E+02  0.65852227730E+01  0.43745688212E+02  0.10566000000E+00 0.  1.
         22    1    1    0    0    0  0.63570706578E+01 -0.22489075275E+01 -0.30142737693E+02  0.30887773763E+02  0.00000000000E+00 0.  1.
</event>
<event>
 5    1  0.1267644E-004  0.9118800E+02  0.7818608E-02  0.1130116E+00
         25   -1    0    0    0    0  0.00000000000E+00  0.00000000000E+00  0.99999998245E-14  0.12500000000E+03  0.12500000000E+03 0.  0.
        -13    1    3    3    0    0  0.24001339245E+02  0.29352215512E+02 -0.44728431365E+02  0.58636682865E+02  0.10566000000E+00 0.  1.
         23    2    1    0    0    0  0.17146069733E+02 -0.47852073977E+00 -0.23582486976E+02  0.95839232154E+02  0.91295169853E+02 0.  0.
         13    1    3    3    0    0 -0.68552695113E+01 -0.29830736252E+02  0.21145944389E+02  0.37202549288E+02  0.10566000000E+00 0. -1.
         22    1    1    0    0    0 -0.17146069733E+02  0.47852073977E+00  0.23582486976E+02  0.29160767846E+02  0.00000000000E+00 0.  1.
</event>
<event>
 5    1  0.1267644E-004  0.9118800E+02  0.7818608E-02  0.1130116E+00
         25   -1    0    0    0    0  0.00000000000E+00  0.00000000000E+00  0.99999998245E-14  0.12500000000E+03  0.12500000000E+03 0.  0.
        -13    1    3    3    0    0 -0.18880083307E+01  0.19350239967E+02  0.35996852739E+02  0.40911867879E+02  0.10566000000E+00 0.  1.
         23    2    1    0    0    0 -0.21992273137E+02  0.11094962534E+02 -0.14870030291E+02  0.96227164335E+02  0.91824784693E+02 0.  0.
         13    1    3    3    0    0 -0.20104264806E+02 -0.82552774329E+01 -0.50866883029E+02  0.55315296456E+02  0.10566000000E+00 0. -1.
         22    1    1    0    0    0  0.21992273137E+02 -0.11094962534E+02  0.14870030291E+02  0.28772835665E+02  0.00000000000E+00 0. -1.
</event>
<event>
 5    1  0.1267644E-004  0.9118800E+02  0.7818608E-02  0.1130116E+00
         25   -1    0    0    0    0  0.00000000000E+00  0.00000000000E+00  0.99999998245E-14  0.12500000000E+03  0.12500000000E+03 0.  0.
        -13    1    3    3    0    0 -0.14107516085E+00  0.14251014260E+02  0.49817622512E+02  0.51816194249E+02  0.10566000000E+00 0. -1.
         23    2    1    0    0    0  0.25234282321E+02  0.10122208215E+02  0.19643978575E+02  0.91457281004E+02  0.85084195072E+02 0.  0.
         13    1    3    3    0    0  0.25375357482E+02 -0.41288060454E+01 -0.30173643937E+02  0.39641086755E+02  0.10566000000E+00 0.  1.
         22    1    1    0    0    0 -0.25234282321E+02 -0.10122208215E+02 -0.19643978575E+02  0.33542718996E+02  0.00000000000E+00 0. -1.
</event>
<event>
 5    1  0.1267644E-004  0.9118800E+02  0.7818608E-02  0.1130116E+00
         25   -1    0    0    0    0  0.00000000000E+00  0.00000000000E+00  0.99999998245E-14  0.12500000000E+03  0.12500000000E+03 0.  0.
        -13    1    3    3    0    0 -0.36845663162E+02  0.50151920309E+01 -0.26438642936E+02  0.45626396409E+02  0.10566000000E+00 0.  1.
         23    2    1    0    0    0  0.86457770149E+01 -0.14302419139E+02 -0.24822080625E+02  0.95076023995E+02  0.90244146618E+02 0.  0.
         13    1    3    3    0    0  0.45491440177E+02 -0.19317611170E+02  0.16165623110E+01  0.49449627586E+02  0.10566000000E+00 0. -1.
         22    1    1    0    0    0 -0.86457770149E+01  0.14302419139E+02  0.24822080625E+02  0.29923976005E+02  0.00000000000E+00 0. -1.
</event>
<event>
 5    1  0.1267644E-004  0.9118800E+02  0.7818608E-02  0.1130116E+00
         25   -1    0    0    0    0  0.00000000000E+00  0.00000000000E+00  0.99999998245E-14  0.12500000000E+03  0.12500000000E+03 0.  0.
        -13    1    3    3    0    0  0.26267805144E+02  0.60543882982E+01  0.32505557372E+02  0.42228848301E+02  0.10566000000E+00 0.  1.
         23    2    1    0    0    0 -0.22810404178E+02  0.12256909270E+02  0.57312833165E+01  0.98478424404E+02  0.94839897201E+02 0.  0.
         13    1    3    3    0    0 -0.49078209322E+02  0.62025209718E+01 -0.26774274055E+02  0.56249576104E+02  0.10566000000E+00 0. -1.
         22    1    1    0    0    0  0.22810404178E+02 -0.12256909270E+02 -0.57312833165E+01  0.26521575596E+02  0.00000000000E+00 0. -1.
</event>
<event>
 5    1  0.1267644E-004  0.9118800E+02  0.7818608E-02  0.1130116E+00
         25   -1    0    0    0    0  0.00000000000E+00  0.00000000000E+00  0.99999998245E-14  0.12500000000E+03  0.12500000000E+03 0.  0.
        -13    1    3    3    0    0 -0.42399340096E+02  0.40611071920E+02  0.11824946726E+02  0.59889930140E+02  0.10566000000E+00 0. -1.
         23    2    1    0    0    0 -0.24773735231E+02  0.14753876450E+02 -0.54805432308E+01  0.95649511389E+02  0.91035036372E+02 0.  0.
         13    1    3    3    0    0  0.17625604864E+02 -0.25857195470E+02 -0.17305489957E+02  0.35759581249E+02  0.10566000000E+00 0.  1.
         22    1    1    0    0    0  0.24773735231E+02 -0.14753876450E+02  0.54805432308E+01  0.29350488611E+02  0.00000000000E+00 0. -1.
</event>
<event>
 5    1  0.1267644E-004  0.9118800E+02  0.7818608E-02  0.1130116E+00
         25   -1    0    0    0    0  0.00000000000E+00  0.00000000000E+00  0.99999998245E-14  0.12500000000E+03  0.12500000000E+03 0.  0.
        -13    1    3    3    0    0 -0.16015956032E+01  0.32024121526E+02 -0.16269056045E+02  0.35955567255E+02  0.10566000000E+00 0.  1.
         23    2    1    0    0    0 -0.73645814515E+01 -0.27122755684E+02 -0.59599240539E+01  0.96270196127E+02  0.91883344692E+02 0.  0.
         13    1    3    3    0    0 -0.57629858484E+01 -0.59146877210E+02  0.10309131991E+02  0.60314628872E+02  0.10566000000E+00 0. -1.
         22    1    1    0    0    0  0.73645814515E+01  0.27122755684E+02  0.59599240539E+01  0.28729803873E+02  0.00000000000E+00 0. -1.
</event>
<event>
 5    1  0.1267644E-004  0.9118800E+02  0.7818608E-02  0.1130116E+00
         25   -1    0    0    0    0  0.00000000000E+00  0.00000000000E+00  0.99999998245E-14  0.12500000000E+03  0.12500000000E+03 0.  0.
        -13    1    3    3    0    0 -0.40734711756E+00 -0.13097747413E+02 -0.55724068816E+02  0.57244213056E+02  0.10566000000E+00 0. -1.
         23    2    1    0    0    0  0.14733172587E+02 -0.15236360243E+02 -0.21106855287E+02  0.95088256687E+02  0.90261088913E+02 0.  0.
         13    1    3    3    0    0  0.15140519705E+02 -0.21386128295E+01  0.34617213529E+02  0.37844043631E+02  0.10566000000E+00 0.  1.
         22    1    1    0    0    0 -0.14733172587E+02  0.15236360243E+02  0.21106855287E+02  0.29911743313E+02  0.00000000000E+00 0.  1.
</event>
<event>
 5    1  0.1267644E-004  0.9118800E+02  0.7818608E-02  0.1130116E+00
         25   -1    0    0    0    0  0.00000000000E+00  0.00000000000E+00  0.99999998245E-14  0.12500000000E+03  0.12500000000E+03 0.  0.
        -13    1    3    3    0    0 -0.34028592027E+02 -0.11103072169E+02 -0.48417747492E+01  0.36120316079E+02  0.10566000000E+00 0.  1.
         23    2    1    0    0    0  0.13358122195E+02  0.12683311455E+02  0.22617471080E+02  0.95830567094E+02  0.91283305009E+02 0.  0.
         13    1    3    3    0    0  0.47386714222E+02  0.23786383624E+02  0.27459245829E+02  0.59710251014E+02  0.10566000000E+00 0. -1.
         22    1    1    0    0    0 -0.13358122195E+02 -0.12683311455E+02 -0.22617471080E+02  0.29169432906E+02  0.00000000000E+00 0. -1.
</event>
<event>
 5    1  0.1267644E-004  0.9118800E+02  0.7818608E-02  0.1130116E+00
         25   -1    0    0    0    0  0.00000000000E+00  0.00000000000E+00  0.99999998245E-14  0.12500000000E+03  0.12500000000E+03 0.  0.
        -13    1    3    3    0    0 -0.34091951855E+02  0.34513167640E+02  0.23735375779E+02  0.54007399023E+02  0.10566000000E+00 0. -1.
         23    2    1    0    0    0  0.29810725798E+01  0.16606102332E+02  0.24579250681E+02  0.95187435662E+02  0.90398334694E+02 0.  0.
         13    1    3    3    0    0  0.37073024435E+02 -0.17907065308E+02  0.84387490231E+00  0.41180036639E+02  0.10566000000E+00 0.  1.
         22    1    1    0    0    0 -0.29810725798E+01 -0.16606102332E+02 -0.24579250681E+02  0.29812564338E+02  0.00000000000E+00 0. -1.
</event>
<event>
 5    1  0.1267644E-004  0.9118800E+02  0.7818608E-02  0.1130116E+00
         25   -1    0    0    0    0  0.00000000000E+00  0.00000000000E+00  0.99999998245E-14  0.12500000000E+03  0.12500000000E+03 0.  0.
        -13    1    3    3    0    0 -0.48656219243E+01  0.17593042626E+02 -0.33302965024E+02  0.37977467911E+02  0.10566000000E+00 0. -1.
         23    2    1    0    0    0 -0.62237057429E+00  0.16677458290E+02  0.24177570422E+02  0.95621778957E+02  0.90996949065E+02 0.  0.
         13    1    3    3    0    0  0.42432513500E+01 -0.91558433602E+00  0.57480535446E+02  0.57644311045E+02  0.10566000000E+00 0.  1.
         22    1    1    0    0    0  0.62237057429E+00 -0.16677458290E+02 -0.24177570422E+02  0.29378221043E+02  0.00000000000E+00 0.  1.
</event>
<event>
 5    1  0.1267644E-004  0.9118800E+02  0.7818608E-02  0.1130116E+00
         25   -1    0    0    0    0  0.00000000000E+00  0.00000000000E+00  0.99999998245E-14  0.12500000000E+03  0.12500000000E+03 0.  0.
        -13    1    3    3    0    0 -0.42973715088E+02 -0.18522253025E+02  0.16603489273E+02  0.49653812197E+02  0.10566000000E+00 0.  1.
         23    2    1    0    0    0 -0.12112907616E+02 -0.28403990547E+02 -0.10998845750E+02  0.92220680029E+02  0.86198433903E+02 0.  0.
         13    1    3    3    0    0  0.30860807472E+02 -0.98817375224E+01 -0.27602335023E+02  0.42566867832E+02  0.10566000000E+00 0. -1.
         22    1    1    0    0    0  0.12112907616E+02  0.28403990547E+02  0.10998845750E+02  0.32779319971E+02  0.00000000000E+00 0. -1.
</event>
<event>
 5    1  0.1267644E-004  0.9118800E+02  0.7818608E-02  0.1130116E+00
         25   -1    0    0    0    0  0.00000000000E+00  0.00000000000E+00  0.99999998245E-14  0.12500000000E+03  0.12500000000E+03 0.  0.
        -13    1    3    3    0    0 -0.32033820209E+02 -0.32887705142E+02 -0.33862715207E+02  0.57047887182E+02  0.10566000000E+00 0. -1.
         23    2    1    0    0    0 -0.13978640322E+02 -0.26679265357E+02 -0.12305381644E+01  0.94855351894E+02  0.89937967364E+02 0.  0.
         13    1    3    3    0    0  0.18055179887E+02  0.62084397849E+01  0.32632177043E+02  0.37807464712E+02  0.10566000000E+00 0.  1.
         22    1    1    0    0    0  0.13978640322E+02  0.26679265357E+02  0.12305381644E+01  0.30144648106E+02  0.00000000000E+00 0. -1.
</event>
<event>
 5    1  0.1267644E-004  0.9118800E+02  0.7818608E-02  0.1130116E+00
         25   -1    0    0    0    0  0.00000000000E+00  0.00000000000E+00  0.99999998245E-14  0.12500000000E+03  0.12500000000E+03 0.  0.
        -13    1    3    3    0    0  0.35329145000E+01  0.25617184458E+02  0.33716194476E+02  0.42491346865E+02  0.10566000000E+00 0.  1.
         23    2    1    0    0    0 -0.26114150467E+02 -0.10060456870E+02  0.65142744553E+01  0.96266788924E+02  0.91878709346E+02 0.  0.
         13    1    3    3    0    0 -0.29647064967E+02 -0.35677641328E+02 -0.27201920021E+02  0.53775442060E+02  0.10566000000E+00 0. -1.
         22    1    1    0    0    0  0.26114150467E+02  0.10060456870E+02 -0.65142744553E+01  0.28733211076E+02  0.00000000000E+00 0. -1.
</event>
<event>
 5    1  0.1267644E-004  0.9118800E+02  0.7818608E-02  0.1130116E+00
         25   -1    0    0    0    0  0.00000000000E+00  0.00000000000E+00  0.99999998245E-14  0.12500000000E+03  0.12500000000E+03 0.  0.
        -13    1    3    3    0    0  0.45403098375E+02  0.12184128561E+02  0.24951879070E+02  0.53221252935E+02  0.10566000000E+00 0.  1.
         23    2    1    0    0    0  0.16469245356E+02  0.23592287046E+02 -0.42886594557E+01  0.95910059289E+02  0.91392093871E+02 0.  0.
         13    1    3    3    0    0 -0.28933853019E+02  0.11408158485E+02 -0.29240538526E+02  0.42688806353E+02  0.10566000000E+00 0. -1.
         22    1    1    0    0    0 -0.16469245356E+02 -0.23592287046E+02  0.42886594557E+01  0.29089940711E+02  0.00000000000E+00 0.  1.
</event>
<event>
 5    1  0.1267644E-004  0.9118800E+02  0.7818608E-02  0.1130116E+00
         25   -1    0    0    0    0  0.00000000000E+00  0.00000000000E+00  0.99999998245E-14  0.12500000000E+03  0.12500000000E+03 0.  0.
        -13    1    3    3    0    0 -0.33174733466E+01 -0.64307641066E+01  0.48848821369E+02  0.49381969074E+02  0.10566000000E+00 0. -1.
         23    2    1    0    0    0 -0.25619989275E+02  0.65586606214E+01  0.86085659782E+01  0.97188001010E+02  0.93123575170E+02 0.  0.
         13    1    3    3    0    0 -0.22302515929E+02  0.12989424728E+02 -0.40240255391E+02  0.47806031936E+02  0.10566000000E+00 0.  1.
         22    1    1    0    0    0  0.25619989275E+02 -0.65586606214E+01 -0.86085659782E+01  0.27811998990E+02  0.00000000000E+00 0. -1.
</event>
<event>
 5    1  0.1267644E-004  0.9118800E+02  0.7818608E-02  0.1130116E+00
         25   -1    0    0    0    0  0.00000000000E+00  0.00000000000E+00  0.99999998245E-14  0.12500000000E+03  0.12500000000E+03 0.  0.
        -13    1    3    3    0    0 -0.22415960167E+02 -0.27158966003E+02 -0.97127076797E+01  0.36529885834E+02  0.10566000000E+00 0. -1.
         23    2    1    0    0    0 -0.14230286370E+01  0.20591368702E+02  0.19746362361E+02  0.96435191196E+02  0.92107533888E+02 0.  0.
         13    1    3    3    0    0  0.20992931530E+02  0.47750334705E+02  0.29459070041E+02  0.59905305361E+02  0.10566000000E+00 0.  1.
         22    1    1    0    0    0  0.14230286370E+01 -0.20591368702E+02 -0.19746362361E+02  0.28564808804E+02  0.00000000000E+00 0.  1.
</event>
<event>
 5    1  0.1267644E-004  0.9118800E+02  0.7818608E-02  0.1130116E+00
         25   -1    0    0    0    0  0.00000000000E+00  0.00000000000E+00  0.99999998245E-14  0.12500000000E+03  0.12500000000E+03 0.  0.
        -13    1    3    3    0    0 -0.47521966654E+01 -0.41271278242E+02  0.20218357768E+02  0.46202758962E+02  0.10566000000E+00 0.  1.
         23    2    1    0    0    0  0.13582089598E+02  0.39901844747E+01  0.26018307365E+02  0.95379955298E+02  0.90664154022E+02 0.  0.
         13    1    3    3    0    0  0.18334286263E+02  0.45261462717E+02  0.57999495975E+01  0.49177196335E+02  0.10566000000E+00 0. -1.
         22    1    1    0    0    0 -0.13582089598E+02 -0.39901844747E+01 -0.26018307365E+02  0.29620044702E+02  0.00000000000E+00 0. -1.
</event>
<event>
 5    1  0.1267644E-004  0.9118800E+02  0.7818608E-02  0.1130116E+00
         25   -1    0    0    0    0  0.00000000000E+00  0.00000000000E+00  0.99999998245E-14  0.12500000000E+03  0.12500000000E+03 0.  0.
        -13    1    3    3    0    0  0.17554555811E+01 -0.28488742751E+02  0.36642661224E+02  0.46447668116E+02  0.10566000000E+00 0.  1.
         23    2    1    0    0    0  0.83554684023E+01 -0.26608015862E+02 -0.11321596723E+02  0.94900516405E+02  0.90000717226E+02 0.  0.
         13    1    3    3    0    0  0.66000128212E+01  0.18807268889E+01 -0.47964257947E+02  0.48452848289E+02  0.10566000000E+00 0. -1.
         22    1    1    0    0    0 -0.83554684023E+01  0.26608015862E+02  0.11321596723E+02  0.30099483595E+02  0.00000000000E+00 0.  1.
</event>
<event>
 5    1  0.1267644E-004  0.9118800E+02  0.7818608E-02  0.1130116E+00
         25   -1    0    0    0    0  0.00000000000E+00  0.00000000000E+00  0.99999998245E-14  0.12500000000E+03  0.12500000000E+03 0.  0.
        -13    1    3    3    0    0  0.83478103927E+01 -0.33762292829E+02 -0.55122135336E+01  0.35213264795E+02  0.10566000000E+00 0.  1.
         23    2    1    0    0    0  0.39571527831E+01  0.12391432013E+02  0.29136041231E+02  0.93092077095E+02  0.87452954632E+02 0.  0.
         13    1    3    3    0    0 -0.43906576096E+01  0.46153724842E+02  0.34648254765E+02  0.57878812300E+02  0.10566000000E+00 0. -1.
         22    1    1    0    0    0 -0.39571527831E+01 -0.12391432013E+02 -0.29136041231E+02  0.31907922905E+02  0.00000000000E+00 0. -1.
</event>
<event>
 5    1  0.1267644E-004  0.9118800E+02  0.7818608E-02  0.1130116E+00
         25   -1    0    0    0    0  0.00000000000E+00  0.00000000000E+00  0.99999998245E-14  0.12500000000E+03  0.12500000000E+03 0.  0.
        -13    1    3    3    0    0 -0.80988237486E+01 -0.37997026823E+02  0.73890907917E+01  0.39547121517E+02  0.10566000000E+00 0.  1.
         23    2    1    0    0    0  0.27937109848E+02  0.29809893406E+01 -0.71277743403E+01  0.96014252276E+02  0.91534491144E+02 0.  0.
         13    1    3    3    0    0  0.36035933596E+02  0.40978016164E+02 -0.14516865132E+02  0.56467130759E+02  0.10566000000E+00 0. -1.
         22    1    1    0    0    0 -0.27937109848E+02 -0.29809893406E+01  0.71277743403E+01  0.28985747724E+02  0.00000000000E+00 0. -1.
</event>
<event>
 5    1  0.1267644E-004  0.9118800E+02  0.7818608E-02  0.1130116E+00
         25   -1    0    0    0    0  0.00000000000E+00  0.00000000000E+00  0.99999998245E-14  0.12500000000E+03  0.12500000000E+03 0.  0.
        -13    1    3    3    0    0  0.27484787269E+02  0.83657354689E+01  0.20493928106E+02  0.35290385580E+02  0.10566000000E+00 0. -1.
         23    2    1    0    0    0 -0.24508049247E+02  0.11933970494E+02 -0.10341939500E+02  0.95844900236E+02  0.91302930177E+02 0.  0.
         13    1    3    3    0    0 -0.51992836516E+02  0.35682350249E+01 -0.30835867605E+02  0.60554514656E+02  0.10566000000E+00 0.  1.
         22    1    1    0    0    0  0.24508049247E+02 -0.11933970494E+02  0.10341939500E+02  0.29155099764E+02  0.00000000000E+00 0.  1.
</event>
<event>
 5    1  0.1267644E-004  0.9118800E+02  0.7818608E-02  0.1130116E+00
         25   -1    0    0    0    0  0.00000000000E+00  0.00000000000E+00  0.99999998245E-14  0.12500000000E+03  0.12500000000E+03 0.  0.
        -13    1    3    3    0    0  0.93346748489E+01 -0.39099994545E+02 -0.43787652402E+02  0.59441697442E+02  0.10566000000E+00 0. -1.
         23    2    1    0    0    0  0.11159102459E+02 -0.24478644233E+02 -0.10005860083E+02  0.96297267949E+02  0.91920166380E+02 0.  0.
         13    1    3    3    0    0  0.18244276106E+01  0.14621350312E+02  0.33781792319E+02  0.36855570507E+02  0.10566000000E+00 0.  1.
         22    1    1    0    0    0 -0.11159102459E+02  0.24478644233E+02  0.10005860083E+02  0.28702732051E+02  0.00000000000E+00 0. -1.
</event>
<event>
 5    1  0.1267644E-004  0.9118800E+02  0.7818608E-02  0.1130116E+00
         25   -1    0    0    0    0  0.00000000000E+00  0.00000000000E+00  0.99999998245E-14  0.12500000000E+03  0.12500000000E+03 0.  0.
        -13    1    3    3    0    0  0.27529197686E+02 -0.15269534179E+02 -0.46767867104E+02  0.56376058364E+02  0.10566000000E+00 0.  1.
         23    2    1    0    0    0  0.26923320659E+02  0.26073677605E+01 -0.12139427840E+02  0.95351572213E+02  0.90625013398E+02 0.  0.
         13    1    3    3    0    0 -0.60587702684E+00  0.17876901939E+02  0.34628439264E+02  0.38975513849E+02  0.10566000000E+00 0. -1.
         22    1    1    0    0    0 -0.26923320659E+02 -0.26073677605E+01  0.12139427840E+02  0.29648427787E+02  0.00000000000E+00 0.  1.
</event>
<event>
 5    1  0.1267644E-004  0.9118800E+02  0.7818608E-02  0.1130116E+00
         25   -1    0    0    0    0  0.00000000000E+00  0.00000000000E+00  0.99999998245E-14  0.12500000000E+03  0.12500000000E+03 0.  0.
        -13    1    3    3    0    0 -0.16719983639E+02  0.27373283852E+02 -0.34927977318E+02  0.47421822880E+02  0.10566000000E+00 0.  1.
         23    2    1    0    0    0 -0.16811438356E+01 -0.18329133488E+02 -0.20049249922E+02  0.97783170621E+02  0.93919075034E+02 0.  0.
         13    1    3    3    0    0  0.15038839803E+02 -0.45702417340E+02  0.14878727396E+02  0.50361347741E+02  0.10566000000E+00 0. -1.
         22    1    1    0    0    0  0.16811438356E+01  0.18329133488E+02  0.20049249922E+02  0.27216829379E+02  0.00000000000E+00 0.  1.
</event>
<event>
 5    1  0.1267644E-004  0.9118800E+02  0.7818608E-02  0.1130116E+00
         25   -1    0    0    0    0  0.00000000000E+00  0.00000000000E+00  0.99999998245E-14  0.12500000000E+03  0.12500000000E+03 0.  0.
        -13    1    3    3    0    0  0.35880723009E+02  0.21490903280E+02 -0.86579917428E+01  0.42711323937E+02  0.10566000000E+00 0.  1.
         23    2    1    0    0    0 -0.11763439523E+02  0.24308011950E+01 -0.25576096105E+02  0.96743602568E+02  0.92525135190E+02 0.  0.
         13    1    3    3    0    0 -0.47644162531E+02 -0.19060102085E+02 -0.16918104362E+02  0.54032278631E+02  0.10566000000E+00 0. -1.
         22    1    1    0    0    0  0.11763439523E+02 -0.24308011950E+01  0.25576096105E+02  0.28256397432E+02  0.00000000000E+00 0. -1.
</event>
<event>
 5    1  0.1267644E-004  0.9118800E+02  0.7818608E-02  0.1130116E+00
         25   -1    0    0    0    0  0.00000000000E+00  0.00000000000E+00  0.99999998245E-14  0.12500000000E+03  0.12500000000E+03 0.  0.
        -13    1    3    3    0    0 -0.28205477830E+02 -0.24100832685E+02 -0.27308159739E+02  0.46066754477E+02  0.10566000000E+00 0. -1.
         23    2    1    0    0    0  0.19965218482E+02 -0.10333042116E+02 -0.15944377885E+02  0.97439069418E+02  0.93459977287E+02 0.  0.
         13    1    3    3    0    0  0.48170696312E+02  0.13767790569E+02  0.11363781854E+02  0.51372314941E+02  0.10566000000E+00 0.  1.
         22    1    1    0    0    0 -0.19965218482E+02  0.10333042116E+02  0.15944377885E+02  0.27560930582E+02  0.00000000000E+00 0.  1.
</event>
<event>
 5    1  0.1267644E-004  0.9118800E+02  0.7818608E-02  0.1130116E+00
         25   -1    0    0    0    0  0.00000000000E+00  0.00000000000E+00  0.99999998245E-14  0.12500000000E+03  0.12500000000E+03 0.  0.
        -13    1    3    3    0    0 -0.28730722344E+02 -0.53828359188E+01 -0.27019908421E+02  0.39805978748E+02  0.10566000000E+00 0. -1.
         23    2    1    0    0    0  0.13706444891E+02  0.23968017332E+02 -0.17599908501E+02  0.92257225749E+02  0.86251414118E+02 0.  0.
         13    1    3    3    0    0  0.42437167235E+02  0.29350853251E+02  0.94199999198E+01  0.52451247002E+02  0.10566000000E+00 0.  1.
         22    1    1    0    0    0 -0.13706444891E+02 -0.23968017332E+02  0.17599908501E+02  0.32742774251E+02  0.00000000000E+00 0.  1.
</event>
<event>
 5    1  0.1267644E-004  0.9118800E+02  0.7818608E-02  0.1130116E+00
         25   -1    0    0    0    0  0.00000000000E+00  0.00000000000E+00  0.99999998245E-14  0.12500000000E+03  0.12500000000E+03 0.  0.
        -13    1    3    3    0    0  0.54508410598E+02  0.10730019544E+02  0.90826053294E+01  0.56292140029E+02  0.10566000000E+00 0. -1.
         23    2    1    0    0    0  0.23411392057E+02  0.23784846471E+02 -0.13610574436E+01  0.91598433015E+02  0.85291314058E+02 0.  0.
         13    1    3    3    0    0 -0.31097018542E+02  0.13054826927E+02 -0.10443662773E+02  0.35306292986E+02  0.10566000000E+00 0.  1.
         22    1    1    0    0    0 -0.23411392057E+02 -0.23784846471E+02  0.13610574436E+01  0.33401566985E+02  0.00000000000E+00 0. -1.
</event>
<event>
 5    1  0.1267644E-004  0.9118800E+02  0.7818608E-02  0.1130116E+00
         25   -1    0    0    0    0  0.00000000000E+00  0.00000000000E+00  0.99999998245E-14  0.12500000000E+03  0.12500000000E+03 0.  0.
        -13    1    3    3    0    0  0.65353242702E+01 -0.42277724463E+02 -0.28719995560E+02  0.51526359838E+02  0.10566000000E+00 0. -1.
         23    2    1    0    0    0 -0.20198966910E+01  0.22262569973E+01 -0.27987806447E+02  0.96851225380E+02  0.92670417853E+02 0.  0.
         13    1    3    3    0    0 -0.85552209613E+01  0.44503981461E+02  0.73218911287E+00  0.45324865543E+02  0.10566000000E+00 0.  1.
         22    1    1    0    0    0  0.20198966910E+01 -0.22262569973E+01  0.27987806447E+02  0.28148774620E+02  0.00000000000E+00 0. -1.
</event>
<event>
 5    1  0.1267644E-004  0.9118800E+02  0.7818608E-02  0.1130116E+00
         25   -1    0    0    0    0  0.00000000000E+00  0.00000000000E+00  0.99999998245E-14  0.12500000000E+03  0.12500000000E+03 0.  0.
        -13    1    3    3    0    0  0.58248909799E+02 -0.43493243763E+01 -0.51642938539E+01  0.58639007584E+02  0.10566000000E+00 0.  1.
         23    2    1    0    0    0  0.26460025994E+02  0.34222550849E+01  0.12173786083E+02  0.95673461284E+02  0.91067915980E+02 0.  0.
         13    1    3    3    0    0 -0.31788883806E+02  0.77715794612E+01  0.17338079937E+02  0.37034453700E+02  0.10566000000E+00 0. -1.
         22    1    1    0    0    0 -0.26460025994E+02 -0.34222550849E+01 -0.12173786083E+02  0.29326538716E+02  0.00000000000E+00 0.  1.
</event>
<event>
 5    1  0.1267644E-004  0.9118800E+02  0.7818608E-02  0.1130116E+00
         25   -1    0    0    0    0  0.00000000000E+00  0.00000000000E+00  0.99999998245E-14  0.12500000000E+03  0.12500000000E+03 0.  0.
        -13    1    3    3    0    0  0.16159463672E+02 -0.19561332482E+02 -0.52143980756E+02  0.57989480837E+02  0.10566000000E+00 0. -1.
         23    2    1    0    0    0 -0.52775166758E+01 -0.19670469135E+02 -0.21524744797E+02  0.95367346105E+02  0.90646767875E+02 0.  0.
         13    1    3    3    0    0 -0.21436980348E+02 -0.10913665391E+00  0.30619235959E+02  0.37377865268E+02  0.10566000000E+00 0.  1.
         22    1    1    0    0    0  0.52775166758E+01  0.19670469135E+02  0.21524744797E+02  0.29632653895E+02  0.00000000000E+00 0. -1.
</event>
<event>
 5    1  0.1267644E-004  0.9118800E+02  0.7818608E-02  0.1130116E+00
         25   -1    0    0    0    0  0.00000000000E+00  0.00000000000E+00  0.99999998245E-14  0.12500000000E+03  0.12500000000E+03 0.  0.
        -13    1    3    3    0    0  0.42447199965E+02  0.64977215001E+01  0.47622944534E+01  0.43205043480E+02  0.10566000000E+00 0.  1.
         23    2    1    0    0    0  0.47102171031E+01 -0.29096277647E+02 -0.16715152716E+01  0.95477576635E+02  0.90798646238E+02 0.  0.
         13    1    3    3    0    0 -0.37736982862E+02 -0.35593999147E+02 -0.64338097250E+01  0.52272533155E+02  0.10566000000E+00 0. -1.
         22    1    1    0    0    0 -0.47102171031E+01  0.29096277647E+02  0.16715152716E+01  0.29522423365E+02  0.00000000000E+00 0. -1.
</event>
<event>
 5    1  0.1267644E-004  0.9118800E+02  0.7818608E-02  0.1130116E+00
         25   -1    0    0    0    0  0.00000000000E+00  0.00000000000E+00  0.99999998245E-14  0.12500000000E+03  0.12500000000E+03 0.  0.
        -13    1    3    3    0    0 -0.19175178300E+02 -0.39434336258E+02  0.17282948964E+02  0.47132428623E+02  0.10566000000E+00 0. -1.
         23    2    1    0    0    0 -0.10791811818E+02 -0.18175023674E+02 -0.23196562927E+02  0.93617278328E+02  0.88200451144E+02 0.  0.
         13    1    3    3    0    0  0.83833664815E+01  0.21259312584E+02 -0.40479511892E+02  0.46484849705E+02  0.10566000000E+00 0.  1.
         22    1    1    0    0    0  0.10791811818E+02  0.18175023674E+02  0.23196562927E+02  0.31382721672E+02  0.00000000000E+00 0.  1.
</event>
<event>
 5    1  0.1267644E-004  0.9118800E+02  0.7818608E-02  0.1130116E+00
         25   -1    0    0    0    0  0.00000000000E+00  0.00000000000E+00  0.99999998245E-14  0.12500000000E+03  0.12500000000E+03 0.  0.
        -13    1    3    3    0    0  0.22568430950E+02  0.42236609900E+02 -0.16646895405E+02  0.50699068848E+02  0.10566000000E+00 0. -1.
         23    2    1    0    0    0 -0.58138864565E+01  0.68675137791E+01 -0.26420413268E+02  0.97089388067E+02  0.92991112568E+02 0.  0.
         13    1    3    3    0    0 -0.28382317406E+02 -0.35369096121E+02 -0.97735178633E+01  0.46390319219E+02  0.10566000000E+00 0.  1.
         22    1    1    0    0    0  0.58138864565E+01 -0.68675137791E+01  0.26420413268E+02  0.27910611933E+02  0.00000000000E+00 0. -1.
</event>
<event>
 5    1  0.1267644E-004  0.9118800E+02  0.7818608E-02  0.1130116E+00
         25   -1    0    0    0    0  0.00000000000E+00  0.00000000000E+00  0.99999998245E-14  0.12500000000E+03  0.12500000000E+03 0.  0.
        -13    1    3    3    0    0 -0.19224505624E+02 -0.32712083984E+02 -0.29398046128E+02  0.47999149318E+02  0.10566000000E+00 0.  1.
         23    2    1    0    0    0  0.21267195300E+02 -0.17068632866E+02 -0.69969116628E+01  0.96847049948E+02  0.92664785582E+02 0.  0.
         13    1    3    3    0    0  0.40491700924E+02  0.15643451117E+02  0.22401134466E+02  0.48847900630E+02  0.10566000000E+00 0. -1.
         22    1    1    0    0    0 -0.21267195300E+02  0.17068632866E+02  0.69969116628E+01  0.28152950052E+02  0.00000000000E+00 0.  1.
</event>
<event>
 5    1  0.1267644E-004  0.9118800E+02  0.7818608E-02  0.1130116E+00
         25   -1    0    0    0    0  0.00000000000E+00  0.00000000000E+00  0.99999998245E-14  0.12500000000E+03  0.12500000000E+03 0.  0.
        -13    1    3    3    0    0  0.58465032673E+01 -0.38576157938E+02  0.14631677485E+02  0.41670117732E+02  0.10566000000E+00 0.  1.
         23    2    1    0    0    0  0.26331267434E+02  0.10649160226E+02  0.16300259000E+01  0.96550092397E+02  0.92263335617E+02 0.  0.
         13    1    3    3    0    0  0.20484764167E+02  0.49225318164E+02 -0.13001651585E+02  0.54879974665E+02  0.10566000000E+00 0. -1.
         22    1    1    0    0    0 -0.26331267434E+02 -0.10649160226E+02 -0.16300259000E+01  0.28449907603E+02  0.00000000000E+00 0. -1.
</event>
<event>
 5    1  0.1267644E-004  0.9118800E+02  0.7818608E-02  0.1130116E+00
         25   -1    0    0    0    0  0.00000000000E+00  0.00000000000E+00  0.99999998245E-14  0.12500000000E+03  0.12500000000E+03 0.  0.
        -13    1    3    3    0    0 -0.36751468119E+02  0.27469347240E+02 -0.32307358854E+00  0.45884103863E+02  0.10566000000E+00 0. -1.
         23    2    1    0    0    0 -0.25391063049E+01 -0.53434180721E+01 -0.24987955842E+02  0.99321271163E+02  0.95944347362E+02 0.  0.
         13    1    3    3    0    0  0.34212361814E+02 -0.32812765313E+02 -0.24664882254E+02  0.53437167300E+02  0.10566000000E+00 0.  1.
         22    1    1    0    0    0  0.25391063049E+01  0.53434180721E+01  0.24987955842E+02  0.25678728837E+02  0.00000000000E+00 0. -1.
</event>
<event>
 5    1  0.1267644E-004  0.9118800E+02  0.7818608E-02  0.1130116E+00
         25   -1    0    0    0    0  0.00000000000E+00  0.00000000000E+00  0.99999998245E-14  0.12500000000E+03  0.12500000000E+03 0.  0.
        -13    1    3    3    0    0  0.43062494722E+02  0.15458588529E+02 -0.84304851289E+01  0.46523441989E+02  0.10566000000E+00 0.  1.
         23    2    1    0    0    0  0.14495405809E+02 -0.24738423163E+02 -0.19539858788E+01  0.96261098995E+02  0.91870967932E+02 0.  0.
         13    1    3    3    0    0 -0.28567088913E+02 -0.40197011691E+02  0.64764992501E+01  0.49737657006E+02  0.10566000000E+00 0. -1.
         22    1    1    0    0    0 -0.14495405809E+02  0.24738423163E+02  0.19539858788E+01  0.28738901005E+02  0.00000000000E+00 0. -1.
</event>
<event>
 5    1  0.1267644E-004  0.9118800E+02  0.7818608E-02  0.1130116E+00
         25   -1    0    0    0    0  0.00000000000E+00  0.00000000000E+00  0.99999998245E-14  0.12500000000E+03  0.12500000000E+03 0.  0.
        -13    1    3    3    0    0 -0.25035902194E+02  0.30711106871E+02 -0.18740243343E+02  0.43831225952E+02  0.10566000000E+00 0.  1.
         23    2    1    0    0    0 -0.12450836734E+02 -0.18143055691E+02 -0.21339847477E+02  0.94347383545E+02  0.89229176205E+02 0.  0.
         13    1    3    3    0    0  0.12585065460E+02 -0.48854162562E+02 -0.25996041340E+01  0.50516157593E+02  0.10566000000E+00 0. -1.
         22    1    1    0    0    0  0.12450836734E+02  0.18143055691E+02  0.21339847477E+02  0.30652616455E+02  0.00000000000E+00 0. -1.
</event>
<event>
 5    1  0.1267644E-004  0.9118800E+02  0.7818608E-02  0.1130116E+00
         25   -1    0    0    0    0  0.00000000000E+00  0.00000000000E+00  0.99999998245E-14  0.12500000000E+03  0.12500000000E+03 0.  0.
        -13    1    3    3    0    0  0.35977836923E+02 -0.35880210812E+02 -0.15322746683E+01  0.50834568034E+02  0.10566000000E+00 0.  1.
         23    2    1    0    0    0  0.33643731250E+01 -0.18407421641E+02  0.23091350309E+02  0.95278582855E+02  0.90524282453E+02 0.  0.
         13    1    3    3    0    0 -0.32613463798E+02  0.17472789170E+02  0.24623624978E+02  0.44444014820E+02  0.10566000000E+00 0. -1.
         22    1    1    0    0    0 -0.33643731250E+01  0.18407421641E+02 -0.23091350309E+02  0.29721417145E+02  0.00000000000E+00 0.  1.
</event>
<event>
 5    1  0.1267644E-004  0.9118800E+02  0.7818608E-02  0.1130116E+00
         25   -1    0    0    0    0  0.00000000000E+00  0.00000000000E+00  0.99999998245E-14  0.12500000000E+03  0.12500000000E+03 0.  0.
        -13    1    3    3    0    0  0.14539213190E+02  0.43938887791E+02 -0.16275631549E+02  0.49060390610E+02  0.10566000000E+00 0.  1.
         23    2    1    0    0    0  0.11331758605E+02 -0.28189009200E+00 -0.27890898228E+02  0.94893681409E+02  0.89991223752E+02 0.  0.
         13    1    3    3    0    0 -0.32074545842E+01 -0.44220777883E+02 -0.11615266679E+02  0.45833290800E+02  0.10566000000E+00 0. -1.
         22    1    1    0    0    0 -0.11331758605E+02  0.28189009200E+00  0.27890898228E+02  0.30106318591E+02  0.00000000000E+00 0. -1.
</event>
<event>
 5    1  0.1267644E-004  0.9118800E+02  0.7818608E-02  0.1130116E+00
         25   -1    0    0    0    0  0.00000000000E+00  0.00000000000E+00  0.99999998245E-14  0.12500000000E+03  0.12500000000E+03 0.  0.
        -13    1    3    3    0    0  0.39247551874E+02 -0.22662503604E+02  0.35392480533E+02  0.57503028094E+02  0.10566000000E+00 0.  1.
         23    2    1    0    0    0  0.27577410884E+02 -0.60736179137E+01  0.18499958411E+01  0.96701150019E+02  0.92467764679E+02 0.  0.
         13    1    3    3    0    0 -0.11670140989E+02  0.16588885690E+02 -0.33542484692E+02  0.39198121925E+02  0.10566000000E+00 0. -1.
         22    1    1    0    0    0 -0.27577410884E+02  0.60736179137E+01 -0.18499958411E+01  0.28298849981E+02  0.00000000000E+00 0.  1.
</event>
<event>
 5    1  0.1267644E-004  0.9118800E+02  0.7818608E-02  0.1130116E+00
         25   -1    0    0    0    0  0.00000000000E+00  0.00000000000E+00  0.99999998245E-14  0.12500000000E+03  0.12500000000E+03 0.  0.
        -13    1    3    3    0    0  0.30122804820E+02  0.44689197392E+02 -0.28996762669E+02  0.61199110640E+02  0.10566000000E+00 0.  1.
         23    2    1    0    0    0  0.17015676164E+02  0.14342309436E+02 -0.19011775558E+02  0.95730857799E+02  0.91146664502E+02 0.  0.
         13    1    3    3    0    0 -0.13107128656E+02 -0.30346887956E+02  0.99849871114E+01  0.34531747159E+02  0.10566000000E+00 0. -1.
         22    1    1    0    0    0 -0.17015676164E+02 -0.14342309436E+02  0.19011775558E+02  0.29269142201E+02  0.00000000000E+00 0.  1.
</event>
<event>
 5    1  0.1267644E-004  0.9118800E+02  0.7818608E-02  0.1130116E+00
         25   -1    0    0    0    0  0.00000000000E+00  0.00000000000E+00  0.99999998245E-14  0.12500000000E+03  0.12500000000E+03 0.  0.
        -13    1    3    3    0    0  0.57242811657E+01  0.38460605408E+02 -0.13726527791E+02  0.41236079984E+02  0.10566000000E+00 0.  1.
         23    2    1    0    0    0 -0.28915930775E+02 -0.19553288501E+01 -0.88906624820E+01  0.94685016199E+02  0.89700914431E+02 0.  0.
         13    1    3    3    0    0 -0.34640211940E+02 -0.40415934258E+02  0.48358653095E+01  0.53448936215E+02  0.10566000000E+00 0. -1.
         22    1    1    0    0    0  0.28915930775E+02  0.19553288501E+01  0.88906624820E+01  0.30314983801E+02  0.00000000000E+00 0. -1.
</event>
<event>
 5    1  0.1267644E-004  0.9118800E+02  0.7818608E-02  0.1130116E+00
         25   -1    0    0    0    0  0.00000000000E+00  0.00000000000E+00  0.99999998245E-14  0.12500000000E+03  0.12500000000E+03 0.  0.
        -13    1    3    3    0    0  0.23392749032E+01 -0.12144708952E+02  0.54320386158E+02  0.55710696271E+02  0.10566000000E+00 0. -1.
         23    2    1    0    0    0  0.72300684892E+01  0.13745549308E+02  0.28164648656E+02  0.92836955212E+02  0.87087535291E+02 0.  0.
         13    1    3    3    0    0  0.48907935860E+01  0.25890258260E+02 -0.26155737502E+02  0.37126258941E+02  0.10566000000E+00 0.  1.
         22    1    1    0    0    0 -0.72300684892E+01 -0.13745549308E+02 -0.28164648656E+02  0.32163044788E+02  0.00000000000E+00 0. -1.
</event>
<event>
 5    1  0.1267644E-004  0.9118800E+02  0.7818608E-02  0.1130116E+00
         25   -1    0    0    0    0  0.00000000000E+00  0.00000000000E+00  0.99999998245E-14  0.12500000000E+03  0.12500000000E+03 0.  0.
        -13    1    3    3    0    0 -0.19953678327E+02 -0.16442987668E+02 -0.27908295056E+02  0.38044779132E+02  0.10566000000E+00 0.  1.
         23    2    1    0    0    0 -0.11891065449E+02  0.24478638818E+02  0.11527769956E+02  0.95445124327E+02  0.90753959041E+02 0.  0.
         13    1    3    3    0    0  0.80626128786E+01  0.40921626486E+02  0.39436065013E+02  0.57400345194E+02  0.10566000000E+00 0. -1.
         22    1    1    0    0    0  0.11891065449E+02 -0.24478638818E+02 -0.11527769956E+02  0.29554875673E+02  0.00000000000E+00 0. -1.
</event>
<event>
 5    1  0.1267644E-004  0.9118800E+02  0.7818608E-02  0.1130116E+00
         25   -1    0    0    0    0  0.00000000000E+00  0.00000000000E+00  0.99999998245E-14  0.12500000000E+03  0.12500000000E+03 0.  0.
        -13    1    3    3    0    0  0.37478969376E+02 -0.33716890719E+02  0.35551022093E+02  0.61687828631E+02  0.10566000000E+00 0. -1.
         23    2    1    0    0    0  0.20026340836E+02 -0.18280377233E+02  0.10437381441E+02  0.95945474528E+02  0.91440519639E+02 0.  0.
         13    1    3    3    0    0 -0.17452628540E+02  0.15436513486E+02 -0.25113640652E+02  0.34257645897E+02  0.10566000000E+00 0.  1.
         22    1    1    0    0    0 -0.20026340836E+02  0.18280377233E+02 -0.10437381441E+02  0.29054525472E+02  0.00000000000E+00 0. -1.
</event>
<event>
 5    1  0.1267644E-004  0.9118800E+02  0.7818608E-02  0.1130116E+00
         25   -1    0    0    0    0  0.00000000000E+00  0.00000000000E+00  0.99999998245E-14  0.12500000000E+03  0.12500000000E+03 0.  0.
        -13    1    3    3    0    0  0.34084433064E+01  0.22503766836E+02 -0.29917368467E+02  0.37591183908E+02  0.10566000000E+00 0.  1.
         23    2    1    0    0    0 -0.21672310065E+02 -0.21145132173E+02 -0.19458447271E+02  0.89007822956E+02  0.81406116103E+02 0.  0.
         13    1    3    3    0    0 -0.25080753371E+02 -0.43648899009E+02  0.10458921197E+02  0.51416639048E+02  0.10566000000E+00 0. -1.
         22    1    1    0    0    0  0.21672310065E+02  0.21145132173E+02  0.19458447271E+02  0.35992177044E+02  0.00000000000E+00 0. -1.
</event>
<event>
 5    1  0.1267644E-004  0.9118800E+02  0.7818608E-02  0.1130116E+00
         25   -1    0    0    0    0  0.00000000000E+00  0.00000000000E+00  0.99999998245E-14  0.12500000000E+03  0.12500000000E+03 0.  0.
        -13    1    3    3    0    0  0.11627176197E+02  0.42077858746E+02  0.24296006704E+02  0.49960429629E+02  0.10566000000E+00 0.  1.
         23    2    1    0    0    0 -0.20558961212E+02  0.14214094358E+02  0.20450622680E+02  0.92705428746E+02  0.86898545364E+02 0.  0.
         13    1    3    3    0    0 -0.32186137409E+02 -0.27863764388E+02 -0.38453840237E+01  0.42744999117E+02  0.10566000000E+00 0. -1.
         22    1    1    0    0    0  0.20558961212E+02 -0.14214094358E+02 -0.20450622680E+02  0.32294571254E+02  0.00000000000E+00 0. -1.
</event>
<event>
 5    1  0.1267644E-004  0.9118800E+02  0.7818608E-02  0.1130116E+00
         25   -1    0    0    0    0  0.00000000000E+00  0.00000000000E+00  0.99999998245E-14  0.12500000000E+03  0.12500000000E+03 0.  0.
        -13    1    3    3    0    0  0.36393827273E+02  0.29228107793E+02  0.32977129663E+02  0.57151510860E+02  0.10566000000E+00 0. -1.
         23    2    1    0    0    0  0.54182851336E+01  0.65974518744E+01  0.27869733008E+02  0.95851994872E+02  0.91312642706E+02 0.  0.
         13    1    3    3    0    0 -0.30975542139E+02 -0.22630655919E+02 -0.51073966553E+01  0.38700484012E+02  0.10566000000E+00 0.  1.
         22    1    1    0    0    0 -0.54182851336E+01 -0.65974518744E+01 -0.27869733008E+02  0.29148005128E+02  0.00000000000E+00 0.  1.
</event>
<event>
 5    1  0.1267644E-004  0.9118800E+02  0.7818608E-02  0.1130116E+00
         25   -1    0    0    0    0  0.00000000000E+00  0.00000000000E+00  0.99999998245E-14  0.12500000000E+03  0.12500000000E+03 0.  0.
        -13    1    3    3    0    0 -0.15675546093E+02 -0.30590165577E+02  0.22767726648E+02  0.41229376858E+02  0.10566000000E+00 0.  1.
         23    2    1    0    0    0 -0.25855708863E+02 -0.15980284945E+02 -0.20714869977E+02  0.88216946485E+02  0.80182520671E+02 0.  0.
         13    1    3    3    0    0 -0.10180162771E+02  0.14609880632E+02 -0.43482596625E+02  0.46987569627E+02  0.10566000000E+00 0. -1.
         22    1    1    0    0    0  0.25855708863E+02  0.15980284945E+02  0.20714869977E+02  0.36783053515E+02  0.00000000000E+00 0. -1.
</event>
<event>
 5    1  0.1267644E-004  0.9118800E+02  0.7818608E-02  0.1130116E+00
         25   -1    0    0    0    0  0.00000000000E+00  0.00000000000E+00  0.99999998245E-14  0.12500000000E+03  0.12500000000E+03 0.  0.
        -13    1    3    3    0    0  0.40867207462E+02  0.37723090904E+00 -0.75022267624E+01  0.41551961679E+02  0.10566000000E+00 0. -1.
         23    2    1    0    0    0 -0.53535843203E+01 -0.27441760888E+02 -0.93169721265E+01  0.95529386241E+02  0.90869943107E+02 0.  0.
         13    1    3    3    0    0 -0.46220791782E+02 -0.27818991797E+02 -0.18147453641E+01  0.53977424562E+02  0.10566000000E+00 0.  1.
         22    1    1    0    0    0  0.53535843203E+01  0.27441760888E+02  0.93169721265E+01  0.29470613759E+02  0.00000000000E+00 0.  1.
</event>
<event>
 5    1  0.1267644E-004  0.9118800E+02  0.7818608E-02  0.1130116E+00
         25   -1    0    0    0    0  0.00000000000E+00  0.00000000000E+00  0.99999998245E-14  0.12500000000E+03  0.12500000000E+03 0.  0.
        -13    1    3    3    0    0  0.60368092883E+01  0.27528632083E+02  0.19458853871E+02  0.34248019048E+02  0.10566000000E+00 0.  1.
         23    2    1    0    0    0 -0.14499491592E+02 -0.24510505972E+02 -0.62925573325E+01  0.95835013506E+02  0.91289393560E+02 0.  0.
         13    1    3    3    0    0 -0.20536300880E+02 -0.52039138055E+02 -0.25751411204E+02  0.61586994458E+02  0.10566000000E+00 0. -1.
         22    1    1    0    0    0  0.14499491592E+02  0.24510505972E+02  0.62925573325E+01  0.29164986494E+02  0.00000000000E+00 0. -1.
</event>
<event>
 5    1  0.1267644E-004  0.9118800E+02  0.7818608E-02  0.1130116E+00
         25   -1    0    0    0    0  0.00000000000E+00  0.00000000000E+00  0.99999998245E-14  0.12500000000E+03  0.12500000000E+03 0.  0.
        -13    1    3    3    0    0  0.24941480132E+02 -0.25270484442E+02  0.93895263646E+01  0.36726682187E+02  0.10566000000E+00 0.  1.
         23    2    1    0    0    0  0.10510391020E+02  0.26650782199E+02 -0.10954724200E+02  0.94328539429E+02  0.89202773821E+02 0.  0.
         13    1    3    3    0    0 -0.14431089111E+02  0.51921266642E+02 -0.20344250565E+02  0.57601857242E+02  0.10566000000E+00 0. -1.
         22    1    1    0    0    0 -0.10510391020E+02 -0.26650782199E+02  0.10954724200E+02  0.30671460571E+02  0.00000000000E+00 0. -1.
</event>
<event>
 5    1  0.1267644E-004  0.9118800E+02  0.7818608E-02  0.1130116E+00
         25   -1    0    0    0    0  0.00000000000E+00  0.00000000000E+00  0.99999998245E-14  0.12500000000E+03  0.12500000000E+03 0.  0.
        -13    1    3    3    0    0  0.37341215713E+02  0.37427452027E+02  0.13298808896E+02  0.54516511611E+02  0.10566000000E+00 0.  1.
         23    2    1    0    0    0  0.87829790463E+00  0.19623049002E+02  0.21460850481E+02  0.95906984296E+02  0.91387888006E+02 0.  0.
         13    1    3    3    0    0 -0.36462917809E+02 -0.17804403025E+02  0.81620415856E+01  0.41390472685E+02  0.10566000000E+00 0. -1.
         22    1    1    0    0    0 -0.87829790463E+00 -0.19623049002E+02 -0.21460850481E+02  0.29093015704E+02  0.00000000000E+00 0.  1.
</event>
<event>
 5    1  0.1267644E-004  0.9118800E+02  0.7818608E-02  0.1130116E+00
         25   -1    0    0    0    0  0.00000000000E+00  0.00000000000E+00  0.99999998245E-14  0.12500000000E+03  0.12500000000E+03 0.  0.
        -13    1    3    3    0    0  0.32294858011E+02  0.16984595978E+01 -0.17859659598E+02  0.36943486895E+02  0.10566000000E+00 0. -1.
         23    2    1    0    0    0 -0.89321169500E+01  0.17418509998E+02  0.21395511946E+02  0.96000773541E+02  0.91516082659E+02 0.  0.
         13    1    3    3    0    0 -0.41226974961E+02  0.15720050400E+02  0.39255171544E+02  0.59057286646E+02  0.10566000000E+00 0.  1.
         22    1    1    0    0    0  0.89321169500E+01 -0.17418509998E+02 -0.21395511946E+02  0.28999226459E+02  0.00000000000E+00 0.  1.
</event>
<event>
 5    1  0.1267644E-004  0.9118800E+02  0.7818608E-02  0.1130116E+00
         25   -1    0    0    0    0  0.00000000000E+00  0.00000000000E+00  0.99999998245E-14  0.12500000000E+03  0.12500000000E+03 0.  0.
        -13    1    3    3    0    0  0.27693492642E+02 -0.11823274543E+02 -0.54396933863E+02  0.62175211566E+02  0.10566000000E+00 0.  1.
         23    2    1    0    0    0  0.16241737592E+02 -0.69211097003E+01 -0.22626696610E+02  0.96300466920E+02  0.91924516480E+02 0.  0.
         13    1    3    3    0    0 -0.11451755049E+02  0.49021648430E+01  0.31770237253E+02  0.34125255354E+02  0.10566000000E+00 0. -1.
         22    1    1    0    0    0 -0.16241737592E+02  0.69211097003E+01  0.22626696610E+02  0.28699533080E+02  0.00000000000E+00 0.  1.
</event>
<event>
 5    1  0.1267644E-004  0.9118800E+02  0.7818608E-02  0.1130116E+00
         25   -1    0    0    0    0  0.00000000000E+00  0.00000000000E+00  0.99999998245E-14  0.12500000000E+03  0.12500000000E+03 0.  0.
        -13    1    3    3    0    0 -0.44295613905E+02 -0.10789903349E+02 -0.11556390139E+02  0.47032804962E+02  0.10566000000E+00 0.  1.
         23    2    1    0    0    0 -0.20724637416E+02  0.26082963729E+02 -0.60498384017E+01  0.91140996211E+02  0.84618254844E+02 0.  0.
         13    1    3    3    0    0  0.23570976490E+02  0.36872867078E+02  0.55065517370E+01  0.44108191249E+02  0.10566000000E+00 0. -1.
         22    1    1    0    0    0  0.20724637416E+02 -0.26082963729E+02  0.60498384017E+01  0.33859003789E+02  0.00000000000E+00 0. -1.
</event>
<event>
 5    1  0.1267644E-004  0.9118800E+02  0.7818608E-02  0.1130116E+00
         25   -1    0    0    0    0  0.00000000000E+00  0.00000000000E+00  0.99999998245E-14  0.12500000000E+03  0.12500000000E+03 0.  0.
        -13    1    3    3    0    0  0.47582049944E+02  0.21235768814E+02  0.32074902230E+02  0.61186762222E+02  0.10566000000E+00 0. -1.
         23    2    1    0    0    0  0.16058914178E+02  0.16059599511E+02  0.17643997039E+02  0.96240478228E+02  0.91842906951E+02 0.  0.
         13    1    3    3    0    0 -0.31523135767E+02 -0.51761693034E+01 -0.14430905192E+02  0.35053716007E+02  0.10566000000E+00 0.  1.
         22    1    1    0    0    0 -0.16058914178E+02 -0.16059599511E+02 -0.17643997039E+02  0.28759521772E+02  0.00000000000E+00 0. -1.
</event>
<event>
 5    1  0.1267644E-004  0.9118800E+02  0.7818608E-02  0.1130116E+00
         25   -1    0    0    0    0  0.00000000000E+00  0.00000000000E+00  0.99999998245E-14  0.12500000000E+03  0.12500000000E+03 0.  0.
        -13    1    3    3    0    0 -0.16042663726E+02 -0.34983393001E+02  0.48424620879E+02  0.61855961043E+02  0.10566000000E+00 0.  1.
         23    2    1    0    0    0 -0.54987398408E+01 -0.19701720010E+02  0.16788579213E+02  0.98537757027E+02  0.94918066018E+02 0.  0.
         13    1    3    3    0    0  0.10543923885E+02  0.15281672991E+02 -0.31636041666E+02  0.36681795984E+02  0.10566000000E+00 0. -1.
         22    1    1    0    0    0  0.54987398408E+01  0.19701720010E+02 -0.16788579213E+02  0.26462242973E+02  0.00000000000E+00 0.  1.
</event>
<event>
 5    1  0.1267644E-004  0.9118800E+02  0.7818608E-02  0.1130116E+00
         25   -1    0    0    0    0  0.00000000000E+00  0.00000000000E+00  0.99999998245E-14  0.12500000000E+03  0.12500000000E+03 0.  0.
        -13    1    3    3    0    0  0.39597030586E+02  0.27833684074E+02  0.90509992837E+01  0.49239928437E+02  0.10566000000E+00 0. -1.
         23    2    1    0    0    0 -0.74110493725E+01  0.24974123660E+02  0.11771029992E+02  0.96413505768E+02  0.92078099687E+02 0.  0.
         13    1    3    3    0    0 -0.47008079959E+02 -0.28595604134E+01  0.27200307081E+01  0.47173577332E+02  0.10566000000E+00 0.  1.
         22    1    1    0    0    0  0.74110493725E+01 -0.24974123660E+02 -0.11771029992E+02  0.28586494232E+02  0.00000000000E+00 0.  1.
</event>
<event>
 5    1  0.1267644E-004  0.9118800E+02  0.7818608E-02  0.1130116E+00
         25   -1    0    0    0    0  0.00000000000E+00  0.00000000000E+00  0.99999998245E-14  0.12500000000E+03  0.12500000000E+03 0.  0.
        -13    1    3    3    0    0 -0.45831909444E+02 -0.18958613459E+02 -0.22763413493E+02  0.54572677280E+02  0.10566000000E+00 0. -1.
         23    2    1    0    0    0 -0.23835507907E+02 -0.11864456302E+02  0.11577332193E+02  0.95966719420E+02  0.91469556984E+02 0.  0.
         13    1    3    3    0    0  0.21996401537E+02  0.70941571567E+01  0.34340745686E+02  0.41394042140E+02  0.10566000000E+00 0.  1.
         22    1    1    0    0    0  0.23835507907E+02  0.11864456302E+02 -0.11577332193E+02  0.29033280580E+02  0.00000000000E+00 0. -1.
</event>
<event>
 5    1  0.1267644E-004  0.9118800E+02  0.7818608E-02  0.1130116E+00
         25   -1    0    0    0    0  0.00000000000E+00  0.00000000000E+00  0.99999998245E-14  0.12500000000E+03  0.12500000000E+03 0.  0.
        -13    1    3    3    0    0 -0.61225765135E+01  0.53836597907E+02 -0.19035327015E+02  0.57430131952E+02  0.10566000000E+00 0. -1.
         23    2    1    0    0    0 -0.18031243882E+02  0.22743922164E+02  0.38074776890E+00  0.95973172406E+02  0.91478375048E+02 0.  0.
         13    1    3    3    0    0 -0.11908667369E+02 -0.31092675744E+02  0.19416074783E+02  0.38543040454E+02  0.10566000000E+00 0.  1.
         22    1    1    0    0    0  0.18031243882E+02 -0.22743922164E+02 -0.38074776890E+00  0.29026827594E+02  0.00000000000E+00 0. -1.
</event>
<event>
 5    1  0.1267644E-004  0.9118800E+02  0.7818608E-02  0.1130116E+00
         25   -1    0    0    0    0  0.00000000000E+00  0.00000000000E+00  0.99999998245E-14  0.12500000000E+03  0.12500000000E+03 0.  0.
        -13    1    3    3    0    0  0.16412610522E+01  0.30521095078E+02 -0.21936123763E+02  0.37622276279E+02  0.10566000000E+00 0. -1.
         23    2    1    0    0    0  0.21925830620E+02 -0.10102942855E+02  0.15363107352E+02  0.96384679450E+02  0.92038958395E+02 0.  0.
         13    1    3    3    0    0  0.20284569568E+02 -0.40624037934E+02  0.37299231115E+02  0.58762403171E+02  0.10566000000E+00 0.  1.
         22    1    1    0    0    0 -0.21925830620E+02  0.10102942855E+02 -0.15363107352E+02  0.28615320550E+02  0.00000000000E+00 0.  1.
</event>
<event>
 5    1  0.1267644E-004  0.9118800E+02  0.7818608E-02  0.1130116E+00
         25   -1    0    0    0    0  0.00000000000E+00  0.00000000000E+00  0.99999998245E-14  0.12500000000E+03  0.12500000000E+03 0.  0.
        -13    1    3    3    0    0  0.21703410124E+02  0.34299958943E+02 -0.45867533250E+02  0.61248403775E+02  0.10566000000E+00 0. -1.
         23    2    1    0    0    0  0.81799434019E+01  0.21935118137E+02 -0.14843026193E+02  0.97280398482E+02  0.93247518039E+02 0.  0.
         13    1    3    3    0    0 -0.13523466722E+02 -0.12364840806E+02  0.31024507057E+02  0.36031994706E+02  0.10566000000E+00 0.  1.
         22    1    1    0    0    0 -0.81799434019E+01 -0.21935118137E+02  0.14843026193E+02  0.27719601518E+02  0.00000000000E+00 0. -1.
</event>
<event>
 5    1  0.1267644E-004  0.9118800E+02  0.7818608E-02  0.1130116E+00
         25   -1    0    0    0    0  0.00000000000E+00  0.00000000000E+00  0.99999998245E-14  0.12500000000E+03  0.12500000000E+03 0.  0.
        -13    1    3    3    0    0  0.28071935286E+02  0.31732803808E+02 -0.38351542452E+02  0.57147671525E+02  0.10566000000E+00 0. -1.
         23    2    1    0    0    0  0.25991410684E+02  0.10036556446E+02 -0.54558823509E+01  0.96608935439E+02  0.92343022800E+02 0.  0.
         13    1    3    3    0    0 -0.20805246019E+01 -0.21696247362E+02  0.32895660101E+02  0.39461263915E+02  0.10566000000E+00 0.  1.
         22    1    1    0    0    0 -0.25991410684E+02 -0.10036556446E+02  0.54558823509E+01  0.28391064561E+02  0.00000000000E+00 0. -1.
</event>
<event>
 5    1  0.1267644E-004  0.9118800E+02  0.7818608E-02  0.1130116E+00
         25   -1    0    0    0    0  0.00000000000E+00  0.00000000000E+00  0.99999998245E-14  0.12500000000E+03  0.12500000000E+03 0.  0.
        -13    1    3    3    0    0 -0.34892691549E+02  0.11269745028E+02 -0.12211071942E+02  0.38647490456E+02  0.10566000000E+00 0.  1.
         23    2    1    0    0    0  0.71478608749E+01  0.62850285550E+01  0.27012180497E+02  0.96359968676E+02  0.92005392065E+02 0.  0.
         13    1    3    3    0    0  0.42040552424E+02 -0.49847164732E+01  0.39223252439E+02  0.57712478220E+02  0.10566000000E+00 0. -1.
         22    1    1    0    0    0 -0.71478608749E+01 -0.62850285550E+01 -0.27012180497E+02  0.28640031324E+02  0.00000000000E+00 0. -1.
</event>
<event>
 5    1  0.1267644E-004  0.9118800E+02  0.7818608E-02  0.1130116E+00
         25   -1    0    0    0    0  0.00000000000E+00  0.00000000000E+00  0.99999998245E-14  0.12500000000E+03  0.12500000000E+03 0.  0.
        -13    1    3    3    0    0  0.18906573719E+02 -0.22919004013E+02  0.50905772842E+02  0.58941904851E+02  0.10566000000E+00 0. -1.
         23    2    1    0    0    0 -0.49049644470E+01  0.17688681106E+01  0.17184109362E+02  0.10704223886E+03  0.10552516153E+03 0.  0.
         13    1    3    3    0    0 -0.23811538166E+02  0.24687872124E+02 -0.33721663481E+02  0.48100334009E+02  0.10566000000E+00 0.  1.
         22    1    1    0    0    0  0.49049644470E+01 -0.17688681106E+01 -0.17184109362E+02  0.17957761140E+02  0.00000000000E+00 0. -1.
</event>
<event>
 5    1  0.1267644E-004  0.9118800E+02  0.7818608E-02  0.1130116E+00
         25   -1    0    0    0    0  0.00000000000E+00  0.00000000000E+00  0.99999998245E-14  0.12500000000E+03  0.12500000000E+03 0.  0.
        -13    1    3    3    0    0  0.38492103740E+02 -0.29569683182E+02 -0.37324051889E+02  0.61229929179E+02  0.10566000000E+00 0. -1.
         23    2    1    0    0    0  0.22682368705E+02 -0.62428479193E+01 -0.16819326780E+02  0.96080235936E+02  0.91624554482E+02 0.  0.
         13    1    3    3    0    0 -0.15809735035E+02  0.23326835262E+02  0.20504725109E+02  0.34850306757E+02  0.10566000000E+00 0.  1.
         22    1    1    0    0    0 -0.22682368705E+02  0.62428479193E+01  0.16819326780E+02  0.28919764064E+02  0.00000000000E+00 0. -1.
</event>
<event>
 5    1  0.1267644E-004  0.9118800E+02  0.7818608E-02  0.1130116E+00
         25   -1    0    0    0    0  0.00000000000E+00  0.00000000000E+00  0.99999998245E-14  0.12500000000E+03  0.12500000000E+03 0.  0.
        -13    1    3    3    0    0 -0.47635582650E+01 -0.10720890890E+02 -0.42887080898E+02  0.44462814360E+02  0.10566000000E+00 0.  1.
         23    2    1    0    0    0 -0.16422929022E+02 -0.22624178764E+02  0.62544507973E+01  0.96352413415E+02  0.91995126793E+02 0.  0.
         13    1    3    3    0    0 -0.11659370757E+02 -0.11903287873E+02  0.49141531695E+02  0.51889599055E+02  0.10566000000E+00 0. -1.
         22    1    1    0    0    0  0.16422929022E+02  0.22624178764E+02 -0.62544507973E+01  0.28647586585E+02  0.00000000000E+00 0. -1.
</event>
<event>
 5    1  0.1267644E-004  0.9118800E+02  0.7818608E-02  0.1130116E+00
         25   -1    0    0    0    0  0.00000000000E+00  0.00000000000E+00  0.99999998245E-14  0.12500000000E+03  0.12500000000E+03 0.  0.
        -13    1    3    3    0    0 -0.26066747884E+02 -0.39048355464E+02  0.33781303910E+02  0.57839753350E+02  0.10566000000E+00 0.  1.
         23    2    1    0    0    0 -0.20025994613E+02 -0.18084224481E+02  0.43853144083E-01  0.98017013538E+02  0.94229790324E+02 0.  0.
         13    1    3    3    0    0  0.60407532703E+01  0.20964130984E+02 -0.33737450766E+02  0.40177260188E+02  0.10566000000E+00 0. -1.
         22    1    1    0    0    0  0.20025994613E+02  0.18084224481E+02 -0.43853144083E-01  0.26982986462E+02  0.00000000000E+00 0.  1.
</event>
<event>
 5    1  0.1267644E-004  0.9118800E+02  0.7818608E-02  0.1130116E+00
         25   -1    0    0    0    0  0.00000000000E+00  0.00000000000E+00  0.99999998245E-14  0.12500000000E+03  0.12500000000E+03 0.  0.
        -13    1    3    3    0    0  0.13879570520E+01 -0.34230244275E+02  0.57940094158E+01  0.34745039316E+02  0.10566000000E+00 0. -1.
         23    2    1    0    0    0 -0.56531001751E+01  0.27430599833E+02  0.18614009996E+01  0.96931153168E+02  0.92778167108E+02 0.  0.
         13    1    3    3    0    0 -0.70410572272E+01  0.61660844108E+02 -0.39326084162E+01  0.62186113852E+02  0.10566000000E+00 0.  1.
         22    1    1    0    0    0  0.56531001751E+01 -0.27430599833E+02 -0.18614009996E+01  0.28068846832E+02  0.00000000000E+00 0.  1.
</event>
<event>
 5    1  0.1267644E-004  0.9118800E+02  0.7818608E-02  0.1130116E+00
         25   -1    0    0    0    0  0.00000000000E+00  0.00000000000E+00  0.99999998245E-14  0.12500000000E+03  0.12500000000E+03 0.  0.
        -13    1    3    3    0    0  0.30041869166E+02 -0.13855409992E+02  0.25583714067E+02  0.41821332816E+02  0.10566000000E+00 0. -1.
         23    2    1    0    0    0  0.17372778165E+02  0.15355047167E+02 -0.17894824875E+02  0.95711509906E+02  0.91120126627E+02 0.  0.
         13    1    3    3    0    0 -0.12669091001E+02  0.29210457159E+02 -0.43478538942E+02  0.53890177090E+02  0.10566000000E+00 0.  1.
         22    1    1    0    0    0 -0.17372778165E+02 -0.15355047167E+02  0.17894824875E+02  0.29288490094E+02  0.00000000000E+00 0.  1.
</event>
<event>
 5    1  0.1267644E-004  0.9118800E+02  0.7818608E-02  0.1130116E+00
         25   -1    0    0    0    0  0.00000000000E+00  0.00000000000E+00  0.99999998245E-14  0.12500000000E+03  0.12500000000E+03 0.  0.
        -13    1    3    3    0    0 -0.44340337472E+02 -0.27173573138E-01 -0.75916093564E+01  0.44985663963E+02  0.10566000000E+00 0.  1.
         23    2    1    0    0    0 -0.56830472503E+01  0.26278994293E+02  0.11840466298E+02  0.95621790231E+02  0.90996964552E+02 0.  0.
         13    1    3    3    0    0  0.38657290222E+02  0.26306167866E+02  0.19432075654E+02  0.50636126267E+02  0.10566000000E+00 0. -1.
         22    1    1    0    0    0  0.56830472503E+01 -0.26278994293E+02 -0.11840466298E+02  0.29378209769E+02  0.00000000000E+00 0. -1.
</event>
<event>
 5    1  0.1267644E-004  0.9118800E+02  0.7818608E-02  0.1130116E+00
         25   -1    0    0    0    0  0.00000000000E+00  0.00000000000E+00  0.99999998245E-14  0.12500000000E+03  0.12500000000E+03 0.  0.
        -13    1    3    3    0    0 -0.39008416740E+02  0.34480654783E+02 -0.83708160049E+01  0.52731905479E+02  0.10566000000E+00 0.  1.
         23    2    1    0    0    0 -0.19366296369E+02 -0.92381950558E+01 -0.11298923630E+02  0.10074998231E+03  0.97788013461E+02 0.  0.
         13    1    3    3    0    0  0.19642120371E+02 -0.43718849839E+02 -0.29281076249E+01  0.48018076827E+02  0.10566000000E+00 0. -1.
         22    1    1    0    0    0  0.19366296369E+02  0.92381950558E+01  0.11298923630E+02  0.24250017694E+02  0.00000000000E+00 0. -1.
</event>
<event>
 5    1  0.1267644E-004  0.9118800E+02  0.7818608E-02  0.1130116E+00
         25   -1    0    0    0    0  0.00000000000E+00  0.00000000000E+00  0.99999998245E-14  0.12500000000E+03  0.12500000000E+03 0.  0.
        -13    1    3    3    0    0 -0.36525690012E+02 -0.19267584785E+02  0.35059673732E+01  0.41444768374E+02  0.10566000000E+00 0.  1.
         23    2    1    0    0    0  0.65493438569E+01 -0.20156496632E+02 -0.24325735934E+02  0.92736712967E+02  0.86943534790E+02 0.  0.
         13    1    3    3    0    0  0.43075033869E+02 -0.88891184776E+00 -0.27831703307E+02  0.51291944593E+02  0.10566000000E+00 0. -1.
         22    1    1    0    0    0 -0.65493438569E+01  0.20156496632E+02  0.24325735934E+02  0.32263287033E+02  0.00000000000E+00 0. -1.
</event>
<event>
 5    1  0.1267644E-004  0.9118800E+02  0.7818608E-02  0.1130116E+00
         25   -1    0    0    0    0  0.00000000000E+00  0.00000000000E+00  0.99999998245E-14  0.12500000000E+03  0.12500000000E+03 0.  0.
        -13    1    3    3    0    0 -0.25872928281E+02  0.12786854773E+02 -0.39294945621E+02  0.48754650939E+02  0.10566000000E+00 0. -1.
         23    2    1    0    0    0  0.10636938916E+02  0.24297566461E+02 -0.11355678847E+02  0.96147484555E+02  0.91716253406E+02 0.  0.
         13    1    3    3    0    0  0.36509867197E+02  0.11510711688E+02  0.27939266774E+02  0.47392833617E+02  0.10566000000E+00 0.  1.
         22    1    1    0    0    0 -0.10636938916E+02 -0.24297566461E+02  0.11355678847E+02  0.28852515445E+02  0.00000000000E+00 0. -1.
</event>
<event>
 5    1  0.1267644E-004  0.9118800E+02  0.7818608E-02  0.1130116E+00
         25   -1    0    0    0    0  0.00000000000E+00  0.00000000000E+00  0.99999998245E-14  0.12500000000E+03  0.12500000000E+03 0.  0.
        -13    1    3    3    0    0  0.23262553582E+02 -0.12516813432E+02  0.21110304549E+02  0.33815279680E+02  0.10566000000E+00 0. -1.
         23    2    1    0    0    0  0.11499681387E+02 -0.28755281854E+02 -0.25710483400E+02  0.84749063823E+02  0.74580600398E+02 0.  0.
         13    1    3    3    0    0 -0.11762872195E+02 -0.16238468422E+02 -0.46820787949E+02  0.50933784143E+02  0.10566000000E+00 0.  1.
         22    1    1    0    0    0 -0.11499681387E+02  0.28755281854E+02  0.25710483400E+02  0.40250936177E+02  0.00000000000E+00 0.  1.
</event>
<event>
 5    1  0.1267644E-004  0.9118800E+02  0.7818608E-02  0.1130116E+00
         25   -1    0    0    0    0  0.00000000000E+00  0.00000000000E+00  0.99999998245E-14  0.12500000000E+03  0.12500000000E+03 0.  0.
        -13    1    3    3    0    0  0.15459454982E+02  0.42690835635E+01 -0.30194905004E+02  0.34190104929E+02  0.10566000000E+00 0. -1.
         23    2    1    0    0    0 -0.23486923874E+02 -0.72058270574E+01  0.15992153180E+02  0.95686035751E+02  0.91085174083E+02 0.  0.
         13    1    3    3    0    0 -0.38946378857E+02 -0.11474910621E+02  0.46187058185E+02  0.61495930821E+02  0.10566000000E+00 0.  1.
         22    1    1    0    0    0  0.23486923874E+02  0.72058270574E+01 -0.15992153180E+02  0.29313964249E+02  0.00000000000E+00 0.  1.
</event>
<event>
 5    1  0.1267644E-004  0.9118800E+02  0.7818608E-02  0.1130116E+00
         25   -1    0    0    0    0  0.00000000000E+00  0.00000000000E+00  0.99999998245E-14  0.12500000000E+03  0.12500000000E+03 0.  0.
        -13    1    3    3    0    0  0.30930851303E+02 -0.16833240109E+02 -0.38445184032E+02  0.52135581652E+02  0.10566000000E+00 0.  1.
         23    2    1    0    0    0  0.30303139259E+02 -0.42784773299E+01  0.18444163745E+01  0.94340784600E+02  0.89219931349E+02 0.  0.
         13    1    3    3    0    0 -0.62771204411E+00  0.12554762779E+02  0.40289600407E+02  0.42205202947E+02  0.10566000000E+00 0. -1.
         22    1    1    0    0    0 -0.30303139259E+02  0.42784773299E+01 -0.18444163745E+01  0.30659215400E+02  0.00000000000E+00 0.  1.
</event>
<event>
 5    1  0.1267644E-004  0.9118800E+02  0.7818608E-02  0.1130116E+00
         25   -1    0    0    0    0  0.00000000000E+00  0.00000000000E+00  0.99999998245E-14  0.12500000000E+03  0.12500000000E+03 0.  0.
        -13    1    3    3    0    0  0.25842700023E+02 -0.26346253267E+02  0.18355656387E+02  0.41217854033E+02  0.10566000000E+00 0. -1.
         23    2    1    0    0    0 -0.82312707051E+01  0.12044657208E+02  0.27981383310E+02  0.93443932491E+02  0.87954437766E+02 0.  0.
         13    1    3    3    0    0 -0.34073970728E+02  0.38390910475E+02  0.96257269229E+01  0.52226078458E+02  0.10566000000E+00 0.  1.
         22    1    1    0    0    0  0.82312707051E+01 -0.12044657208E+02 -0.27981383310E+02  0.31556067509E+02  0.00000000000E+00 0. -1.
</event>
<event>
 5    1  0.1267644E-004  0.9118800E+02  0.7818608E-02  0.1130116E+00
         25   -1    0    0    0    0  0.00000000000E+00  0.00000000000E+00  0.99999998245E-14  0.12500000000E+03  0.12500000000E+03 0.  0.
        -13    1    3    3    0    0 -0.41047749506E+02 -0.13730891869E+02 -0.37700342780E+01  0.43447433221E+02  0.10566000000E+00 0. -1.
         23    2    1    0    0    0  0.68145848145E+01 -0.16876187029E+02 -0.23469187472E+02  0.95300723655E+02  0.90554850305E+02 0.  0.
         13    1    3    3    0    0  0.47862334320E+02 -0.31452951608E+01 -0.19699153194E+02  0.51853290434E+02  0.10566000000E+00 0.  1.
         22    1    1    0    0    0 -0.68145848145E+01  0.16876187029E+02  0.23469187472E+02  0.29699276345E+02  0.00000000000E+00 0.  1.
</event>
<event>
 5    1  0.1267644E-004  0.9118800E+02  0.7818608E-02  0.1130116E+00
         25   -1    0    0    0    0  0.00000000000E+00  0.00000000000E+00  0.99999998245E-14  0.12500000000E+03  0.12500000000E+03 0.  0.
        -13    1    3    3    0    0  0.23822062876E+02  0.33522629843E+02 -0.31955503230E+02  0.52080924934E+02  0.10566000000E+00 0. -1.
         23    2    1    0    0    0 -0.13017972972E+02  0.18001027462E+02 -0.22950247981E+02  0.93059140707E+02  0.87405864659E+02 0.  0.
         13    1    3    3    0    0 -0.36840035848E+02 -0.15521602381E+02  0.90052552488E+01  0.40978215773E+02  0.10566000000E+00 0.  1.
         22    1    1    0    0    0  0.13017972972E+02 -0.18001027462E+02  0.22950247981E+02  0.31940859293E+02  0.00000000000E+00 0. -1.
</event>
<event>
 5    1  0.1267644E-004  0.9118800E+02  0.7818608E-02  0.1130116E+00
         25   -1    0    0    0    0  0.00000000000E+00  0.00000000000E+00  0.99999998245E-14  0.12500000000E+03  0.12500000000E+03 0.  0.
        -13    1    3    3    0    0  0.35726398077E+02  0.23552697357E+02  0.31680213212E+02  0.53242390494E+02  0.10566000000E+00 0.  1.
         23    2    1    0    0    0 -0.52610915477E+01  0.15460443261E+02  0.24382227006E+02  0.95653835279E+02  0.91040973302E+02 0.  0.
         13    1    3    3    0    0 -0.40987489624E+02 -0.80922540965E+01 -0.72979862061E+01  0.42411444785E+02  0.10566000000E+00 0. -1.
         22    1    1    0    0    0  0.52610915477E+01 -0.15460443261E+02 -0.24382227006E+02  0.29346164721E+02  0.00000000000E+00 0.  1.
</event>
<event>
 5    1  0.1267644E-004  0.9118800E+02  0.7818608E-02  0.1130116E+00
         25   -1    0    0    0    0  0.00000000000E+00  0.00000000000E+00  0.99999998245E-14  0.12500000000E+03  0.12500000000E+03 0.  0.
        -13    1    3    3    0    0 -0.39037844701E+02  0.35765710827E+02  0.44573780670E+01  0.53132087980E+02  0.10566000000E+00 0. -1.
         23    2    1    0    0    0 -0.31458047895E+02  0.35006418162E+01  0.17596831305E+02  0.88785199953E+02  0.81063555240E+02 0.  0.
         13    1    3    3    0    0  0.75797968060E+01 -0.32265069011E+02  0.13139453238E+02  0.35653111972E+02  0.10566000000E+00 0.  1.
         22    1    1    0    0    0  0.31458047895E+02 -0.35006418162E+01 -0.17596831305E+02  0.36214800047E+02  0.00000000000E+00 0.  1.
</event>
<event>
 5    1  0.1267644E-004  0.9118800E+02  0.7818608E-02  0.1130116E+00
         25   -1    0    0    0    0  0.00000000000E+00  0.00000000000E+00  0.99999998245E-14  0.12500000000E+03  0.12500000000E+03 0.  0.
        -13    1    3    3    0    0  0.93429888125E+00 -0.15658954161E+02 -0.52853902450E+02  0.55132766374E+02  0.10566000000E+00 0.  1.
         23    2    1    0    0    0 -0.20204574249E+02 -0.90248789373E+01 -0.17802783552E+02  0.96599078138E+02  0.92329678514E+02 0.  0.
         13    1    3    3    0    0 -0.21138873130E+02  0.66340752233E+01  0.35051118898E+02  0.41466311764E+02  0.10566000000E+00 0. -1.
         22    1    1    0    0    0  0.20204574249E+02  0.90248789373E+01  0.17802783552E+02  0.28400921862E+02  0.00000000000E+00 0.  1.
</event>
<event>
 5    1  0.1267644E-004  0.9118800E+02  0.7818608E-02  0.1130116E+00
         25   -1    0    0    0    0  0.00000000000E+00  0.00000000000E+00  0.99999998245E-14  0.12500000000E+03  0.12500000000E+03 0.  0.
        -13    1    3    3    0    0 -0.36468232661E+01 -0.38919964611E+02  0.42643183964E+02  0.57849073181E+02  0.10566000000E+00 0.  1.
         23    2    1    0    0    0 -0.18656233385E+02 -0.16847793211E+02  0.19315697963E+02  0.93298275000E+02  0.87747186564E+02 0.  0.
         13    1    3    3    0    0 -0.15009410119E+02  0.22072171400E+02 -0.23327486001E+02  0.35449201819E+02  0.10566000000E+00 0. -1.
         22    1    1    0    0    0  0.18656233385E+02  0.16847793211E+02 -0.19315697963E+02  0.31701725000E+02  0.00000000000E+00 0.  1.
</event>
<event>
 5    1  0.1267644E-004  0.9118800E+02  0.7818608E-02  0.1130116E+00
         25   -1    0    0    0    0  0.00000000000E+00  0.00000000000E+00  0.99999998245E-14  0.12500000000E+03  0.12500000000E+03 0.  0.
        -13    1    3    3    0    0  0.39963338969E+02  0.20580722851E+02 -0.25105516947E+02  0.51487209672E+02  0.10566000000E+00 0.  1.
         23    2    1    0    0    0 -0.37731141635E+01 -0.12946167167E+02 -0.15230252238E+01  0.11142947162E+03  0.11060003573E+03 0.  0.
         13    1    3    3    0    0 -0.43736453133E+02 -0.33526890018E+02  0.23582491723E+02  0.59942261943E+02  0.10566000000E+00 0. -1.
         22    1    1    0    0    0  0.37731141635E+01  0.12946167167E+02  0.15230252238E+01  0.13570528385E+02  0.00000000000E+00 0. -1.
</event>
<event>
 5    1  0.1267644E-004  0.9118800E+02  0.7818608E-02  0.1130116E+00
         25   -1    0    0    0    0  0.00000000000E+00  0.00000000000E+00  0.99999998245E-14  0.12500000000E+03  0.12500000000E+03 0.  0.
        -13    1    3    3    0    0  0.12285911286E+01 -0.84532853916E+01  0.10402902395E+02  0.13461018251E+02  0.10566000000E+00 0.  1.
         23    2    1    0    0    0  0.21321855217E+02  0.37506595794E+02 -0.25258797559E+02  0.75006269473E+02  0.55915716647E+02 0.  0.
         13    1    3    3    0    0  0.20093264088E+02  0.45959881186E+02 -0.35661699954E+02  0.61545251222E+02  0.10566000000E+00 0. -1.
         22    1    1    0    0    0 -0.21321855217E+02 -0.37506595794E+02  0.25258797559E+02  0.49993730527E+02  0.00000000000E+00 0. -1.
</event>
<event>
 5    1  0.1267644E-004  0.9118800E+02  0.7818608E-02  0.1130116E+00
         25   -1    0    0    0    0  0.00000000000E+00  0.00000000000E+00  0.99999998245E-14  0.12500000000E+03  0.12500000000E+03 0.  0.
        -13    1    3    3    0    0 -0.27083258217E+02 -0.32820773166E+02  0.15918017577E+02  0.45432372538E+02  0.10566000000E+00 0.  1.
         23    2    1    0    0    0  0.14699698834E+02 -0.47841629715E+01  0.24057253727E+02  0.96404181808E+02  0.92065441139E+02 0.  0.
         13    1    3    3    0    0  0.41782957051E+02  0.28036610194E+02  0.81392361500E+01  0.50971809270E+02  0.10566000000E+00 0. -1.
         22    1    1    0    0    0 -0.14699698834E+02  0.47841629715E+01 -0.24057253727E+02  0.28595818192E+02  0.00000000000E+00 0. -1.
</event>
<event>
 5    1  0.1267644E-004  0.9118800E+02  0.7818608E-02  0.1130116E+00
         25   -1    0    0    0    0  0.00000000000E+00  0.00000000000E+00  0.99999998245E-14  0.12500000000E+03  0.12500000000E+03 0.  0.
        -13    1    3    3    0    0  0.25001073148E+02  0.42264701535E+01  0.24662733360E+02  0.35371998662E+02  0.10566000000E+00 0. -1.
         23    2    1    0    0    0 -0.15833369104E+02 -0.19647344185E+02 -0.13711754566E+02  0.96281958215E+02  0.91899344686E+02 0.  0.
         13    1    3    3    0    0 -0.40834442253E+02 -0.23873814338E+02 -0.38374487926E+02  0.60909959553E+02  0.10566000000E+00 0.  1.
         22    1    1    0    0    0  0.15833369104E+02  0.19647344185E+02  0.13711754566E+02  0.28718041785E+02  0.00000000000E+00 0.  1.
</event>
<event>
 5    1  0.1267644E-004  0.9118800E+02  0.7818608E-02  0.1130116E+00
         25   -1    0    0    0    0  0.00000000000E+00  0.00000000000E+00  0.99999998245E-14  0.12500000000E+03  0.12500000000E+03 0.  0.
        -13    1    3    3    0    0  0.28058793864E+02 -0.29406710246E+02 -0.55190340938E+01  0.41018549730E+02  0.10566000000E+00 0.  1.
         23    2    1    0    0    0 -0.93333812993E+01  0.25145780742E+01 -0.28219575486E+02  0.95170827199E+02  0.90375366111E+02 0.  0.
         13    1    3    3    0    0 -0.37392175164E+02  0.31921288320E+02 -0.22700541392E+02  0.54152277469E+02  0.10566000000E+00 0. -1.
         22    1    1    0    0    0  0.93333812993E+01 -0.25145780742E+01  0.28219575486E+02  0.29829172801E+02  0.00000000000E+00 0.  1.
</event>
<event>
 5    1  0.1267644E-004  0.9118800E+02  0.7818608E-02  0.1130116E+00
         25   -1    0    0    0    0  0.00000000000E+00  0.00000000000E+00  0.99999998245E-14  0.12500000000E+03  0.12500000000E+03 0.  0.
        -13    1    3    3    0    0  0.43224065682E+02 -0.10556729011E+02 -0.32983128554E+02  0.55386481336E+02  0.10566000000E+00 0. -1.
         23    2    1    0    0    0  0.23286535562E+02 -0.12943119258E+02  0.45680671089E+01  0.97969381958E+02  0.94166583720E+02 0.  0.
         13    1    3    3    0    0 -0.19937530121E+02 -0.23863902473E+01  0.37551195662E+02  0.42582900623E+02  0.10566000000E+00 0.  1.
         22    1    1    0    0    0 -0.23286535562E+02  0.12943119258E+02 -0.45680671089E+01  0.27030618042E+02  0.00000000000E+00 0. -1.
</event>
<event>
 5    1  0.1267644E-004  0.9118800E+02  0.7818608E-02  0.1130116E+00
         25   -1    0    0    0    0  0.00000000000E+00  0.00000000000E+00  0.99999998245E-14  0.12500000000E+03  0.12500000000E+03 0.  0.
        -13    1    3    3    0    0 -0.24289963622E+02 -0.34183756231E+02  0.19705874976E+02  0.46334265888E+02  0.10566000000E+00 0. -1.
         23    2    1    0    0    0  0.18358145240E+02 -0.88298685644E+01  0.20696780170E+02  0.95959600814E+02  0.91459828359E+02 0.  0.
         13    1    3    3    0    0  0.42648108862E+02  0.25353887666E+02  0.99090519383E+00  0.49625334925E+02  0.10566000000E+00 0.  1.
         22    1    1    0    0    0 -0.18358145240E+02  0.88298685644E+01 -0.20696780170E+02  0.29040399186E+02  0.00000000000E+00 0. -1.
</event>
<event>
 5    1  0.1267644E-004  0.9118800E+02  0.7818608E-02  0.1130116E+00
         25   -1    0    0    0    0  0.00000000000E+00  0.00000000000E+00  0.99999998245E-14  0.12500000000E+03  0.12500000000E+03 0.  0.
        -13    1    3    3    0    0  0.14066671687E+02 -0.30313042360E+01  0.16283383112E+02  0.21730618659E+02  0.10566000000E+00 0.  1.
         23    2    1    0    0    0  0.26348577379E+02  0.72643605629E+01 -0.37921616236E+02  0.78255295035E+02  0.62760049066E+02 0.  0.
         13    1    3    3    0    0  0.12281905692E+02  0.10295664799E+02 -0.54204999348E+02  0.56524676376E+02  0.10566000000E+00 0. -1.
         22    1    1    0    0    0 -0.26348577379E+02 -0.72643605629E+01  0.37921616236E+02  0.46744704965E+02  0.00000000000E+00 0. -1.
</event>
<event>
 5    1  0.1267644E-004  0.9118800E+02  0.7818608E-02  0.1130116E+00
         25   -1    0    0    0    0  0.00000000000E+00  0.00000000000E+00  0.99999998245E-14  0.12500000000E+03  0.12500000000E+03 0.  0.
        -13    1    3    3    0    0  0.23970080224E+02  0.52993892026E+01  0.33074957972E+02  0.41189953639E+02  0.10566000000E+00 0.  1.
         23    2    1    0    0    0 -0.24327953587E+02  0.94513371918E+01  0.18865388058E+01  0.98832536824E+02  0.95305478362E+02 0.  0.
         13    1    3    3    0    0 -0.48298033811E+02  0.41519479892E+01 -0.31188419166E+02  0.57642583185E+02  0.10566000000E+00 0. -1.
         22    1    1    0    0    0  0.24327953587E+02 -0.94513371918E+01 -0.18865388058E+01  0.26167463176E+02  0.00000000000E+00 0. -1.
</event>
<event>
 5    1  0.1267644E-004  0.9118800E+02  0.7818608E-02  0.1130116E+00
         25   -1    0    0    0    0  0.00000000000E+00  0.00000000000E+00  0.99999998245E-14  0.12500000000E+03  0.12500000000E+03 0.  0.
        -13    1    3    3    0    0 -0.95264707509E+01 -0.10330869370E+02  0.24644794776E+02  0.28370011993E+02  0.10566000000E+00 0. -1.
         23    2    1    0    0    0 -0.46766324223E+01  0.26089729803E+02 -0.23939879177E+02  0.89283579309E+02  0.81828447542E+02 0.  0.
         13    1    3    3    0    0  0.48498383286E+01  0.36420599172E+02 -0.48584673953E+02  0.60913567315E+02  0.10566000000E+00 0.  1.
         22    1    1    0    0    0  0.46766324223E+01 -0.26089729803E+02  0.23939879177E+02  0.35716420691E+02  0.00000000000E+00 0.  1.
</event>
<event>
 5    1  0.1267644E-004  0.9118800E+02  0.7818608E-02  0.1130116E+00
         25   -1    0    0    0    0  0.00000000000E+00  0.00000000000E+00  0.99999998245E-14  0.12500000000E+03  0.12500000000E+03 0.  0.
        -13    1    3    3    0    0  0.38817496107E+02 -0.25060266201E+02  0.20489766679E+02  0.50543611354E+02  0.10566000000E+00 0.  1.
         23    2    1    0    0    0 -0.45934591691E+01 -0.11753866751E+02  0.25821000767E+02  0.96260178648E+02  0.91869715696E+02 0.  0.
         13    1    3    3    0    0 -0.43410955276E+02  0.13306399450E+02  0.53312340874E+01  0.45716567295E+02  0.10566000000E+00 0. -1.
         22    1    1    0    0    0  0.45934591691E+01  0.11753866751E+02 -0.25821000767E+02  0.28739821352E+02  0.00000000000E+00 0. -1.
</event>
<event>
 5    1  0.1267644E-004  0.9118800E+02  0.7818608E-02  0.1130116E+00
         25   -1    0    0    0    0  0.00000000000E+00  0.00000000000E+00  0.99999998245E-14  0.12500000000E+03  0.12500000000E+03 0.  0.
        -13    1    3    3    0    0 -0.22957104218E+02 -0.11838313208E+02 -0.20928447816E+02  0.33244328625E+02  0.10566000000E+00 0.  1.
         23    2    1    0    0    0  0.12956322949E+02  0.65180752512E+01  0.26064285079E+02  0.95172184692E+02  0.90377243668E+02 0.  0.
         13    1    3    3    0    0  0.35913427168E+02  0.18356388459E+02  0.46992732895E+02  0.61927856068E+02  0.10566000000E+00 0. -1.
         22    1    1    0    0    0 -0.12956322949E+02 -0.65180752512E+01 -0.26064285079E+02  0.29827815308E+02  0.00000000000E+00 0. -1.
</event>
<event>
 5    1  0.1267644E-004  0.9118800E+02  0.7818608E-02  0.1130116E+00
         25   -1    0    0    0    0  0.00000000000E+00  0.00000000000E+00  0.99999998245E-14  0.12500000000E+03  0.12500000000E+03 0.  0.
        -13    1    3    3    0    0 -0.12714116674E+02 -0.18274860589E+02 -0.26189800403E+02  0.34373479625E+02  0.10566000000E+00 0.  1.
         23    2    1    0    0    0 -0.11222757554E+02  0.30292312603E+02  0.52836675242E+01  0.92266353205E+02  0.86264641084E+02 0.  0.
         13    1    3    3    0    0  0.14913591206E+01  0.48567173193E+02  0.31473467927E+02  0.57892873580E+02  0.10566000000E+00 0. -1.
         22    1    1    0    0    0  0.11222757554E+02 -0.30292312603E+02 -0.52836675242E+01  0.32733646795E+02  0.00000000000E+00 0. -1.
</event>
<event>
 5    1  0.1267644E-004  0.9118800E+02  0.7818608E-02  0.1130116E+00
         25   -1    0    0    0    0  0.00000000000E+00  0.00000000000E+00  0.99999998245E-14  0.12500000000E+03  0.12500000000E+03 0.  0.
        -13    1    3    3    0    0 -0.17246689988E+02 -0.23212617967E+02 -0.18345309166E+02  0.34246685692E+02  0.10566000000E+00 0. -1.
         23    2    1    0    0    0  0.25675326304E+02  0.98082170685E+01  0.10467957661E+02  0.95589089772E+02  0.90952033748E+02 0.  0.
         13    1    3    3    0    0  0.42922016292E+02  0.33020835036E+02  0.28813266827E+02  0.61342404080E+02  0.10566000000E+00 0.  1.
         22    1    1    0    0    0 -0.25675326304E+02 -0.98082170685E+01 -0.10467957661E+02  0.29410910228E+02  0.00000000000E+00 0.  1.
</event>
<event>
 5    1  0.1267644E-004  0.9118800E+02  0.7818608E-02  0.1130116E+00
         25   -1    0    0    0    0  0.00000000000E+00  0.00000000000E+00  0.99999998245E-14  0.12500000000E+03  0.12500000000E+03 0.  0.
        -13    1    3    3    0    0 -0.98815467741E+01 -0.27580315671E+02  0.30711903582E+02  0.42444681231E+02  0.10566000000E+00 0. -1.
         23    2    1    0    0    0 -0.21795637477E+02 -0.25280335691E+01 -0.16733889694E+02  0.97405365901E+02  0.93414888938E+02 0.  0.
         13    1    3    3    0    0 -0.11914090703E+02  0.25052282102E+02 -0.47445793276E+02  0.54960684670E+02  0.10566000000E+00 0.  1.
         22    1    1    0    0    0  0.21795637477E+02  0.25280335691E+01  0.16733889694E+02  0.27594634099E+02  0.00000000000E+00 0.  1.
</event>
<event>
 5    1  0.1267644E-004  0.9118800E+02  0.7818608E-02  0.1130116E+00
         25   -1    0    0    0    0  0.00000000000E+00  0.00000000000E+00  0.99999998245E-14  0.12500000000E+03  0.12500000000E+03 0.  0.
        -13    1    3    3    0    0  0.10434044726E+02  0.25915054997E+02 -0.42834623569E+02  0.51139764422E+02  0.10566000000E+00 0. -1.
         23    2    1    0    0    0  0.28039574474E+02  0.11184048823E+02 -0.64970612032E+01  0.94121002460E+02  0.88911476285E+02 0.  0.
         13    1    3    3    0    0  0.17605529748E+02 -0.14731006174E+02  0.36337562366E+02  0.42981238038E+02  0.10566000000E+00 0.  1.
         22    1    1    0    0    0 -0.28039574474E+02 -0.11184048823E+02  0.64970612032E+01  0.30878997540E+02  0.00000000000E+00 0.  1.
</event>
<event>
 5    1  0.1267644E-004  0.9118800E+02  0.7818608E-02  0.1130116E+00
         25   -1    0    0    0    0  0.00000000000E+00  0.00000000000E+00  0.99999998245E-14  0.12500000000E+03  0.12500000000E+03 0.  0.
        -13    1    3    3    0    0 -0.15755585510E+02 -0.24487831800E+01  0.57404970862E+02  0.59578325401E+02  0.10566000000E+00 0.  1.
         23    2    1    0    0    0 -0.66029496764E+01 -0.14441380758E+02  0.24126916409E+02  0.96116431695E+02  0.91673921722E+02 0.  0.
         13    1    3    3    0    0  0.91526358339E+01 -0.11992597578E+02 -0.33278054453E+02  0.36538106295E+02  0.10566000000E+00 0. -1.
         22    1    1    0    0    0  0.66029496764E+01  0.14441380758E+02 -0.24126916409E+02  0.28883568305E+02  0.00000000000E+00 0.  1.
</event>
<event>
 5    1  0.1267644E-004  0.9118800E+02  0.7818608E-02  0.1130116E+00
         25   -1    0    0    0    0  0.00000000000E+00  0.00000000000E+00  0.99999998245E-14  0.12500000000E+03  0.12500000000E+03 0.  0.
        -13    1    3    3    0    0  0.31995203683E+02 -0.71489423766E+00 -0.10686212876E+02  0.33740338501E+02  0.10566000000E+00 0.  1.
         23    2    1    0    0    0 -0.16681284586E+02  0.19760986098E+02  0.17669375726E+02  0.93679580694E+02  0.88288703544E+02 0.  0.
         13    1    3    3    0    0 -0.48676488269E+02  0.20475880335E+02  0.28355588602E+02  0.59939242193E+02  0.10566000000E+00 0. -1.
         22    1    1    0    0    0  0.16681284586E+02 -0.19760986098E+02 -0.17669375726E+02  0.31320419306E+02  0.00000000000E+00 0. -1.
</event>
<event>
 5    1  0.1267644E-004  0.9118800E+02  0.7818608E-02  0.1130116E+00
         25   -1    0    0    0    0  0.00000000000E+00  0.00000000000E+00  0.99999998245E-14  0.12500000000E+03  0.12500000000E+03 0.  0.
        -13    1    3    3    0    0 -0.45525312320E+02 -0.20747065876E+01  0.88041155878E+01  0.46415321658E+02  0.10566000000E+00 0.  1.
         23    2    1    0    0    0 -0.10688991267E+02  0.27328425776E+02 -0.72973536848E+01  0.94761799648E+02  0.89807849947E+02 0.  0.
         13    1    3    3    0    0  0.34836321053E+02  0.29403132364E+02 -0.16101469273E+02  0.48346477990E+02  0.10566000000E+00 0. -1.
         22    1    1    0    0    0  0.10688991267E+02 -0.27328425776E+02  0.72973536848E+01  0.30238200352E+02  0.00000000000E+00 0.  1.
</event>
<event>
 5    1  0.1267644E-004  0.9118800E+02  0.7818608E-02  0.1130116E+00
         25   -1    0    0    0    0  0.00000000000E+00  0.00000000000E+00  0.99999998245E-14  0.12500000000E+03  0.12500000000E+03 0.  0.
        -13    1    3    3    0    0  0.54662700303E+01 -0.54832747575E+02  0.52606100669E+01  0.55355175882E+02  0.10566000000E+00 0.  1.
         23    2    1    0    0    0  0.20404371778E+02 -0.17690815395E+02 -0.67727141364E+01  0.97158071299E+02  0.93083391778E+02 0.  0.
         13    1    3    3    0    0  0.14938101748E+02  0.37141932179E+02 -0.12033324203E+02  0.41802895417E+02  0.10566000000E+00 0. -1.
         22    1    1    0    0    0 -0.20404371778E+02  0.17690815395E+02  0.67727141364E+01  0.27841928701E+02  0.00000000000E+00 0.  1.
</event>
<event>
 5    1  0.1267644E-004  0.9118800E+02  0.7818608E-02  0.1130116E+00
         25   -1    0    0    0    0  0.00000000000E+00  0.00000000000E+00  0.99999998245E-14  0.12500000000E+03  0.12500000000E+03 0.  0.
        -13    1    3    3    0    0 -0.12792537716E+02 -0.19216620555E+02 -0.27700697540E+02  0.36059219833E+02  0.10566000000E+00 0.  1.
         23    2    1    0    0    0 -0.70031838163E+01 -0.11773862293E+01  0.28636155625E+02  0.95496436980E+02  0.90824607046E+02 0.  0.
         13    1    3    3    0    0  0.57893538994E+01  0.18039234326E+02  0.56336853165E+02  0.59437217147E+02  0.10566000000E+00 0. -1.
         22    1    1    0    0    0  0.70031838163E+01  0.11773862293E+01 -0.28636155625E+02  0.29503563020E+02  0.00000000000E+00 0. -1.
</event>
<event>
 5    1  0.1267644E-004  0.9118800E+02  0.7818608E-02  0.1130116E+00
         25   -1    0    0    0    0  0.00000000000E+00  0.00000000000E+00  0.99999998245E-14  0.12500000000E+03  0.12500000000E+03 0.  0.
        -13    1    3    3    0    0  0.38859800005E+02 -0.23468144822E+01  0.45552388199E+02  0.59921805959E+02  0.10566000000E+00 0.  1.
         23    2    1    0    0    0  0.95531619130E+01 -0.10588078974E+02  0.23493302109E+02  0.97517176948E+02  0.93564385517E+02 0.  0.
         13    1    3    3    0    0 -0.29306638092E+02 -0.82412644919E+01 -0.22059086090E+02  0.37595370990E+02  0.10566000000E+00 0. -1.
         22    1    1    0    0    0 -0.95531619130E+01  0.10588078974E+02 -0.23493302109E+02  0.27482823052E+02  0.00000000000E+00 0.  1.
</event>
<event>
 5    1  0.1267644E-004  0.9118800E+02  0.7818608E-02  0.1130116E+00
         25   -1    0    0    0    0  0.00000000000E+00  0.00000000000E+00  0.99999998245E-14  0.12500000000E+03  0.12500000000E+03 0.  0.
        -13    1    3    3    0    0  0.80942134126E+01 -0.26011263299E+02 -0.23304733996E+02  0.35850019524E+02  0.10566000000E+00 0.  1.
         23    2    1    0    0    0 -0.17489621079E+02  0.30462948713E+01  0.22831772742E+02  0.96078440491E+02  0.91622104989E+02 0.  0.
         13    1    3    3    0    0 -0.25583834492E+02  0.29057558171E+02  0.46136506738E+02  0.60228420967E+02  0.10566000000E+00 0. -1.
         22    1    1    0    0    0  0.17489621079E+02 -0.30462948713E+01 -0.22831772742E+02  0.28921559509E+02  0.00000000000E+00 0. -1.
</event>
<event>
 5    1  0.1267644E-004  0.9118800E+02  0.7818608E-02  0.1130116E+00
         25   -1    0    0    0    0  0.00000000000E+00  0.00000000000E+00  0.99999998245E-14  0.12500000000E+03  0.12500000000E+03 0.  0.
        -13    1    3    3    0    0 -0.98989501515E+01  0.23145777778E+02 -0.31341453785E+02  0.40199678263E+02  0.10566000000E+00 0. -1.
         23    2    1    0    0    0 -0.12291330644E+02 -0.16276909796E+02  0.13947271740E+02  0.10029087232E+03  0.97199372843E+02 0.  0.
         13    1    3    3    0    0 -0.23923804929E+01 -0.39422687574E+02  0.45288725525E+02  0.60091194061E+02  0.10566000000E+00 0.  1.
         22    1    1    0    0    0  0.12291330644E+02  0.16276909796E+02 -0.13947271740E+02  0.24709127676E+02  0.00000000000E+00 0.  1.
</event>
<event>
 5    1  0.1267644E-004  0.9118800E+02  0.7818608E-02  0.1130116E+00
         25   -1    0    0    0    0  0.00000000000E+00  0.00000000000E+00  0.99999998245E-14  0.12500000000E+03  0.12500000000E+03 0.  0.
        -13    1    3    3    0    0  0.17719790996E+02  0.36572250184E+00  0.41695709905E+02  0.45306380725E+02  0.10566000000E+00 0.  1.
         23    2    1    0    0    0 -0.17356619125E+02  0.20950850562E+02  0.18031248317E+02  0.92360816760E+02  0.86401413124E+02 0.  0.
         13    1    3    3    0    0 -0.35076410121E+02  0.20585128060E+02 -0.23664461588E+02  0.47054436034E+02  0.10566000000E+00 0. -1.
         22    1    1    0    0    0  0.17356619125E+02 -0.20950850562E+02 -0.18031248317E+02  0.32639183240E+02  0.00000000000E+00 0.  1.
</event>
<event>
 5    1  0.1267644E-004  0.9118800E+02  0.7818608E-02  0.1130116E+00
         25   -1    0    0    0    0  0.00000000000E+00  0.00000000000E+00  0.99999998245E-14  0.12500000000E+03  0.12500000000E+03 0.  0.
        -13    1    3    3    0    0 -0.67377883601E+00 -0.17222985720E+02  0.39743257813E+02  0.43320006009E+02  0.10566000000E+00 0.  1.
         23    2    1    0    0    0 -0.85803372971E+01 -0.26033736136E+02 -0.11028204102E+02  0.95453445361E+02  0.90765419297E+02 0.  0.
         13    1    3    3    0    0 -0.79065584611E+01 -0.88107504167E+01 -0.50771461915E+02  0.52133439351E+02  0.10566000000E+00 0. -1.
         22    1    1    0    0    0  0.85803372971E+01  0.26033736136E+02  0.11028204102E+02  0.29546554639E+02  0.00000000000E+00 0. -1.
</event>
<event>
 5    1  0.1267644E-004  0.9118800E+02  0.7818608E-02  0.1130116E+00
         25   -1    0    0    0    0  0.00000000000E+00  0.00000000000E+00  0.99999998245E-14  0.12500000000E+03  0.12500000000E+03 0.  0.
        -13    1    3    3    0    0 -0.29406888735E+02  0.22617078744E+02  0.15457605739E+02  0.40190124349E+02  0.10566000000E+00 0.  1.
         23    2    1    0    0    0 -0.12250142644E+02 -0.27629043295E+02  0.73014231244E+01  0.93907544198E+02  0.88610868687E+02 0.  0.
         13    1    3    3    0    0  0.17156746090E+02 -0.50246122039E+02 -0.81561826145E+01  0.53717419849E+02  0.10566000000E+00 0. -1.
         22    1    1    0    0    0  0.12250142644E+02  0.27629043295E+02 -0.73014231244E+01  0.31092455802E+02  0.00000000000E+00 0. -1.
</event>
<event>
 5    1  0.1267644E-004  0.9118800E+02  0.7818608E-02  0.1130116E+00
         25   -1    0    0    0    0  0.00000000000E+00  0.00000000000E+00  0.99999998245E-14  0.12500000000E+03  0.12500000000E+03 0.  0.
        -13    1    3    3    0    0  0.22645657453E+02 -0.22935711600E+02  0.46389537791E+02  0.56487813275E+02  0.10566000000E+00 0.  1.
         23    2    1    0    0    0 -0.81150565914E+01 -0.10748929146E+02  0.26973492779E+02  0.94850987845E+02  0.89931901799E+02 0.  0.
         13    1    3    3    0    0 -0.30760714044E+02  0.12186782454E+02 -0.19416045012E+02  0.38363174570E+02  0.10566000000E+00 0. -1.
         22    1    1    0    0    0  0.81150565914E+01  0.10748929146E+02 -0.26973492779E+02  0.30149012155E+02  0.00000000000E+00 0.  1.
</event>
<event>
 5    1  0.1267644E-004  0.9118800E+02  0.7818608E-02  0.1130116E+00
         25   -1    0    0    0    0  0.00000000000E+00  0.00000000000E+00  0.99999998245E-14  0.12500000000E+03  0.12500000000E+03 0.  0.
        -13    1    3    3    0    0  0.88953350436E+01 -0.36492310543E+02 -0.23973165435E+02  0.44559393390E+02  0.10566000000E+00 0.  1.
         23    2    1    0    0    0  0.61028192569E+01 -0.30412395150E+02  0.19379290271E+02  0.88425212605E+02  0.80506541046E+02 0.  0.
         13    1    3    3    0    0 -0.27925157868E+01  0.60799153933E+01  0.43352455706E+02  0.43865819214E+02  0.10566000000E+00 0. -1.
         22    1    1    0    0    0 -0.61028192569E+01  0.30412395150E+02 -0.19379290271E+02  0.36574787395E+02  0.00000000000E+00 0. -1.
</event>
<event>
 5    1  0.1267644E-004  0.9118800E+02  0.7818608E-02  0.1130116E+00
         25   -1    0    0    0    0  0.00000000000E+00  0.00000000000E+00  0.99999998245E-14  0.12500000000E+03  0.12500000000E+03 0.  0.
        -13    1    3    3    0    0 -0.94242238084E+01 -0.16648416256E+02 -0.29796544522E+02  0.35409475960E+02  0.10566000000E+00 0.  1.
         23    2    1    0    0    0  0.31641083459E+02  0.43138695646E+00  0.63544493734E+01  0.92724261682E+02  0.86925631550E+02 0.  0.
         13    1    3    3    0    0  0.41065307267E+02  0.17079803213E+02  0.36150993895E+02  0.57314785722E+02  0.10566000000E+00 0. -1.
         22    1    1    0    0    0 -0.31641083459E+02 -0.43138695646E+00 -0.63544493734E+01  0.32275738318E+02  0.00000000000E+00 0. -1.
</event>
<event>
 5    1  0.1267644E-004  0.9118800E+02  0.7818608E-02  0.1130116E+00
         25   -1    0    0    0    0  0.00000000000E+00  0.00000000000E+00  0.99999998245E-14  0.12500000000E+03  0.12500000000E+03 0.  0.
        -13    1    3    3    0    0  0.60350928060E+01  0.38657572765E+02  0.46155271337E+02  0.60507441803E+02  0.10566000000E+00 0.  1.
         23    2    1    0    0    0  0.17182308330E+01  0.27038243099E+02  0.15013828412E+02  0.94025269159E+02  0.88776783507E+02 0.  0.
         13    1    3    3    0    0 -0.43168619730E+01 -0.11619329667E+02 -0.31141442925E+02  0.33517827356E+02  0.10566000000E+00 0. -1.
         22    1    1    0    0    0 -0.17182308330E+01 -0.27038243099E+02 -0.15013828412E+02  0.30974730841E+02  0.00000000000E+00 0.  1.
</event>
<event>
 5    1  0.1267644E-004  0.9118800E+02  0.7818608E-02  0.1130116E+00
         25   -1    0    0    0    0  0.00000000000E+00  0.00000000000E+00  0.99999998245E-14  0.12500000000E+03  0.12500000000E+03 0.  0.
        -13    1    3    3    0    0 -0.40172523931E+02  0.32553634510E+02  0.20211815393E+02  0.55516659160E+02  0.10566000000E+00 0. -1.
         23    2    1    0    0    0 -0.21848709316E+02  0.30031249884E+02 -0.57764139889E+01  0.87415308609E+02  0.78922919055E+02 0.  0.
         13    1    3    3    0    0  0.18323814615E+02 -0.25223846252E+01 -0.25988229382E+02  0.31898649449E+02  0.10566000000E+00 0.  1.
         22    1    1    0    0    0  0.21848709316E+02 -0.30031249884E+02  0.57764139889E+01  0.37584691391E+02  0.00000000000E+00 0. -1.
</event>
<event>
 4    1  0.1267644E-004  0.9118800E+02  0.7818608E-02  0.1130116E+00
         25   -1    0    0    0    0  0.00000000000E+00  0.00000000000E+00  0.99999998245E-14  0.12500000000E+03  0.12500000000E+03 0.  0.
        -13    1    1    0    0    0  0.88965693508E+01 -0.67928154786E+01 -0.20425633552E+00  0.11195721193E+02  0.10566000000E+00 0. -1.
         13    1    1    0    0    0 -0.23944273971E+02  0.74041851053E+01 -0.52936928271E+02  0.58570297523E+02  0.10566000000E+00 0.  1.
         22    1    1    0    0    0  0.15047704620E+02 -0.61136962670E+00  0.53141184607E+02  0.55233981285E+02  0.00000000000E+00 0.  1.
</event>
<event>
 5    1  0.1267644E-004  0.9118800E+02  0.7818608E-02  0.1130116E+00
         25   -1    0    0    0    0  0.00000000000E+00  0.00000000000E+00  0.99999998245E-14  0.12500000000E+03  0.12500000000E+03 0.  0.
        -13    1    3    3    0    0  0.40289392620E+02  0.69673979439E+01  0.71495148375E+01  0.41507909105E+02  0.10566000000E+00 0.  1.
         23    2    1    0    0    0 -0.27469785449E+01  0.21842880455E+02 -0.20615044119E+02  0.94839805012E+02  0.89916356982E+02 0.  0.
         13    1    3    3    0    0 -0.43036371165E+02  0.14875482511E+02 -0.27764558957E+02  0.53331895907E+02  0.10566000000E+00 0. -1.
         22    1    1    0    0    0  0.27469785449E+01 -0.21842880455E+02  0.20615044119E+02  0.30160194988E+02  0.00000000000E+00 0. -1.
</event>
<event>
 5    1  0.1267644E-004  0.9118800E+02  0.7818608E-02  0.1130116E+00
         25   -1    0    0    0    0  0.00000000000E+00  0.00000000000E+00  0.99999998245E-14  0.12500000000E+03  0.12500000000E+03 0.  0.
        -13    1    3    3    0    0  0.80422591460E+01  0.53729919257E+02 -0.18204451004E+02  0.57297428877E+02  0.10566000000E+00 0.  1.
         23    2    1    0    0    0  0.15367796522E+02  0.23471208215E+02  0.54795797816E+01  0.96415168715E+02  0.92080357182E+02 0.  0.
         13    1    3    3    0    0  0.73255373758E+01 -0.30258711042E+02  0.23684030785E+02  0.39117739838E+02  0.10566000000E+00 0. -1.
         22    1    1    0    0    0 -0.15367796522E+02 -0.23471208215E+02 -0.54795797816E+01  0.28584831285E+02  0.00000000000E+00 0.  1.
</event>
<event>
 5    1  0.1267644E-004  0.9118800E+02  0.7818608E-02  0.1130116E+00
         25   -1    0    0    0    0  0.00000000000E+00  0.00000000000E+00  0.99999998245E-14  0.12500000000E+03  0.12500000000E+03 0.  0.
        -13    1    3    3    0    0  0.35647379077E+01  0.45172050251E+02  0.28494783486E+02  0.53527425963E+02  0.10566000000E+00 0.  1.
         23    2    1    0    0    0  0.20477297449E+02  0.20573686402E+02 -0.16157740679E+01  0.95927555851E+02  0.91416021368E+02 0.  0.
         13    1    3    3    0    0  0.16912559541E+02 -0.24598363850E+02 -0.30110557554E+02  0.42400129888E+02  0.10566000000E+00 0. -1.
         22    1    1    0    0    0 -0.20477297449E+02 -0.20573686402E+02  0.16157740679E+01  0.29072444149E+02  0.00000000000E+00 0.  1.
</event>
<event>
 5    1  0.1267644E-004  0.9118800E+02  0.7818608E-02  0.1130116E+00
         25   -1    0    0    0    0  0.00000000000E+00  0.00000000000E+00  0.99999998245E-14  0.12500000000E+03  0.12500000000E+03 0.  0.
        -13    1    3    3    0    0 -0.35227981999E+02 -0.12240064452E+02  0.46317376959E+02  0.59465456073E+02  0.10566000000E+00 0. -1.
         23    2    1    0    0    0 -0.22253482706E+02  0.66115859658E+01  0.19841564579E+02  0.94461200965E+02  0.89388479354E+02 0.  0.
         13    1    3    3    0    0  0.12974499292E+02  0.18851650417E+02 -0.26475812380E+02  0.34995744893E+02  0.10566000000E+00 0.  1.
         22    1    1    0    0    0  0.22253482706E+02 -0.66115859658E+01 -0.19841564579E+02  0.30538799035E+02  0.00000000000E+00 0. -1.
</event>
<event>
 5    1  0.1267644E-004  0.9118800E+02  0.7818608E-02  0.1130116E+00
         25   -1    0    0    0    0  0.00000000000E+00  0.00000000000E+00  0.99999998245E-14  0.12500000000E+03  0.12500000000E+03 0.  0.
        -13    1    3    3    0    0 -0.59662795595E+01 -0.80144227829E+01 -0.35812996270E+02  0.37180765595E+02  0.10566000000E+00 0.  1.
         23    2    1    0    0    0 -0.59710857998E+01 -0.12514406104E+02  0.24064146701E+02  0.97226858618E+02  0.93175719233E+02 0.  0.
         13    1    3    3    0    0 -0.48062402795E-02 -0.44999833215E+01  0.59877142971E+02  0.60046093024E+02  0.10566000000E+00 0. -1.
         22    1    1    0    0    0  0.59710857998E+01  0.12514406104E+02 -0.24064146701E+02  0.27773141382E+02  0.00000000000E+00 0. -1.
</event>
<event>
 5    1  0.1267644E-004  0.9118800E+02  0.7818608E-02  0.1130116E+00
         25   -1    0    0    0    0  0.00000000000E+00  0.00000000000E+00  0.99999998245E-14  0.12500000000E+03  0.12500000000E+03 0.  0.
        -13    1    3    3    0    0  0.43067788460E+02 -0.40457082158E+02 -0.10856750512E+02  0.60079032077E+02  0.10566000000E+00 0. -1.
         23    2    1    0    0    0  0.26539471770E+02 -0.11812843711E+02  0.27090242397E+01  0.95824228362E+02  0.91274624570E+02 0.  0.
         13    1    3    3    0    0 -0.16528316691E+02  0.28644238447E+02  0.13565774751E+02  0.35745196285E+02  0.10566000000E+00 0.  1.
         22    1    1    0    0    0 -0.26539471770E+02  0.11812843711E+02 -0.27090242397E+01  0.29175771638E+02  0.00000000000E+00 0. -1.
</event>
<event>
 5    1  0.1267644E-004  0.9118800E+02  0.7818608E-02  0.1130116E+00
         25   -1    0    0    0    0  0.00000000000E+00  0.00000000000E+00  0.99999998245E-14  0.12500000000E+03  0.12500000000E+03 0.  0.
        -13    1    3    3    0    0 -0.91832336283E+01 -0.24878305444E+02  0.21871840396E+02  0.34375142588E+02  0.10566000000E+00 0.  1.
         23    2    1    0    0    0 -0.13132792506E+02  0.27202333186E+02 -0.69134896338E+01  0.94012365229E+02  0.88758612581E+02 0.  0.
         13    1    3    3    0    0 -0.39495588773E+01  0.52080638630E+02 -0.28785330030E+02  0.59637222641E+02  0.10566000000E+00 0. -1.
         22    1    1    0    0    0  0.13132792506E+02 -0.27202333186E+02  0.69134896338E+01  0.30987634771E+02  0.00000000000E+00 0. -1.
</event>
<event>
 5    1  0.1267644E-004  0.9118800E+02  0.7818608E-02  0.1130116E+00
         25   -1    0    0    0    0  0.00000000000E+00  0.00000000000E+00  0.99999998245E-14  0.12500000000E+03  0.12500000000E+03 0.  0.
        -13    1    3    3    0    0 -0.52408021173E+02 -0.24824604747E+02 -0.18439120590E+02  0.60851244985E+02  0.10566000000E+00 0.  1.
         23    2    1    0    0    0 -0.25235591239E+02 -0.16682609671E+01 -0.11486645248E+02  0.97223009902E+02  0.93170555840E+02 0.  0.
         13    1    3    3    0    0  0.27172429934E+02  0.23156343780E+02  0.69524753418E+01  0.36371764917E+02  0.10566000000E+00 0. -1.
         22    1    1    0    0    0  0.25235591239E+02  0.16682609671E+01  0.11486645248E+02  0.27776990098E+02  0.00000000000E+00 0.  1.
</event>
<event>
 5    1  0.1267644E-004  0.9118800E+02  0.7818608E-02  0.1130116E+00
         25   -1    0    0    0    0  0.00000000000E+00  0.00000000000E+00  0.99999998245E-14  0.12500000000E+03  0.12500000000E+03 0.  0.
        -13    1    3    3    0    0 -0.14851403349E+02 -0.22127267852E+02 -0.20254985312E+02  0.33473209557E+02  0.10566000000E+00 0. -1.
         23    2    1    0    0    0  0.17095869403E+02  0.12136684838E+02  0.20581417462E+02  0.95620370761E+02  0.90995014645E+02 0.  0.
         13    1    3    3    0    0  0.31947272752E+02  0.34263952690E+02  0.40836402774E+02  0.62147161204E+02  0.10566000000E+00 0.  1.
         22    1    1    0    0    0 -0.17095869403E+02 -0.12136684838E+02 -0.20581417462E+02  0.29379629239E+02  0.00000000000E+00 0.  1.
</event>
<event>
 5    1  0.1267644E-004  0.9118800E+02  0.7818608E-02  0.1130116E+00
         25   -1    0    0    0    0  0.00000000000E+00  0.00000000000E+00  0.99999998245E-14  0.12500000000E+03  0.12500000000E+03 0.  0.
        -13    1    3    3    0    0  0.54192185784E+02  0.16881449813E+02  0.30037611115E+01  0.56840215453E+02  0.10566000000E+00 0. -1.
         23    2    1    0    0    0  0.26687441330E+02 -0.92481912198E+01  0.92301810073E+01  0.95285612794E+02  0.90533989190E+02 0.  0.
         13    1    3    3    0    0 -0.27504744454E+02 -0.26129641033E+02  0.62264198958E+01  0.38445397342E+02  0.10566000000E+00 0.  1.
         22    1    1    0    0    0 -0.26687441330E+02  0.92481912198E+01 -0.92301810073E+01  0.29714387206E+02  0.00000000000E+00 0. -1.
</event>
<event>
 5    1  0.1267644E-004  0.9118800E+02  0.7818608E-02  0.1130116E+00
         25   -1    0    0    0    0  0.00000000000E+00  0.00000000000E+00  0.99999998245E-14  0.12500000000E+03  0.12500000000E+03 0.  0.
        -13    1    3    3    0    0 -0.19291653050E+02  0.69125736903E+01 -0.30667974120E+02  0.36884784846E+02  0.10566000000E+00 0. -1.
         23    2    1    0    0    0 -0.11069344643E+01 -0.28464476112E+02  0.10975206474E+02  0.94472850422E+02  0.89404768360E+02 0.  0.
         13    1    3    3    0    0  0.18184718586E+02 -0.35377049802E+02  0.41643180594E+02  0.57588065576E+02  0.10566000000E+00 0.  1.
         22    1    1    0    0    0  0.11069344643E+01  0.28464476112E+02 -0.10975206474E+02  0.30527149578E+02  0.00000000000E+00 0.  1.
</event>
<event>
 5    1  0.1267644E-004  0.9118800E+02  0.7818608E-02  0.1130116E+00
         25   -1    0    0    0    0  0.00000000000E+00  0.00000000000E+00  0.99999998245E-14  0.12500000000E+03  0.12500000000E+03 0.  0.
        -13    1    3    3    0    0 -0.32183803229E+02  0.47537846887E+00 -0.16101480461E+02  0.35990165491E+02  0.10566000000E+00 0. -1.
         23    2    1    0    0    0  0.61439716822E+01 -0.14053819066E+02  0.26040190490E+02  0.94778323357E+02  0.89830845700E+02 0.  0.
         13    1    3    3    0    0  0.38327774912E+02 -0.14529197535E+02  0.42141670951E+02  0.58788157866E+02  0.10566000000E+00 0.  1.
         22    1    1    0    0    0 -0.61439716822E+01  0.14053819066E+02 -0.26040190490E+02  0.30221676643E+02  0.00000000000E+00 0.  1.
</event>
<event>
 5    1  0.1267644E-004  0.9118800E+02  0.7818608E-02  0.1130116E+00
         25   -1    0    0    0    0  0.00000000000E+00  0.00000000000E+00  0.99999998245E-14  0.12500000000E+03  0.12500000000E+03 0.  0.
        -13    1    3    3    0    0 -0.40799671805E+02 -0.14135038134E+02 -0.15578465526E+02  0.45903292633E+02  0.10566000000E+00 0.  1.
         23    2    1    0    0    0 -0.20061973451E+02  0.91074486573E+01  0.21422220922E+02  0.94269885307E+02  0.89120543798E+02 0.  0.
         13    1    3    3    0    0  0.20737698354E+02  0.23242486792E+02  0.37000686448E+02  0.48366592674E+02  0.10566000000E+00 0. -1.
         22    1    1    0    0    0  0.20061973451E+02 -0.91074486573E+01 -0.21422220922E+02  0.30730114693E+02  0.00000000000E+00 0. -1.
</event>
<event>
 5    1  0.1267644E-004  0.9118800E+02  0.7818608E-02  0.1130116E+00
         25   -1    0    0    0    0  0.00000000000E+00  0.00000000000E+00  0.99999998245E-14  0.12500000000E+03  0.12500000000E+03 0.  0.
        -13    1    3    3    0    0  0.49540299799E+00 -0.41359218987E+02 -0.16225191209E+01  0.41394131851E+02  0.10566000000E+00 0. -1.
         23    2    1    0    0    0 -0.25351343353E+02  0.81515678376E+01 -0.68900698776E+01  0.97493423860E+02  0.93532646520E+02 0.  0.
         13    1    3    3    0    0 -0.25846746351E+02  0.49510786825E+02 -0.52675507567E+01  0.56099292009E+02  0.10566000000E+00 0.  1.
         22    1    1    0    0    0  0.25351343353E+02 -0.81515678376E+01  0.68900698776E+01  0.27506576140E+02  0.00000000000E+00 0.  1.
</event>
<event>
 5    1  0.1267644E-004  0.9118800E+02  0.7818608E-02  0.1130116E+00
         25   -1    0    0    0    0  0.00000000000E+00  0.00000000000E+00  0.99999998245E-14  0.12500000000E+03  0.12500000000E+03 0.  0.
        -13    1    3    3    0    0  0.15728844003E+02  0.16097983892E+02 -0.30071388013E+02  0.37561165585E+02  0.10566000000E+00 0.  1.
         23    2    1    0    0    0  0.15155298209E+02 -0.23653932586E+02  0.11099684610E+02  0.94794129892E+02  0.89852837868E+02 0.  0.
         13    1    3    3    0    0 -0.57354579407E+00 -0.39751916478E+02  0.41171072623E+02  0.57232964307E+02  0.10566000000E+00 0. -1.
         22    1    1    0    0    0 -0.15155298209E+02  0.23653932586E+02 -0.11099684610E+02  0.30205870108E+02  0.00000000000E+00 0. -1.
</event>
<event>
 5    1  0.1267644E-004  0.9118800E+02  0.7818608E-02  0.1130116E+00
         25   -1    0    0    0    0  0.00000000000E+00  0.00000000000E+00  0.99999998245E-14  0.12500000000E+03  0.12500000000E+03 0.  0.
        -13    1    3    3    0    0 -0.68843976636E+00 -0.31478168356E+02 -0.51752411011E+02  0.60577819718E+02  0.10566000000E+00 0.  1.
         23    2    1    0    0    0  0.70555859766E+01 -0.20778501889E+02 -0.18709157921E+02  0.96163217511E+02  0.91737693331E+02 0.  0.
         13    1    3    3    0    0  0.77440257430E+01  0.10699666467E+02  0.33043253091E+02  0.35585397793E+02  0.10566000000E+00 0. -1.
         22    1    1    0    0    0 -0.70555859766E+01  0.20778501889E+02  0.18709157921E+02  0.28836782489E+02  0.00000000000E+00 0.  1.
</event>
<event>
 5    1  0.1267644E-004  0.9118800E+02  0.7818608E-02  0.1130116E+00
         25   -1    0    0    0    0  0.00000000000E+00  0.00000000000E+00  0.99999998245E-14  0.12500000000E+03  0.12500000000E+03 0.  0.
        -13    1    3    3    0    0 -0.34161737184E+01 -0.51398144074E+02 -0.15760444533E+02  0.53868750060E+02  0.10566000000E+00 0. -1.
         23    2    1    0    0    0 -0.29023950501E+01 -0.67763640860E+01 -0.24563990373E+02  0.99353701431E+02  0.95986589469E+02 0.  0.
         13    1    3    3    0    0  0.51377866830E+00  0.44621779988E+02 -0.88035458393E+01  0.45484951371E+02  0.10566000000E+00 0.  1.
         22    1    1    0    0    0  0.29023950501E+01  0.67763640860E+01  0.24563990373E+02  0.25646298569E+02  0.00000000000E+00 0. -1.
</event>
<event>
 5    1  0.1267644E-004  0.9118800E+02  0.7818608E-02  0.1130116E+00
         25   -1    0    0    0    0  0.00000000000E+00  0.00000000000E+00  0.99999998245E-14  0.12500000000E+03  0.12500000000E+03 0.  0.
        -13    1    3    3    0    0 -0.26264787688E+02  0.40864353614E+01 -0.23378457295E+02  0.35399173095E+02  0.10566000000E+00 0.  1.
         23    2    1    0    0    0  0.41608023062E+01 -0.10456687922E+02  0.26843527627E+02  0.95892791724E+02  0.91368473398E+02 0.  0.
         13    1    3    3    0    0  0.30425589994E+02 -0.14543123283E+02  0.50221984923E+02  0.60493618630E+02  0.10566000000E+00 0. -1.
         22    1    1    0    0    0 -0.41608023062E+01  0.10456687922E+02 -0.26843527627E+02  0.29107208276E+02  0.00000000000E+00 0. -1.
</event>
<event>
 5    1  0.1267644E-004  0.9118800E+02  0.7818608E-02  0.1130116E+00
         25   -1    0    0    0    0  0.00000000000E+00  0.00000000000E+00  0.99999998245E-14  0.12500000000E+03  0.12500000000E+03 0.  0.
        -13    1    3    3    0    0  0.78260810030E+01  0.48944939531E+02 -0.90883602915E+00  0.49575112673E+02  0.10566000000E+00 0. -1.
         23    2    1    0    0    0 -0.15178597997E+02  0.15041295720E+02 -0.20852245203E+02  0.95142897928E+02  0.90336728312E+02 0.  0.
         13    1    3    3    0    0 -0.23004679000E+02 -0.33903643811E+02 -0.19943409174E+02  0.45567785255E+02  0.10566000000E+00 0.  1.
         22    1    1    0    0    0  0.15178597997E+02 -0.15041295720E+02  0.20852245203E+02  0.29857102072E+02  0.00000000000E+00 0. -1.
</event>
<event>
 5    1  0.1267644E-004  0.9118800E+02  0.7818608E-02  0.1130116E+00
         25   -1    0    0    0    0  0.00000000000E+00  0.00000000000E+00  0.99999998245E-14  0.12500000000E+03  0.12500000000E+03 0.  0.
        -13    1    3    3    0    0 -0.10030426668E+02  0.35824337776E+02 -0.47740761019E+02  0.60524243597E+02  0.10566000000E+00 0.  1.
         23    2    1    0    0    0 -0.12978532533E+02  0.94163641211E+01 -0.23872556634E+02  0.96242232698E+02  0.91845294786E+02 0.  0.
         13    1    3    3    0    0 -0.29481058647E+01 -0.26407973655E+02  0.23868204385E+02  0.35717989100E+02  0.10566000000E+00 0. -1.
         22    1    1    0    0    0  0.12978532533E+02 -0.94163641211E+01  0.23872556634E+02  0.28757767302E+02  0.00000000000E+00 0.  1.
</event>
<event>
 5    1  0.1267644E-004  0.9118800E+02  0.7818608E-02  0.1130116E+00
         25   -1    0    0    0    0  0.00000000000E+00  0.00000000000E+00  0.99999998245E-14  0.12500000000E+03  0.12500000000E+03 0.  0.
        -13    1    3    3    0    0  0.38517927149E+02 -0.16870746101E+02  0.43351835887E+00  0.42052965271E+02  0.10566000000E+00 0.  1.
         23    2    1    0    0    0  0.45205778433E+01 -0.45189090130E+01  0.33400157150E+02  0.90993726162E+02  0.84400423816E+02 0.  0.
         13    1    3    3    0    0 -0.33997349306E+02  0.12351837088E+02  0.32966638792E+02  0.48940760890E+02  0.10566000000E+00 0. -1.
         22    1    1    0    0    0 -0.45205778433E+01  0.45189090130E+01 -0.33400157150E+02  0.34006273838E+02  0.00000000000E+00 0. -1.
</event>
<event>
 5    1  0.1267644E-004  0.9118800E+02  0.7818608E-02  0.1130116E+00
         25   -1    0    0    0    0  0.00000000000E+00  0.00000000000E+00  0.99999998245E-14  0.12500000000E+03  0.12500000000E+03 0.  0.
        -13    1    3    3    0    0 -0.38919852749E+02 -0.33171704856E+02 -0.27663577997E+02  0.58141221631E+02  0.10566000000E+00 0.  1.
         23    2    1    0    0    0 -0.26444959194E+02 -0.13184551108E+01 -0.14630646732E+02  0.94748884079E+02  0.89789871476E+02 0.  0.
         13    1    3    3    0    0  0.12474893554E+02  0.31853249745E+02  0.13032931265E+02  0.36607662448E+02  0.10566000000E+00 0. -1.
         22    1    1    0    0    0  0.26444959194E+02  0.13184551108E+01  0.14630646732E+02  0.30251115921E+02  0.00000000000E+00 0.  1.
</event>
<event>
 5    1  0.1267644E-004  0.9118800E+02  0.7818608E-02  0.1130116E+00
         25   -1    0    0    0    0  0.00000000000E+00  0.00000000000E+00  0.99999998245E-14  0.12500000000E+03  0.12500000000E+03 0.  0.
        -13    1    3    3    0    0  0.44010274808E+01  0.32985726015E+02 -0.46528290334E+02  0.57204196779E+02  0.10566000000E+00 0.  1.
         23    2    1    0    0    0  0.20372135419E+00  0.29040982470E+02 -0.98482142675E+01  0.94333935866E+02  0.89210335536E+02 0.  0.
         13    1    3    3    0    0 -0.41973061266E+01 -0.39447435447E+01  0.36680076067E+02  0.37129739087E+02  0.10566000000E+00 0. -1.
         22    1    1    0    0    0 -0.20372135419E+00 -0.29040982470E+02  0.98482142675E+01  0.30666064134E+02  0.00000000000E+00 0.  1.
</event>
<event>
 5    1  0.1267644E-004  0.9118800E+02  0.7818608E-02  0.1130116E+00
         25   -1    0    0    0    0  0.00000000000E+00  0.00000000000E+00  0.99999998245E-14  0.12500000000E+03  0.12500000000E+03 0.  0.
        -13    1    3    3    0    0  0.13596902732E+02 -0.41504883227E+02  0.25145049918E+02  0.50396585153E+02  0.10566000000E+00 0.  1.
         23    2    1    0    0    0  0.86110272756E+01 -0.10398515070E+02  0.38189676379E+02  0.84494070948E+02  0.74151990782E+02 0.  0.
         13    1    3    3    0    0 -0.49858754567E+01  0.31106368157E+02  0.13044626461E+02  0.34097485795E+02  0.10566000000E+00 0. -1.
         22    1    1    0    0    0 -0.86110272756E+01  0.10398515070E+02 -0.38189676379E+02  0.40505929052E+02  0.00000000000E+00 0.  1.
</event>
<event>
 5    1  0.1267644E-004  0.9118800E+02  0.7818608E-02  0.1130116E+00
         25   -1    0    0    0    0  0.00000000000E+00  0.00000000000E+00  0.99999998245E-14  0.12500000000E+03  0.12500000000E+03 0.  0.
        -13    1    3    3    0    0  0.59488411651E+01  0.26161397617E+02 -0.25117003140E+02  0.36751631899E+02  0.10566000000E+00 0.  1.
         23    2    1    0    0    0 -0.23853133700E+02 -0.17763517960E+02 -0.51946482419E+00  0.95254674295E+02  0.90491262416E+02 0.  0.
         13    1    3    3    0    0 -0.29801974865E+02 -0.43924915577E+02  0.24597538315E+02  0.58503042396E+02  0.10566000000E+00 0. -1.
         22    1    1    0    0    0  0.23853133700E+02  0.17763517960E+02  0.51946482419E+00  0.29745325705E+02  0.00000000000E+00 0. -1.
</event>
<event>
 5    1  0.1267644E-004  0.9118800E+02  0.7818608E-02  0.1130116E+00
         25   -1    0    0    0    0  0.00000000000E+00  0.00000000000E+00  0.99999998245E-14  0.12500000000E+03  0.12500000000E+03 0.  0.
        -13    1    3    3    0    0 -0.42834507933E+02 -0.17056373900E+02 -0.22206057511E+02  0.51174555345E+02  0.10566000000E+00 0.  1.
         23    2    1    0    0    0 -0.12839477427E+02 -0.24539495396E+02  0.97514643028E+01  0.95637948455E+02  0.91019157950E+02 0.  0.
         13    1    3    3    0    0  0.29995030507E+02 -0.74831214954E+01  0.31957521814E+02  0.44463393111E+02  0.10566000000E+00 0. -1.
         22    1    1    0    0    0  0.12839477427E+02  0.24539495396E+02 -0.97514643028E+01  0.29362051545E+02  0.00000000000E+00 0.  1.
</event>
<event>
 5    1  0.1267644E-004  0.9118800E+02  0.7818608E-02  0.1130116E+00
         25   -1    0    0    0    0  0.00000000000E+00  0.00000000000E+00  0.99999998245E-14  0.12500000000E+03  0.12500000000E+03 0.  0.
        -13    1    3    3    0    0 -0.32736865116E+02 -0.13666447848E+02 -0.16868415748E+02  0.39281404612E+02  0.10566000000E+00 0. -1.
         23    2    1    0    0    0  0.72091165470E+01 -0.30901475347E+02  0.11534010104E+02  0.91237507067E+02  0.84760702962E+02 0.  0.
         13    1    3    3    0    0  0.39945981663E+02 -0.17235027499E+02  0.28402425852E+02  0.51956102455E+02  0.10566000000E+00 0.  1.
         22    1    1    0    0    0 -0.72091165470E+01  0.30901475347E+02 -0.11534010104E+02  0.33762492933E+02  0.00000000000E+00 0.  1.
</event>
<event>
 5    1  0.1267644E-004  0.9118800E+02  0.7818608E-02  0.1130116E+00
         25   -1    0    0    0    0  0.00000000000E+00  0.00000000000E+00  0.99999998245E-14  0.12500000000E+03  0.12500000000E+03 0.  0.
        -13    1    3    3    0    0 -0.17240823578E+02  0.88332756775E+01 -0.34222822938E+02  0.39325380236E+02  0.10566000000E+00 0. -1.
         23    2    1    0    0    0  0.26605186021E+02 -0.12626441717E+02 -0.94219412198E+01  0.94080169309E+02  0.88854050708E+02 0.  0.
         13    1    3    3    0    0  0.43846009598E+02 -0.21459717395E+02  0.24800881718E+02  0.54754789073E+02  0.10566000000E+00 0.  1.
         22    1    1    0    0    0 -0.26605186021E+02  0.12626441717E+02  0.94219412198E+01  0.30919830691E+02  0.00000000000E+00 0.  1.
</event>
<event>
 5    1  0.1267644E-004  0.9118800E+02  0.7818608E-02  0.1130116E+00
         25   -1    0    0    0    0  0.00000000000E+00  0.00000000000E+00  0.99999998245E-14  0.12500000000E+03  0.12500000000E+03 0.  0.
        -13    1    3    3    0    0 -0.39064773573E+02  0.46799719096E+02 -0.63988418729E+01  0.61296219975E+02  0.10566000000E+00 0.  1.
         23    2    1    0    0    0 -0.20716177827E+02  0.18035844149E+02 -0.10360898723E+02  0.95643571057E+02  0.91026879351E+02 0.  0.
         13    1    3    3    0    0  0.18348595746E+02 -0.28763874948E+02 -0.39620568503E+01  0.34347351083E+02  0.10566000000E+00 0. -1.
         22    1    1    0    0    0  0.20716177827E+02 -0.18035844149E+02  0.10360898723E+02  0.29356428943E+02  0.00000000000E+00 0.  1.
</event>
<event>
 5    1  0.1267644E-004  0.9118800E+02  0.7818608E-02  0.1130116E+00
         25   -1    0    0    0    0  0.00000000000E+00  0.00000000000E+00  0.99999998245E-14  0.12500000000E+03  0.12500000000E+03 0.  0.
        -13    1    3    3    0    0  0.26018655172E+02  0.10523876802E+02  0.21872292301E+02  0.35582730846E+02  0.10566000000E+00 0. -1.
         23    2    1    0    0    0 -0.17632692721E+02 -0.24761308987E+02  0.10398327916E+02  0.92872760797E+02  0.87138913232E+02 0.  0.
         13    1    3    3    0    0 -0.43651347893E+02 -0.35285185789E+02 -0.11473964385E+02  0.57290029951E+02  0.10566000000E+00 0.  1.
         22    1    1    0    0    0  0.17632692721E+02  0.24761308987E+02 -0.10398327916E+02  0.32127239203E+02  0.00000000000E+00 0.  1.
</event>
<event>
 5    1  0.1267644E-004  0.9118800E+02  0.7818608E-02  0.1130116E+00
         25   -1    0    0    0    0  0.00000000000E+00  0.00000000000E+00  0.99999998245E-14  0.12500000000E+03  0.12500000000E+03 0.  0.
        -13    1    3    3    0    0 -0.95572184107E+01  0.47163796422E+02  0.18409255520E+02  0.51523547719E+02  0.10566000000E+00 0.  1.
         23    2    1    0    0    0 -0.32989008965E+01  0.65335617652E+01  0.29906777668E+02  0.94210626395E+02  0.89037388769E+02 0.  0.
         13    1    3    3    0    0  0.62583175142E+01 -0.40630234657E+02  0.11497522148E+02  0.42687078677E+02  0.10566000000E+00 0. -1.
         22    1    1    0    0    0  0.32989008965E+01 -0.65335617652E+01 -0.29906777668E+02  0.30789373605E+02  0.00000000000E+00 0. -1.
</event>
<event>
 5    1  0.1267644E-004  0.9118800E+02  0.7818608E-02  0.1130116E+00
         25   -1    0    0    0    0  0.00000000000E+00  0.00000000000E+00  0.99999998245E-14  0.12500000000E+03  0.12500000000E+03 0.  0.
        -13    1    3    3    0    0 -0.25684845600E+02 -0.11192025883E+02 -0.21839318627E+02  0.35523791169E+02  0.10566000000E+00 0.  1.
         23    2    1    0    0    0  0.29134410827E+02 -0.12552574631E+02 -0.11018279288E+02  0.91417511966E+02  0.85025748991E+02 0.  0.
         13    1    3    3    0    0  0.54819256427E+02 -0.13605487480E+01  0.10821039339E+02  0.55893720797E+02  0.10566000000E+00 0. -1.
         22    1    1    0    0    0 -0.29134410827E+02  0.12552574631E+02  0.11018279288E+02  0.33582488034E+02  0.00000000000E+00 0. -1.
</event>
<event>
 5    1  0.1267644E-004  0.9118800E+02  0.7818608E-02  0.1130116E+00
         25   -1    0    0    0    0  0.00000000000E+00  0.00000000000E+00  0.99999998245E-14  0.12500000000E+03  0.12500000000E+03 0.  0.
        -13    1    3    3    0    0 -0.19182198612E+02 -0.23908287932E+02  0.21234858462E+02  0.37289319562E+02  0.10566000000E+00 0. -1.
         23    2    1    0    0    0  0.22239199774E+02  0.15908411322E+02  0.34174099749E+01  0.97443907238E+02  0.93466447506E+02 0.  0.
         13    1    3    3    0    0  0.41421398387E+02  0.39816699254E+02 -0.17817448487E+02  0.60154587676E+02  0.10566000000E+00 0.  1.
         22    1    1    0    0    0 -0.22239199774E+02 -0.15908411322E+02 -0.34174099749E+01  0.27556092762E+02  0.00000000000E+00 0.  1.
</event>
<event>
 5    1  0.1267644E-004  0.9118800E+02  0.7818608E-02  0.1130116E+00
         25   -1    0    0    0    0  0.00000000000E+00  0.00000000000E+00  0.99999998245E-14  0.12500000000E+03  0.12500000000E+03 0.  0.
        -13    1    3    3    0    0  0.42181283480E+01  0.30715957142E+02 -0.15121675011E+02  0.34495490272E+02  0.10566000000E+00 0. -1.
         23    2    1    0    0    0  0.97316355627E+01 -0.24242117699E+02  0.12259362769E+02  0.96143857209E+02  0.91711309566E+02 0.  0.
         13    1    3    3    0    0  0.55135072147E+01 -0.54958074842E+02  0.27381037779E+02  0.61648366937E+02  0.10566000000E+00 0.  1.
         22    1    1    0    0    0 -0.97316355627E+01  0.24242117699E+02 -0.12259362769E+02  0.28856142791E+02  0.00000000000E+00 0.  1.
</event>
<event>
 5    1  0.1267644E-004  0.9118800E+02  0.7818608E-02  0.1130116E+00
         25   -1    0    0    0    0  0.00000000000E+00  0.00000000000E+00  0.99999998245E-14  0.12500000000E+03  0.12500000000E+03 0.  0.
        -13    1    3    3    0    0  0.35626132156E+02  0.42761264299E+01 -0.61463002766E+01  0.36404597523E+02  0.10566000000E+00 0.  1.
         23    2    1    0    0    0 -0.19394985271E+02 -0.88996121027E+01 -0.21168897717E+02  0.94941876642E+02  0.90058143222E+02 0.  0.
         13    1    3    3    0    0 -0.55021117427E+02 -0.13175738533E+02 -0.15022597441E+02  0.58537279119E+02  0.10566000000E+00 0. -1.
         22    1    1    0    0    0  0.19394985271E+02  0.88996121027E+01  0.21168897717E+02  0.30058123358E+02  0.00000000000E+00 0. -1.
</event>
<event>
 5    1  0.1267644E-004  0.9118800E+02  0.7818608E-02  0.1130116E+00
         25   -1    0    0    0    0  0.00000000000E+00  0.00000000000E+00  0.99999998245E-14  0.12500000000E+03  0.12500000000E+03 0.  0.
        -13    1    3    3    0    0 -0.23207847224E+02  0.24348845865E+02 -0.43115559171E+01  0.33912698893E+02  0.10566000000E+00 0.  1.
         23    2    1    0    0    0  0.95526491175E+01 -0.17486362207E+02  0.23746055116E+02  0.94001595170E+02  0.88743443660E+02 0.  0.
         13    1    3    3    0    0  0.32760496342E+02 -0.41835208072E+02  0.28057611033E+02  0.60088896278E+02  0.10566000000E+00 0. -1.
         22    1    1    0    0    0 -0.95526491175E+01  0.17486362207E+02 -0.23746055116E+02  0.30998404830E+02  0.00000000000E+00 0. -1.
</event>
<event>
 5    1  0.1267644E-004  0.9118800E+02  0.7818608E-02  0.1130116E+00
         25   -1    0    0    0    0  0.00000000000E+00  0.00000000000E+00  0.99999998245E-14  0.12500000000E+03  0.12500000000E+03 0.  0.
        -13    1    3    3    0    0  0.33666273915E+01  0.27117681717E+02 -0.62715754720E+01  0.28036523762E+02  0.10566000000E+00 0. -1.
         23    2    1    0    0    0 -0.15464746056E+02 -0.29262479351E+02  0.11308650971E+02  0.90023770141E+02  0.82951446855E+02 0.  0.
         13    1    3    3    0    0 -0.18831373447E+02 -0.56380161068E+02  0.17580226443E+02  0.61987246380E+02  0.10566000000E+00 0.  1.
         22    1    1    0    0    0  0.15464746056E+02  0.29262479351E+02 -0.11308650971E+02  0.34976229859E+02  0.00000000000E+00 0.  1.
</event>
<event>
 5    1  0.1267644E-004  0.9118800E+02  0.7818608E-02  0.1130116E+00
         25   -1    0    0    0    0  0.00000000000E+00  0.00000000000E+00  0.99999998245E-14  0.12500000000E+03  0.12500000000E+03 0.  0.
        -13    1    3    3    0    0 -0.51121441793E+02  0.17573446025E+02 -0.14454223279E+02  0.55956800756E+02  0.10566000000E+00 0. -1.
         23    2    1    0    0    0 -0.19568796177E+02  0.60403354568E+01 -0.26378353827E+02  0.91604775987E+02  0.85300609592E+02 0.  0.
         13    1    3    3    0    0  0.31552645616E+02 -0.11533110569E+02 -0.11924130548E+02  0.35647975231E+02  0.10566000000E+00 0.  1.
         22    1    1    0    0    0  0.19568796177E+02 -0.60403354568E+01  0.26378353827E+02  0.33395224013E+02  0.00000000000E+00 0. -1.
</event>
<event>
 5    1  0.1267644E-004  0.9118800E+02  0.7818608E-02  0.1130116E+00
         25   -1    0    0    0    0  0.00000000000E+00  0.00000000000E+00  0.99999998245E-14  0.12500000000E+03  0.12500000000E+03 0.  0.
        -13    1    3    3    0    0  0.52021791470E+02 -0.22846266501E+02  0.12127075019E+02  0.58097295921E+02  0.10566000000E+00 0. -1.
         23    2    1    0    0    0  0.25359321012E+02  0.42561006456E+01  0.13126536128E+02  0.96129331397E+02  0.91691509144E+02 0.  0.
         13    1    3    3    0    0 -0.26662470458E+02  0.27102367146E+02  0.99946110903E+00  0.38032035476E+02  0.10566000000E+00 0.  1.
         22    1    1    0    0    0 -0.25359321012E+02 -0.42561006456E+01 -0.13126536128E+02  0.28870668603E+02  0.00000000000E+00 0. -1.
</event>
<event>
 5    1  0.1267644E-004  0.9118800E+02  0.7818608E-02  0.1130116E+00
         25   -1    0    0    0    0  0.00000000000E+00  0.00000000000E+00  0.99999998245E-14  0.12500000000E+03  0.12500000000E+03 0.  0.
        -13    1    3    3    0    0 -0.12532167116E+02 -0.51892283438E+02 -0.50089362482E+01  0.53618699158E+02  0.10566000000E+00 0.  1.
         23    2    1    0    0    0 -0.10878486269E+02 -0.13911743489E+02 -0.23264917022E+02  0.95791534884E+02  0.91229840080E+02 0.  0.
         13    1    3    3    0    0  0.16536808469E+01  0.37980539949E+02 -0.18255980773E+02  0.42172835726E+02  0.10566000000E+00 0. -1.
         22    1    1    0    0    0  0.10878486269E+02  0.13911743489E+02  0.23264917022E+02  0.29208465116E+02  0.00000000000E+00 0. -1.
</event>
<event>
 5    1  0.1267644E-004  0.9118800E+02  0.7818608E-02  0.1130116E+00
         25   -1    0    0    0    0  0.00000000000E+00  0.00000000000E+00  0.99999998245E-14  0.12500000000E+03  0.12500000000E+03 0.  0.
        -13    1    3    3    0    0 -0.30724583481E+02  0.43083718769E+02  0.27656009833E+02  0.59708231401E+02  0.10566000000E+00 0.  1.
         23    2    1    0    0    0 -0.22227557367E+01  0.25500714907E+02  0.13424981465E+02  0.96095722960E+02  0.91645680422E+02 0.  0.
         13    1    3    3    0    0  0.28501827744E+02 -0.17583003862E+02 -0.14231028368E+02  0.36387491560E+02  0.10566000000E+00 0. -1.
         22    1    1    0    0    0  0.22227557367E+01 -0.25500714907E+02 -0.13424981465E+02  0.28904277040E+02  0.00000000000E+00 0.  1.
</event>
<event>
 5    1  0.1267644E-004  0.9118800E+02  0.7818608E-02  0.1130116E+00
         25   -1    0    0    0    0  0.00000000000E+00  0.00000000000E+00  0.99999998245E-14  0.12500000000E+03  0.12500000000E+03 0.  0.
        -13    1    3    3    0    0 -0.84577045934E+01  0.22291239473E+02  0.47047960251E+02  0.52744230509E+02  0.10566000000E+00 0.  1.
         23    2    1    0    0    0  0.11807694867E+02  0.24906335745E+02  0.88736996138E+01  0.96043312290E+02  0.91574167058E+02 0.  0.
         13    1    3    3    0    0  0.20265399460E+02  0.26150962722E+01 -0.38174260637E+02  0.43299081780E+02  0.10566000000E+00 0. -1.
         22    1    1    0    0    0 -0.11807694867E+02 -0.24906335745E+02 -0.88736996138E+01  0.28956687710E+02  0.00000000000E+00 0.  1.
</event>
<event>
 5    1  0.1267644E-004  0.9118800E+02  0.7818608E-02  0.1130116E+00
         25   -1    0    0    0    0  0.00000000000E+00  0.00000000000E+00  0.99999998245E-14  0.12500000000E+03  0.12500000000E+03 0.  0.
        -13    1    3    3    0    0  0.19462778453E+01  0.22744733266E+02  0.18880175550E+02  0.29624028788E+02  0.10566000000E+00 0. -1.
         23    2    1    0    0    0 -0.24360416493E+02 -0.55047130084E+01 -0.26085748751E+02  0.88886317760E+02  0.81219329227E+02 0.  0.
         13    1    3    3    0    0 -0.26306694338E+02 -0.28249446275E+02 -0.44965924301E+02  0.59262288972E+02  0.10566000000E+00 0.  1.
         22    1    1    0    0    0  0.24360416493E+02  0.55047130084E+01  0.26085748751E+02  0.36113682240E+02  0.00000000000E+00 0.  1.
</event>
<event>
 5    1  0.1267644E-004  0.9118800E+02  0.7818608E-02  0.1130116E+00
         25   -1    0    0    0    0  0.00000000000E+00  0.00000000000E+00  0.99999998245E-14  0.12500000000E+03  0.12500000000E+03 0.  0.
        -13    1    3    3    0    0 -0.39560985818E+02  0.29841695598E+02  0.83867041850E+01  0.50258793919E+02  0.10566000000E+00 0. -1.
         23    2    1    0    0    0 -0.17529830952E+02 -0.67948217275E+01  0.22868222837E+02  0.95395605204E+02  0.90685728210E+02 0.  0.
         13    1    3    3    0    0  0.22031154867E+02 -0.36636517325E+02  0.14481518652E+02  0.45136811285E+02  0.10566000000E+00 0.  1.
         22    1    1    0    0    0  0.17529830952E+02  0.67948217275E+01 -0.22868222837E+02  0.29604394796E+02  0.00000000000E+00 0. -1.
</event>
<event>
 5    1  0.1267644E-004  0.9118800E+02  0.7818608E-02  0.1130116E+00
         25   -1    0    0    0    0  0.00000000000E+00  0.00000000000E+00  0.99999998245E-14  0.12500000000E+03  0.12500000000E+03 0.  0.
        -13    1    3    3    0    0 -0.36116643791E+02  0.72826430841E+01  0.33995863533E+02  0.50131614281E+02  0.10566000000E+00 0. -1.
         23    2    1    0    0    0 -0.10626954777E+02  0.80967708874E+01  0.45111561869E+02  0.77951696302E+02  0.62152426143E+02 0.  0.
         13    1    3    3    0    0  0.25489689014E+02  0.81412780332E+00  0.11115698336E+02  0.27820082021E+02  0.10566000000E+00 0.  1.
         22    1    1    0    0    0  0.10626954777E+02 -0.80967708874E+01 -0.45111561869E+02  0.47048303698E+02  0.00000000000E+00 0. -1.
</event>
<event>
 5    1  0.1267644E-004  0.9118800E+02  0.7818608E-02  0.1130116E+00
         25   -1    0    0    0    0  0.00000000000E+00  0.00000000000E+00  0.99999998245E-14  0.12500000000E+03  0.12500000000E+03 0.  0.
        -13    1    3    3    0    0  0.54195392122E+02 -0.17909507997E+01 -0.97191159062E+01  0.55089204116E+02  0.10566000000E+00 0. -1.
         23    2    1    0    0    0  0.21311941897E+02  0.13549109764E+02  0.11637575115E+02  0.97193338975E+02  0.93130740058E+02 0.  0.
         13    1    3    3    0    0 -0.32883450225E+02  0.15340060564E+02  0.21356691021E+02  0.42104134859E+02  0.10566000000E+00 0.  1.
         22    1    1    0    0    0 -0.21311941897E+02 -0.13549109764E+02 -0.11637575115E+02  0.27806661025E+02  0.00000000000E+00 0. -1.
</event>
<event>
 5    1  0.1267644E-004  0.9118800E+02  0.7818608E-02  0.1130116E+00
         25   -1    0    0    0    0  0.00000000000E+00  0.00000000000E+00  0.99999998245E-14  0.12500000000E+03  0.12500000000E+03 0.  0.
        -13    1    3    3    0    0 -0.22850438731E+02 -0.33071977749E+02 -0.46780186398E+02  0.61678969397E+02  0.10566000000E+00 0. -1.
         23    2    1    0    0    0 -0.92169804579E+01 -0.21156996964E+02 -0.17780054735E+02  0.95867516486E+02  0.91333888133E+02 0.  0.
         13    1    3    3    0    0  0.13633458273E+02  0.11914980785E+02  0.29000131663E+02  0.34188547089E+02  0.10566000000E+00 0.  1.
         22    1    1    0    0    0  0.92169804579E+01  0.21156996964E+02  0.17780054735E+02  0.29132483514E+02  0.00000000000E+00 0. -1.
</event>
<event>
 5    1  0.1267644E-004  0.9118800E+02  0.7818608E-02  0.1130116E+00
         25   -1    0    0    0    0  0.00000000000E+00  0.00000000000E+00  0.99999998245E-14  0.12500000000E+03  0.12500000000E+03 0.  0.
        -13    1    3    3    0    0  0.23421825671E+02 -0.56337927210E+02 -0.53236643713E+01  0.61244563240E+02  0.10566000000E+00 0.  1.
         23    2    1    0    0    0  0.88140203192E+01 -0.24518910242E+02 -0.11007815140E+02  0.96715093993E+02  0.92486612536E+02 0.  0.
         13    1    3    3    0    0 -0.14607805352E+02  0.31819016967E+02 -0.56841507684E+01  0.35470530754E+02  0.10566000000E+00 0. -1.
         22    1    1    0    0    0 -0.88140203192E+01  0.24518910242E+02  0.11007815140E+02  0.28284906007E+02  0.00000000000E+00 0.  1.
</event>
<event>
 4    1  0.1267644E-004  0.9118800E+02  0.7818608E-02  0.1130116E+00
         25   -1    0    0    0    0  0.00000000000E+00  0.00000000000E+00  0.99999998245E-14  0.12500000000E+03  0.12500000000E+03 0.  0.
        -13    1    1    0    0    0 -0.15455438337E+02  0.22602104804E+02 -0.56429542389E+01  0.27956748959E+02  0.10566000000E+00 0.  1.
         13    1    1    0    0    0  0.38611281521E+02  0.23513071286E+02  0.80413396146E+00  0.45214526177E+02  0.10566000000E+00 0. -1.
         22    1    1    0    0    0 -0.23155843183E+02 -0.46115176090E+02  0.48388202774E+01  0.51828724864E+02  0.00000000000E+00 0. -1.
</event>
<event>
 5    1  0.1267644E-004  0.9118800E+02  0.7818608E-02  0.1130116E+00
         25   -1    0    0    0    0  0.00000000000E+00  0.00000000000E+00  0.99999998245E-14  0.12500000000E+03  0.12500000000E+03 0.  0.
        -13    1    3    3    0    0  0.31043342822E+02 -0.16201455757E+02  0.25391158978E+02  0.43253883299E+02  0.10566000000E+00 0.  1.
         23    2    1    0    0    0  0.22874288223E+02  0.22317610590E+01 -0.21019249374E+02  0.93854813159E+02  0.88536451757E+02 0.  0.
         13    1    3    3    0    0 -0.81690545988E+01  0.18433216816E+02 -0.46410408352E+02  0.50600929860E+02  0.10566000000E+00 0. -1.
         22    1    1    0    0    0 -0.22874288223E+02 -0.22317610590E+01  0.21019249374E+02  0.31145186841E+02  0.00000000000E+00 0. -1.
</event>
<event>
 5    1  0.1267644E-004  0.9118800E+02  0.7818608E-02  0.1130116E+00
         25   -1    0    0    0    0  0.00000000000E+00  0.00000000000E+00  0.99999998245E-14  0.12500000000E+03  0.12500000000E+03 0.  0.
        -13    1    3    3    0    0 -0.74605349689E+01  0.23499783893E+02 -0.27359522300E+02  0.36830069910E+02  0.10566000000E+00 0. -1.
         23    2    1    0    0    0 -0.10873636387E+02  0.20509142436E+02  0.25863810799E+02  0.90246617419E+02  0.83286579680E+02 0.  0.
         13    1    3    3    0    0 -0.34131014183E+01 -0.29906414573E+01  0.53223333099E+02  0.53416547509E+02  0.10566000000E+00 0.  1.
         22    1    1    0    0    0  0.10873636387E+02 -0.20509142436E+02 -0.25863810799E+02  0.34753382581E+02  0.00000000000E+00 0.  1.
</event>
<event>
 5    1  0.1267644E-004  0.9118800E+02  0.7818608E-02  0.1130116E+00
         25   -1    0    0    0    0  0.00000000000E+00  0.00000000000E+00  0.99999998245E-14  0.12500000000E+03  0.12500000000E+03 0.  0.
        -13    1    3    3    0    0 -0.12322546209E+02 -0.52621634528E+01 -0.39316886103E+02  0.41537503610E+02  0.10566000000E+00 0. -1.
         23    2    1    0    0    0 -0.26465165302E+02 -0.71876795883E+01  0.12192486481E+02  0.94987928447E+02  0.90122040100E+02 0.  0.
         13    1    3    3    0    0 -0.14142619093E+02 -0.19255161354E+01  0.51509372584E+02  0.53450424837E+02  0.10566000000E+00 0.  1.
         22    1    1    0    0    0  0.26465165302E+02  0.71876795883E+01 -0.12192486481E+02  0.30012071553E+02  0.00000000000E+00 0. -1.
</event>
<event>
 5    1  0.1267644E-004  0.9118800E+02  0.7818608E-02  0.1130116E+00
         25   -1    0    0    0    0  0.00000000000E+00  0.00000000000E+00  0.99999998245E-14  0.12500000000E+03  0.12500000000E+03 0.  0.
        -13    1    3    3    0    0 -0.89778928971E+01  0.39037441013E+02  0.44735493696E+02  0.60048313231E+02  0.10566000000E+00 0. -1.
         23    2    1    0    0    0 -0.12874023760E+02  0.11295762276E+02  0.26405723838E+02  0.93526249277E+02  0.88071347891E+02 0.  0.
         13    1    3    3    0    0 -0.38961308625E+01 -0.27741678737E+02 -0.18329769858E+02  0.33477936046E+02  0.10566000000E+00 0.  1.
         22    1    1    0    0    0  0.12874023760E+02 -0.11295762276E+02 -0.26405723838E+02  0.31473750723E+02  0.00000000000E+00 0. -1.
</event>
<event>
 5    1  0.1267644E-004  0.9118800E+02  0.7818608E-02  0.1130116E+00
         25   -1    0    0    0    0  0.00000000000E+00  0.00000000000E+00  0.99999998245E-14  0.12500000000E+03  0.12500000000E+03 0.  0.
        -13    1    3    3    0    0  0.13725557642E+02 -0.16441206044E+02 -0.27157998998E+02  0.34587169043E+02  0.10566000000E+00 0.  1.
         23    2    1    0    0    0  0.20329922318E+01  0.23245269570E+02  0.17775152183E+02  0.95666884756E+02  0.91058888578E+02 0.  0.
         13    1    3    3    0    0 -0.11692565411E+02  0.39686475614E+02  0.44933151181E+02  0.61079715713E+02  0.10566000000E+00 0. -1.
         22    1    1    0    0    0 -0.20329922318E+01 -0.23245269570E+02 -0.17775152183E+02  0.29333115244E+02  0.00000000000E+00 0. -1.
</event>
<event>
 5    1  0.1267644E-004  0.9118800E+02  0.7818608E-02  0.1130116E+00
         25   -1    0    0    0    0  0.00000000000E+00  0.00000000000E+00  0.99999998245E-14  0.12500000000E+03  0.12500000000E+03 0.  0.
        -13    1    3    3    0    0 -0.53060414060E+02 -0.87609529565E+01  0.22967326557E+02  0.58477953881E+02  0.10566000000E+00 0.  1.
         23    2    1    0    0    0 -0.17647481517E+02 -0.42734328449E+01  0.24849111019E+02  0.94223805456E+02  0.89055888991E+02 0.  0.
         13    1    3    3    0    0  0.35412932543E+02  0.44875201116E+01  0.18817844623E+01  0.35745851575E+02  0.10566000000E+00 0. -1.
         22    1    1    0    0    0  0.17647481517E+02  0.42734328449E+01 -0.24849111019E+02  0.30776194544E+02  0.00000000000E+00 0.  1.
</event>
<event>
 5    1  0.1267644E-004  0.9118800E+02  0.7818608E-02  0.1130116E+00
         25   -1    0    0    0    0  0.00000000000E+00  0.00000000000E+00  0.99999998245E-14  0.12500000000E+03  0.12500000000E+03 0.  0.
        -13    1    3    3    0    0 -0.17050890683E+02  0.46609984253E+02  0.30136715451E+02  0.58064242761E+02  0.10566000000E+00 0.  1.
         23    2    1    0    0    0 -0.22875041370E+02  0.14573272974E+02  0.11944624718E+02  0.95363504551E+02  0.90641470298E+02 0.  0.
         13    1    3    3    0    0 -0.58241506865E+01 -0.32036711279E+02 -0.18192090733E+02  0.37299261790E+02  0.10566000000E+00 0. -1.
         22    1    1    0    0    0  0.22875041370E+02 -0.14573272974E+02 -0.11944624718E+02  0.29636495449E+02  0.00000000000E+00 0.  1.
</event>
<event>
 5    1  0.1267644E-004  0.9118800E+02  0.7818608E-02  0.1130116E+00
         25   -1    0    0    0    0  0.00000000000E+00  0.00000000000E+00  0.99999998245E-14  0.12500000000E+03  0.12500000000E+03 0.  0.
        -13    1    3    3    0    0  0.76102835182E+01  0.42910660461E+01 -0.40023866595E+02  0.40966458527E+02  0.10566000000E+00 0.  1.
         23    2    1    0    0    0  0.16255556697E+02 -0.10060797624E+01  0.18494338559E+02  0.10035662607E+03  0.97283896493E+02 0.  0.
         13    1    3    3    0    0  0.86452731791E+01 -0.52971458085E+01  0.58518205154E+02  0.59390167541E+02  0.10566000000E+00 0. -1.
         22    1    1    0    0    0 -0.16255556697E+02  0.10060797624E+01 -0.18494338559E+02  0.24643373932E+02  0.00000000000E+00 0. -1.
</event>
<event>
 5    1  0.1267644E-004  0.9118800E+02  0.7818608E-02  0.1130116E+00
         25   -1    0    0    0    0  0.00000000000E+00  0.00000000000E+00  0.99999998245E-14  0.12500000000E+03  0.12500000000E+03 0.  0.
        -13    1    3    3    0    0 -0.23683946033E+02 -0.11080664069E+02 -0.32919456101E+02  0.42040601446E+02  0.10566000000E+00 0.  1.
         23    2    1    0    0    0  0.24291153081E+02  0.49218023896E+01 -0.16550020965E+02  0.95197526098E+02  0.90412286358E+02 0.  0.
         13    1    3    3    0    0  0.47975099114E+02  0.16002466458E+02  0.16369435136E+02  0.53156924652E+02  0.10566000000E+00 0. -1.
         22    1    1    0    0    0 -0.24291153081E+02 -0.49218023896E+01  0.16550020965E+02  0.29802473902E+02  0.00000000000E+00 0. -1.
</event>
<event>
 5    1  0.1267644E-004  0.9118800E+02  0.7818608E-02  0.1130116E+00
         25   -1    0    0    0    0  0.00000000000E+00  0.00000000000E+00  0.99999998245E-14  0.12500000000E+03  0.12500000000E+03 0.  0.
        -13    1    3    3    0    0 -0.37288405073E+02  0.38599392966E+02 -0.11467058708E+02  0.54880259562E+02  0.10566000000E+00 0.  1.
         23    2    1    0    0    0 -0.20068753074E+01  0.23425071451E+02 -0.19895596679E+02  0.94200709616E+02  0.89023465468E+02 0.  0.
         13    1    3    3    0    0  0.35281529765E+02 -0.15174321515E+02 -0.84285379714E+01  0.39320450053E+02  0.10566000000E+00 0. -1.
         22    1    1    0    0    0  0.20068753074E+01 -0.23425071451E+02  0.19895596679E+02  0.30799290384E+02  0.00000000000E+00 0.  1.
</event>
<event>
 5    1  0.1267644E-004  0.9118800E+02  0.7818608E-02  0.1130116E+00
         25   -1    0    0    0    0  0.00000000000E+00  0.00000000000E+00  0.99999998245E-14  0.12500000000E+03  0.12500000000E+03 0.  0.
        -13    1    3    3    0    0  0.43546355028E+02  0.18739685934E+02 -0.17000565813E+02  0.50363590690E+02  0.10566000000E+00 0. -1.
         23    2    1    0    0    0  0.29631651088E+01  0.26311894582E+02  0.63189864302E+01  0.97778212155E+02  0.93912475416E+02 0.  0.
         13    1    3    3    0    0 -0.40583189919E+02  0.75722086483E+01  0.23319552243E+02  0.47414621465E+02  0.10566000000E+00 0.  1.
         22    1    1    0    0    0 -0.29631651088E+01 -0.26311894582E+02 -0.63189864302E+01  0.27221787845E+02  0.00000000000E+00 0.  1.
</event>
<event>
 5    1  0.1267644E-004  0.9118800E+02  0.7818608E-02  0.1130116E+00
         25   -1    0    0    0    0  0.00000000000E+00  0.00000000000E+00  0.99999998245E-14  0.12500000000E+03  0.12500000000E+03 0.  0.
        -13    1    3    3    0    0 -0.28998989299E+02 -0.19521448737E+02 -0.44979470954E+02  0.56966589441E+02  0.10566000000E+00 0. -1.
         23    2    1    0    0    0 -0.26890605774E+02 -0.10952439042E+01 -0.10512433805E+02  0.96106826020E+02  0.91660823175E+02 0.  0.
         13    1    3    3    0    0  0.21083835244E+01  0.18426204833E+02  0.34467037149E+02  0.39140236580E+02  0.10566000000E+00 0.  1.
         22    1    1    0    0    0  0.26890605774E+02  0.10952439042E+01  0.10512433805E+02  0.28893173980E+02  0.00000000000E+00 0. -1.
</event>
<event>
 5    1  0.1267644E-004  0.9118800E+02  0.7818608E-02  0.1130116E+00
         25   -1    0    0    0    0  0.00000000000E+00  0.00000000000E+00  0.99999998245E-14  0.12500000000E+03  0.12500000000E+03 0.  0.
        -13    1    3    3    0    0 -0.72032052064E+01 -0.39418534277E+02 -0.10848426152E+02  0.41513931683E+02  0.10566000000E+00 0.  1.
         23    2    1    0    0    0 -0.42427536327E+01  0.12156184182E+02 -0.26537934654E+02  0.95503631614E+02  0.90834508330E+02 0.  0.
         13    1    3    3    0    0  0.29604515737E+01  0.51574718458E+02 -0.15689508502E+02  0.53989699931E+02  0.10566000000E+00 0. -1.
         22    1    1    0    0    0  0.42427536327E+01 -0.12156184182E+02  0.26537934654E+02  0.29496368386E+02  0.00000000000E+00 0. -1.
</event>
<event>
 5    1  0.1267644E-004  0.9118800E+02  0.7818608E-02  0.1130116E+00
         25   -1    0    0    0    0  0.00000000000E+00  0.00000000000E+00  0.99999998245E-14  0.12500000000E+03  0.12500000000E+03 0.  0.
        -13    1    3    3    0    0 -0.16219343038E+02  0.58361616715E+02  0.10869013777E+02  0.61540978369E+02  0.10566000000E+00 0. -1.
         23    2    1    0    0    0 -0.80029119491E+01  0.24324953743E+02  0.12314428185E+02  0.96585301061E+02  0.92311024614E+02 0.  0.
         13    1    3    3    0    0  0.82164310888E+01 -0.34036662972E+02  0.14454144082E+01  0.35044322692E+02  0.10566000000E+00 0.  1.
         22    1    1    0    0    0  0.80029119491E+01 -0.24324953743E+02 -0.12314428185E+02  0.28414698939E+02  0.00000000000E+00 0. -1.
</event>
<event>
 5    1  0.1267644E-004  0.9118800E+02  0.7818608E-02  0.1130116E+00
         25   -1    0    0    0    0  0.00000000000E+00  0.00000000000E+00  0.99999998245E-14  0.12500000000E+03  0.12500000000E+03 0.  0.
        -13    1    3    3    0    0  0.11304961262E+02  0.19423304784E+02 -0.51914632097E+02  0.56570373056E+02  0.10566000000E+00 0.  1.
         23    2    1    0    0    0  0.68992201484E+01  0.25101108176E+02 -0.13453968515E+02  0.95696857862E+02  0.91100024509E+02 0.  0.
         13    1    3    3    0    0 -0.44057411132E+01  0.56778033920E+01  0.38460663582E+02  0.39126484806E+02  0.10566000000E+00 0. -1.
         22    1    1    0    0    0 -0.68992201484E+01 -0.25101108176E+02  0.13453968515E+02  0.29303142138E+02  0.00000000000E+00 0.  1.
</event>
<event>
 5    1  0.1267644E-004  0.9118800E+02  0.7818608E-02  0.1130116E+00
         25   -1    0    0    0    0  0.00000000000E+00  0.00000000000E+00  0.99999998245E-14  0.12500000000E+03  0.12500000000E+03 0.  0.
        -13    1    3    3    0    0  0.25057328710E+02  0.36901347099E+02 -0.13204412424E+02  0.46518241705E+02  0.10566000000E+00 0. -1.
         23    2    1    0    0    0  0.23138223968E+01 -0.49244311580E+01 -0.28080044415E+02  0.96397680328E+02  0.92056613461E+02 0.  0.
         13    1    3    3    0    0 -0.22743506313E+02 -0.41825778257E+02 -0.14875631990E+02  0.49879438623E+02  0.10566000000E+00 0.  1.
         22    1    1    0    0    0 -0.23138223968E+01  0.49244311580E+01  0.28080044415E+02  0.28602319672E+02  0.00000000000E+00 0. -1.
</event>
<event>
 5    1  0.1267644E-004  0.9118800E+02  0.7818608E-02  0.1130116E+00
         25   -1    0    0    0    0  0.00000000000E+00  0.00000000000E+00  0.99999998245E-14  0.12500000000E+03  0.12500000000E+03 0.  0.
        -13    1    3    3    0    0 -0.55761347938E+02 -0.10365775574E+02 -0.10703843772E+02  0.57717940562E+02  0.10566000000E+00 0.  1.
         23    2    1    0    0    0 -0.19653965713E+02 -0.36470592382E+01 -0.21146485305E+02  0.95900975100E+02  0.91379668281E+02 0.  0.
         13    1    3    3    0    0  0.36107382225E+02  0.67187163359E+01 -0.10442641533E+02  0.38183034539E+02  0.10566000000E+00 0. -1.
         22    1    1    0    0    0  0.19653965713E+02  0.36470592382E+01  0.21146485305E+02  0.29099024900E+02  0.00000000000E+00 0.  1.
</event>
<event>
 5    1  0.1267644E-004  0.9118800E+02  0.7818608E-02  0.1130116E+00
         25   -1    0    0    0    0  0.00000000000E+00  0.00000000000E+00  0.99999998245E-14  0.12500000000E+03  0.12500000000E+03 0.  0.
        -13    1    3    3    0    0  0.67572765643E+01 -0.38889950632E+02  0.88154854625E+01  0.40445185062E+02  0.10566000000E+00 0.  1.
         23    2    1    0    0    0  0.17500831162E+02 -0.19970220510E+00 -0.26045067049E+02  0.93620635923E+02  0.88205209487E+02 0.  0.
         13    1    3    3    0    0  0.10743554597E+02  0.38690248427E+02 -0.34860552511E+02  0.53175450860E+02  0.10566000000E+00 0. -1.
         22    1    1    0    0    0 -0.17500831162E+02  0.19970220510E+00  0.26045067049E+02  0.31379364077E+02  0.00000000000E+00 0. -1.
</event>
<event>
 5    1  0.1267644E-004  0.9118800E+02  0.7818608E-02  0.1130116E+00
         25   -1    0    0    0    0  0.00000000000E+00  0.00000000000E+00  0.99999998245E-14  0.12500000000E+03  0.12500000000E+03 0.  0.
        -13    1    3    3    0    0 -0.25637668650E+02 -0.12730331357E+02 -0.26477175701E+02  0.38992350371E+02  0.10566000000E+00 0.  1.
         23    2    1    0    0    0 -0.13250323732E+02  0.22397851786E+02  0.15178727105E+02  0.94873124951E+02  0.89962665800E+02 0.  0.
         13    1    3    3    0    0  0.12387344918E+02  0.35128183143E+02  0.41655902807E+02  0.55880774581E+02  0.10566000000E+00 0. -1.
         22    1    1    0    0    0  0.13250323732E+02 -0.22397851786E+02 -0.15178727105E+02  0.30126875049E+02  0.00000000000E+00 0. -1.
</event>
<event>
 5    1  0.1267644E-004  0.9118800E+02  0.7818608E-02  0.1130116E+00
         25   -1    0    0    0    0  0.00000000000E+00  0.00000000000E+00  0.99999998245E-14  0.12500000000E+03  0.12500000000E+03 0.  0.
        -13    1    3    3    0    0 -0.30688937228E+02  0.12536023633E+02  0.77570275200E+01  0.34046224412E+02  0.10566000000E+00 0.  1.
         23    2    1    0    0    0  0.27239274022E+02  0.34209225171E+01 -0.10717961524E+02  0.95528735023E+02  0.90869047292E+02 0.  0.
         13    1    3    3    0    0  0.57928211249E+02 -0.91151011161E+01 -0.18474989044E+02  0.61482510612E+02  0.10566000000E+00 0. -1.
         22    1    1    0    0    0 -0.27239274022E+02 -0.34209225171E+01  0.10717961524E+02  0.29471264977E+02  0.00000000000E+00 0. -1.
</event>
<event>
 5    1  0.1267644E-004  0.9118800E+02  0.7818608E-02  0.1130116E+00
         25   -1    0    0    0    0  0.00000000000E+00  0.00000000000E+00  0.99999998245E-14  0.12500000000E+03  0.12500000000E+03 0.  0.
        -13    1    3    3    0    0 -0.13680944021E+02 -0.21757445458E+02 -0.45609099239E+02  0.52352227838E+02  0.10566000000E+00 0. -1.
         23    2    1    0    0    0 -0.27031533326E+02 -0.10070838928E+02 -0.63097911780E+01  0.95471385820E+02  0.90790123114E+02 0.  0.
         13    1    3    3    0    0 -0.13350589305E+02  0.11686606530E+02  0.39299308061E+02  0.43119157982E+02  0.10566000000E+00 0.  1.
         22    1    1    0    0    0  0.27031533326E+02  0.10070838928E+02  0.63097911780E+01  0.29528614180E+02  0.00000000000E+00 0. -1.
</event>
<event>
 5    1  0.1267644E-004  0.9118800E+02  0.7818608E-02  0.1130116E+00
         25   -1    0    0    0    0  0.00000000000E+00  0.00000000000E+00  0.99999998245E-14  0.12500000000E+03  0.12500000000E+03 0.  0.
        -13    1    3    3    0    0  0.19151960529E+02  0.56680888997E+02  0.18046665132E+02  0.62491711899E+02  0.10566000000E+00 0. -1.
         23    2    1    0    0    0  0.83296206804E+01  0.26567505054E+02  0.80100424838E+01  0.96028018948E+02  0.91553289056E+02 0.  0.
         13    1    3    3    0    0 -0.10822339849E+02 -0.30113383942E+02 -0.10036622649E+02  0.33536307049E+02  0.10566000000E+00 0.  1.
         22    1    1    0    0    0 -0.83296206804E+01 -0.26567505054E+02 -0.80100424838E+01  0.28971981052E+02  0.00000000000E+00 0. -1.
</event>
<event>
 5    1  0.1267644E-004  0.9118800E+02  0.7818608E-02  0.1130116E+00
         25   -1    0    0    0    0  0.00000000000E+00  0.00000000000E+00  0.99999998245E-14  0.12500000000E+03  0.12500000000E+03 0.  0.
        -13    1    3    3    0    0 -0.77912144253E+01  0.73707760181E+01  0.46604947453E+02  0.47823254307E+02  0.10566000000E+00 0.  1.
         23    2    1    0    0    0  0.84965112255E+01 -0.24224430364E+02  0.15833728864E+02  0.94838423462E+02  0.89914436358E+02 0.  0.
         13    1    3    3    0    0  0.16287725651E+02 -0.31595206383E+02 -0.30771218589E+02  0.47015169156E+02  0.10566000000E+00 0. -1.
         22    1    1    0    0    0 -0.84965112255E+01  0.24224430364E+02 -0.15833728864E+02  0.30161576538E+02  0.00000000000E+00 0. -1.
</event>
<event>
 5    1  0.1267644E-004  0.9118800E+02  0.7818608E-02  0.1130116E+00
         25   -1    0    0    0    0  0.00000000000E+00  0.00000000000E+00  0.99999998245E-14  0.12500000000E+03  0.12500000000E+03 0.  0.
        -13    1    3    3    0    0 -0.85424558922E+01 -0.45649132803E+02  0.99621312806E+01  0.47498127353E+02  0.10566000000E+00 0.  1.
         23    2    1    0    0    0 -0.29638719249E+02 -0.51431135938E+01 -0.24308777378E+01  0.94820297173E+02  0.89889233466E+02 0.  0.
         13    1    3    3    0    0 -0.21096263357E+02  0.40506019210E+02 -0.12393009018E+02  0.47322169819E+02  0.10566000000E+00 0. -1.
         22    1    1    0    0    0  0.29638719249E+02  0.51431135938E+01  0.24308777378E+01  0.30179702827E+02  0.00000000000E+00 0. -1.
</event>
<event>
 5    1  0.1267644E-004  0.9118800E+02  0.7818608E-02  0.1130116E+00
         25   -1    0    0    0    0  0.00000000000E+00  0.00000000000E+00  0.99999998245E-14  0.12500000000E+03  0.12500000000E+03 0.  0.
        -13    1    3    3    0    0  0.27649575838E+02 -0.27461265853E+02 -0.10230811176E+02  0.40290207589E+02  0.10566000000E+00 0.  1.
         23    2    1    0    0    0  0.10778979770E+02  0.13329043999E+02  0.23548044371E+02  0.95873376225E+02  0.91341907448E+02 0.  0.
         13    1    3    3    0    0 -0.16870596067E+02  0.40790309852E+02  0.33778855547E+02  0.55583168636E+02  0.10566000000E+00 0. -1.
         22    1    1    0    0    0 -0.10778979770E+02 -0.13329043999E+02 -0.23548044371E+02  0.29126623775E+02  0.00000000000E+00 0. -1.
</event>
<event>
 5    1  0.1267644E-004  0.9118800E+02  0.7818608E-02  0.1130116E+00
         25   -1    0    0    0    0  0.00000000000E+00  0.00000000000E+00  0.99999998245E-14  0.12500000000E+03  0.12500000000E+03 0.  0.
        -13    1    3    3    0    0 -0.26371679937E+02 -0.39342344731E+01 -0.22760217409E+02  0.35056844755E+02  0.10566000000E+00 0.  1.
         23    2    1    0    0    0  0.71625233458E+01  0.13843456637E+02  0.24678955497E+02  0.95811065851E+02  0.91256596818E+02 0.  0.
         13    1    3    3    0    0  0.33534203283E+02  0.17777691110E+02  0.47439172906E+02  0.60754221097E+02  0.10566000000E+00 0. -1.
         22    1    1    0    0    0 -0.71625233458E+01 -0.13843456637E+02 -0.24678955497E+02  0.29188934149E+02  0.00000000000E+00 0. -1.
</event>
<event>
 5    1  0.1267644E-004  0.9118800E+02  0.7818608E-02  0.1130116E+00
         25   -1    0    0    0    0  0.00000000000E+00  0.00000000000E+00  0.99999998245E-14  0.12500000000E+03  0.12500000000E+03 0.  0.
        -13    1    3    3    0    0 -0.52093319328E+02  0.16758567412E+02  0.21821980834E+01  0.54766199912E+02  0.10566000000E+00 0. -1.
         23    2    1    0    0    0 -0.17200021885E+02  0.13728983057E+02  0.21047089885E+02  0.94548305117E+02  0.89510202096E+02 0.  0.
         13    1    3    3    0    0  0.34893297443E+02 -0.30295843554E+01  0.18864891802E+02  0.39782105205E+02  0.10566000000E+00 0.  1.
         22    1    1    0    0    0  0.17200021885E+02 -0.13728983057E+02 -0.21047089885E+02  0.30451694883E+02  0.00000000000E+00 0. -1.
</event>
<event>
 5    1  0.1267644E-004  0.9118800E+02  0.7818608E-02  0.1130116E+00
         25   -1    0    0    0    0  0.00000000000E+00  0.00000000000E+00  0.99999998245E-14  0.12500000000E+03  0.12500000000E+03 0.  0.
        -13    1    3    3    0    0  0.68905565117E+01  0.38369908825E+02  0.26605970834E+01  0.39074539193E+02  0.10566000000E+00 0. -1.
         23    2    1    0    0    0  0.24836008099E+02 -0.15372260534E+02  0.17043860250E+01  0.95741862262E+02  0.91161754949E+02 0.  0.
         13    1    3    3    0    0  0.17945451587E+02 -0.53742169359E+02 -0.95621105839E+00  0.56667323068E+02  0.10566000000E+00 0.  1.
         22    1    1    0    0    0 -0.24836008099E+02  0.15372260534E+02 -0.17043860250E+01  0.29258137738E+02  0.00000000000E+00 0.  1.
</event>
<event>
 5    1  0.1267644E-004  0.9118800E+02  0.7818608E-02  0.1130116E+00
         25   -1    0    0    0    0  0.00000000000E+00  0.00000000000E+00  0.99999998245E-14  0.12500000000E+03  0.12500000000E+03 0.  0.
        -13    1    3    3    0    0 -0.10008404842E+02 -0.22310179530E+02 -0.51454104891E+02  0.56968836677E+02  0.10566000000E+00 0.  1.
         23    2    1    0    0    0 -0.12763946984E+02  0.37076121985E+00 -0.40930526397E+02  0.82123855145E+02  0.70042585520E+02 0.  0.
         13    1    3    3    0    0 -0.27555421416E+01  0.22680940750E+02  0.10523578495E+02  0.25155018468E+02  0.10566000000E+00 0. -1.
         22    1    1    0    0    0  0.12763946984E+02 -0.37076121985E+00  0.40930526397E+02  0.42876144855E+02  0.00000000000E+00 0.  1.
</event>
<event>
 5    1  0.1267644E-004  0.9118800E+02  0.7818608E-02  0.1130116E+00
         25   -1    0    0    0    0  0.00000000000E+00  0.00000000000E+00  0.99999998245E-14  0.12500000000E+03  0.12500000000E+03 0.  0.
        -13    1    3    3    0    0 -0.59951244923E+02 -0.81311279092E-01 -0.73083363037E+01  0.60395209437E+02  0.10566000000E+00 0.  1.
         23    2    1    0    0    0 -0.25624565247E+02 -0.11382136651E+02 -0.38166314038E+01  0.96702684684E+02  0.92469839250E+02 0.  0.
         13    1    3    3    0    0  0.34326679676E+02 -0.11300825372E+02  0.34917048999E+01  0.36307475247E+02  0.10566000000E+00 0. -1.
         22    1    1    0    0    0  0.25624565247E+02  0.11382136651E+02  0.38166314038E+01  0.28297315316E+02  0.00000000000E+00 0.  1.
</event>
<event>
 5    1  0.1267644E-004  0.9118800E+02  0.7818608E-02  0.1130116E+00
         25   -1    0    0    0    0  0.00000000000E+00  0.00000000000E+00  0.99999998245E-14  0.12500000000E+03  0.12500000000E+03 0.  0.
        -13    1    3    3    0    0 -0.11435044758E+02  0.24001418820E+02  0.16590751413E+02  0.31338355899E+02  0.10566000000E+00 0. -1.
         23    2    1    0    0    0  0.38001469570E+02  0.17580575330E+02  0.12223659628E+02  0.81381125953E+02  0.68704304729E+02 0.  0.
         13    1    3    3    0    0  0.49436514327E+02 -0.64208434904E+01 -0.43670917849E+01  0.50042770054E+02  0.10566000000E+00 0.  1.
         22    1    1    0    0    0 -0.38001469570E+02 -0.17580575330E+02 -0.12223659628E+02  0.43618874047E+02  0.00000000000E+00 0.  1.
</event>
<event>
 5    1  0.1267644E-004  0.9118800E+02  0.7818608E-02  0.1130116E+00
         25   -1    0    0    0    0  0.00000000000E+00  0.00000000000E+00  0.99999998245E-14  0.12500000000E+03  0.12500000000E+03 0.  0.
        -13    1    3    3    0    0  0.37349811839E+02  0.17253592693E+02 -0.24250189559E+02  0.47757489077E+02  0.10566000000E+00 0. -1.
         23    2    1    0    0    0 -0.99890738918E+01  0.23369344320E+02 -0.11091215478E+02  0.97270540721E+02  0.93234302594E+02 0.  0.
         13    1    3    3    0    0 -0.47338885731E+02  0.61157516271E+01  0.13158974081E+02  0.49513051644E+02  0.10566000000E+00 0.  1.
         22    1    1    0    0    0  0.99890738918E+01 -0.23369344320E+02  0.11091215478E+02  0.27729459279E+02  0.00000000000E+00 0.  1.
</event>
<event>
 5    1  0.1267644E-004  0.9118800E+02  0.7818608E-02  0.1130116E+00
         25   -1    0    0    0    0  0.00000000000E+00  0.00000000000E+00  0.99999998245E-14  0.12500000000E+03  0.12500000000E+03 0.  0.
        -13    1    3    3    0    0 -0.58547103917E+01 -0.16083790586E+02 -0.29107355500E+02  0.33767073632E+02  0.10566000000E+00 0.  1.
         23    2    1    0    0    0  0.16327360328E+02  0.25818917136E+02  0.73554007271E+01  0.93578652206E+02  0.88145692189E+02 0.  0.
         13    1    3    3    0    0  0.22182070719E+02  0.41902707722E+02  0.36462756228E+02  0.59811578574E+02  0.10566000000E+00 0. -1.
         22    1    1    0    0    0 -0.16327360328E+02 -0.25818917136E+02 -0.73554007271E+01  0.31421347794E+02  0.00000000000E+00 0. -1.
</event>
<event>
 5    1  0.1267644E-004  0.9118800E+02  0.7818608E-02  0.1130116E+00
         25   -1    0    0    0    0  0.00000000000E+00  0.00000000000E+00  0.99999998245E-14  0.12500000000E+03  0.12500000000E+03 0.  0.
        -13    1    3    3    0    0  0.13349378384E+02  0.35837973246E+02 -0.54432524426E+01  0.38629087367E+02  0.10566000000E+00 0. -1.
         23    2    1    0    0    0 -0.67659459764E+01 -0.93051889161E+01  0.25559546262E+02  0.96970462529E+02  0.92831113492E+02 0.  0.
         13    1    3    3    0    0 -0.20115324360E+02 -0.45143162162E+02  0.31002798705E+02  0.58341375161E+02  0.10566000000E+00 0.  1.
         22    1    1    0    0    0  0.67659459764E+01  0.93051889161E+01 -0.25559546262E+02  0.28029537471E+02  0.00000000000E+00 0.  1.
</event>
<event>
 5    1  0.1267644E-004  0.9118800E+02  0.7818608E-02  0.1130116E+00
         25   -1    0    0    0    0  0.00000000000E+00  0.00000000000E+00  0.99999998245E-14  0.12500000000E+03  0.12500000000E+03 0.  0.
        -13    1    3    3    0    0  0.39334455152E+02 -0.28842044923E+02 -0.29922135815E+02  0.57222445712E+02  0.10566000000E+00 0. -1.
         23    2    1    0    0    0  0.14317165734E+02 -0.25055558006E+02 -0.35220874786E+00  0.96140230898E+02  0.91706366869E+02 0.  0.
         13    1    3    3    0    0 -0.25017289418E+02  0.37864869173E+01  0.29569927067E+02  0.38917785186E+02  0.10566000000E+00 0.  1.
         22    1    1    0    0    0 -0.14317165734E+02  0.25055558006E+02  0.35220874786E+00  0.28859769102E+02  0.00000000000E+00 0. -1.
</event>
<event>
 5    1  0.1267644E-004  0.9118800E+02  0.7818608E-02  0.1130116E+00
         25   -1    0    0    0    0  0.00000000000E+00  0.00000000000E+00  0.99999998245E-14  0.12500000000E+03  0.12500000000E+03 0.  0.
        -13    1    3    3    0    0  0.30348747628E+02  0.32596317741E+02  0.43500616335E+01  0.44749308521E+02  0.10566000000E+00 0.  1.
         23    2    1    0    0    0 -0.16720722641E+01  0.64408213479E+01 -0.27352163254E+02  0.96850029486E+02  0.92668804737E+02 0.  0.
         13    1    3    3    0    0 -0.32020819892E+02 -0.26155496394E+02 -0.31702224887E+02  0.52100720964E+02  0.10566000000E+00 0. -1.
         22    1    1    0    0    0  0.16720722641E+01 -0.64408213479E+01  0.27352163254E+02  0.28149970514E+02  0.00000000000E+00 0. -1.
</event>
<event>
 5    1  0.1267644E-004  0.9118800E+02  0.7818608E-02  0.1130116E+00
         25   -1    0    0    0    0  0.00000000000E+00  0.00000000000E+00  0.99999998245E-14  0.12500000000E+03  0.12500000000E+03 0.  0.
        -13    1    3    3    0    0  0.10524782252E+02  0.12762876006E+02 -0.31938734961E+02  0.35968819835E+02  0.10566000000E+00 0.  1.
         23    2    1    0    0    0 -0.28587574842E+02  0.32380157889E+00  0.10060267017E+02  0.94692191513E+02  0.89710912816E+02 0.  0.
         13    1    3    3    0    0 -0.39112357094E+02 -0.12439074427E+02  0.41999001978E+02  0.58723371678E+02  0.10566000000E+00 0. -1.
         22    1    1    0    0    0  0.28587574842E+02 -0.32380157889E+00 -0.10060267017E+02  0.30307808487E+02  0.00000000000E+00 0. -1.
</event>
<event>
 5    1  0.1267644E-004  0.9118800E+02  0.7818608E-02  0.1130116E+00
         25   -1    0    0    0    0  0.00000000000E+00  0.00000000000E+00  0.99999998245E-14  0.12500000000E+03  0.12500000000E+03 0.  0.
        -13    1    3    3    0    0  0.34100353742E+02 -0.14102851281E+02  0.62376193637E+01  0.37425173332E+02  0.10566000000E+00 0. -1.
         23    2    1    0    0    0 -0.37933554071E+01  0.26438937708E+02 -0.11832036088E+02  0.95786919875E+02  0.91223516534E+02 0.  0.
         13    1    3    3    0    0 -0.37893709149E+02  0.40541788989E+02 -0.18069655452E+02  0.58361746544E+02  0.10566000000E+00 0.  1.
         22    1    1    0    0    0  0.37933554071E+01 -0.26438937708E+02  0.11832036088E+02  0.29213080125E+02  0.00000000000E+00 0.  1.
</event>
<event>
 5    1  0.1267644E-004  0.9118800E+02  0.7818608E-02  0.1130116E+00
         25   -1    0    0    0    0  0.00000000000E+00  0.00000000000E+00  0.99999998245E-14  0.12500000000E+03  0.12500000000E+03 0.  0.
        -13    1    3    3    0    0  0.38510347975E+02  0.27679342481E+02 -0.31079926323E+02  0.56702432801E+02  0.10566000000E+00 0. -1.
         23    2    1    0    0    0  0.15637637757E+02 -0.41256389606E+01 -0.23290649504E+02  0.96644912877E+02  0.92391710771E+02 0.  0.
         13    1    3    3    0    0 -0.22872710218E+02 -0.31804981442E+02  0.77892768188E+01  0.39942480076E+02  0.10566000000E+00 0.  1.
         22    1    1    0    0    0 -0.15637637757E+02  0.41256389606E+01  0.23290649504E+02  0.28355087123E+02  0.00000000000E+00 0. -1.
</event>
<event>
 5    1  0.1267644E-004  0.9118800E+02  0.7818608E-02  0.1130116E+00
         25   -1    0    0    0    0  0.00000000000E+00  0.00000000000E+00  0.99999998245E-14  0.12500000000E+03  0.12500000000E+03 0.  0.
        -13    1    3    3    0    0 -0.12070581237E+02  0.12039589065E+02 -0.57106519524E+02  0.59597117149E+02  0.10566000000E+00 0.  1.
         23    2    1    0    0    0 -0.18451667714E+01 -0.66833735914E+01 -0.30610226966E+02  0.93614364466E+02  0.88196321445E+02 0.  0.
         13    1    3    3    0    0  0.10225414466E+02 -0.18722962656E+02  0.26496292559E+02  0.34017247317E+02  0.10566000000E+00 0. -1.
         22    1    1    0    0    0  0.18451667714E+01  0.66833735914E+01  0.30610226966E+02  0.31385635534E+02  0.00000000000E+00 0.  1.
</event>
<event>
 5    1  0.1267644E-004  0.9118800E+02  0.7818608E-02  0.1130116E+00
         25   -1    0    0    0    0  0.00000000000E+00  0.00000000000E+00  0.99999998245E-14  0.12500000000E+03  0.12500000000E+03 0.  0.
        -13    1    3    3    0    0  0.48972189046E+02 -0.13155320792E+02  0.10553085708E+02  0.51794947119E+02  0.10566000000E+00 0. -1.
         23    2    1    0    0    0  0.23728355656E+02  0.19757973402E+02  0.27666697384E+01  0.93998922010E+02  0.88739678287E+02 0.  0.
         13    1    3    3    0    0 -0.25243833390E+02  0.32913294193E+02 -0.77864159695E+01  0.42203974891E+02  0.10566000000E+00 0.  1.
         22    1    1    0    0    0 -0.23728355656E+02 -0.19757973402E+02 -0.27666697384E+01  0.31001077990E+02  0.00000000000E+00 0.  1.
</event>
<event>
 5    1  0.1267644E-004  0.9118800E+02  0.7818608E-02  0.1130116E+00
         25   -1    0    0    0    0  0.00000000000E+00  0.00000000000E+00  0.99999998245E-14  0.12500000000E+03  0.12500000000E+03 0.  0.
        -13    1    3    3    0    0  0.40070385914E+02 -0.10291241827E+02  0.15421969814E+02  0.44151939964E+02  0.10566000000E+00 0. -1.
         23    2    1    0    0    0 -0.16329856421E+01  0.19308735085E+02  0.21964906115E+02  0.95709199510E+02  0.91116957135E+02 0.  0.
         13    1    3    3    0    0 -0.41703371556E+02  0.29599976912E+02  0.65429363016E+01  0.51557259546E+02  0.10566000000E+00 0.  1.
         22    1    1    0    0    0  0.16329856421E+01 -0.19308735085E+02 -0.21964906115E+02  0.29290800490E+02  0.00000000000E+00 0. -1.
</event>
<event>
 5    1  0.1267644E-004  0.9118800E+02  0.7818608E-02  0.1130116E+00
         25   -1    0    0    0    0  0.00000000000E+00  0.00000000000E+00  0.99999998245E-14  0.12500000000E+03  0.12500000000E+03 0.  0.
        -13    1    3    3    0    0  0.34720443395E+02 -0.99641158514E+01 -0.17893909742E+02  0.40311238683E+02  0.10566000000E+00 0. -1.
         23    2    1    0    0    0 -0.67550405582E+01  0.21873167831E+02 -0.22628454472E+02  0.92811290867E+02  0.87050690501E+02 0.  0.
         13    1    3    3    0    0 -0.41475483953E+02  0.31837283683E+02 -0.47345447291E+01  0.52500052183E+02  0.10566000000E+00 0.  1.
         22    1    1    0    0    0  0.67550405582E+01 -0.21873167831E+02  0.22628454472E+02  0.32188709133E+02  0.00000000000E+00 0.  1.
</event>
<event>
 5    1  0.1267644E-004  0.9118800E+02  0.7818608E-02  0.1130116E+00
         25   -1    0    0    0    0  0.00000000000E+00  0.00000000000E+00  0.99999998245E-14  0.12500000000E+03  0.12500000000E+03 0.  0.
        -13    1    3    3    0    0  0.18827012504E+02 -0.27910327566E+02  0.44905808714E+02  0.56124732560E+02  0.10566000000E+00 0. -1.
         23    2    1    0    0    0 -0.49786775993E+01 -0.25825850719E+02  0.13960042511E+02  0.95223422243E+02  0.90448082129E+02 0.  0.
         13    1    3    3    0    0 -0.23805690103E+02  0.20844768474E+01 -0.30945766203E+02  0.39098689683E+02  0.10566000000E+00 0.  1.
         22    1    1    0    0    0  0.49786775993E+01  0.25825850719E+02 -0.13960042511E+02  0.29776577757E+02  0.00000000000E+00 0. -1.
</event>
<event>
 5    1  0.1267644E-004  0.9118800E+02  0.7818608E-02  0.1130116E+00
         25   -1    0    0    0    0  0.00000000000E+00  0.00000000000E+00  0.99999998245E-14  0.12500000000E+03  0.12500000000E+03 0.  0.
        -13    1    3    3    0    0  0.80761669229E+00  0.56302164988E+02 -0.11712868005E+02  0.57513376427E+02  0.10566000000E+00 0.  1.
         23    2    1    0    0    0  0.14828635181E+00  0.19357771765E+02 -0.21829238186E+02  0.95823623318E+02  0.91273795963E+02 0.  0.
         13    1    3    3    0    0 -0.65933034047E+00 -0.36944393224E+02 -0.10116370181E+02  0.38310246891E+02  0.10566000000E+00 0. -1.
         22    1    1    0    0    0 -0.14828635181E+00 -0.19357771765E+02  0.21829238186E+02  0.29176376682E+02  0.00000000000E+00 0.  1.
</event>
<event>
 5    1  0.1267644E-004  0.9118800E+02  0.7818608E-02  0.1130116E+00
         25   -1    0    0    0    0  0.00000000000E+00  0.00000000000E+00  0.99999998245E-14  0.12500000000E+03  0.12500000000E+03 0.  0.
        -13    1    3    3    0    0 -0.13136344495E+02  0.34787776247E+02 -0.24262340602E+02  0.44400734886E+02  0.10566000000E+00 0.  1.
         23    2    1    0    0    0 -0.13915482414E+02  0.14594735223E+02  0.22164392286E+02  0.95034899759E+02  0.90187166159E+02 0.  0.
         13    1    3    3    0    0 -0.77913791819E+00 -0.20193041024E+02  0.46426732888E+02  0.50634164873E+02  0.10566000000E+00 0. -1.
         22    1    1    0    0    0  0.13915482414E+02 -0.14594735223E+02 -0.22164392286E+02  0.29965100241E+02  0.00000000000E+00 0.  1.
</event>
<event>
 5    1  0.1267644E-004  0.9118800E+02  0.7818608E-02  0.1130116E+00
         25   -1    0    0    0    0  0.00000000000E+00  0.00000000000E+00  0.99999998245E-14  0.12500000000E+03  0.12500000000E+03 0.  0.
        -13    1    3    3    0    0  0.30390729738E+02  0.14376797789E+02 -0.17619520008E+02  0.37957178742E+02  0.10566000000E+00 0.  1.
         23    2    1    0    0    0 -0.31113963507E+01 -0.29346020315E+02 -0.10782390209E+01  0.95469807061E+02  0.90787949450E+02 0.  0.
         13    1    3    3    0    0 -0.33502126089E+02 -0.43722818105E+02  0.16541280987E+02  0.57512628320E+02  0.10566000000E+00 0. -1.
         22    1    1    0    0    0  0.31113963507E+01  0.29346020315E+02  0.10782390209E+01  0.29530192939E+02  0.00000000000E+00 0. -1.
</event>
<event>
 5    1  0.1267644E-004  0.9118800E+02  0.7818608E-02  0.1130116E+00
         25   -1    0    0    0    0  0.00000000000E+00  0.00000000000E+00  0.99999998245E-14  0.12500000000E+03  0.12500000000E+03 0.  0.
        -13    1    3    3    0    0  0.19583563507E+02 -0.10500086176E+02  0.34721578823E+02  0.41223378917E+02  0.10566000000E+00 0. -1.
         23    2    1    0    0    0  0.16816729637E+02  0.22621698878E+02 -0.83252960260E+01  0.95608603134E+02  0.90978848001E+02 0.  0.
         13    1    3    3    0    0 -0.27668338703E+01  0.33121785054E+02 -0.43046874849E+02  0.54385224217E+02  0.10566000000E+00 0.  1.
         22    1    1    0    0    0 -0.16816729637E+02 -0.22621698878E+02  0.83252960260E+01  0.29391396866E+02  0.00000000000E+00 0.  1.
</event>
<event>
 5    1  0.1267644E-004  0.9118800E+02  0.7818608E-02  0.1130116E+00
         25   -1    0    0    0    0  0.00000000000E+00  0.00000000000E+00  0.99999998245E-14  0.12500000000E+03  0.12500000000E+03 0.  0.
        -13    1    3    3    0    0  0.33130510731E+02  0.21896485986E+02  0.12562020312E+02  0.41652159105E+02  0.10566000000E+00 0. -1.
         23    2    1    0    0    0 -0.13940160051E+02  0.19084488226E+02 -0.15699216834E+02  0.96627281373E+02  0.92367853408E+02 0.  0.
         13    1    3    3    0    0 -0.47070670782E+02 -0.28119977594E+01 -0.28261237146E+02  0.54975122267E+02  0.10566000000E+00 0.  1.
         22    1    1    0    0    0  0.13940160051E+02 -0.19084488226E+02  0.15699216834E+02  0.28372718627E+02  0.00000000000E+00 0.  1.
</event>
<event>
 5    1  0.1267644E-004  0.9118800E+02  0.7818608E-02  0.1130116E+00
         25   -1    0    0    0    0  0.00000000000E+00  0.00000000000E+00  0.99999998245E-14  0.12500000000E+03  0.12500000000E+03 0.  0.
        -13    1    3    3    0    0  0.37812849910E+02  0.33905749759E+02  0.10313810499E+02  0.51824678833E+02  0.10566000000E+00 0.  1.
         23    2    1    0    0    0 -0.80373265157E+01  0.23766121987E+02  0.72615516871E+01  0.98881858705E+02  0.95370145623E+02 0.  0.
         13    1    3    3    0    0 -0.45850176425E+02 -0.10139627772E+02 -0.30522588120E+01  0.47057179872E+02  0.10566000000E+00 0. -1.
         22    1    1    0    0    0  0.80373265157E+01 -0.23766121987E+02 -0.72615516871E+01  0.26118141295E+02  0.00000000000E+00 0. -1.
</event>
<event>
 5    1  0.1267644E-004  0.9118800E+02  0.7818608E-02  0.1130116E+00
         25   -1    0    0    0    0  0.00000000000E+00  0.00000000000E+00  0.99999998245E-14  0.12500000000E+03  0.12500000000E+03 0.  0.
        -13    1    3    3    0    0  0.23290901962E+02 -0.26148192088E+02 -0.11253061477E+01  0.35035289947E+02  0.10566000000E+00 0. -1.
         23    2    1    0    0    0 -0.18614285952E+02  0.18904618248E+02 -0.88157847853E+01  0.97042992041E+02  0.92928725432E+02 0.  0.
         13    1    3    3    0    0 -0.41905187914E+02  0.45052810337E+02 -0.76904786375E+01  0.62007702095E+02  0.10566000000E+00 0.  1.
         22    1    1    0    0    0  0.18614285952E+02 -0.18904618248E+02  0.88157847853E+01  0.27957007959E+02  0.00000000000E+00 0.  1.
</event>
<event>
 5    1  0.1267644E-004  0.9118800E+02  0.7818608E-02  0.1130116E+00
         25   -1    0    0    0    0  0.00000000000E+00  0.00000000000E+00  0.99999998245E-14  0.12500000000E+03  0.12500000000E+03 0.  0.
        -13    1    3    3    0    0  0.81752213613E+01 -0.60352696162E+00 -0.33548232181E+02  0.34535395402E+02  0.10566000000E+00 0.  1.
         23    2    1    0    0    0  0.84963873225E+01 -0.74304488898E-01  0.27822331633E+02  0.95909172301E+02  0.91390880701E+02 0.  0.
         13    1    3    3    0    0  0.32116596122E+00  0.52922247273E+00  0.61370563814E+02  0.61373776899E+02  0.10566000000E+00 0. -1.
         22    1    1    0    0    0 -0.84963873225E+01  0.74304488898E-01 -0.27822331633E+02  0.29090827699E+02  0.00000000000E+00 0. -1.
</event>
<event>
 5    1  0.1267644E-004  0.9118800E+02  0.7818608E-02  0.1130116E+00
         25   -1    0    0    0    0  0.00000000000E+00  0.00000000000E+00  0.99999998245E-14  0.12500000000E+03  0.12500000000E+03 0.  0.
        -13    1    3    3    0    0  0.38473384171E+02  0.26291274805E+02  0.39525845127E+02  0.61104304411E+02  0.10566000000E+00 0.  1.
         23    2    1    0    0    0  0.15230560331E+02  0.20657168701E+02  0.15431748137E+02  0.95052922725E+02  0.90212142649E+02 0.  0.
         13    1    3    3    0    0 -0.23242823841E+02 -0.56341061040E+01 -0.24094096990E+02  0.33948618314E+02  0.10566000000E+00 0. -1.
         22    1    1    0    0    0 -0.15230560331E+02 -0.20657168701E+02 -0.15431748137E+02  0.29947077275E+02  0.00000000000E+00 0.  1.
</event>
<event>
 5    1  0.1267644E-004  0.9118800E+02  0.7818608E-02  0.1130116E+00
         25   -1    0    0    0    0  0.00000000000E+00  0.00000000000E+00  0.99999998245E-14  0.12500000000E+03  0.12500000000E+03 0.  0.
        -13    1    3    3    0    0  0.22999832296E+02 -0.27418853470E+02  0.25549428288E+02  0.43972380662E+02  0.10566000000E+00 0. -1.
         23    2    1    0    0    0 -0.20913458833E+02  0.39471065005E+00  0.19674457045E+02  0.96283927551E+02  0.91902023307E+02 0.  0.
         13    1    3    3    0    0 -0.43913291128E+02  0.27813564120E+02 -0.58749712424E+01  0.52311546889E+02  0.10566000000E+00 0.  1.
         22    1    1    0    0    0  0.20913458833E+02 -0.39471065005E+00 -0.19674457045E+02  0.28716072449E+02  0.00000000000E+00 0.  1.
</event>
<event>
 5    1  0.1267644E-004  0.9118800E+02  0.7818608E-02  0.1130116E+00
         25   -1    0    0    0    0  0.00000000000E+00  0.00000000000E+00  0.99999998245E-14  0.12500000000E+03  0.12500000000E+03 0.  0.
        -13    1    3    3    0    0  0.42831680837E+01 -0.22815998694E+02  0.41472093573E+02  0.47527476627E+02  0.10566000000E+00 0. -1.
         23    2    1    0    0    0  0.11806408581E+02 -0.25195214747E+02 -0.67317596213E+01  0.96372972258E+02  0.92023057244E+02 0.  0.
         13    1    3    3    0    0  0.75232404978E+01 -0.23792160532E+01 -0.48203853194E+02  0.48845495630E+02  0.10566000000E+00 0.  1.
         22    1    1    0    0    0 -0.11806408581E+02  0.25195214747E+02  0.67317596213E+01  0.28627027742E+02  0.00000000000E+00 0. -1.
</event>
<event>
 5    1  0.1267644E-004  0.9118800E+02  0.7818608E-02  0.1130116E+00
         25   -1    0    0    0    0  0.00000000000E+00  0.00000000000E+00  0.99999998245E-14  0.12500000000E+03  0.12500000000E+03 0.  0.
        -13    1    3    3    0    0 -0.34790754638E+02 -0.28436439899E+02  0.52213082858E+01  0.45236058037E+02  0.10566000000E+00 0.  1.
         23    2    1    0    0    0  0.15714485828E+02  0.19288773571E+01 -0.10219021697E+02  0.10615606100E+03  0.10447016440E+03 0.  0.
         13    1    3    3    0    0  0.50505240467E+02  0.30365317257E+02 -0.15440329982E+02  0.60920002960E+02  0.10566000000E+00 0. -1.
         22    1    1    0    0    0 -0.15714485828E+02 -0.19288773571E+01  0.10219021697E+02  0.18843939003E+02  0.00000000000E+00 0. -1.
</event>
<event>
 5    1  0.1267644E-004  0.9118800E+02  0.7818608E-02  0.1130116E+00
         25   -1    0    0    0    0  0.00000000000E+00  0.00000000000E+00  0.99999998245E-14  0.12500000000E+03  0.12500000000E+03 0.  0.
        -13    1    3    3    0    0  0.35674504311E+02  0.29482916415E+02 -0.40557689319E+02  0.61537386564E+02  0.10566000000E+00 0.  1.
         23    2    1    0    0    0  0.15219928226E+02  0.81077775745E+01 -0.24018411530E+02  0.95432004383E+02  0.90735886482E+02 0.  0.
         13    1    3    3    0    0 -0.20454576084E+02 -0.21375138841E+02  0.16539277789E+02  0.33894617819E+02  0.10566000000E+00 0. -1.
         22    1    1    0    0    0 -0.15219928226E+02 -0.81077775745E+01  0.24018411530E+02  0.29567995617E+02  0.00000000000E+00 0.  1.
</event>
<event>
 5    1  0.1267644E-004  0.9118800E+02  0.7818608E-02  0.1130116E+00
         25   -1    0    0    0    0  0.00000000000E+00  0.00000000000E+00  0.99999998245E-14  0.12500000000E+03  0.12500000000E+03 0.  0.
        -13    1    3    3    0    0  0.11098188292E+01  0.96909194815E+01 -0.46936526295E+02  0.47939485634E+02  0.10566000000E+00 0.  1.
         23    2    1    0    0    0 -0.95344673198E+01 -0.23395506801E+02 -0.12710475812E+02  0.96719052334E+02  0.92491962264E+02 0.  0.
         13    1    3    3    0    0 -0.10644286149E+02 -0.33086426282E+02  0.34226050483E+02  0.48779566700E+02  0.10566000000E+00 0. -1.
         22    1    1    0    0    0  0.95344673198E+01  0.23395506801E+02  0.12710475812E+02  0.28280947666E+02  0.00000000000E+00 0. -1.
</event>
<event>
 5    1  0.1267644E-004  0.9118800E+02  0.7818608E-02  0.1130116E+00
         25   -1    0    0    0    0  0.00000000000E+00  0.00000000000E+00  0.99999998245E-14  0.12500000000E+03  0.12500000000E+03 0.  0.
        -13    1    3    3    0    0  0.22969454153E+02  0.51408320780E+02  0.10572682239E+02  0.57290523154E+02  0.10566000000E+00 0. -1.
         23    2    1    0    0    0 -0.66445684574E+01  0.26652186658E+02  0.96038693898E+01  0.95901483699E+02  0.91380364000E+02 0.  0.
         13    1    3    3    0    0 -0.29614022610E+02 -0.24756134122E+02 -0.96881284897E+00  0.38610960545E+02  0.10566000000E+00 0.  1.
         22    1    1    0    0    0  0.66445684574E+01 -0.26652186658E+02 -0.96038693898E+01  0.29098516301E+02  0.00000000000E+00 0. -1.
</event>
<event>
 5    1  0.1267644E-004  0.9118800E+02  0.7818608E-02  0.1130116E+00
         25   -1    0    0    0    0  0.00000000000E+00  0.00000000000E+00  0.99999998245E-14  0.12500000000E+03  0.12500000000E+03 0.  0.
        -13    1    3    3    0    0  0.23957867556E+02  0.12793640687E+02  0.31409127838E+02  0.41523501001E+02  0.10566000000E+00 0.  1.
         23    2    1    0    0    0 -0.15648405474E+02  0.25376910979E+02 -0.23906061039E+01  0.95090549950E+02  0.90264264732E+02 0.  0.
         13    1    3    3    0    0 -0.39606273030E+02  0.12583270292E+02 -0.33799733942E+02  0.53567048949E+02  0.10566000000E+00 0. -1.
         22    1    1    0    0    0  0.15648405474E+02 -0.25376910979E+02  0.23906061039E+01  0.29909450050E+02  0.00000000000E+00 0. -1.
</event>
<event>
 5    1  0.1267644E-004  0.9118800E+02  0.7818608E-02  0.1130116E+00
         25   -1    0    0    0    0  0.00000000000E+00  0.00000000000E+00  0.99999998245E-14  0.12500000000E+03  0.12500000000E+03 0.  0.
        -13    1    3    3    0    0 -0.20314905207E+01  0.54173679965E+02 -0.21731178684E+02  0.58405221048E+02  0.10566000000E+00 0.  1.
         23    2    1    0    0    0 -0.13260206371E+02  0.25550396463E+02  0.26864976039E+00  0.96212363676E+02  0.91804634519E+02 0.  0.
         13    1    3    3    0    0 -0.11228715851E+02 -0.28623283502E+02  0.21999828444E+02  0.37807142628E+02  0.10566000000E+00 0. -1.
         22    1    1    0    0    0  0.13260206371E+02 -0.25550396463E+02 -0.26864976039E+00  0.28787636324E+02  0.00000000000E+00 0.  1.
</event>
<event>
 5    1  0.1267644E-004  0.9118800E+02  0.7818608E-02  0.1130116E+00
         25   -1    0    0    0    0  0.00000000000E+00  0.00000000000E+00  0.99999998245E-14  0.12500000000E+03  0.12500000000E+03 0.  0.
        -13    1    3    3    0    0 -0.26070189052E+02  0.35982601107E+02 -0.44890387846E+00  0.44436640494E+02  0.10566000000E+00 0.  1.
         23    2    1    0    0    0  0.45329436660E+01  0.12745632630E+02  0.29099645528E+02  0.92909688389E+02  0.87191869445E+02 0.  0.
         13    1    3    3    0    0  0.30603132718E+02 -0.23236968477E+02  0.29548549407E+02  0.48473047895E+02  0.10566000000E+00 0. -1.
         22    1    1    0    0    0 -0.45329436660E+01 -0.12745632630E+02 -0.29099645528E+02  0.32090311611E+02  0.00000000000E+00 0.  1.
</event>
<event>
 5    1  0.1267644E-004  0.9118800E+02  0.7818608E-02  0.1130116E+00
         25   -1    0    0    0    0  0.00000000000E+00  0.00000000000E+00  0.99999998245E-14  0.12500000000E+03  0.12500000000E+03 0.  0.
        -13    1    3    3    0    0  0.24472931679E+02 -0.22218742793E+02 -0.16856684461E+02  0.37104661315E+02  0.10566000000E+00 0.  1.
         23    2    1    0    0    0 -0.45331896311E+01 -0.43342228293E+01  0.29613197914E+02  0.94729935803E+02  0.89763488963E+02 0.  0.
         13    1    3    3    0    0 -0.29006121310E+02  0.17884519964E+02  0.46469882376E+02  0.57625274488E+02  0.10566000000E+00 0. -1.
         22    1    1    0    0    0  0.45331896311E+01  0.43342228293E+01 -0.29613197914E+02  0.30270064197E+02  0.00000000000E+00 0. -1.
</event>
<event>
 5    1  0.1267644E-004  0.9118800E+02  0.7818608E-02  0.1130116E+00
         25   -1    0    0    0    0  0.00000000000E+00  0.00000000000E+00  0.99999998245E-14  0.12500000000E+03  0.12500000000E+03 0.  0.
        -13    1    3    3    0    0 -0.13729038131E+02 -0.34792762245E+01  0.31997270187E+02  0.34991832111E+02  0.10566000000E+00 0. -1.
         23    2    1    0    0    0  0.30108212993E+02  0.95816626898E+00 -0.72701718116E+01  0.94011647827E+02  0.88757602247E+02 0.  0.
         13    1    3    3    0    0  0.43837251124E+02  0.44374424935E+01 -0.39267441998E+02  0.59019815716E+02  0.10566000000E+00 0.  1.
         22    1    1    0    0    0 -0.30108212993E+02 -0.95816626898E+00  0.72701718116E+01  0.30988352173E+02  0.00000000000E+00 0.  1.
</event>
<event>
 5    1  0.1267644E-004  0.9118800E+02  0.7818608E-02  0.1130116E+00
         25   -1    0    0    0    0  0.00000000000E+00  0.00000000000E+00  0.99999998245E-14  0.12500000000E+03  0.12500000000E+03 0.  0.
        -13    1    3    3    0    0  0.25046364873E+02  0.26520165408E+02 -0.47810897075E+02  0.60137613935E+02  0.10566000000E+00 0.  1.
         23    2    1    0    0    0  0.21326590088E+02  0.17828934870E+02 -0.16885437150E+02  0.92475972711E+02  0.86567853027E+02 0.  0.
         13    1    3    3    0    0 -0.37197747852E+01 -0.86912305381E+01  0.30925459925E+02  0.32338358776E+02  0.10566000000E+00 0. -1.
         22    1    1    0    0    0 -0.21326590088E+02 -0.17828934870E+02  0.16885437150E+02  0.32524027289E+02  0.00000000000E+00 0.  1.
</event>
<event>
 5    1  0.1267644E-004  0.9118800E+02  0.7818608E-02  0.1130116E+00
         25   -1    0    0    0    0  0.00000000000E+00  0.00000000000E+00  0.99999998245E-14  0.12500000000E+03  0.12500000000E+03 0.  0.
        -13    1    3    3    0    0 -0.13063816901E+01  0.16712217799E+02  0.30373552104E+02  0.34692487492E+02  0.10566000000E+00 0.  1.
         23    2    1    0    0    0  0.17199725019E+02 -0.46787179348E+01 -0.23479034788E+02  0.95521431228E+02  0.90858999593E+02 0.  0.
         13    1    3    3    0    0  0.18506106709E+02 -0.21390935734E+02 -0.53852586892E+02  0.60828943737E+02  0.10566000000E+00 0. -1.
         22    1    1    0    0    0 -0.17199725019E+02  0.46787179348E+01  0.23479034788E+02  0.29478568772E+02  0.00000000000E+00 0. -1.
</event>
<event>
 5    1  0.1267644E-004  0.9118800E+02  0.7818608E-02  0.1130116E+00
         25   -1    0    0    0    0  0.00000000000E+00  0.00000000000E+00  0.99999998245E-14  0.12500000000E+03  0.12500000000E+03 0.  0.
        -13    1    3    3    0    0  0.79159169734E+01  0.75824726887E+01  0.60883917515E+02  0.61862898490E+02  0.10566000000E+00 0. -1.
         23    2    1    0    0    0  0.10032281682E+02  0.57846061331E+01  0.30469496002E+02  0.92404010515E+02  0.86463880486E+02 0.  0.
         13    1    3    3    0    0  0.21163647091E+01 -0.17978665557E+01 -0.30414421512E+02  0.30541112025E+02  0.10566000000E+00 0.  1.
         22    1    1    0    0    0 -0.10032281682E+02 -0.57846061331E+01 -0.30469496002E+02  0.32595989485E+02  0.00000000000E+00 0. -1.
</event>
<event>
 5    1  0.1267644E-004  0.9118800E+02  0.7818608E-02  0.1130116E+00
         25   -1    0    0    0    0  0.00000000000E+00  0.00000000000E+00  0.99999998245E-14  0.12500000000E+03  0.12500000000E+03 0.  0.
        -13    1    3    3    0    0 -0.52944180749E+02 -0.10210161656E+01 -0.15467508595E+02  0.55166871720E+02  0.10566000000E+00 0.  1.
         23    2    1    0    0    0 -0.15857442093E+02 -0.46021658960E+01 -0.26279894970E+02  0.93963388067E+02  0.88689610534E+02 0.  0.
         13    1    3    3    0    0  0.37086738656E+02 -0.35811497303E+01 -0.10812386375E+02  0.38796516347E+02  0.10566000000E+00 0. -1.
         22    1    1    0    0    0  0.15857442093E+02  0.46021658960E+01  0.26279894970E+02  0.31036611933E+02  0.00000000000E+00 0.  1.
</event>
<event>
 5    1  0.1267644E-004  0.9118800E+02  0.7818608E-02  0.1130116E+00
         25   -1    0    0    0    0  0.00000000000E+00  0.00000000000E+00  0.99999998245E-14  0.12500000000E+03  0.12500000000E+03 0.  0.
        -13    1    3    3    0    0  0.45752665606E+02  0.60171620260E+01  0.36344076358E+02  0.58740239183E+02  0.10566000000E+00 0.  1.
         23    2    1    0    0    0  0.14548914528E+02  0.16113059364E+02  0.20410849536E+02  0.95202275677E+02  0.90418852677E+02 0.  0.
         13    1    3    3    0    0 -0.31203751077E+02  0.10095897338E+02 -0.15933226822E+02  0.36462036495E+02  0.10566000000E+00 0. -1.
         22    1    1    0    0    0 -0.14548914528E+02 -0.16113059364E+02 -0.20410849536E+02  0.29797724323E+02  0.00000000000E+00 0.  1.
</event>
<event>
 5    1  0.1267644E-004  0.9118800E+02  0.7818608E-02  0.1130116E+00
         25   -1    0    0    0    0  0.00000000000E+00  0.00000000000E+00  0.99999998245E-14  0.12500000000E+03  0.12500000000E+03 0.  0.
        -13    1    3    3    0    0 -0.33531355033E+02  0.11385018419E+02  0.26326045926E+01  0.35509325334E+02  0.10566000000E+00 0. -1.
         23    2    1    0    0    0  0.17337351818E+02 -0.13015522800E+02 -0.19235404766E+02  0.96017446656E+02  0.91538853303E+02 0.  0.
         13    1    3    3    0    0  0.50868706851E+02 -0.24400541219E+02 -0.21868009359E+02  0.60508121321E+02  0.10566000000E+00 0.  1.
         22    1    1    0    0    0 -0.17337351818E+02  0.13015522800E+02  0.19235404766E+02  0.28982553344E+02  0.00000000000E+00 0.  1.
</event>
<event>
 5    1  0.1267644E-004  0.9118800E+02  0.7818608E-02  0.1130116E+00
         25   -1    0    0    0    0  0.00000000000E+00  0.00000000000E+00  0.99999998245E-14  0.12500000000E+03  0.12500000000E+03 0.  0.
        -13    1    3    3    0    0  0.43368220506E+01  0.26270774762E+02 -0.37099214866E+02  0.45665353823E+02  0.10566000000E+00 0. -1.
         23    2    1    0    0    0  0.24478425475E+02  0.17000086044E+02  0.64255823123E+01  0.94512554267E+02  0.89460262502E+02 0.  0.
         13    1    3    3    0    0  0.20141603425E+02 -0.92706887188E+01  0.43524797178E+02  0.48847200444E+02  0.10566000000E+00 0.  1.
         22    1    1    0    0    0 -0.24478425475E+02 -0.17000086044E+02 -0.64255823123E+01  0.30487445733E+02  0.00000000000E+00 0.  1.
</event>
<event>
 5    1  0.1267644E-004  0.9118800E+02  0.7818608E-02  0.1130116E+00
         25   -1    0    0    0    0  0.00000000000E+00  0.00000000000E+00  0.99999998245E-14  0.12500000000E+03  0.12500000000E+03 0.  0.
        -13    1    3    3    0    0 -0.43519116375E+01 -0.43880486459E+02  0.60449138062E+01  0.44508295561E+02  0.10566000000E+00 0.  1.
         23    2    1    0    0    0 -0.13500042512E+02 -0.60186755184E+01 -0.26096252583E+02  0.95008501176E+02  0.90150570126E+02 0.  0.
         13    1    3    3    0    0 -0.91481308743E+01  0.37861810941E+02 -0.32141166389E+02  0.50500205615E+02  0.10566000000E+00 0. -1.
         22    1    1    0    0    0  0.13500042512E+02  0.60186755184E+01  0.26096252583E+02  0.29991498824E+02  0.00000000000E+00 0. -1.
</event>
<event>
 5    1  0.1267644E-004  0.9118800E+02  0.7818608E-02  0.1130116E+00
         25   -1    0    0    0    0  0.00000000000E+00  0.00000000000E+00  0.99999998245E-14  0.12500000000E+03  0.12500000000E+03 0.  0.
        -13    1    3    3    0    0 -0.80585745958E+01 -0.37136137706E+02  0.23252396008E+02  0.44550178814E+02  0.10566000000E+00 0. -1.
         23    2    1    0    0    0 -0.28151450263E+02  0.37767730174E+01  0.20029007869E+02  0.90244722378E+02  0.83283735474E+02 0.  0.
         13    1    3    3    0    0 -0.20092875668E+02  0.40912910723E+02 -0.32233881391E+01  0.45694543564E+02  0.10566000000E+00 0.  1.
         22    1    1    0    0    0  0.28151450263E+02 -0.37767730174E+01 -0.20029007869E+02  0.34755277622E+02  0.00000000000E+00 0.  1.
</event>
<event>
 5    1  0.1267644E-004  0.9118800E+02  0.7818608E-02  0.1130116E+00
         25   -1    0    0    0    0  0.00000000000E+00  0.00000000000E+00  0.99999998245E-14  0.12500000000E+03  0.12500000000E+03 0.  0.
        -13    1    3    3    0    0  0.20117210919E+02  0.51222502260E+02 -0.24442073182E+01  0.55085680775E+02  0.10566000000E+00 0.  1.
         23    2    1    0    0    0  0.24700341556E+02  0.10767954012E+02 -0.95454106621E+01  0.96413804533E+02  0.92078505273E+02 0.  0.
         13    1    3    3    0    0  0.45831306371E+01 -0.40454548249E+02 -0.71012033439E+01  0.41328123759E+02  0.10566000000E+00 0. -1.
         22    1    1    0    0    0 -0.24700341556E+02 -0.10767954012E+02  0.95454106621E+01  0.28586195467E+02  0.00000000000E+00 0.  1.
</event>
<event>
 5    1  0.1267644E-004  0.9118800E+02  0.7818608E-02  0.1130116E+00
         25   -1    0    0    0    0  0.00000000000E+00  0.00000000000E+00  0.99999998245E-14  0.12500000000E+03  0.12500000000E+03 0.  0.
        -13    1    3    3    0    0 -0.43860382653E+01  0.18307123259E+02 -0.28289401915E+02  0.33980722748E+02  0.10566000000E+00 0.  1.
         23    2    1    0    0    0 -0.15690328103E+02 -0.15634142781E+02  0.20727817472E+02  0.94664291114E+02  0.89672028963E+02 0.  0.
         13    1    3    3    0    0 -0.11304289838E+02 -0.33941266040E+02  0.49017219387E+02  0.60683568366E+02  0.10566000000E+00 0. -1.
         22    1    1    0    0    0  0.15690328103E+02  0.15634142781E+02 -0.20727817472E+02  0.30335708886E+02  0.00000000000E+00 0. -1.
</event>
<event>
 5    1  0.1267644E-004  0.9118800E+02  0.7818608E-02  0.1130116E+00
         25   -1    0    0    0    0  0.00000000000E+00  0.00000000000E+00  0.99999998245E-14  0.12500000000E+03  0.12500000000E+03 0.  0.
        -13    1    3    3    0    0 -0.17323813991E+02 -0.49622017699E+02  0.98871422088E+01  0.53481079990E+02  0.10566000000E+00 0.  1.
         23    2    1    0    0    0 -0.25361693973E+02 -0.13043740644E+02 -0.85527706577E+01  0.95225773275E+02  0.90451331216E+02 0.  0.
         13    1    3    3    0    0 -0.80378799818E+01  0.36578277055E+02 -0.18439912866E+02  0.41744693285E+02  0.10566000000E+00 0. -1.
         22    1    1    0    0    0  0.25361693973E+02  0.13043740644E+02  0.85527706577E+01  0.29774226725E+02  0.00000000000E+00 0.  1.
</event>
<event>
 5    1  0.1267644E-004  0.9118800E+02  0.7818608E-02  0.1130116E+00
         25   -1    0    0    0    0  0.00000000000E+00  0.00000000000E+00  0.99999998245E-14  0.12500000000E+03  0.12500000000E+03 0.  0.
        -13    1    3    3    0    0 -0.15369878522E+02  0.37456414700E+01  0.32026684321E+02  0.35720899603E+02  0.10566000000E+00 0. -1.
         23    2    1    0    0    0  0.18192537479E+02 -0.17894279042E+02 -0.13377483634E+02  0.96188010989E+02  0.91771470225E+02 0.  0.
         13    1    3    3    0    0  0.33562416001E+02 -0.21639920512E+02 -0.45404167955E+02  0.60467111386E+02  0.10566000000E+00 0.  1.
         22    1    1    0    0    0 -0.18192537479E+02  0.17894279042E+02  0.13377483634E+02  0.28811989011E+02  0.00000000000E+00 0.  1.
</event>
<event>
 5    1  0.1267644E-004  0.9118800E+02  0.7818608E-02  0.1130116E+00
         25   -1    0    0    0    0  0.00000000000E+00  0.00000000000E+00  0.99999998245E-14  0.12500000000E+03  0.12500000000E+03 0.  0.
        -13    1    3    3    0    0  0.12689494534E+02  0.37526046087E+02  0.33278539259E+02  0.51736831616E+02  0.10566000000E+00 0. -1.
         23    2    1    0    0    0 -0.19088840613E+02  0.21443456825E+02  0.87323400480E+01  0.94992343656E+02  0.90128163823E+02 0.  0.
         13    1    3    3    0    0 -0.31778335147E+02 -0.16082589262E+02 -0.24546199211E+02  0.43255512040E+02  0.10566000000E+00 0.  1.
         22    1    1    0    0    0  0.19088840613E+02 -0.21443456825E+02 -0.87323400480E+01  0.30007656344E+02  0.00000000000E+00 0. -1.
</event>
<event>
 5    1  0.1267644E-004  0.9118800E+02  0.7818608E-02  0.1130116E+00
         25   -1    0    0    0    0  0.00000000000E+00  0.00000000000E+00  0.99999998245E-14  0.12500000000E+03  0.12500000000E+03 0.  0.
        -13    1    3    3    0    0  0.40943081562E+02 -0.51793419394E+01 -0.25269118480E+02  0.48391125462E+02  0.10566000000E+00 0.  1.
         23    2    1    0    0    0 -0.47008407584E+01 -0.22377635966E+02 -0.13038500809E+02  0.98677785074E+02  0.95102293707E+02 0.  0.
         13    1    3    3    0    0 -0.45643922321E+02 -0.17198294027E+02  0.12230617670E+02  0.50286659611E+02  0.10566000000E+00 0. -1.
         22    1    1    0    0    0  0.47008407584E+01  0.22377635966E+02  0.13038500809E+02  0.26322214926E+02  0.00000000000E+00 0.  1.
</event>
<event>
 5    1  0.1267644E-004  0.9118800E+02  0.7818608E-02  0.1130116E+00
         25   -1    0    0    0    0  0.00000000000E+00  0.00000000000E+00  0.99999998245E-14  0.12500000000E+03  0.12500000000E+03 0.  0.
        -13    1    3    3    0    0  0.33106882939E+02 -0.12094501753E+02 -0.11962573557E+02  0.37221727536E+02  0.10566000000E+00 0. -1.
         23    2    1    0    0    0 -0.16554262820E+02 -0.15286230519E+02  0.18738636814E+02  0.95693874861E+02  0.91095931388E+02 0.  0.
         13    1    3    3    0    0 -0.49661145759E+02 -0.31917287664E+01  0.30701210371E+02  0.58472147326E+02  0.10566000000E+00 0.  1.
         22    1    1    0    0    0  0.16554262820E+02  0.15286230519E+02 -0.18738636814E+02  0.29306125139E+02  0.00000000000E+00 0.  1.
</event>
<event>
 5    1  0.1267644E-004  0.9118800E+02  0.7818608E-02  0.1130116E+00
         25   -1    0    0    0    0  0.00000000000E+00  0.00000000000E+00  0.99999998245E-14  0.12500000000E+03  0.12500000000E+03 0.  0.
        -13    1    3    3    0    0  0.33859491338E+02 -0.93514327854E+01 -0.77265238632E+01  0.35966995758E+02  0.10566000000E+00 0.  1.
         23    2    1    0    0    0 -0.24950726357E+02 -0.15693195193E+02 -0.42402655893E+01  0.95220897035E+02  0.90444592204E+02 0.  0.
         13    1    3    3    0    0 -0.58810217695E+02 -0.63417624072E+01  0.34862582739E+01  0.59253901277E+02  0.10566000000E+00 0. -1.
         22    1    1    0    0    0  0.24950726357E+02  0.15693195193E+02  0.42402655893E+01  0.29779102965E+02  0.00000000000E+00 0. -1.
</event>
<event>
 5    1  0.1267644E-004  0.9118800E+02  0.7818608E-02  0.1130116E+00
         25   -1    0    0    0    0  0.00000000000E+00  0.00000000000E+00  0.99999998245E-14  0.12500000000E+03  0.12500000000E+03 0.  0.
        -13    1    3    3    0    0 -0.11574144059E+01 -0.52830252831E+02  0.24023101225E+02  0.58047358070E+02  0.10566000000E+00 0. -1.
         23    2    1    0    0    0  0.60939192465E+01 -0.35294140117E+02 -0.65455948986E+00  0.89177651857E+02  0.81666473930E+02 0.  0.
         13    1    3    3    0    0  0.72513336524E+01  0.17536112715E+02 -0.24677660715E+02  0.31130293787E+02  0.10566000000E+00 0.  1.
         22    1    1    0    0    0 -0.60939192465E+01  0.35294140117E+02  0.65455948986E+00  0.35822348143E+02  0.00000000000E+00 0. -1.
</event>
<event>
 5    1  0.1267644E-004  0.9118800E+02  0.7818608E-02  0.1130116E+00
         25   -1    0    0    0    0  0.00000000000E+00  0.00000000000E+00  0.99999998245E-14  0.12500000000E+03  0.12500000000E+03 0.  0.
        -13    1    3    3    0    0 -0.30731023795E+02  0.47820762550E+02 -0.25723229242E+02  0.62393243553E+02  0.10566000000E+00 0. -1.
         23    2    1    0    0    0 -0.15946461073E+02  0.24091052901E+02 -0.10271137143E+02  0.94337894580E+02  0.89215882246E+02 0.  0.
         13    1    3    3    0    0  0.14784562722E+02 -0.23729709650E+02  0.15452092099E+02  0.31944651027E+02  0.10566000000E+00 0.  1.
         22    1    1    0    0    0  0.15946461073E+02 -0.24091052901E+02  0.10271137143E+02  0.30662105420E+02  0.00000000000E+00 0. -1.
</event>
<event>
 5    1  0.1267644E-004  0.9118800E+02  0.7818608E-02  0.1130116E+00
         25   -1    0    0    0    0  0.00000000000E+00  0.00000000000E+00  0.99999998245E-14  0.12500000000E+03  0.12500000000E+03 0.  0.
        -13    1    3    3    0    0  0.26364099188E+02 -0.12873221091E+02 -0.28639427552E+02  0.41000164900E+02  0.10566000000E+00 0.  1.
         23    2    1    0    0    0  0.13003890018E+02 -0.80942416559E+01  0.24557566240E+02  0.96057091313E+02  0.91592973684E+02 0.  0.
         13    1    3    3    0    0 -0.13360209170E+02  0.47789794347E+01  0.53196993793E+02  0.55056926414E+02  0.10566000000E+00 0. -1.
         22    1    1    0    0    0 -0.13003890018E+02  0.80942416559E+01 -0.24557566240E+02  0.28942908687E+02  0.00000000000E+00 0. -1.
</event>
<event>
 5    1  0.1267644E-004  0.9118800E+02  0.7818608E-02  0.1130116E+00
         25   -1    0    0    0    0  0.00000000000E+00  0.00000000000E+00  0.99999998245E-14  0.12500000000E+03  0.12500000000E+03 0.  0.
        -13    1    3    3    0    0 -0.39374417774E+02  0.14988161711E+02 -0.55172710151E+01  0.42490483758E+02  0.10566000000E+00 0. -1.
         23    2    1    0    0    0 -0.41044267527E+01  0.27101177294E+01  0.30340062946E+02  0.94263857161E+02  0.89112088350E+02 0.  0.
         13    1    3    3    0    0  0.35269991021E+02 -0.12278043981E+02  0.35857333961E+02  0.51773373403E+02  0.10566000000E+00 0.  1.
         22    1    1    0    0    0  0.41044267527E+01 -0.27101177294E+01 -0.30340062946E+02  0.30736142839E+02  0.00000000000E+00 0.  1.
</event>
<event>
 5    1  0.1267644E-004  0.9118800E+02  0.7818608E-02  0.1130116E+00
         25   -1    0    0    0    0  0.00000000000E+00  0.00000000000E+00  0.99999998245E-14  0.12500000000E+03  0.12500000000E+03 0.  0.
        -13    1    3    3    0    0 -0.36012095927E+02 -0.45316468225E+02 -0.10440429938E+02  0.58817234607E+02  0.10566000000E+00 0.  1.
         23    2    1    0    0    0 -0.90528600645E+01 -0.28781123818E+02  0.56543362041E+01  0.94303438605E+02  0.89167593055E+02 0.  0.
         13    1    3    3    0    0  0.26959235863E+02  0.16535344407E+02  0.16094766143E+02  0.35486203998E+02  0.10566000000E+00 0. -1.
         22    1    1    0    0    0  0.90528600645E+01  0.28781123818E+02 -0.56543362041E+01  0.30696561395E+02  0.00000000000E+00 0.  1.
</event>
<event>
 5    1  0.1267644E-004  0.9118800E+02  0.7818608E-02  0.1130116E+00
         25   -1    0    0    0    0  0.00000000000E+00  0.00000000000E+00  0.99999998245E-14  0.12500000000E+03  0.12500000000E+03 0.  0.
        -13    1    3    3    0    0 -0.42296774049E+02  0.22523342894E+02 -0.29615590875E+02  0.56333049420E+02  0.10566000000E+00 0. -1.
         23    2    1    0    0    0 -0.28115460426E+02 -0.58318329422E+01 -0.65259274534E+01  0.95553826742E+02  0.90903557056E+02 0.  0.
         13    1    3    3    0    0  0.14181313623E+02 -0.28355175836E+02  0.23089663422E+02  0.39220777322E+02  0.10566000000E+00 0.  1.
         22    1    1    0    0    0  0.28115460426E+02  0.58318329422E+01  0.65259274534E+01  0.29446173258E+02  0.00000000000E+00 0. -1.
</event>
<event>
 5    1  0.1267644E-004  0.9118800E+02  0.7818608E-02  0.1130116E+00
         25   -1    0    0    0    0  0.00000000000E+00  0.00000000000E+00  0.99999998245E-14  0.12500000000E+03  0.12500000000E+03 0.  0.
        -13    1    3    3    0    0  0.23113983075E+02  0.34951150795E+02 -0.40049531168E+02  0.57963913483E+02  0.10566000000E+00 0.  1.
         23    2    1    0    0    0  0.86680550636E+00  0.26820090404E+02 -0.96914404385E+01  0.96469444120E+02  0.92154007129E+02 0.  0.
         13    1    3    3    0    0 -0.22247177569E+02 -0.81310603908E+01  0.30358090730E+02  0.38505530637E+02  0.10566000000E+00 0. -1.
         22    1    1    0    0    0 -0.86680550636E+00 -0.26820090404E+02  0.96914404385E+01  0.28530555880E+02  0.00000000000E+00 0.  1.
</event>
<event>
 5    1  0.1267644E-004  0.9118800E+02  0.7818608E-02  0.1130116E+00
         25   -1    0    0    0    0  0.00000000000E+00  0.00000000000E+00  0.99999998245E-14  0.12500000000E+03  0.12500000000E+03 0.  0.
        -13    1    3    3    0    0 -0.37296009531E+02 -0.17294368054E+01 -0.44055173998E+02  0.57748184375E+02  0.10566000000E+00 0.  1.
         23    2    1    0    0    0 -0.25619830246E+02 -0.10933836720E+02 -0.91628805507E+01  0.95676240568E+02  0.91071730751E+02 0.  0.
         13    1    3    3    0    0  0.11676179285E+02 -0.92043999141E+01  0.34892293448E+02  0.37928056193E+02  0.10566000000E+00 0. -1.
         22    1    1    0    0    0  0.25619830246E+02  0.10933836720E+02  0.91628805507E+01  0.29323759432E+02  0.00000000000E+00 0.  1.
</event>
<event>
 5    1  0.1267644E-004  0.9118800E+02  0.7818608E-02  0.1130116E+00
         25   -1    0    0    0    0  0.00000000000E+00  0.00000000000E+00  0.99999998245E-14  0.12500000000E+03  0.12500000000E+03 0.  0.
        -13    1    3    3    0    0  0.21158468206E+02 -0.24625482482E+01 -0.30275870284E+02  0.37018703465E+02  0.10566000000E+00 0.  1.
         23    2    1    0    0    0 -0.26650052657E+02 -0.10975175418E+02  0.32024001240E+01  0.96001118149E+02  0.91516553351E+02 0.  0.
         13    1    3    3    0    0 -0.47808520863E+02 -0.85126271700E+01  0.33478270408E+02  0.58982414684E+02  0.10566000000E+00 0. -1.
         22    1    1    0    0    0  0.26650052657E+02  0.10975175418E+02 -0.32024001240E+01  0.28998881851E+02  0.00000000000E+00 0. -1.
</event>
<event>
 5    1  0.1267644E-004  0.9118800E+02  0.7818608E-02  0.1130116E+00
         25   -1    0    0    0    0  0.00000000000E+00  0.00000000000E+00  0.99999998245E-14  0.12500000000E+03  0.12500000000E+03 0.  0.
        -13    1    3    3    0    0  0.15957711226E+02 -0.18995470860E+02  0.55128574912E+02  0.60453679761E+02  0.10566000000E+00 0.  1.
         23    2    1    0    0    0  0.46933351406E+01 -0.19069200818E+02  0.21681822798E+02  0.95746568501E+02  0.91168207865E+02 0.  0.
         13    1    3    3    0    0 -0.11264376086E+02 -0.73729958258E-01 -0.33446752113E+02  0.35292888741E+02  0.10566000000E+00 0. -1.
         22    1    1    0    0    0 -0.46933351406E+01  0.19069200818E+02 -0.21681822798E+02  0.29253431499E+02  0.00000000000E+00 0.  1.
</event>
<event>
 5    1  0.1267644E-004  0.9118800E+02  0.7818608E-02  0.1130116E+00
         25   -1    0    0    0    0  0.00000000000E+00  0.00000000000E+00  0.99999998245E-14  0.12500000000E+03  0.12500000000E+03 0.  0.
        -13    1    3    3    0    0  0.29138958762E+02 -0.33155169631E+02 -0.41242402419E+02  0.60409362787E+02  0.10566000000E+00 0. -1.
         23    2    1    0    0    0  0.13195108175E+02 -0.23939617069E+02 -0.11602830870E+02  0.95304178251E+02  0.90559618830E+02 0.  0.
         13    1    3    3    0    0 -0.15943850587E+02  0.92155525626E+01  0.29639571549E+02  0.34894815463E+02  0.10566000000E+00 0.  1.
         22    1    1    0    0    0 -0.13195108175E+02  0.23939617069E+02  0.11602830870E+02  0.29695821749E+02  0.00000000000E+00 0. -1.
</event>
<event>
 5    1  0.1267644E-004  0.9118800E+02  0.7818608E-02  0.1130116E+00
         25   -1    0    0    0    0  0.00000000000E+00  0.00000000000E+00  0.99999998245E-14  0.12500000000E+03  0.12500000000E+03 0.  0.
        -13    1    3    3    0    0 -0.23161881622E+02  0.24142268274E+02  0.52132616651E+02  0.61944674998E+02  0.10566000000E+00 0.  1.
         23    2    1    0    0    0 -0.72757551900E+01  0.15849787902E+02  0.23232144634E+02  0.95950302335E+02  0.91447119057E+02 0.  0.
         13    1    3    3    0    0  0.15886126432E+02 -0.82924803719E+01 -0.28900472017E+02  0.34005627337E+02  0.10566000000E+00 0. -1.
         22    1    1    0    0    0  0.72757551900E+01 -0.15849787902E+02 -0.23232144634E+02  0.29049697665E+02  0.00000000000E+00 0.  1.
</event>
<event>
 5    1  0.1267644E-004  0.9118800E+02  0.7818608E-02  0.1130116E+00
         25   -1    0    0    0    0  0.00000000000E+00  0.00000000000E+00  0.99999998245E-14  0.12500000000E+03  0.12500000000E+03 0.  0.
        -13    1    3    3    0    0  0.92720953991E+01  0.32645669004E+02 -0.19869080030E+02  0.39325601878E+02  0.10566000000E+00 0.  1.
         23    2    1    0    0    0 -0.30128085078E+02 -0.27934753572E+01 -0.91174381348E+01  0.93398849813E+02  0.87890343344E+02 0.  0.
         13    1    3    3    0    0 -0.39400180477E+02 -0.35439144361E+02  0.10751641895E+02  0.54073247934E+02  0.10566000000E+00 0. -1.
         22    1    1    0    0    0  0.30128085078E+02  0.27934753572E+01  0.91174381348E+01  0.31601150187E+02  0.00000000000E+00 0. -1.
</event>
<event>
 4    1  0.1267644E-004  0.9118800E+02  0.7818608E-02  0.1130116E+00
         25   -1    0    0    0    0  0.00000000000E+00  0.00000000000E+00  0.99999998245E-14  0.12500000000E+03  0.12500000000E+03 0.  0.
        -13    1    1    0    0    0 -0.17416939681E+02  0.57664670604E+02  0.11024314210E+02  0.61238147355E+02  0.10566000000E+00 0.  1.
         13    1    1    0    0    0  0.66314900701E+01 -0.33655314022E+01 -0.10661418174E+01  0.75134069888E+01  0.10566000000E+00 0. -1.
         22    1    1    0    0    0  0.10785449611E+02 -0.54299139201E+02 -0.99581723925E+01  0.56248445656E+02  0.00000000000E+00 0.  1.
</event>
<event>
 5    1  0.1267644E-004  0.9118800E+02  0.7818608E-02  0.1130116E+00
         25   -1    0    0    0    0  0.00000000000E+00  0.00000000000E+00  0.99999998245E-14  0.12500000000E+03  0.12500000000E+03 0.  0.
        -13    1    3    3    0    0  0.90230689548E+01 -0.45916714287E+01 -0.48351018439E+02  0.49399710202E+02  0.10566000000E+00 0.  1.
         23    2    1    0    0    0 -0.23485822751E+02  0.36136401336E+01 -0.26431379519E+02  0.89457629671E+02  0.82093893913E+02 0.  0.
         13    1    3    3    0    0 -0.32508891706E+02  0.82053115622E+01  0.21919638920E+02  0.40057919469E+02  0.10566000000E+00 0. -1.
         22    1    1    0    0    0  0.23485822751E+02 -0.36136401336E+01  0.26431379519E+02  0.35542370329E+02  0.00000000000E+00 0. -1.
</event>
<event>
 5    1  0.1267644E-004  0.9118800E+02  0.7818608E-02  0.1130116E+00
         25   -1    0    0    0    0  0.00000000000E+00  0.00000000000E+00  0.99999998245E-14  0.12500000000E+03  0.12500000000E+03 0.  0.
        -13    1    3    3    0    0  0.18993979686E+02 -0.25214065671E+02  0.44039141229E+02  0.54184661078E+02  0.10566000000E+00 0. -1.
         23    2    1    0    0    0 -0.12440714585E+02 -0.20053408105E+02  0.18495550418E+02  0.95016738982E+02  0.90161991690E+02 0.  0.
         13    1    3    3    0    0 -0.31434694271E+02  0.51606575658E+01 -0.25543590811E+02  0.40832077904E+02  0.10566000000E+00 0.  1.
         22    1    1    0    0    0  0.12440714585E+02  0.20053408105E+02 -0.18495550418E+02  0.29983261018E+02  0.00000000000E+00 0. -1.
</event>
<event>
 5    1  0.1267644E-004  0.9118800E+02  0.7818608E-02  0.1130116E+00
         25   -1    0    0    0    0  0.00000000000E+00  0.00000000000E+00  0.99999998245E-14  0.12500000000E+03  0.12500000000E+03 0.  0.
        -13    1    3    3    0    0  0.22693615571E+02 -0.25211751779E+02  0.50712038439E+02  0.61011102449E+02  0.10566000000E+00 0. -1.
         23    2    1    0    0    0  0.14495919403E+02 -0.30740348513E+01  0.25172215168E+02  0.95790039609E+02  0.91227791282E+02 0.  0.
         13    1    3    3    0    0 -0.81976961682E+01  0.22137716927E+02 -0.25539823271E+02  0.34778937160E+02  0.10566000000E+00 0.  1.
         22    1    1    0    0    0 -0.14495919403E+02  0.30740348513E+01 -0.25172215168E+02  0.29209960391E+02  0.00000000000E+00 0. -1.
</event>
<event>
 5    1  0.1267644E-004  0.9118800E+02  0.7818608E-02  0.1130116E+00
         25   -1    0    0    0    0  0.00000000000E+00  0.00000000000E+00  0.99999998245E-14  0.12500000000E+03  0.12500000000E+03 0.  0.
        -13    1    3    3    0    0 -0.16596409716E+02 -0.28756590839E+02  0.26164888046E+01  0.33305247482E+02  0.10566000000E+00 0.  1.
         23    2    1    0    0    0  0.97866627300E+01  0.27678784113E+02  0.10811116858E+01  0.95622071893E+02  0.90997351463E+02 0.  0.
         13    1    3    3    0    0  0.26383072446E+02  0.56435374952E+02 -0.15353771187E+01  0.62316824411E+02  0.10566000000E+00 0. -1.
         22    1    1    0    0    0 -0.97866627300E+01 -0.27678784113E+02 -0.10811116858E+01  0.29377928107E+02  0.00000000000E+00 0. -1.
</event>
<event>
 5    1  0.1267644E-004  0.9118800E+02  0.7818608E-02  0.1130116E+00
         25   -1    0    0    0    0  0.00000000000E+00  0.00000000000E+00  0.99999998245E-14  0.12500000000E+03  0.12500000000E+03 0.  0.
        -13    1    3    3    0    0 -0.19383792807E+02 -0.12285445778E+02  0.26679590613E+02  0.35191978076E+02  0.10566000000E+00 0.  1.
         23    2    1    0    0    0  0.29811543063E+02 -0.19723063457E+01 -0.51436355015E+01  0.94683748941E+02  0.89699148464E+02 0.  0.
         13    1    3    3    0    0  0.49195335870E+02  0.10313139432E+02 -0.31823226115E+02  0.59491770865E+02  0.10566000000E+00 0. -1.
         22    1    1    0    0    0 -0.29811543063E+02  0.19723063457E+01  0.51436355015E+01  0.30316251059E+02  0.00000000000E+00 0. -1.
</event>
<event>
 5    1  0.1267644E-004  0.9118800E+02  0.7818608E-02  0.1130116E+00
         25   -1    0    0    0    0  0.00000000000E+00  0.00000000000E+00  0.99999998245E-14  0.12500000000E+03  0.12500000000E+03 0.  0.
        -13    1    3    3    0    0 -0.58897093652E+01 -0.15235806540E+02  0.34445492286E+02  0.38122455065E+02  0.10566000000E+00 0. -1.
         23    2    1    0    0    0  0.23591959732E+02  0.12751763928E+02 -0.81191704603E+01  0.96980203851E+02  0.92844229561E+02 0.  0.
         13    1    3    3    0    0  0.29481669097E+02  0.27987570468E+02 -0.42564662746E+02  0.58857748786E+02  0.10566000000E+00 0.  1.
         22    1    1    0    0    0 -0.23591959732E+02 -0.12751763928E+02  0.81191704603E+01  0.28019796149E+02  0.00000000000E+00 0.  1.
</event>
<event>
 5    1  0.1267644E-004  0.9118800E+02  0.7818608E-02  0.1130116E+00
         25   -1    0    0    0    0  0.00000000000E+00  0.00000000000E+00  0.99999998245E-14  0.12500000000E+03  0.12500000000E+03 0.  0.
        -13    1    3    3    0    0 -0.33938955737E+02  0.43913202865E+00  0.24837345504E+01  0.34032714479E+02  0.10566000000E+00 0.  1.
         23    2    1    0    0    0  0.28226249391E+02 -0.22103502823E+01  0.47298813323E+01  0.96294972906E+02  0.91917045354E+02 0.  0.
         13    1    3    3    0    0  0.62165205128E+02 -0.26494823110E+01  0.22461467820E+01  0.62262258427E+02  0.10566000000E+00 0. -1.
         22    1    1    0    0    0 -0.28226249391E+02  0.22103502823E+01 -0.47298813323E+01  0.28705027094E+02  0.00000000000E+00 0. -1.
</event>
<event>
 5    1  0.1267644E-004  0.9118800E+02  0.7818608E-02  0.1130116E+00
         25   -1    0    0    0    0  0.00000000000E+00  0.00000000000E+00  0.99999998245E-14  0.12500000000E+03  0.12500000000E+03 0.  0.
        -13    1    3    3    0    0  0.15647271865E+02 -0.13253173442E+02 -0.52455153086E+02  0.56320848470E+02  0.10566000000E+00 0.  1.
         23    2    1    0    0    0  0.11284100475E+02  0.13186139652E+02 -0.23677203456E+02  0.95643311394E+02  0.91026522775E+02 0.  0.
         13    1    3    3    0    0 -0.43631713899E+01  0.26439313094E+02  0.28777949630E+02  0.39322462924E+02  0.10566000000E+00 0. -1.
         22    1    1    0    0    0 -0.11284100475E+02 -0.13186139652E+02  0.23677203456E+02  0.29356688606E+02  0.00000000000E+00 0.  1.
</event>
<event>
 5    1  0.1267644E-004  0.9118800E+02  0.7818608E-02  0.1130116E+00
         25   -1    0    0    0    0  0.00000000000E+00  0.00000000000E+00  0.99999998245E-14  0.12500000000E+03  0.12500000000E+03 0.  0.
        -13    1    3    3    0    0 -0.10700213451E+00  0.37108788281E+02  0.48731459450E+02  0.61252264622E+02  0.10566000000E+00 0. -1.
         23    2    1    0    0    0 -0.13204587187E+01  0.10485144973E+02  0.28168442584E+02  0.94914404877E+02  0.90020004550E+02 0.  0.
         13    1    3    3    0    0 -0.12134565842E+01 -0.26623643308E+02 -0.20563016866E+02  0.33662140255E+02  0.10566000000E+00 0.  1.
         22    1    1    0    0    0  0.13204587187E+01 -0.10485144973E+02 -0.28168442584E+02  0.30085595123E+02  0.00000000000E+00 0. -1.
</event>
<event>
 5    1  0.1267644E-004  0.9118800E+02  0.7818608E-02  0.1130116E+00
         25   -1    0    0    0    0  0.00000000000E+00  0.00000000000E+00  0.99999998245E-14  0.12500000000E+03  0.12500000000E+03 0.  0.
        -13    1    3    3    0    0  0.21433004825E+02 -0.55975409004E+02  0.11725825645E+02  0.61074759600E+02  0.10566000000E+00 0.  1.
         23    2    1    0    0    0  0.13125492538E+01 -0.29569637584E+02  0.67189061447E+01  0.94648229835E+02  0.89649637248E+02 0.  0.
         13    1    3    3    0    0 -0.20120455571E+02  0.26405771421E+02 -0.50069195007E+01  0.33573470235E+02  0.10566000000E+00 0. -1.
         22    1    1    0    0    0 -0.13125492538E+01  0.29569637584E+02 -0.67189061447E+01  0.30351770165E+02  0.00000000000E+00 0.  1.
</event>
<event>
 5    1  0.1267644E-004  0.9118800E+02  0.7818608E-02  0.1130116E+00
         25   -1    0    0    0    0  0.00000000000E+00  0.00000000000E+00  0.99999998245E-14  0.12500000000E+03  0.12500000000E+03 0.  0.
        -13    1    3    3    0    0 -0.25967677731E+01 -0.57968471101E+02  0.25044519431E+01  0.58080722174E+02  0.10566000000E+00 0. -1.
         23    2    1    0    0    0 -0.13073868195E+02 -0.22860932256E+02  0.12194808528E+02  0.95978256286E+02  0.91485321617E+02 0.  0.
         13    1    3    3    0    0 -0.10477100421E+02  0.35107538845E+02  0.96903565850E+01  0.37897534112E+02  0.10566000000E+00 0.  1.
         22    1    1    0    0    0  0.13073868195E+02  0.22860932256E+02 -0.12194808528E+02  0.29021743714E+02  0.00000000000E+00 0. -1.
</event>
<event>
 5    1  0.1267644E-004  0.9118800E+02  0.7818608E-02  0.1130116E+00
         25   -1    0    0    0    0  0.00000000000E+00  0.00000000000E+00  0.99999998245E-14  0.12500000000E+03  0.12500000000E+03 0.  0.
        -13    1    3    3    0    0  0.43542450681E+00  0.37929270964E+02 -0.41828581675E+01  0.38161848184E+02  0.10566000000E+00 0.  1.
         23    2    1    0    0    0 -0.99551113939E+01 -0.78737494201E+01  0.27429219231E+02  0.94776462146E+02  0.89828255781E+02 0.  0.
         13    1    3    3    0    0 -0.10390535901E+02 -0.45803020384E+02  0.31612077398E+02  0.56614613962E+02  0.10566000000E+00 0. -1.
         22    1    1    0    0    0  0.99551113939E+01  0.78737494201E+01 -0.27429219231E+02  0.30223537854E+02  0.00000000000E+00 0. -1.
</event>
<event>
 5    1  0.1267644E-004  0.9118800E+02  0.7818608E-02  0.1130116E+00
         25   -1    0    0    0    0  0.00000000000E+00  0.00000000000E+00  0.99999998245E-14  0.12500000000E+03  0.12500000000E+03 0.  0.
        -13    1    3    3    0    0  0.19853284998E+02  0.12302692967E+02  0.39828798184E+02  0.46171999180E+02  0.10566000000E+00 0.  1.
         23    2    1    0    0    0  0.33408243554E+02 -0.34505241092E+01 -0.35527984391E+00  0.91412158781E+02  0.85017878680E+02 0.  0.
         13    1    3    3    0    0  0.13554958556E+02 -0.15753217076E+02 -0.40184078028E+02  0.45240159601E+02  0.10566000000E+00 0. -1.
         22    1    1    0    0    0 -0.33408243554E+02  0.34505241092E+01  0.35527984391E+00  0.33587841219E+02  0.00000000000E+00 0.  1.
</event>
<event>
 5    1  0.1267644E-004  0.9118800E+02  0.7818608E-02  0.1130116E+00
         25   -1    0    0    0    0  0.00000000000E+00  0.00000000000E+00  0.99999998245E-14  0.12500000000E+03  0.12500000000E+03 0.  0.
        -13    1    3    3    0    0  0.23671290351E+02 -0.14754466384E+01  0.26101146422E+02  0.35267377819E+02  0.10566000000E+00 0. -1.
         23    2    1    0    0    0 -0.83066004774E+01  0.20557902021E+02 -0.19716957733E+02  0.95328711365E+02  0.90593475711E+02 0.  0.
         13    1    3    3    0    0 -0.31977890828E+02  0.22033348659E+02 -0.45818104155E+02  0.60061333546E+02  0.10566000000E+00 0.  1.
         22    1    1    0    0    0  0.83066004774E+01 -0.20557902021E+02  0.19716957733E+02  0.29671288635E+02  0.00000000000E+00 0.  1.
</event>
<event>
 5    1  0.1267644E-004  0.9118800E+02  0.7818608E-02  0.1130116E+00
         25   -1    0    0    0    0  0.00000000000E+00  0.00000000000E+00  0.99999998245E-14  0.12500000000E+03  0.12500000000E+03 0.  0.
        -13    1    3    3    0    0  0.27163821427E+01  0.39811897689E+02 -0.15585813100E+02  0.42840339209E+02  0.10566000000E+00 0.  1.
         23    2    1    0    0    0 -0.22161451182E+02 -0.35681490436E+01  0.11571460517E+02  0.99746083382E+02  0.96496221923E+02 0.  0.
         13    1    3    3    0    0 -0.24877833325E+02 -0.43380046733E+02  0.27157273617E+02  0.56905744172E+02  0.10566000000E+00 0. -1.
         22    1    1    0    0    0  0.22161451182E+02  0.35681490436E+01 -0.11571460517E+02  0.25253916618E+02  0.00000000000E+00 0. -1.
</event>
<event>
 4    1  0.1267644E-004  0.9118800E+02  0.7818608E-02  0.1130116E+00
         25   -1    0    0    0    0  0.00000000000E+00  0.00000000000E+00  0.99999998245E-14  0.12500000000E+03  0.12500000000E+03 0.  0.
        -13    1    1    0    0    0 -0.11716909594E+02 -0.17202257556E+02 -0.14765345864E+02  0.25519213114E+02  0.10566000000E+00 0.  1.
         13    1    1    0    0    0 -0.10039466121E+02  0.40301073654E+02 -0.25100170754E+02  0.48528312907E+02  0.10566000000E+00 0. -1.
         22    1    1    0    0    0  0.21756375714E+02 -0.23098816099E+02  0.39865516618E+02  0.50952473979E+02  0.00000000000E+00 0. -1.
</event>
<event>
 5    1  0.1267644E-004  0.9118800E+02  0.7818608E-02  0.1130116E+00
         25   -1    0    0    0    0  0.00000000000E+00  0.00000000000E+00  0.99999998245E-14  0.12500000000E+03  0.12500000000E+03 0.  0.
        -13    1    3    3    0    0  0.29179722855E+02  0.23204915200E+02  0.25310983448E+02  0.45061972465E+02  0.10566000000E+00 0.  1.
         23    2    1    0    0    0 -0.16912516604E+02  0.23056290619E+02  0.30653500132E+01  0.96242007621E+02  0.91844988460E+02 0.  0.
         13    1    3    3    0    0 -0.46092239459E+02 -0.14862458052E+00 -0.22245633434E+02  0.51180035156E+02  0.10566000000E+00 0. -1.
         22    1    1    0    0    0  0.16912516604E+02 -0.23056290619E+02 -0.30653500132E+01  0.28757992379E+02  0.00000000000E+00 0. -1.
</event>
<event>
 5    1  0.1267644E-004  0.9118800E+02  0.7818608E-02  0.1130116E+00
         25   -1    0    0    0    0  0.00000000000E+00  0.00000000000E+00  0.99999998245E-14  0.12500000000E+03  0.12500000000E+03 0.  0.
        -13    1    3    3    0    0  0.31841085981E+02 -0.15599651932E+01 -0.13760961147E+02  0.34722664984E+02  0.10566000000E+00 0.  1.
         23    2    1    0    0    0 -0.24283719351E+02 -0.13516437601E+02  0.79762824228E+01  0.96086089987E+02  0.91632540600E+02 0.  0.
         13    1    3    3    0    0 -0.56124805332E+02 -0.11956472408E+02  0.21737243570E+02  0.61363425003E+02  0.10566000000E+00 0. -1.
         22    1    1    0    0    0  0.24283719351E+02  0.13516437601E+02 -0.79762824228E+01  0.28913910013E+02  0.00000000000E+00 0. -1.
</event>
<event>
 5    1  0.1267644E-004  0.9118800E+02  0.7818608E-02  0.1130116E+00
         25   -1    0    0    0    0  0.00000000000E+00  0.00000000000E+00  0.99999998245E-14  0.12500000000E+03  0.12500000000E+03 0.  0.
        -13    1    3    3    0    0  0.43218823835E+01 -0.20482768609E+02 -0.41146365181E+02  0.46165539192E+02  0.10566000000E+00 0. -1.
         23    2    1    0    0    0  0.40516180265E+01  0.21175931475E+02 -0.27610178195E+02  0.89969190383E+02  0.82869159497E+02 0.  0.
         13    1    3    3    0    0 -0.27026435705E+00  0.41658700084E+02  0.13536186986E+02  0.43803651191E+02  0.10566000000E+00 0.  1.
         22    1    1    0    0    0 -0.40516180265E+01 -0.21175931475E+02  0.27610178195E+02  0.35030809617E+02  0.00000000000E+00 0. -1.
</event>
<event>
 5    1  0.1267644E-004  0.9118800E+02  0.7818608E-02  0.1130116E+00
         25   -1    0    0    0    0  0.00000000000E+00  0.00000000000E+00  0.99999998245E-14  0.12500000000E+03  0.12500000000E+03 0.  0.
        -13    1    3    3    0    0  0.78631249612E+01  0.29606646460E+02 -0.52920647539E+02  0.61147267713E+02  0.10566000000E+00 0.  1.
         23    2    1    0    0    0  0.28640166579E+01  0.55055997534E+01 -0.28542727643E+02  0.95790386490E+02  0.91228266576E+02 0.  0.
         13    1    3    3    0    0 -0.49991083032E+01 -0.24101046706E+02  0.24377919895E+02  0.34643118778E+02  0.10566000000E+00 0. -1.
         22    1    1    0    0    0 -0.28640166579E+01 -0.55055997534E+01  0.28542727643E+02  0.29209613510E+02  0.00000000000E+00 0.  1.
</event>
<event>
 5    1  0.1267644E-004  0.9118800E+02  0.7818608E-02  0.1130116E+00
         25   -1    0    0    0    0  0.00000000000E+00  0.00000000000E+00  0.99999998245E-14  0.12500000000E+03  0.12500000000E+03 0.  0.
        -13    1    3    3    0    0  0.40748692421E+02  0.42854491558E+01 -0.31839271097E+02  0.51889992836E+02  0.10566000000E+00 0.  1.
         23    2    1    0    0    0  0.12431158364E+02  0.25489365725E+02 -0.52162229538E+01  0.96165117561E+02  0.91740282266E+02 0.  0.
         13    1    3    3    0    0 -0.28317534057E+02  0.21203916569E+02  0.26623048143E+02  0.44275124725E+02  0.10566000000E+00 0. -1.
         22    1    1    0    0    0 -0.12431158364E+02 -0.25489365725E+02  0.52162229538E+01  0.28834882439E+02  0.00000000000E+00 0.  1.
</event>
<event>
 5    1  0.1267644E-004  0.9118800E+02  0.7818608E-02  0.1130116E+00
         25   -1    0    0    0    0  0.00000000000E+00  0.00000000000E+00  0.99999998245E-14  0.12500000000E+03  0.12500000000E+03 0.  0.
        -13    1    3    3    0    0 -0.35682612707E+02  0.11144061683E+02  0.26750762351E+02  0.45967960699E+02  0.10566000000E+00 0.  1.
         23    2    1    0    0    0  0.83477760239E+01 -0.13967253314E+02  0.23042554678E+02  0.96791333677E+02  0.92589596711E+02 0.  0.
         13    1    3    3    0    0  0.44030388731E+02 -0.25111314997E+02 -0.37082076731E+01  0.50823372978E+02  0.10566000000E+00 0. -1.
         22    1    1    0    0    0 -0.83477760239E+01  0.13967253314E+02 -0.23042554678E+02  0.28208666323E+02  0.00000000000E+00 0. -1.
</event>
<event>
 5    1  0.1267644E-004  0.9118800E+02  0.7818608E-02  0.1130116E+00
         25   -1    0    0    0    0  0.00000000000E+00  0.00000000000E+00  0.99999998245E-14  0.12500000000E+03  0.12500000000E+03 0.  0.
        -13    1    3    3    0    0 -0.38363347158E+02 -0.20940319744E+02 -0.32177593087E+02  0.54273861637E+02  0.10566000000E+00 0.  1.
         23    2    1    0    0    0 -0.84640505574E+01 -0.26000141315E+02 -0.11895301847E+01  0.97630994130E+02  0.93716319457E+02 0.  0.
         13    1    3    3    0    0  0.29899296601E+02 -0.50598215710E+01  0.30988062902E+02  0.43357132493E+02  0.10566000000E+00 0. -1.
         22    1    1    0    0    0  0.84640505574E+01  0.26000141315E+02  0.11895301847E+01  0.27369005870E+02  0.00000000000E+00 0.  1.
</event>
<event>
 5    1  0.1267644E-004  0.9118800E+02  0.7818608E-02  0.1130116E+00
         25   -1    0    0    0    0  0.00000000000E+00  0.00000000000E+00  0.99999998245E-14  0.12500000000E+03  0.12500000000E+03 0.  0.
        -13    1    3    3    0    0 -0.13593720077E+02 -0.25867938000E+02  0.32512506194E+02  0.43715142284E+02  0.10566000000E+00 0.  1.
         23    2    1    0    0    0  0.37291142710E+01  0.21253984407E+02  0.20275732864E+02  0.95390145397E+02  0.90678202173E+02 0.  0.
         13    1    3    3    0    0  0.17322834348E+02  0.47121922407E+02 -0.12236773330E+02  0.51675003113E+02  0.10566000000E+00 0. -1.
         22    1    1    0    0    0 -0.37291142710E+01 -0.21253984407E+02 -0.20275732864E+02  0.29609854603E+02  0.00000000000E+00 0. -1.
</event>
<event>
 5    1  0.1267644E-004  0.9118800E+02  0.7818608E-02  0.1130116E+00
         25   -1    0    0    0    0  0.00000000000E+00  0.00000000000E+00  0.99999998245E-14  0.12500000000E+03  0.12500000000E+03 0.  0.
        -13    1    3    3    0    0 -0.17592520026E+02 -0.20183936424E+02 -0.60887403258E+01  0.27458550093E+02  0.10566000000E+00 0.  1.
         23    2    1    0    0    0  0.15978186075E+02  0.17152642291E+02 -0.33074402598E+02  0.84460739091E+02  0.74095781073E+02 0.  0.
         13    1    3    3    0    0  0.33570706101E+02  0.37336578715E+02 -0.26985662272E+02  0.57002188998E+02  0.10566000000E+00 0. -1.
         22    1    1    0    0    0 -0.15978186075E+02 -0.17152642291E+02  0.33074402598E+02  0.40539260909E+02  0.00000000000E+00 0. -1.
</event>
<event>
 5    1  0.1267644E-004  0.9118800E+02  0.7818608E-02  0.1130116E+00
         25   -1    0    0    0    0  0.00000000000E+00  0.00000000000E+00  0.99999998245E-14  0.12500000000E+03  0.12500000000E+03 0.  0.
        -13    1    3    3    0    0 -0.36010435596E+00  0.20670197445E+02  0.48865624853E+02  0.53058903059E+02  0.10566000000E+00 0.  1.
         23    2    1    0    0    0  0.22421751228E+02  0.12183652456E+02  0.13071034726E+02  0.96328964719E+02  0.91963259945E+02 0.  0.
         13    1    3    3    0    0  0.22781855584E+02 -0.84865449891E+01 -0.35794590126E+02  0.43270061660E+02  0.10566000000E+00 0. -1.
         22    1    1    0    0    0 -0.22421751228E+02 -0.12183652456E+02 -0.13071034726E+02  0.28671035281E+02  0.00000000000E+00 0.  1.
</event>
<event>
 5    1  0.1267644E-004  0.9118800E+02  0.7818608E-02  0.1130116E+00
         25   -1    0    0    0    0  0.00000000000E+00  0.00000000000E+00  0.99999998245E-14  0.12500000000E+03  0.12500000000E+03 0.  0.
        -13    1    3    3    0    0  0.14689317952E+02  0.27795614049E+02 -0.45671607929E+02  0.55446182529E+02  0.10566000000E+00 0.  1.
         23    2    1    0    0    0  0.11959386518E+02  0.24804017308E+02 -0.41648562828E+01  0.97150184410E+02  0.93072800015E+02 0.  0.
         13    1    3    3    0    0 -0.27299314340E+01 -0.29915967405E+01  0.41506751646E+02  0.41704001881E+02  0.10566000000E+00 0. -1.
         22    1    1    0    0    0 -0.11959386518E+02 -0.24804017308E+02  0.41648562828E+01  0.27849815590E+02  0.00000000000E+00 0.  1.
</event>
<event>
 5    1  0.1267644E-004  0.9118800E+02  0.7818608E-02  0.1130116E+00
         25   -1    0    0    0    0  0.00000000000E+00  0.00000000000E+00  0.99999998245E-14  0.12500000000E+03  0.12500000000E+03 0.  0.
        -13    1    3    3    0    0 -0.33374705447E+02 -0.24613381498E+02 -0.14761984106E+02  0.44018369474E+02  0.10566000000E+00 0.  1.
         23    2    1    0    0    0 -0.26609591858E+01  0.18475860612E+02 -0.20536461024E+02  0.97247804402E+02  0.93203814838E+02 0.  0.
         13    1    3    3    0    0  0.30713746261E+02  0.43089242109E+02 -0.57744769185E+01  0.53229434927E+02  0.10566000000E+00 0. -1.
         22    1    1    0    0    0  0.26609591858E+01 -0.18475860612E+02  0.20536461024E+02  0.27752195598E+02  0.00000000000E+00 0. -1.
</event>
<event>
 5    1  0.1267644E-004  0.9118800E+02  0.7818608E-02  0.1130116E+00
         25   -1    0    0    0    0  0.00000000000E+00  0.00000000000E+00  0.99999998245E-14  0.12500000000E+03  0.12500000000E+03 0.  0.
        -13    1    3    3    0    0 -0.35967944921E+02  0.14231158876E-01  0.38542489364E+02  0.52718383082E+02  0.10566000000E+00 0.  1.
         23    2    1    0    0    0 -0.11892703662E+02 -0.23941333114E+02  0.12650906416E+02  0.95425192058E+02  0.90726501170E+02 0.  0.
         13    1    3    3    0    0  0.24075241259E+02 -0.23955564273E+02 -0.25891582948E+02  0.42706808976E+02  0.10566000000E+00 0. -1.
         22    1    1    0    0    0  0.11892703662E+02  0.23941333114E+02 -0.12650906416E+02  0.29574807942E+02  0.00000000000E+00 0.  1.
</event>
<event>
 5    1  0.1267644E-004  0.9118800E+02  0.7818608E-02  0.1130116E+00
         25   -1    0    0    0    0  0.00000000000E+00  0.00000000000E+00  0.99999998245E-14  0.12500000000E+03  0.12500000000E+03 0.  0.
        -13    1    3    3    0    0  0.55956294519E+02  0.24400267587E+01 -0.11435561077E+02  0.57165057930E+02  0.10566000000E+00 0.  1.
         23    2    1    0    0    0  0.14341633054E+02  0.10123068017E+02 -0.17847535964E+02  0.99966153218E+02  0.96780877783E+02 0.  0.
         13    1    3    3    0    0 -0.41614661466E+02  0.76830412580E+01 -0.64119748873E+01  0.42801095288E+02  0.10566000000E+00 0. -1.
         22    1    1    0    0    0 -0.14341633054E+02 -0.10123068017E+02  0.17847535964E+02  0.25033846782E+02  0.00000000000E+00 0.  1.
</event>
<event>
 5    1  0.1267644E-004  0.9118800E+02  0.7818608E-02  0.1130116E+00
         25   -1    0    0    0    0  0.00000000000E+00  0.00000000000E+00  0.99999998245E-14  0.12500000000E+03  0.12500000000E+03 0.  0.
        -13    1    3    3    0    0  0.29705089780E+02  0.87732255662E-01 -0.42081560903E+02  0.51509892136E+02  0.10566000000E+00 0.  1.
         23    2    1    0    0    0  0.38718835938E+02  0.95931356659E+01 -0.13606726702E+02  0.82853594224E+02  0.71333011685E+02 0.  0.
         13    1    3    3    0    0  0.90137461578E+01  0.95054034103E+01  0.28474834201E+02  0.31343702088E+02  0.10566000000E+00 0. -1.
         22    1    1    0    0    0 -0.38718835938E+02 -0.95931356659E+01  0.13606726702E+02  0.42146405776E+02  0.00000000000E+00 0.  1.
</event>
<event>
 5    1  0.1267644E-004  0.9118800E+02  0.7818608E-02  0.1130116E+00
         25   -1    0    0    0    0  0.00000000000E+00  0.00000000000E+00  0.99999998245E-14  0.12500000000E+03  0.12500000000E+03 0.  0.
        -13    1    3    3    0    0 -0.10654615000E+02  0.34224504331E+02  0.41645941580E+02  0.54947548914E+02  0.10566000000E+00 0.  1.
         23    2    1    0    0    0  0.16117756528E+02  0.10690085267E+02  0.22214735261E+02  0.95545722531E+02  0.90892412404E+02 0.  0.
         13    1    3    3    0    0  0.26772371529E+02 -0.23534419064E+02 -0.19431206319E+02  0.40598173617E+02  0.10566000000E+00 0. -1.
         22    1    1    0    0    0 -0.16117756528E+02 -0.10690085267E+02 -0.22214735261E+02  0.29454277469E+02  0.00000000000E+00 0.  1.
</event>
<event>
 5    1  0.1267644E-004  0.9118800E+02  0.7818608E-02  0.1130116E+00
         25   -1    0    0    0    0  0.00000000000E+00  0.00000000000E+00  0.99999998245E-14  0.12500000000E+03  0.12500000000E+03 0.  0.
        -13    1    3    3    0    0  0.46727380025E+02  0.27400179151E+02 -0.22646167154E+02  0.58711820891E+02  0.10566000000E+00 0.  1.
         23    2    1    0    0    0  0.27725756366E+02  0.85641745932E+01  0.30667670305E+01  0.95820080320E+02  0.91268943677E+02 0.  0.
         13    1    3    3    0    0 -0.19001623659E+02 -0.18836004558E+02  0.25712934184E+02  0.37108259428E+02  0.10566000000E+00 0. -1.
         22    1    1    0    0    0 -0.27725756366E+02 -0.85641745932E+01 -0.30667670305E+01  0.29179919680E+02  0.00000000000E+00 0.  1.
</event>
<event>
 5    1  0.1267644E-004  0.9118800E+02  0.7818608E-02  0.1130116E+00
         25   -1    0    0    0    0  0.00000000000E+00  0.00000000000E+00  0.99999998245E-14  0.12500000000E+03  0.12500000000E+03 0.  0.
        -13    1    3    3    0    0  0.33896354728E+02 -0.56006102708E+01 -0.15646639314E+02  0.37751267331E+02  0.10566000000E+00 0.  1.
         23    2    1    0    0    0 -0.18381957968E+02 -0.13893011261E+02  0.13618607005E+02  0.98234750190E+02  0.94518186332E+02 0.  0.
         13    1    3    3    0    0 -0.52278312696E+02 -0.82924009902E+01  0.29265246319E+02  0.60483482859E+02  0.10566000000E+00 0. -1.
         22    1    1    0    0    0  0.18381957968E+02  0.13893011261E+02 -0.13618607005E+02  0.26765249810E+02  0.00000000000E+00 0. -1.
</event>
<event>
 5    1  0.1267644E-004  0.9118800E+02  0.7818608E-02  0.1130116E+00
         25   -1    0    0    0    0  0.00000000000E+00  0.00000000000E+00  0.99999998245E-14  0.12500000000E+03  0.12500000000E+03 0.  0.
        -13    1    3    3    0    0  0.32578045293E+02 -0.32009295452E+02  0.32710981207E+02  0.56177784631E+02  0.10566000000E+00 0. -1.
         23    2    1    0    0    0  0.26588131646E+02 -0.11132666716E+02 -0.86055202405E+00  0.96162427938E+02  0.91736617468E+02 0.  0.
         13    1    3    3    0    0 -0.59899136465E+01  0.20876628735E+02 -0.33571533231E+02  0.39984643307E+02  0.10566000000E+00 0.  1.
         22    1    1    0    0    0 -0.26588131646E+02  0.11132666716E+02  0.86055202405E+00  0.28837572062E+02  0.00000000000E+00 0. -1.
</event>
<event>
 5    1  0.1267644E-004  0.9118800E+02  0.7818608E-02  0.1130116E+00
         25   -1    0    0    0    0  0.00000000000E+00  0.00000000000E+00  0.99999998245E-14  0.12500000000E+03  0.12500000000E+03 0.  0.
        -13    1    3    3    0    0  0.12438579280E+02 -0.16253763270E+02 -0.26540957347E+01  0.20638761182E+02  0.10566000000E+00 0.  1.
         23    2    1    0    0    0 -0.84447344147E+01  0.41788340375E+02 -0.17824984067E+01  0.82329679739E+02  0.70408947831E+02 0.  0.
         13    1    3    3    0    0 -0.20883313694E+02  0.58042103645E+02  0.87159732807E+00  0.61690918556E+02  0.10566000000E+00 0. -1.
         22    1    1    0    0    0  0.84447344147E+01 -0.41788340375E+02  0.17824984067E+01  0.42670320261E+02  0.00000000000E+00 0. -1.
</event>
<event>
 5    1  0.1267644E-004  0.9118800E+02  0.7818608E-02  0.1130116E+00
         25   -1    0    0    0    0  0.00000000000E+00  0.00000000000E+00  0.99999998245E-14  0.12500000000E+03  0.12500000000E+03 0.  0.
        -13    1    3    3    0    0 -0.20690577418E+02 -0.10596267193E+02 -0.37615341330E+02  0.44218841456E+02  0.10566000000E+00 0.  1.
         23    2    1    0    0    0 -0.25444098441E+02 -0.85301402166E+01  0.13057378534E+02  0.95156063065E+02  0.90354943231E+02 0.  0.
         13    1    3    3    0    0 -0.47535210233E+01  0.20661269768E+01  0.50672719864E+02  0.50937221609E+02  0.10566000000E+00 0. -1.
         22    1    1    0    0    0  0.25444098441E+02  0.85301402166E+01 -0.13057378534E+02  0.29843936935E+02  0.00000000000E+00 0. -1.
</event>
<event>
 5    1  0.1267644E-004  0.9118800E+02  0.7818608E-02  0.1130116E+00
         25   -1    0    0    0    0  0.00000000000E+00  0.00000000000E+00  0.99999998245E-14  0.12500000000E+03  0.12500000000E+03 0.  0.
        -13    1    3    3    0    0 -0.13172609165E+02  0.15795686225E+02 -0.28343505803E+02  0.35019806121E+02  0.10566000000E+00 0.  1.
         23    2    1    0    0    0  0.10326795409E+02 -0.26790494858E+02  0.73635070881E+01  0.95358904292E+02  0.90635126044E+02 0.  0.
         13    1    3    3    0    0  0.23499404574E+02 -0.42586181082E+02  0.35707012891E+02  0.60339098171E+02  0.10566000000E+00 0. -1.
         22    1    1    0    0    0 -0.10326795409E+02  0.26790494858E+02 -0.73635070881E+01  0.29641095708E+02  0.00000000000E+00 0. -1.
</event>
<event>
 5    1  0.1267644E-004  0.9118800E+02  0.7818608E-02  0.1130116E+00
         25   -1    0    0    0    0  0.00000000000E+00  0.00000000000E+00  0.99999998245E-14  0.12500000000E+03  0.12500000000E+03 0.  0.
        -13    1    3    3    0    0  0.17809409147E+02  0.30081924303E+02 -0.63903465368E+01  0.35537936305E+02  0.10566000000E+00 0.  1.
         23    2    1    0    0    0 -0.26294662740E+02 -0.11360324393E+02 -0.40008595780E+00  0.96353423805E+02  0.91996499668E+02 0.  0.
         13    1    3    3    0    0 -0.44104071887E+02 -0.41442248696E+02  0.59902605790E+01  0.60815487500E+02  0.10566000000E+00 0. -1.
         22    1    1    0    0    0  0.26294662740E+02  0.11360324393E+02  0.40008595780E+00  0.28646576195E+02  0.00000000000E+00 0. -1.
</event>
<event>
 5    1  0.1267644E-004  0.9118800E+02  0.7818608E-02  0.1130116E+00
         25   -1    0    0    0    0  0.00000000000E+00  0.00000000000E+00  0.99999998245E-14  0.12500000000E+03  0.12500000000E+03 0.  0.
        -13    1    3    3    0    0 -0.26739368997E+02 -0.71314149448E+01 -0.30956510498E+01  0.27846815849E+02  0.10566000000E+00 0.  1.
         23    2    1    0    0    0  0.11868229527E+02  0.18321104381E+02 -0.34804163102E+02  0.83916578683E+02  0.73172021093E+02 0.  0.
         13    1    3    3    0    0  0.38607598523E+02  0.25452519326E+02 -0.31708512052E+02  0.56069762835E+02  0.10566000000E+00 0. -1.
         22    1    1    0    0    0 -0.11868229527E+02 -0.18321104381E+02  0.34804163102E+02  0.41083421317E+02  0.00000000000E+00 0. -1.
</event>
<event>
 5    1  0.1267644E-004  0.9118800E+02  0.7818608E-02  0.1130116E+00
         25   -1    0    0    0    0  0.00000000000E+00  0.00000000000E+00  0.99999998245E-14  0.12500000000E+03  0.12500000000E+03 0.  0.
        -13    1    3    3    0    0 -0.12716478860E+02 -0.24314907978E+02 -0.50783299653E+02  0.57722424345E+02  0.10566000000E+00 0.  1.
         23    2    1    0    0    0 -0.11719684798E+02  0.45267910039E+01 -0.27368487276E+02  0.94885602375E+02  0.89980001077E+02 0.  0.
         13    1    3    3    0    0  0.99679406228E+00  0.28841698982E+02  0.23414812378E+02  0.37163178030E+02  0.10566000000E+00 0. -1.
         22    1    1    0    0    0  0.11719684798E+02 -0.45267910039E+01  0.27368487276E+02  0.30114397625E+02  0.00000000000E+00 0.  1.
</event>
<event>
 5    1  0.1267644E-004  0.9118800E+02  0.7818608E-02  0.1130116E+00
         25   -1    0    0    0    0  0.00000000000E+00  0.00000000000E+00  0.99999998245E-14  0.12500000000E+03  0.12500000000E+03 0.  0.
        -13    1    3    3    0    0 -0.30729621145E+02 -0.55835750305E+01  0.23248290944E+02  0.38935589397E+02  0.10566000000E+00 0. -1.
         23    2    1    0    0    0  0.19871550053E+02 -0.20927393998E+02  0.15237971147E+01  0.96100929449E+02  0.91652781531E+02 0.  0.
         13    1    3    3    0    0  0.50601171198E+02 -0.15343818967E+02 -0.21724493829E+02  0.57165340052E+02  0.10566000000E+00 0.  1.
         22    1    1    0    0    0 -0.19871550053E+02  0.20927393998E+02 -0.15237971147E+01  0.28899070551E+02  0.00000000000E+00 0.  1.
</event>
<event>
 5    1  0.1267644E-004  0.9118800E+02  0.7818608E-02  0.1130116E+00
         25   -1    0    0    0    0  0.00000000000E+00  0.00000000000E+00  0.99999998245E-14  0.12500000000E+03  0.12500000000E+03 0.  0.
        -13    1    3    3    0    0  0.22748779151E+02  0.49106859204E+02 -0.12301183465E+02  0.55500638307E+02  0.10566000000E+00 0. -1.
         23    2    1    0    0    0 -0.62756601548E+01  0.29597500340E+02  0.46922745013E+01  0.94382792799E+02  0.89278766792E+02 0.  0.
         13    1    3    3    0    0 -0.29024439306E+02 -0.19509358864E+02  0.16993457966E+02  0.38882154493E+02  0.10566000000E+00 0.  1.
         22    1    1    0    0    0  0.62756601548E+01 -0.29597500340E+02 -0.46922745013E+01  0.30617207201E+02  0.00000000000E+00 0. -1.
</event>
<event>
 5    1  0.1267644E-004  0.9118800E+02  0.7818608E-02  0.1130116E+00
         25   -1    0    0    0    0  0.00000000000E+00  0.00000000000E+00  0.99999998245E-14  0.12500000000E+03  0.12500000000E+03 0.  0.
        -13    1    3    3    0    0  0.26065305666E+02  0.40539841221E+02 -0.11267685687E+02  0.49495967417E+02  0.10566000000E+00 0. -1.
         23    2    1    0    0    0  0.15650574115E+02  0.12989395747E+02  0.22744179782E+02  0.94488320499E+02  0.89426395011E+02 0.  0.
         13    1    3    3    0    0 -0.10414731550E+02 -0.27550445474E+02  0.34011865470E+02  0.44992353082E+02  0.10566000000E+00 0.  1.
         22    1    1    0    0    0 -0.15650574115E+02 -0.12989395747E+02 -0.22744179782E+02  0.30511679501E+02  0.00000000000E+00 0.  1.
</event>
<event>
 5    1  0.1267644E-004  0.9118800E+02  0.7818608E-02  0.1130116E+00
         25   -1    0    0    0    0  0.00000000000E+00  0.00000000000E+00  0.99999998245E-14  0.12500000000E+03  0.12500000000E+03 0.  0.
        -13    1    3    3    0    0  0.48982964218E+01 -0.40192273374E+02 -0.14012085939E+02  0.42845791663E+02  0.10566000000E+00 0.  1.
         23    2    1    0    0    0 -0.24213714160E+02 -0.74978654279E+01  0.15171301157E+02  0.95458667630E+02  0.90772610998E+02 0.  0.
         13    1    3    3    0    0 -0.29112010582E+02  0.32694407946E+02  0.29183387097E+02  0.52612875967E+02  0.10566000000E+00 0. -1.
         22    1    1    0    0    0  0.24213714160E+02  0.74978654279E+01 -0.15171301157E+02  0.29541332370E+02  0.00000000000E+00 0.  1.
</event>
<event>
 5    1  0.1267644E-004  0.9118800E+02  0.7818608E-02  0.1130116E+00
         25   -1    0    0    0    0  0.00000000000E+00  0.00000000000E+00  0.99999998245E-14  0.12500000000E+03  0.12500000000E+03 0.  0.
        -13    1    3    3    0    0 -0.47077531312E+01  0.48923466529E+02 -0.73835707910E+01  0.49701074419E+02  0.10566000000E+00 0.  1.
         23    2    1    0    0    0 -0.27044147833E+02  0.13490508545E+02  0.69818718633E+01  0.93981839391E+02  0.88715612199E+02 0.  0.
         13    1    3    3    0    0 -0.22336394702E+02 -0.35432957984E+02  0.14365442654E+02  0.44280764972E+02  0.10566000000E+00 0. -1.
         22    1    1    0    0    0  0.27044147833E+02 -0.13490508545E+02 -0.69818718633E+01  0.31018160609E+02  0.00000000000E+00 0.  1.
</event>
<event>
 5    1  0.1267644E-004  0.9118800E+02  0.7818608E-02  0.1130116E+00
         25   -1    0    0    0    0  0.00000000000E+00  0.00000000000E+00  0.99999998245E-14  0.12500000000E+03  0.12500000000E+03 0.  0.
        -13    1    3    3    0    0  0.57340930383E+02 -0.11964854733E+02 -0.15693773844E+02  0.60641947095E+02  0.10566000000E+00 0.  1.
         23    2    1    0    0    0  0.28288397316E+02 -0.69777737495E+00  0.22735120976E+01  0.96611812787E+02  0.92346917635E+02 0.  0.
         13    1    3    3    0    0 -0.29052533067E+02  0.11267077358E+02  0.17967285941E+02  0.35969865692E+02  0.10566000000E+00 0. -1.
         22    1    1    0    0    0 -0.28288397316E+02  0.69777737495E+00 -0.22735120976E+01  0.28388187213E+02  0.00000000000E+00 0.  1.
</event>
<event>
 5    1  0.1267644E-004  0.9118800E+02  0.7818608E-02  0.1130116E+00
         25   -1    0    0    0    0  0.00000000000E+00  0.00000000000E+00  0.99999998245E-14  0.12500000000E+03  0.12500000000E+03 0.  0.
        -13    1    3    3    0    0 -0.19445024797E+02  0.86228598510E+01 -0.54803934483E+02  0.58787286893E+02  0.10566000000E+00 0.  1.
         23    2    1    0    0    0 -0.18464856535E+02  0.10926603251E+02 -0.14648628516E+02  0.99020702418E+02  0.95551952384E+02 0.  0.
         13    1    3    3    0    0  0.98016826116E+00  0.23037433997E+01  0.40155305967E+02  0.40233415525E+02  0.10566000000E+00 0. -1.
         22    1    1    0    0    0  0.18464856535E+02 -0.10926603251E+02  0.14648628516E+02  0.25979297582E+02  0.00000000000E+00 0.  1.
</event>
<event>
 5    1  0.1267644E-004  0.9118800E+02  0.7818608E-02  0.1130116E+00
         25   -1    0    0    0    0  0.00000000000E+00  0.00000000000E+00  0.99999998245E-14  0.12500000000E+03  0.12500000000E+03 0.  0.
        -13    1    3    3    0    0 -0.37892935927E+02  0.10446191740E+01  0.59289520950E+01  0.38368339284E+02  0.10566000000E+00 0.  1.
         23    2    1    0    0    0  0.10963508343E+02  0.77965944254E+01  0.29159806238E+02  0.92886456133E+02  0.87158556856E+02 0.  0.
         13    1    3    3    0    0  0.48856444271E+02  0.67519752514E+01  0.23230854143E+02  0.54518116850E+02  0.10566000000E+00 0. -1.
         22    1    1    0    0    0 -0.10963508343E+02 -0.77965944254E+01 -0.29159806238E+02  0.32113543867E+02  0.00000000000E+00 0. -1.
</event>
<event>
 4    1  0.1267644E-004  0.9118800E+02  0.7818608E-02  0.1130116E+00
         25   -1    0    0    0    0  0.00000000000E+00  0.00000000000E+00  0.99999998245E-14  0.12500000000E+03  0.12500000000E+03 0.  0.
        -13    1    1    0    0    0 -0.34375373248E+02  0.36088199165E+02  0.19787793869E+02  0.53624549929E+02  0.10566000000E+00 0. -1.
         13    1    1    0    0    0 -0.95207607434E+01 -0.15498246547E+02  0.18459201511E+01  0.18282754618E+02  0.10566000000E+00 0.  1.
         22    1    1    0    0    0  0.43896133991E+02 -0.20589952617E+02 -0.21633714020E+02  0.53092695453E+02  0.00000000000E+00 0. -1.
</event>
<event>
 5    1  0.1267644E-004  0.9118800E+02  0.7818608E-02  0.1130116E+00
         25   -1    0    0    0    0  0.00000000000E+00  0.00000000000E+00  0.99999998245E-14  0.12500000000E+03  0.12500000000E+03 0.  0.
        -13    1    3    3    0    0 -0.51346219411E+02  0.26155690094E+02  0.43112716333E+01  0.57785401264E+02  0.10566000000E+00 0. -1.
         23    2    1    0    0    0 -0.28907577769E+02 -0.41030388165E+01  0.45076232205E+01  0.95456783399E+02  0.90770016249E+02 0.  0.
         13    1    3    3    0    0  0.22438641641E+02 -0.30258728911E+02  0.19635158719E+00  0.37671382135E+02  0.10566000000E+00 0.  1.
         22    1    1    0    0    0  0.28907577769E+02  0.41030388165E+01 -0.45076232205E+01  0.29543216601E+02  0.00000000000E+00 0. -1.
</event>
<event>
 5    1  0.1267644E-004  0.9118800E+02  0.7818608E-02  0.1130116E+00
         25   -1    0    0    0    0  0.00000000000E+00  0.00000000000E+00  0.99999998245E-14  0.12500000000E+03  0.12500000000E+03 0.  0.
        -13    1    3    3    0    0  0.34542872778E+02 -0.23586256259E+01  0.35768349936E+01  0.34807730279E+02  0.10566000000E+00 0.  1.
         23    2    1    0    0    0 -0.25682613283E+02 -0.12778315578E+02 -0.23683034055E+01  0.96216483275E+02  0.91810243539E+02 0.  0.
         13    1    3    3    0    0 -0.60225486060E+02 -0.10419689952E+02 -0.59451383991E+01  0.61408752996E+02  0.10566000000E+00 0. -1.
         22    1    1    0    0    0  0.25682613283E+02  0.12778315578E+02  0.23683034055E+01  0.28783516725E+02  0.00000000000E+00 0. -1.
</event>
<event>
 5    1  0.1267644E-004  0.9118800E+02  0.7818608E-02  0.1130116E+00
         25   -1    0    0    0    0  0.00000000000E+00  0.00000000000E+00  0.99999998245E-14  0.12500000000E+03  0.12500000000E+03 0.  0.
        -13    1    3    3    0    0 -0.29034791387E+02  0.31506273787E+01 -0.14379523426E+02  0.32553454836E+02  0.10566000000E+00 0.  1.
         23    2    1    0    0    0  0.29260025170E+02  0.59757506737E+01  0.63122071556E+01  0.94476195712E+02  0.89409445407E+02 0.  0.
         13    1    3    3    0    0  0.58294816557E+02  0.28251232950E+01  0.20691730582E+02  0.61922740876E+02  0.10566000000E+00 0. -1.
         22    1    1    0    0    0 -0.29260025170E+02 -0.59757506737E+01 -0.63122071556E+01  0.30523804288E+02  0.00000000000E+00 0. -1.
</event>
<event>
 5    1  0.1267644E-004  0.9118800E+02  0.7818608E-02  0.1130116E+00
         25   -1    0    0    0    0  0.00000000000E+00  0.00000000000E+00  0.99999998245E-14  0.12500000000E+03  0.12500000000E+03 0.  0.
        -13    1    3    3    0    0  0.14547854178E+02 -0.17790247138E+02  0.52959831816E+01  0.23583713794E+02  0.10566000000E+00 0.  1.
         23    2    1    0    0    0 -0.33078339206E+02 -0.27499998049E+02 -0.19059199528E+02  0.77950244379E+02  0.62149505990E+02 0.  0.
         13    1    3    3    0    0 -0.47626193384E+02 -0.97097509104E+01 -0.24355182709E+02  0.54366530585E+02  0.10566000000E+00 0. -1.
         22    1    1    0    0    0  0.33078339206E+02  0.27499998049E+02  0.19059199528E+02  0.47049755621E+02  0.00000000000E+00 0. -1.
</event>
<event>
 5    1  0.1267644E-004  0.9118800E+02  0.7818608E-02  0.1130116E+00
         25   -1    0    0    0    0  0.00000000000E+00  0.00000000000E+00  0.99999998245E-14  0.12500000000E+03  0.12500000000E+03 0.  0.
        -13    1    3    3    0    0 -0.13259724400E+01 -0.36025033701E+02 -0.25420240811E+02  0.44110781709E+02  0.10566000000E+00 0. -1.
         23    2    1    0    0    0 -0.11992174108E+02 -0.12734940337E+02  0.21327122876E+02  0.97416723991E+02  0.93430086149E+02 0.  0.
         13    1    3    3    0    0 -0.10666201668E+02  0.23290093364E+02  0.46747363686E+02  0.53305942282E+02  0.10566000000E+00 0.  1.
         22    1    1    0    0    0  0.11992174108E+02  0.12734940337E+02 -0.21327122876E+02  0.27583276009E+02  0.00000000000E+00 0.  1.
</event>
<event>
 5    1  0.1267644E-004  0.9118800E+02  0.7818608E-02  0.1130116E+00
         25   -1    0    0    0    0  0.00000000000E+00  0.00000000000E+00  0.99999998245E-14  0.12500000000E+03  0.12500000000E+03 0.  0.
        -13    1    3    3    0    0  0.13205538010E+02  0.26071524090E+02 -0.32837520179E+02  0.43959350519E+02  0.10566000000E+00 0.  1.
         23    2    1    0    0    0 -0.66881286286E+01 -0.18367796570E+02 -0.24983917171E+02  0.93277718673E+02  0.87717898220E+02 0.  0.
         13    1    3    3    0    0 -0.19893666639E+02 -0.44439320660E+02  0.78536030084E+01  0.49318368153E+02  0.10566000000E+00 0. -1.
         22    1    1    0    0    0  0.66881286286E+01  0.18367796570E+02  0.24983917171E+02  0.31722281327E+02  0.00000000000E+00 0. -1.
</event>
<event>
 5    1  0.1267644E-004  0.9118800E+02  0.7818608E-02  0.1130116E+00
         25   -1    0    0    0    0  0.00000000000E+00  0.00000000000E+00  0.99999998245E-14  0.12500000000E+03  0.12500000000E+03 0.  0.
        -13    1    3    3    0    0  0.46270993474E+02 -0.17180082443E+02 -0.61647060971E+01  0.49741077945E+02  0.10566000000E+00 0.  1.
         23    2    1    0    0    0  0.73992049386E+01 -0.29561287092E+02  0.89381079388E+01  0.93242989722E+02  0.87668394707E+02 0.  0.
         13    1    3    3    0    0 -0.38871788535E+02 -0.12381204649E+02  0.15102814036E+02  0.43501911778E+02  0.10566000000E+00 0. -1.
         22    1    1    0    0    0 -0.73992049386E+01  0.29561287092E+02 -0.89381079388E+01  0.31757010278E+02  0.00000000000E+00 0.  1.
</event>
<event>
 5    1  0.1267644E-004  0.9118800E+02  0.7818608E-02  0.1130116E+00
         25   -1    0    0    0    0  0.00000000000E+00  0.00000000000E+00  0.99999998245E-14  0.12500000000E+03  0.12500000000E+03 0.  0.
        -13    1    3    3    0    0  0.40956951211E+01 -0.26983862781E+02 -0.23390312576E+02  0.35944699965E+02  0.10566000000E+00 0.  1.
         23    2    1    0    0    0 -0.57394188813E+01  0.27215082865E+02  0.30013029423E+01  0.97024841666E+02  0.92904307847E+02 0.  0.
         13    1    3    3    0    0 -0.98351140024E+01  0.54198945646E+02  0.26391615518E+02  0.61080141702E+02  0.10566000000E+00 0. -1.
         22    1    1    0    0    0  0.57394188813E+01 -0.27215082865E+02 -0.30013029423E+01  0.27975158334E+02  0.00000000000E+00 0. -1.
</event>
<event>
 5    1  0.1267644E-004  0.9118800E+02  0.7818608E-02  0.1130116E+00
         25   -1    0    0    0    0  0.00000000000E+00  0.00000000000E+00  0.99999998245E-14  0.12500000000E+03  0.12500000000E+03 0.  0.
        -13    1    3    3    0    0  0.56857651987E+01 -0.20227008764E+02  0.29392340933E+02  0.36130052297E+02  0.10566000000E+00 0.  1.
         23    2    1    0    0    0 -0.20127325352E+02  0.22877666545E+02 -0.37015075109E+00  0.94526505550E+02  0.89479754065E+02 0.  0.
         13    1    3    3    0    0 -0.25813090551E+02  0.43104675309E+02 -0.29762491684E+02  0.58396453253E+02  0.10566000000E+00 0. -1.
         22    1    1    0    0    0  0.20127325352E+02 -0.22877666545E+02  0.37015075109E+00  0.30473494450E+02  0.00000000000E+00 0. -1.
</event>
<event>
 5    1  0.1267644E-004  0.9118800E+02  0.7818608E-02  0.1130116E+00
         25   -1    0    0    0    0  0.00000000000E+00  0.00000000000E+00  0.99999998245E-14  0.12500000000E+03  0.12500000000E+03 0.  0.
        -13    1    3    3    0    0  0.16151047524E+02  0.29767934361E+02 -0.51705426047E+02  0.61809776727E+02  0.10566000000E+00 0.  1.
         23    2    1    0    0    0  0.12644544174E+02  0.11201964431E+02 -0.29860143584E+02  0.90692614799E+02  0.83953282840E+02 0.  0.
         13    1    3    3    0    0 -0.35065033506E+01 -0.18565969929E+02  0.21845282463E+02  0.28882838072E+02  0.10566000000E+00 0. -1.
         22    1    1    0    0    0 -0.12644544174E+02 -0.11201964431E+02  0.29860143584E+02  0.34307385201E+02  0.00000000000E+00 0.  1.
</event>
<event>
 5    1  0.1267644E-004  0.9118800E+02  0.7818608E-02  0.1130116E+00
         25   -1    0    0    0    0  0.00000000000E+00  0.00000000000E+00  0.99999998245E-14  0.12500000000E+03  0.12500000000E+03 0.  0.
        -13    1    3    3    0    0  0.28410325232E+02  0.18623302373E+02  0.28782924457E+00  0.33971576071E+02  0.10566000000E+00 0.  1.
         23    2    1    0    0    0 -0.25753215171E+02 -0.10305714264E+02 -0.84673858602E+01  0.95997716272E+02  0.91511906700E+02 0.  0.
         13    1    3    3    0    0 -0.54163540403E+02 -0.28929016637E+02 -0.87552151048E+01  0.62026140200E+02  0.10566000000E+00 0. -1.
         22    1    1    0    0    0  0.25753215171E+02  0.10305714264E+02  0.84673858602E+01  0.29002283728E+02  0.00000000000E+00 0. -1.
</event>
<event>
 5    1  0.1267644E-004  0.9118800E+02  0.7818608E-02  0.1130116E+00
         25   -1    0    0    0    0  0.00000000000E+00  0.00000000000E+00  0.99999998245E-14  0.12500000000E+03  0.12500000000E+03 0.  0.
        -13    1    3    3    0    0  0.31212546845E+02 -0.20822129588E+02 -0.22537099860E+02  0.43768895295E+02  0.10566000000E+00 0. -1.
         23    2    1    0    0    0 -0.12191206454E+02 -0.25943868447E+02  0.56608033863E+01  0.95780921990E+02  0.91215297497E+02 0.  0.
         13    1    3    3    0    0 -0.43403753299E+02 -0.51217388587E+01  0.28197903247E+02  0.52012026695E+02  0.10566000000E+00 0.  1.
         22    1    1    0    0    0  0.12191206454E+02  0.25943868447E+02 -0.56608033863E+01  0.29219078010E+02  0.00000000000E+00 0.  1.
</event>
<event>
 5    1  0.1267644E-004  0.9118800E+02  0.7818608E-02  0.1130116E+00
         25   -1    0    0    0    0  0.00000000000E+00  0.00000000000E+00  0.99999998245E-14  0.12500000000E+03  0.12500000000E+03 0.  0.
        -13    1    3    3    0    0  0.58494091574E+02 -0.71758483448E+01 -0.28385248136E+01  0.59001016395E+02  0.10566000000E+00 0. -1.
         23    2    1    0    0    0  0.27471713280E+02  0.10761293019E+02  0.31323325330E+01  0.95329948347E+02  0.90595182470E+02 0.  0.
         13    1    3    3    0    0 -0.31022378294E+02  0.17937141363E+02  0.59708573465E+01  0.36328931952E+02  0.10566000000E+00 0.  1.
         22    1    1    0    0    0 -0.27471713280E+02 -0.10761293019E+02 -0.31323325330E+01  0.29670051653E+02  0.00000000000E+00 0. -1.
</event>
<event>
 5    1  0.1267644E-004  0.9118800E+02  0.7818608E-02  0.1130116E+00
         25   -1    0    0    0    0  0.00000000000E+00  0.00000000000E+00  0.99999998245E-14  0.12500000000E+03  0.12500000000E+03 0.  0.
        -13    1    3    3    0    0  0.34074435313E+02 -0.21924423667E+02 -0.46075149442E+02  0.61356972344E+02  0.10566000000E+00 0.  1.
         23    2    1    0    0    0  0.19755617677E+02 -0.15888774731E+02 -0.16543312580E+02  0.94727590394E+02  0.89760222808E+02 0.  0.
         13    1    3    3    0    0 -0.14318817636E+02  0.60356489365E+01  0.29531836862E+02  0.33370618050E+02  0.10566000000E+00 0. -1.
         22    1    1    0    0    0 -0.19755617677E+02  0.15888774731E+02  0.16543312580E+02  0.30272409606E+02  0.00000000000E+00 0.  1.
</event>
<event>
 5    1  0.1267644E-004  0.9118800E+02  0.7818608E-02  0.1130116E+00
         25   -1    0    0    0    0  0.00000000000E+00  0.00000000000E+00  0.99999998245E-14  0.12500000000E+03  0.12500000000E+03 0.  0.
        -13    1    3    3    0    0 -0.31691649289E+02 -0.10733663496E+02 -0.10376076282E+02  0.35032075156E+02  0.10566000000E+00 0. -1.
         23    2    1    0    0    0  0.13902412550E+02  0.22501003883E+02  0.12288260643E+02  0.95835405024E+02  0.91289929653E+02 0.  0.
         13    1    3    3    0    0  0.45594061839E+02  0.33234667379E+02  0.22664336925E+02  0.60803329868E+02  0.10566000000E+00 0.  1.
         22    1    1    0    0    0 -0.13902412550E+02 -0.22501003883E+02 -0.12288260643E+02  0.29164594976E+02  0.00000000000E+00 0.  1.
</event>
<event>
 5    1  0.1267644E-004  0.9118800E+02  0.7818608E-02  0.1130116E+00
         25   -1    0    0    0    0  0.00000000000E+00  0.00000000000E+00  0.99999998245E-14  0.12500000000E+03  0.12500000000E+03 0.  0.
        -13    1    3    3    0    0  0.30309661764E+02 -0.93756429930E+01 -0.27854832521E+02  0.42219440268E+02  0.10566000000E+00 0. -1.
         23    2    1    0    0    0  0.67343243767E+01 -0.28127678938E+02  0.13254953235E+02  0.93184732713E+02  0.87585290878E+02 0.  0.
         13    1    3    3    0    0 -0.23575337387E+02 -0.18752035945E+02  0.41109785756E+02  0.50965292445E+02  0.10566000000E+00 0.  1.
         22    1    1    0    0    0 -0.67343243767E+01  0.28127678938E+02 -0.13254953235E+02  0.31815267287E+02  0.00000000000E+00 0.  1.
</event>
<event>
 5    1  0.1267644E-004  0.9118800E+02  0.7818608E-02  0.1130116E+00
         25   -1    0    0    0    0  0.00000000000E+00  0.00000000000E+00  0.99999998245E-14  0.12500000000E+03  0.12500000000E+03 0.  0.
        -13    1    3    3    0    0  0.22580001007E+02 -0.19029334097E+02  0.32808230117E+02  0.44140266527E+02  0.10566000000E+00 0.  1.
         23    2    1    0    0    0  0.17802026814E+02 -0.13723914189E+02 -0.18466178007E+02  0.95909491075E+02  0.91391316703E+02 0.  0.
         13    1    3    3    0    0 -0.47779741933E+01  0.53054199083E+01 -0.51274408124E+02  0.51769224548E+02  0.10566000000E+00 0. -1.
         22    1    1    0    0    0 -0.17802026814E+02  0.13723914189E+02  0.18466178007E+02  0.29090508925E+02  0.00000000000E+00 0.  1.
</event>
<event>
 5    1  0.1267644E-004  0.9118800E+02  0.7818608E-02  0.1130116E+00
         25   -1    0    0    0    0  0.00000000000E+00  0.00000000000E+00  0.99999998245E-14  0.12500000000E+03  0.12500000000E+03 0.  0.
        -13    1    3    3    0    0  0.45350545294E+02  0.17072667723E+02  0.23814033409E+02  0.53993215249E+02  0.10566000000E+00 0. -1.
         23    2    1    0    0    0  0.32379972295E+02  0.17785553825E+02 -0.69693034121E+01  0.87405323239E+02  0.78907102404E+02 0.  0.
         13    1    3    3    0    0 -0.12970572999E+02  0.71288610216E+00 -0.30783336821E+02  0.33412107991E+02  0.10566000000E+00 0.  1.
         22    1    1    0    0    0 -0.32379972295E+02 -0.17785553825E+02  0.69693034121E+01  0.37594676761E+02  0.00000000000E+00 0. -1.
</event>
<event>
 5    1  0.1267644E-004  0.9118800E+02  0.7818608E-02  0.1130116E+00
         25   -1    0    0    0    0  0.00000000000E+00  0.00000000000E+00  0.99999998245E-14  0.12500000000E+03  0.12500000000E+03 0.  0.
        -13    1    3    3    0    0 -0.17130754127E+02  0.42472828231E+02  0.30921902665E+02  0.55259199264E+02  0.10566000000E+00 0. -1.
         23    2    1    0    0    0  0.41864058828E+01  0.53899925345E+01  0.25769739233E+02  0.98341840389E+02  0.94659706830E+02 0.  0.
         13    1    3    3    0    0  0.21317160010E+02 -0.37082835696E+02 -0.51521634323E+01  0.43082641124E+02  0.10566000000E+00 0.  1.
         22    1    1    0    0    0 -0.41864058828E+01 -0.53899925345E+01 -0.25769739233E+02  0.26658159611E+02  0.00000000000E+00 0. -1.
</event>
<event>
 5    1  0.1267644E-004  0.9118800E+02  0.7818608E-02  0.1130116E+00
         25   -1    0    0    0    0  0.00000000000E+00  0.00000000000E+00  0.99999998245E-14  0.12500000000E+03  0.12500000000E+03 0.  0.
        -13    1    3    3    0    0  0.26869027683E+02  0.29300128659E+02 -0.41989383082E+02  0.57823538838E+02  0.10566000000E+00 0.  1.
         23    2    1    0    0    0  0.13760992852E+02 -0.38590031706E+01 -0.22183745934E+02  0.98611074038E+02  0.95014569985E+02 0.  0.
         13    1    3    3    0    0 -0.13108034831E+02 -0.33159131830E+02  0.19805637148E+02  0.40787535200E+02  0.10566000000E+00 0. -1.
         22    1    1    0    0    0 -0.13760992852E+02  0.38590031706E+01  0.22183745934E+02  0.26388925962E+02  0.00000000000E+00 0.  1.
</event>
<event>
 5    1  0.1267644E-004  0.9118800E+02  0.7818608E-02  0.1130116E+00
         25   -1    0    0    0    0  0.00000000000E+00  0.00000000000E+00  0.99999998245E-14  0.12500000000E+03  0.12500000000E+03 0.  0.
        -13    1    3    3    0    0  0.84517574932E+01 -0.55704833903E+02  0.90674899437E+01  0.57067427336E+02  0.10566000000E+00 0. -1.
         23    2    1    0    0    0  0.17284697799E+02 -0.30016391387E+02  0.18385030500E+02  0.85785794966E+02  0.76298418998E+02 0.  0.
         13    1    3    3    0    0  0.88329403055E+01  0.25688442515E+02  0.93175405566E+01  0.28718367630E+02  0.10566000000E+00 0.  1.
         22    1    1    0    0    0 -0.17284697799E+02  0.30016391387E+02 -0.18385030500E+02  0.39214205034E+02  0.00000000000E+00 0. -1.
</event>
<event>
 5    1  0.1267644E-004  0.9118800E+02  0.7818608E-02  0.1130116E+00
         25   -1    0    0    0    0  0.00000000000E+00  0.00000000000E+00  0.99999998245E-14  0.12500000000E+03  0.12500000000E+03 0.  0.
        -13    1    3    3    0    0 -0.32078641482E+02 -0.10934181169E+02  0.11597581622E+01  0.33910938651E+02  0.10566000000E+00 0.  1.
         23    2    1    0    0    0  0.18973927396E+02  0.22935124127E+02  0.17890382537E+01  0.95180031901E+02  0.90388096424E+02 0.  0.
         13    1    3    3    0    0  0.51052568878E+02  0.33869305296E+02  0.62928009151E+00  0.61269093250E+02  0.10566000000E+00 0. -1.
         22    1    1    0    0    0 -0.18973927396E+02 -0.22935124127E+02 -0.17890382537E+01  0.29819968099E+02  0.00000000000E+00 0. -1.
</event>
<event>
 5    1  0.1267644E-004  0.9118800E+02  0.7818608E-02  0.1130116E+00
         25   -1    0    0    0    0  0.00000000000E+00  0.00000000000E+00  0.99999998245E-14  0.12500000000E+03  0.12500000000E+03 0.  0.
        -13    1    3    3    0    0 -0.16806290958E+02 -0.24985719307E+02 -0.12937031476E+02  0.32773701844E+02  0.10566000000E+00 0.  1.
         23    2    1    0    0    0  0.54712292009E+00  0.18223668929E+02  0.25844077942E+02  0.93372198663E+02  0.87852431189E+02 0.  0.
         13    1    3    3    0    0  0.17353413878E+02  0.43209388236E+02  0.38781109419E+02  0.60598496819E+02  0.10566000000E+00 0. -1.
         22    1    1    0    0    0 -0.54712292009E+00 -0.18223668929E+02 -0.25844077942E+02  0.31627801337E+02  0.00000000000E+00 0. -1.
</event>
<event>
 5    1  0.1267644E-004  0.9118800E+02  0.7818608E-02  0.1130116E+00
         25   -1    0    0    0    0  0.00000000000E+00  0.00000000000E+00  0.99999998245E-14  0.12500000000E+03  0.12500000000E+03 0.  0.
        -13    1    3    3    0    0  0.16951231038E+02 -0.17480848971E+02 -0.34214031230E+02  0.41994468820E+02  0.10566000000E+00 0. -1.
         23    2    1    0    0    0 -0.22753667416E+02 -0.22440093681E+02 -0.26988362694E+01  0.92928659172E+02  0.87219062097E+02 0.  0.
         13    1    3    3    0    0 -0.39704898454E+02 -0.49592447099E+01  0.31515194961E+02  0.50934190352E+02  0.10566000000E+00 0.  1.
         22    1    1    0    0    0  0.22753667416E+02  0.22440093681E+02  0.26988362694E+01  0.32071340828E+02  0.00000000000E+00 0.  1.
</event>
<event>
 5    1  0.1267644E-004  0.9118800E+02  0.7818608E-02  0.1130116E+00
         25   -1    0    0    0    0  0.00000000000E+00  0.00000000000E+00  0.99999998245E-14  0.12500000000E+03  0.12500000000E+03 0.  0.
        -13    1    3    3    0    0 -0.34588608284E+02 -0.10023509488E+02 -0.11209037427E+02  0.37715994611E+02  0.10566000000E+00 0.  1.
         23    2    1    0    0    0  0.12307783038E+02 -0.24679555985E+02  0.15213901596E+02  0.93503574668E+02  0.88039159850E+02 0.  0.
         13    1    3    3    0    0  0.46896391322E+02 -0.14656046497E+02  0.26422939023E+02  0.55787580057E+02  0.10566000000E+00 0. -1.
         22    1    1    0    0    0 -0.12307783038E+02  0.24679555985E+02 -0.15213901596E+02  0.31496425332E+02  0.00000000000E+00 0. -1.
</event>
<event>
 5    1  0.1267644E-004  0.9118800E+02  0.7818608E-02  0.1130116E+00
         25   -1    0    0    0    0  0.00000000000E+00  0.00000000000E+00  0.99999998245E-14  0.12500000000E+03  0.12500000000E+03 0.  0.
        -13    1    3    3    0    0 -0.36528712805E+02  0.25588348844E+02  0.24295724764E+02  0.50787831826E+02  0.10566000000E+00 0. -1.
         23    2    1    0    0    0 -0.26783712697E+02  0.59620619519E+01 -0.13456532084E+02  0.94438722142E+02  0.89357039653E+02 0.  0.
         13    1    3    3    0    0  0.97450001078E+01 -0.19626286892E+02 -0.37752256848E+02  0.43650890317E+02  0.10566000000E+00 0.  1.
         22    1    1    0    0    0  0.26783712697E+02 -0.59620619519E+01  0.13456532084E+02  0.30561277858E+02  0.00000000000E+00 0. -1.
</event>
<event>
 5    1  0.1267644E-004  0.9118800E+02  0.7818608E-02  0.1130116E+00
         25   -1    0    0    0    0  0.00000000000E+00  0.00000000000E+00  0.99999998245E-14  0.12500000000E+03  0.12500000000E+03 0.  0.
        -13    1    3    3    0    0 -0.20402146637E+02 -0.40960840872E+00 -0.30477711210E+02  0.36678568826E+02  0.10566000000E+00 0.  1.
         23    2    1    0    0    0 -0.88860594787E+01  0.95477844392E+01  0.26397403931E+02  0.95556067262E+02  0.90906637907E+02 0.  0.
         13    1    3    3    0    0  0.11516087158E+02  0.99573928479E+01  0.56875115142E+02  0.58877498437E+02  0.10566000000E+00 0. -1.
         22    1    1    0    0    0  0.88860594787E+01 -0.95477844392E+01 -0.26397403931E+02  0.29443932738E+02  0.00000000000E+00 0. -1.
</event>
<event>
 5    1  0.1267644E-004  0.9118800E+02  0.7818608E-02  0.1130116E+00
         25   -1    0    0    0    0  0.00000000000E+00  0.00000000000E+00  0.99999998245E-14  0.12500000000E+03  0.12500000000E+03 0.  0.
        -13    1    3    3    0    0  0.84896733830E+01  0.48168197281E+02 -0.31392684975E+02  0.58118513552E+02  0.10566000000E+00 0.  1.
         23    2    1    0    0    0  0.20225425709E+02  0.24287958056E+02 -0.11401609026E+02  0.91399859524E+02  0.84999793418E+02 0.  0.
         13    1    3    3    0    0  0.11735752326E+02 -0.23880239225E+02  0.19991075949E+02  0.33281345973E+02  0.10566000000E+00 0. -1.
         22    1    1    0    0    0 -0.20225425709E+02 -0.24287958056E+02  0.11401609026E+02  0.33600140476E+02  0.00000000000E+00 0.  1.
</event>
<event>
 5    1  0.1267644E-004  0.9118800E+02  0.7818608E-02  0.1130116E+00
         25   -1    0    0    0    0  0.00000000000E+00  0.00000000000E+00  0.99999998245E-14  0.12500000000E+03  0.12500000000E+03 0.  0.
        -13    1    3    3    0    0  0.26422023886E+02  0.28303396305E+02 -0.15405702276E+02  0.41671961980E+02  0.10566000000E+00 0.  1.
         23    2    1    0    0    0 -0.30843568708E+01 -0.18735947664E+02 -0.20040126988E+02  0.97392832781E+02  0.93398116658E+02 0.  0.
         13    1    3    3    0    0 -0.29506380756E+02 -0.47039343969E+02 -0.46344247112E+01  0.55720870801E+02  0.10566000000E+00 0. -1.
         22    1    1    0    0    0  0.30843568708E+01  0.18735947664E+02  0.20040126988E+02  0.27607167219E+02  0.00000000000E+00 0. -1.
</event>
<event>
 5    1  0.1267644E-004  0.9118800E+02  0.7818608E-02  0.1130116E+00
         25   -1    0    0    0    0  0.00000000000E+00  0.00000000000E+00  0.99999998245E-14  0.12500000000E+03  0.12500000000E+03 0.  0.
        -13    1    3    3    0    0 -0.45260242255E+02 -0.15014040872E+02 -0.21195326816E+01  0.47732740704E+02  0.10566000000E+00 0. -1.
         23    2    1    0    0    0 -0.12308636734E+02  0.18103337288E+02 -0.17559723981E+02  0.96936192961E+02  0.92784956972E+02 0.  0.
         13    1    3    3    0    0  0.32951605521E+02  0.33117378160E+02 -0.15440191299E+02  0.49203452257E+02  0.10566000000E+00 0.  1.
         22    1    1    0    0    0  0.12308636734E+02 -0.18103337288E+02  0.17559723981E+02  0.28063807039E+02  0.00000000000E+00 0. -1.
</event>
<event>
 5    1  0.1267644E-004  0.9118800E+02  0.7818608E-02  0.1130116E+00
         25   -1    0    0    0    0  0.00000000000E+00  0.00000000000E+00  0.99999998245E-14  0.12500000000E+03  0.12500000000E+03 0.  0.
        -13    1    3    3    0    0 -0.53423614373E+02 -0.20323118684E+01 -0.19595716187E+02  0.56940461195E+02  0.10566000000E+00 0.  1.
         23    2    1    0    0    0 -0.16007972725E+02 -0.10939643384E+02 -0.22242737754E+02  0.95492875929E+02  0.90819705914E+02 0.  0.
         13    1    3    3    0    0  0.37415641647E+02 -0.89073315161E+01 -0.26470215669E+01  0.38552414734E+02  0.10566000000E+00 0. -1.
         22    1    1    0    0    0  0.16007972725E+02  0.10939643384E+02  0.22242737754E+02  0.29507124071E+02  0.00000000000E+00 0.  1.
</event>
<event>
 5    1  0.1267644E-004  0.9118800E+02  0.7818608E-02  0.1130116E+00
         25   -1    0    0    0    0  0.00000000000E+00  0.00000000000E+00  0.99999998245E-14  0.12500000000E+03  0.12500000000E+03 0.  0.
        -13    1    3    3    0    0  0.21697450388E+02  0.26805768629E+02 -0.25383257103E+02  0.42821133688E+02  0.10566000000E+00 0.  1.
         23    2    1    0    0    0  0.16174779608E+02 -0.22942152649E+02 -0.79256851955E+01  0.95831826431E+02  0.91285029483E+02 0.  0.
         13    1    3    3    0    0 -0.55226707795E+01 -0.49747921279E+02  0.17457571908E+02  0.53010692743E+02  0.10566000000E+00 0. -1.
         22    1    1    0    0    0 -0.16174779608E+02  0.22942152649E+02  0.79256851955E+01  0.29168173569E+02  0.00000000000E+00 0. -1.
</event>
<event>
 5    1  0.1267644E-004  0.9118800E+02  0.7818608E-02  0.1130116E+00
         25   -1    0    0    0    0  0.00000000000E+00  0.00000000000E+00  0.99999998245E-14  0.12500000000E+03  0.12500000000E+03 0.  0.
        -13    1    3    3    0    0  0.18709179412E+02 -0.21133187216E+02 -0.25586218578E+02  0.38096072519E+02  0.10566000000E+00 0.  1.
         23    2    1    0    0    0  0.41993564682E+01  0.26768529140E+02  0.59560844124E+01  0.97257186721E+02  0.93216397057E+02 0.  0.
         13    1    3    3    0    0 -0.14509822944E+02  0.47901716356E+02  0.31542302991E+02  0.59161114203E+02  0.10566000000E+00 0. -1.
         22    1    1    0    0    0 -0.41993564682E+01 -0.26768529140E+02 -0.59560844124E+01  0.27742813279E+02  0.00000000000E+00 0. -1.
</event>
<event>
 5    1  0.1267644E-004  0.9118800E+02  0.7818608E-02  0.1130116E+00
         25   -1    0    0    0    0  0.00000000000E+00  0.00000000000E+00  0.99999998245E-14  0.12500000000E+03  0.12500000000E+03 0.  0.
        -13    1    3    3    0    0 -0.15434039031E+02  0.22992821168E+02  0.34710397451E+02  0.44403853902E+02  0.10566000000E+00 0. -1.
         23    2    1    0    0    0  0.22278552636E+02 -0.78393246193E+01  0.15407170811E+02  0.96801244169E+02  0.92602975342E+02 0.  0.
         13    1    3    3    0    0  0.37712591667E+02 -0.30832145787E+02 -0.19303226641E+02  0.52397390267E+02  0.10566000000E+00 0.  1.
         22    1    1    0    0    0 -0.22278552636E+02  0.78393246193E+01 -0.15407170811E+02  0.28198755831E+02  0.00000000000E+00 0.  1.
</event>
<event>
 5    1  0.1267644E-004  0.9118800E+02  0.7818608E-02  0.1130116E+00
         25   -1    0    0    0    0  0.00000000000E+00  0.00000000000E+00  0.99999998245E-14  0.12500000000E+03  0.12500000000E+03 0.  0.
        -13    1    3    3    0    0  0.29554404473E+02 -0.11724295941E+02  0.11449933825E+02  0.33793994847E+02  0.10566000000E+00 0. -1.
         23    2    1    0    0    0 -0.43031123423E+01 -0.26695521643E+02 -0.26732431761E+02  0.86976447306E+02  0.78224752007E+02 0.  0.
         13    1    3    3    0    0 -0.33857516815E+02 -0.14971225701E+02 -0.38182365586E+02  0.53182452460E+02  0.10566000000E+00 0.  1.
         22    1    1    0    0    0  0.43031123423E+01  0.26695521643E+02  0.26732431761E+02  0.38023552694E+02  0.00000000000E+00 0.  1.
</event>
<event>
 5    1  0.1267644E-004  0.9118800E+02  0.7818608E-02  0.1130116E+00
         25   -1    0    0    0    0  0.00000000000E+00  0.00000000000E+00  0.99999998245E-14  0.12500000000E+03  0.12500000000E+03 0.  0.
        -13    1    3    3    0    0 -0.36973696490E+01  0.15411393373E+02 -0.43277073728E+02  0.46087936193E+02  0.10566000000E+00 0.  1.
         23    2    1    0    0    0  0.23372579340E+01 -0.25006882354E+02 -0.16045181386E+02  0.95196396436E+02  0.90410724524E+02 0.  0.
         13    1    3    3    0    0  0.60346275830E+01 -0.40418275727E+02  0.27231892342E+02  0.49108460242E+02  0.10566000000E+00 0. -1.
         22    1    1    0    0    0 -0.23372579340E+01  0.25006882354E+02  0.16045181386E+02  0.29803603564E+02  0.00000000000E+00 0.  1.
</event>
<event>
 5    1  0.1267644E-004  0.9118800E+02  0.7818608E-02  0.1130116E+00
         25   -1    0    0    0    0  0.00000000000E+00  0.00000000000E+00  0.99999998245E-14  0.12500000000E+03  0.12500000000E+03 0.  0.
        -13    1    3    3    0    0 -0.19293866587E+02 -0.45020347786E+02 -0.87459379245E+01  0.49755277076E+02  0.10566000000E+00 0.  1.
         23    2    1    0    0    0  0.12812436334E+02  0.34422157246E+01  0.70229651398E+01  0.10998902357E+03  0.10895988204E+03 0.  0.
         13    1    3    3    0    0  0.32106302921E+02  0.48462563511E+02  0.15768903064E+02  0.60233746498E+02  0.10566000000E+00 0. -1.
         22    1    1    0    0    0 -0.12812436334E+02 -0.34422157246E+01 -0.70229651398E+01  0.15010976426E+02  0.00000000000E+00 0. -1.
</event>
<event>
 5    1  0.1267644E-004  0.9118800E+02  0.7818608E-02  0.1130116E+00
         25   -1    0    0    0    0  0.00000000000E+00  0.00000000000E+00  0.99999998245E-14  0.12500000000E+03  0.12500000000E+03 0.  0.
        -13    1    3    3    0    0 -0.18599744990E+01 -0.80908382894E+01 -0.51693969670E+02  0.52356459331E+02  0.10566000000E+00 0. -1.
         23    2    1    0    0    0 -0.17329897103E+02  0.11898071374E+02 -0.86591020483E+01  0.10226523622E+03  0.99706113424E+02 0.  0.
         13    1    3    3    0    0 -0.15469922604E+02  0.19988909664E+02  0.43034867622E+02  0.49908776885E+02  0.10566000000E+00 0.  1.
         22    1    1    0    0    0  0.17329897103E+02 -0.11898071374E+02  0.86591020483E+01  0.22734763784E+02  0.00000000000E+00 0.  1.
</event>
<event>
 5    1  0.1267644E-004  0.9118800E+02  0.7818608E-02  0.1130116E+00
         25   -1    0    0    0    0  0.00000000000E+00  0.00000000000E+00  0.99999998245E-14  0.12500000000E+03  0.12500000000E+03 0.  0.
        -13    1    3    3    0    0 -0.21185311347E+02  0.48676547259E+02 -0.32944389773E+02  0.62478537526E+02  0.10566000000E+00 0. -1.
         23    2    1    0    0    0 -0.10804560781E+02  0.22511902385E+02 -0.14670440653E+02  0.96038886216E+02  0.91568125207E+02 0.  0.
         13    1    3    3    0    0  0.10380750565E+02 -0.26164644874E+02  0.18273949120E+02  0.33560348689E+02  0.10566000000E+00 0.  1.
         22    1    1    0    0    0  0.10804560781E+02 -0.22511902385E+02  0.14670440653E+02  0.28961113784E+02  0.00000000000E+00 0. -1.
</event>
<event>
 5    1  0.1267644E-004  0.9118800E+02  0.7818608E-02  0.1130116E+00
         25   -1    0    0    0    0  0.00000000000E+00  0.00000000000E+00  0.99999998245E-14  0.12500000000E+03  0.12500000000E+03 0.  0.
        -13    1    3    3    0    0 -0.45301709342E+01 -0.33103673207E+02  0.11738739146E+02  0.35414471467E+02  0.10566000000E+00 0. -1.
         23    2    1    0    0    0 -0.10181558376E+02  0.11506176526E+02 -0.26451552157E+02  0.94410118654E+02  0.89317017772E+02 0.  0.
         13    1    3    3    0    0 -0.56513874419E+01  0.44609849733E+02 -0.38190291303E+02  0.58995647188E+02  0.10566000000E+00 0.  1.
         22    1    1    0    0    0  0.10181558376E+02 -0.11506176526E+02  0.26451552157E+02  0.30589881346E+02  0.00000000000E+00 0.  1.
</event>
<event>
 5    1  0.1267644E-004  0.9118800E+02  0.7818608E-02  0.1130116E+00
         25   -1    0    0    0    0  0.00000000000E+00  0.00000000000E+00  0.99999998245E-14  0.12500000000E+03  0.12500000000E+03 0.  0.
        -13    1    3    3    0    0  0.34560088421E+02  0.11969823322E+02 -0.47928387562E+02  0.60289450822E+02  0.10566000000E+00 0.  1.
         23    2    1    0    0    0  0.17964136300E+02 -0.60722620031E+01 -0.21104712224E+02  0.96627628987E+02  0.92368323828E+02 0.  0.
         13    1    3    3    0    0 -0.16595952122E+02 -0.18042085325E+02  0.26823675338E+02  0.36338178165E+02  0.10566000000E+00 0. -1.
         22    1    1    0    0    0 -0.17964136300E+02  0.60722620031E+01  0.21104712224E+02  0.28372371013E+02  0.00000000000E+00 0. -1.
</event>
<event>
 5    1  0.1267644E-004  0.9118800E+02  0.7818608E-02  0.1130116E+00
         25   -1    0    0    0    0  0.00000000000E+00  0.00000000000E+00  0.99999998245E-14  0.12500000000E+03  0.12500000000E+03 0.  0.
        -13    1    3    3    0    0 -0.11878884987E+02  0.29291437147E+02  0.27736533732E+02  0.42052617828E+02  0.10566000000E+00 0. -1.
         23    2    1    0    0    0  0.25947552069E+02 -0.52285694699E+01  0.13919577634E+02  0.95094013332E+02  0.90269060774E+02 0.  0.
         13    1    3    3    0    0  0.37826437056E+02 -0.34520006617E+02 -0.13816956098E+02  0.53041395504E+02  0.10566000000E+00 0.  1.
         22    1    1    0    0    0 -0.25947552069E+02  0.52285694699E+01 -0.13919577634E+02  0.29905986668E+02  0.00000000000E+00 0.  1.
</event>
<event>
 5    1  0.1267644E-004  0.9118800E+02  0.7818608E-02  0.1130116E+00
         25   -1    0    0    0    0  0.00000000000E+00  0.00000000000E+00  0.99999998245E-14  0.12500000000E+03  0.12500000000E+03 0.  0.
        -13    1    3    3    0    0  0.15503548959E+02 -0.32979324910E+02 -0.27583951883E+01  0.36546077900E+02  0.10566000000E+00 0. -1.
         23    2    1    0    0    0 -0.30304625100E+02  0.25843588888E+01 -0.58114364490E+00  0.94579826739E+02  0.89554210870E+02 0.  0.
         13    1    3    3    0    0 -0.45808174059E+02  0.35563683799E+02  0.21772515434E+01  0.58033748838E+02  0.10566000000E+00 0.  1.
         22    1    1    0    0    0  0.30304625100E+02 -0.25843588888E+01  0.58114364490E+00  0.30420173261E+02  0.00000000000E+00 0.  1.
</event>
<event>
 5    1  0.1267644E-004  0.9118800E+02  0.7818608E-02  0.1130116E+00
         25   -1    0    0    0    0  0.00000000000E+00  0.00000000000E+00  0.99999998245E-14  0.12500000000E+03  0.12500000000E+03 0.  0.
        -13    1    3    3    0    0 -0.52574489937E+01  0.12708607320E+02 -0.45963695419E+02  0.47977306412E+02  0.10566000000E+00 0. -1.
         23    2    1    0    0    0 -0.50472167490E+01  0.28361547042E+02 -0.36272168086E+00  0.96190569000E+02  0.91774954372E+02 0.  0.
         13    1    3    3    0    0  0.21023224473E+00  0.15652939722E+02  0.45600973738E+02  0.48213262588E+02  0.10566000000E+00 0.  1.
         22    1    1    0    0    0  0.50472167490E+01 -0.28361547042E+02  0.36272168086E+00  0.28809431000E+02  0.00000000000E+00 0.  1.
</event>
<event>
 5    1  0.1267644E-004  0.9118800E+02  0.7818608E-02  0.1130116E+00
         25   -1    0    0    0    0  0.00000000000E+00  0.00000000000E+00  0.99999998245E-14  0.12500000000E+03  0.12500000000E+03 0.  0.
        -13    1    3    3    0    0 -0.24859969901E+01 -0.54349639482E+01 -0.33899194805E+02  0.34422167082E+02  0.10566000000E+00 0.  1.
         23    2    1    0    0    0 -0.72640005856E+01 -0.13634480538E+02  0.25831044222E+02  0.94901700884E+02  0.90002362308E+02 0.  0.
         13    1    3    3    0    0 -0.47780035956E+01 -0.81995165898E+01  0.59730239027E+02  0.60479533802E+02  0.10566000000E+00 0. -1.
         22    1    1    0    0    0  0.72640005856E+01  0.13634480538E+02 -0.25831044222E+02  0.30098299116E+02  0.00000000000E+00 0. -1.
</event>
<event>
 5    1  0.1267644E-004  0.9118800E+02  0.7818608E-02  0.1130116E+00
         25   -1    0    0    0    0  0.00000000000E+00  0.00000000000E+00  0.99999998245E-14  0.12500000000E+03  0.12500000000E+03 0.  0.
        -13    1    3    3    0    0 -0.32077718592E+02 -0.17213621050E+02 -0.43840412053E+02  0.56984924960E+02  0.10566000000E+00 0.  1.
         23    2    1    0    0    0  0.63200582775E+00 -0.12467938842E+02 -0.29410007578E+02  0.93050078622E+02  0.87392903919E+02 0.  0.
         13    1    3    3    0    0  0.32709724420E+02  0.47456822080E+01  0.14430404475E+02  0.36065153661E+02  0.10566000000E+00 0. -1.
         22    1    1    0    0    0 -0.63200582775E+00  0.12467938842E+02  0.29410007578E+02  0.31949921378E+02  0.00000000000E+00 0.  1.
</event>
<event>
 5    1  0.1267644E-004  0.9118800E+02  0.7818608E-02  0.1130116E+00
         25   -1    0    0    0    0  0.00000000000E+00  0.00000000000E+00  0.99999998245E-14  0.12500000000E+03  0.12500000000E+03 0.  0.
        -13    1    3    3    0    0  0.34197811632E+02  0.39070979412E+02 -0.29038283489E+02  0.59491720640E+02  0.10566000000E+00 0. -1.
         23    2    1    0    0    0  0.25166769616E+02  0.80866257707E+01 -0.13753945153E+02  0.95201831994E+02  0.90418239302E+02 0.  0.
         13    1    3    3    0    0 -0.90310420164E+01 -0.30984353641E+02  0.15284338337E+02  0.35710111354E+02  0.10566000000E+00 0.  1.
         22    1    1    0    0    0 -0.25166769616E+02 -0.80866257707E+01  0.13753945153E+02  0.29798168006E+02  0.00000000000E+00 0. -1.
</event>
<event>
 5    1  0.1267644E-004  0.9118800E+02  0.7818608E-02  0.1130116E+00
         25   -1    0    0    0    0  0.00000000000E+00  0.00000000000E+00  0.99999998245E-14  0.12500000000E+03  0.12500000000E+03 0.  0.
        -13    1    3    3    0    0 -0.22518561382E+02 -0.41542293658E+02 -0.36705777661E+02  0.59834547269E+02  0.10566000000E+00 0. -1.
         23    2    1    0    0    0 -0.16980597511E+02 -0.96460546558E+01 -0.22553426742E+02  0.95166392775E+02  0.90369232562E+02 0.  0.
         13    1    3    3    0    0  0.55379638717E+01  0.31896239002E+02  0.14152350919E+02  0.35331845507E+02  0.10566000000E+00 0.  1.
         22    1    1    0    0    0  0.16980597511E+02  0.96460546558E+01  0.22553426742E+02  0.29833607225E+02  0.00000000000E+00 0. -1.
</event>
<event>
 5    1  0.1267644E-004  0.9118800E+02  0.7818608E-02  0.1130116E+00
         25   -1    0    0    0    0  0.00000000000E+00  0.00000000000E+00  0.99999998245E-14  0.12500000000E+03  0.12500000000E+03 0.  0.
        -13    1    3    3    0    0  0.20107433931E+01  0.38956191889E+02  0.10554449852E+02  0.40410834577E+02  0.10566000000E+00 0.  1.
         23    2    1    0    0    0 -0.80445221350E+01 -0.64366846439E+01  0.31832386631E+02  0.91541875662E+02  0.85208385242E+02 0.  0.
         13    1    3    3    0    0 -0.10055265528E+02 -0.45392876533E+02  0.21277936780E+02  0.51131041085E+02  0.10566000000E+00 0. -1.
         22    1    1    0    0    0  0.80445221350E+01  0.64366846439E+01 -0.31832386631E+02  0.33458124338E+02  0.00000000000E+00 0. -1.
</event>
<event>
 5    1  0.1267644E-004  0.9118800E+02  0.7818608E-02  0.1130116E+00
         25   -1    0    0    0    0  0.00000000000E+00  0.00000000000E+00  0.99999998245E-14  0.12500000000E+03  0.12500000000E+03 0.  0.
        -13    1    3    3    0    0  0.55587101322E+01  0.10282542031E+02 -0.31296887231E+02  0.33408625284E+02  0.10566000000E+00 0. -1.
         23    2    1    0    0    0 -0.20775118018E+01 -0.83708399637E+01  0.27823416554E+02  0.95870469868E+02  0.91337930057E+02 0.  0.
         13    1    3    3    0    0 -0.76362219340E+01 -0.18653381995E+02  0.59120303785E+02  0.62461844585E+02  0.10566000000E+00 0.  1.
         22    1    1    0    0    0  0.20775118018E+01  0.83708399637E+01 -0.27823416554E+02  0.29129530132E+02  0.00000000000E+00 0.  1.
</event>
<event>
 5    1  0.1267644E-004  0.9118800E+02  0.7818608E-02  0.1130116E+00
         25   -1    0    0    0    0  0.00000000000E+00  0.00000000000E+00  0.99999998245E-14  0.12500000000E+03  0.12500000000E+03 0.  0.
        -13    1    3    3    0    0  0.13276624955E+02 -0.15687985071E+02 -0.54563484113E+02  0.58305802527E+02  0.10566000000E+00 0.  1.
         23    2    1    0    0    0 -0.96170007190E+01 -0.10839309592E+02 -0.26030613336E+02  0.95207884165E+02  0.90426605827E+02 0.  0.
         13    1    3    3    0    0 -0.22893625674E+02  0.48486754789E+01  0.28532870777E+02  0.36902081638E+02  0.10566000000E+00 0. -1.
         22    1    1    0    0    0  0.96170007190E+01  0.10839309592E+02  0.26030613336E+02  0.29792115835E+02  0.00000000000E+00 0.  1.
</event>
<event>
 5    1  0.1267644E-004  0.9118800E+02  0.7818608E-02  0.1130116E+00
         25   -1    0    0    0    0  0.00000000000E+00  0.00000000000E+00  0.99999998245E-14  0.12500000000E+03  0.12500000000E+03 0.  0.
        -13    1    3    3    0    0  0.17522700196E+02  0.24955762748E+01  0.34402585310E+02  0.38688783428E+02  0.10566000000E+00 0. -1.
         23    2    1    0    0    0 -0.26361537178E+02  0.88575522075E+01 -0.34320453120E+01  0.96979189724E+02  0.92842864190E+02 0.  0.
         13    1    3    3    0    0 -0.43884237374E+02  0.63619759327E+01 -0.37834630622E+02  0.58290406295E+02  0.10566000000E+00 0.  1.
         22    1    1    0    0    0  0.26361537178E+02 -0.88575522075E+01  0.34320453120E+01  0.28020810276E+02  0.00000000000E+00 0.  1.
</event>
<event>
 5    1  0.1267644E-004  0.9118800E+02  0.7818608E-02  0.1130116E+00
         25   -1    0    0    0    0  0.00000000000E+00  0.00000000000E+00  0.99999998245E-14  0.12500000000E+03  0.12500000000E+03 0.  0.
        -13    1    3    3    0    0 -0.21765484643E+02 -0.47087760112E+02  0.16483476996E+02  0.54430778536E+02  0.10566000000E+00 0. -1.
         23    2    1    0    0    0 -0.10732558403E+02 -0.79801137190E+01  0.25637787532E+02  0.96083461923E+02  0.91628955471E+02 0.  0.
         13    1    3    3    0    0  0.11032926240E+02  0.39107646393E+02  0.91543105355E+01  0.41652683386E+02  0.10566000000E+00 0.  1.
         22    1    1    0    0    0  0.10732558403E+02  0.79801137190E+01 -0.25637787532E+02  0.28916538077E+02  0.00000000000E+00 0. -1.
</event>
<event>
 5    1  0.1267644E-004  0.9118800E+02  0.7818608E-02  0.1130116E+00
         25   -1    0    0    0    0  0.00000000000E+00  0.00000000000E+00  0.99999998245E-14  0.12500000000E+03  0.12500000000E+03 0.  0.
        -13    1    3    3    0    0 -0.48273995513E+02 -0.19784303758E+02  0.33541791939E+02  0.62023062553E+02  0.10566000000E+00 0.  1.
         23    2    1    0    0    0 -0.22919747731E+02 -0.13683872519E+02  0.12535585917E+02  0.95509253698E+02  0.90842244713E+02 0.  0.
         13    1    3    3    0    0  0.25354247782E+02  0.61004312386E+01 -0.21006206023E+02  0.33486191145E+02  0.10566000000E+00 0. -1.
         22    1    1    0    0    0  0.22919747731E+02  0.13683872519E+02 -0.12535585917E+02  0.29490746302E+02  0.00000000000E+00 0.  1.
</event>
<event>
 5    1  0.1267644E-004  0.9118800E+02  0.7818608E-02  0.1130116E+00
         25   -1    0    0    0    0  0.00000000000E+00  0.00000000000E+00  0.99999998245E-14  0.12500000000E+03  0.12500000000E+03 0.  0.
        -13    1    3    3    0    0  0.14410833070E+02 -0.36858526252E+02 -0.66679573499E+01  0.40133475884E+02  0.10566000000E+00 0. -1.
         23    2    1    0    0    0 -0.22747110720E+02 -0.68517890474E+01  0.19204258246E+02  0.94451978885E+02  0.89375582354E+02 0.  0.
         13    1    3    3    0    0 -0.37157943790E+02  0.30006737205E+02  0.25872215596E+02  0.54318503001E+02  0.10566000000E+00 0.  1.
         22    1    1    0    0    0  0.22747110720E+02  0.68517890474E+01 -0.19204258246E+02  0.30548021115E+02  0.00000000000E+00 0.  1.
</event>
<event>
 5    1  0.1267644E-004  0.9118800E+02  0.7818608E-02  0.1130116E+00
         25   -1    0    0    0    0  0.00000000000E+00  0.00000000000E+00  0.99999998245E-14  0.12500000000E+03  0.12500000000E+03 0.  0.
        -13    1    3    3    0    0 -0.40680524276E+02 -0.25578217505E+02  0.37694281436E+02  0.61073891992E+02  0.10566000000E+00 0. -1.
         23    2    1    0    0    0 -0.81974625925E+01 -0.15608613651E+02  0.13752397401E+02  0.10264031200E+03  0.10017523646E+03 0.  0.
         13    1    3    3    0    0  0.32483061683E+02  0.99696038534E+01 -0.23941884035E+02  0.41566420011E+02  0.10566000000E+00 0.  1.
         22    1    1    0    0    0  0.81974625925E+01  0.15608613651E+02 -0.13752397401E+02  0.22359687997E+02  0.00000000000E+00 0. -1.
</event>
<event>
 5    1  0.1267644E-004  0.9118800E+02  0.7818608E-02  0.1130116E+00
         25   -1    0    0    0    0  0.00000000000E+00  0.00000000000E+00  0.99999998245E-14  0.12500000000E+03  0.12500000000E+03 0.  0.
        -13    1    3    3    0    0  0.31456412814E+02 -0.23526995798E+02 -0.34923419808E+02  0.52561220054E+02  0.10566000000E+00 0. -1.
         23    2    1    0    0    0  0.29741188746E+02  0.32938535682E+01 -0.20724256949E+01  0.95005288339E+02  0.90146115195E+02 0.  0.
         13    1    3    3    0    0 -0.17152240683E+01  0.26820849367E+02  0.32850994113E+02  0.42444068285E+02  0.10566000000E+00 0.  1.
         22    1    1    0    0    0 -0.29741188746E+02 -0.32938535682E+01  0.20724256949E+01  0.29994711661E+02  0.00000000000E+00 0.  1.
</event>
<event>
 5    1  0.1267644E-004  0.9118800E+02  0.7818608E-02  0.1130116E+00
         25   -1    0    0    0    0  0.00000000000E+00  0.00000000000E+00  0.99999998245E-14  0.12500000000E+03  0.12500000000E+03 0.  0.
        -13    1    3    3    0    0 -0.42517843797E+02  0.17755775785E+02 -0.22626451298E+02  0.51332271304E+02  0.10566000000E+00 0.  1.
         23    2    1    0    0    0 -0.22399328773E+02 -0.12617793486E+02 -0.26631467329E+02  0.87984142668E+02  0.79818767636E+02 0.  0.
         13    1    3    3    0    0  0.20118515024E+02 -0.30373569270E+02 -0.40050160311E+01  0.36651871364E+02  0.10566000000E+00 0. -1.
         22    1    1    0    0    0  0.22399328773E+02  0.12617793486E+02  0.26631467329E+02  0.37015857332E+02  0.00000000000E+00 0. -1.
</event>
<event>
 5    1  0.1267644E-004  0.9118800E+02  0.7818608E-02  0.1130116E+00
         25   -1    0    0    0    0  0.00000000000E+00  0.00000000000E+00  0.99999998245E-14  0.12500000000E+03  0.12500000000E+03 0.  0.
        -13    1    3    3    0    0 -0.36915535039E+01 -0.12148626839E+02  0.31377869743E+02  0.33849646601E+02  0.10566000000E+00 0.  1.
         23    2    1    0    0    0  0.92990133071E+01  0.15898178314E+02 -0.22474892034E+02  0.95942393523E+02  0.91436307782E+02 0.  0.
         13    1    3    3    0    0  0.12990566811E+02  0.28046805154E+02 -0.53852761777E+02  0.62092746923E+02  0.10566000000E+00 0. -1.
         22    1    1    0    0    0 -0.92990133071E+01 -0.15898178314E+02  0.22474892034E+02  0.29057606477E+02  0.00000000000E+00 0. -1.
</event>
<event>
 5    1  0.1267644E-004  0.9118800E+02  0.7818608E-02  0.1130116E+00
         25   -1    0    0    0    0  0.00000000000E+00  0.00000000000E+00  0.99999998245E-14  0.12500000000E+03  0.12500000000E+03 0.  0.
        -13    1    3    3    0    0 -0.24937260788E+02  0.32610694138E+02  0.33114486893E+02  0.52743765072E+02  0.10566000000E+00 0.  1.
         23    2    1    0    0    0 -0.32359918632E+01 -0.51159060617E+01  0.27751502017E+02  0.96595950951E+02  0.92325444693E+02 0.  0.
         13    1    3    3    0    0  0.21701268925E+02 -0.37726600199E+02 -0.53629848764E+01  0.43852185879E+02  0.10566000000E+00 0. -1.
         22    1    1    0    0    0  0.32359918632E+01  0.51159060617E+01 -0.27751502017E+02  0.28404049049E+02  0.00000000000E+00 0. -1.
</event>
<event>
 5    1  0.1267644E-004  0.9118800E+02  0.7818608E-02  0.1130116E+00
         25   -1    0    0    0    0  0.00000000000E+00  0.00000000000E+00  0.99999998245E-14  0.12500000000E+03  0.12500000000E+03 0.  0.
        -13    1    3    3    0    0 -0.16540934418E+02  0.27321080928E+02  0.43233560206E+02  0.53751240606E+02  0.10566000000E+00 0.  1.
         23    2    1    0    0    0  0.86796071717E+01 -0.22595433230E+01  0.28163198924E+02  0.95443158316E+02  0.90751251116E+02 0.  0.
         13    1    3    3    0    0  0.25220541590E+02 -0.29580624251E+02 -0.15070361282E+02  0.41691917711E+02  0.10566000000E+00 0. -1.
         22    1    1    0    0    0 -0.86796071717E+01  0.22595433230E+01 -0.28163198924E+02  0.29556841684E+02  0.00000000000E+00 0.  1.
</event>
<event>
 5    1  0.1267644E-004  0.9118800E+02  0.7818608E-02  0.1130116E+00
         25   -1    0    0    0    0  0.00000000000E+00  0.00000000000E+00  0.99999998245E-14  0.12500000000E+03  0.12500000000E+03 0.  0.
        -13    1    3    3    0    0  0.16532289511E+02  0.28632368483E+02  0.12151219879E+02  0.35224883676E+02  0.10566000000E+00 0. -1.
         23    2    1    0    0    0  0.58375892146E+01 -0.18449802154E+02 -0.22996465077E+02  0.94944883075E+02  0.90062316030E+02 0.  0.
         13    1    3    3    0    0 -0.10694700297E+02 -0.47082170638E+02 -0.35147684955E+02  0.59719999398E+02  0.10566000000E+00 0.  1.
         22    1    1    0    0    0 -0.58375892146E+01  0.18449802154E+02  0.22996465077E+02  0.30055116925E+02  0.00000000000E+00 0.  1.
</event>
<event>
 5    1  0.1267644E-004  0.9118800E+02  0.7818608E-02  0.1130116E+00
         25   -1    0    0    0    0  0.00000000000E+00  0.00000000000E+00  0.99999998245E-14  0.12500000000E+03  0.12500000000E+03 0.  0.
        -13    1    3    3    0    0 -0.93363953255E+01 -0.53252894680E+02 -0.10727618233E+02  0.55119252775E+02  0.10566000000E+00 0.  1.
         23    2    1    0    0    0 -0.23342166558E+02 -0.15591237587E+02  0.78814698685E+00  0.96918607499E+02  0.92761262792E+02 0.  0.
         13    1    3    3    0    0 -0.14005771232E+02  0.37661657093E+02  0.11515765220E+02  0.41799354725E+02  0.10566000000E+00 0. -1.
         22    1    1    0    0    0  0.23342166558E+02  0.15591237587E+02 -0.78814698685E+00  0.28081392501E+02  0.00000000000E+00 0. -1.
</event>
<event>
 5    1  0.1267644E-004  0.9118800E+02  0.7818608E-02  0.1130116E+00
         25   -1    0    0    0    0  0.00000000000E+00  0.00000000000E+00  0.99999998245E-14  0.12500000000E+03  0.12500000000E+03 0.  0.
        -13    1    3    3    0    0  0.27219543822E+02 -0.40983810230E+02 -0.15740744129E+02  0.51656156038E+02  0.10566000000E+00 0. -1.
         23    2    1    0    0    0  0.26263261412E+02 -0.34878776428E+02  0.11711495263E+02  0.79795497277E+02  0.65756173242E+02 0.  0.
         13    1    3    3    0    0 -0.95628241021E+00  0.61050338019E+01  0.27452239391E+02  0.28139341240E+02  0.10566000000E+00 0.  1.
         22    1    1    0    0    0 -0.26263261412E+02  0.34878776428E+02 -0.11711495263E+02  0.45204502723E+02  0.00000000000E+00 0. -1.
</event>
<event>
 5    1  0.1267644E-004  0.9118800E+02  0.7818608E-02  0.1130116E+00
         25   -1    0    0    0    0  0.00000000000E+00  0.00000000000E+00  0.99999998245E-14  0.12500000000E+03  0.12500000000E+03 0.  0.
        -13    1    3    3    0    0 -0.38501297248E+02 -0.17456341471E+02 -0.34379270855E+01  0.42413491415E+02  0.10566000000E+00 0.  1.
         23    2    1    0    0    0  0.12893638068E+02  0.26826033584E+01  0.18901864221E+02  0.10196257969E+03  0.99325952918E+02 0.  0.
         13    1    3    3    0    0  0.51394935316E+02  0.20138944830E+02  0.22339791306E+02  0.59549088277E+02  0.10566000000E+00 0. -1.
         22    1    1    0    0    0 -0.12893638068E+02 -0.26826033584E+01 -0.18901864221E+02  0.23037420307E+02  0.00000000000E+00 0. -1.
</event>
<event>
 5    1  0.1267644E-004  0.9118800E+02  0.7818608E-02  0.1130116E+00
         25   -1    0    0    0    0  0.00000000000E+00  0.00000000000E+00  0.99999998245E-14  0.12500000000E+03  0.12500000000E+03 0.  0.
        -13    1    3    3    0    0  0.36713045833E+02  0.13958092947E+02 -0.38906019774E+02  0.55284406768E+02  0.10566000000E+00 0. -1.
         23    2    1    0    0    0  0.33716498277E+02 -0.19841985326E+01 -0.78453853822E+01  0.90325955360E+02  0.83405568400E+02 0.  0.
         13    1    3    3    0    0 -0.29965475562E+01 -0.15942291479E+02  0.31060634392E+02  0.35041548592E+02  0.10566000000E+00 0.  1.
         22    1    1    0    0    0 -0.33716498277E+02  0.19841985326E+01  0.78453853822E+01  0.34674044640E+02  0.00000000000E+00 0. -1.
</event>
<event>
 5    1  0.1267644E-004  0.9118800E+02  0.7818608E-02  0.1130116E+00
         25   -1    0    0    0    0  0.00000000000E+00  0.00000000000E+00  0.99999998245E-14  0.12500000000E+03  0.12500000000E+03 0.  0.
        -13    1    3    3    0    0  0.51829573456E+01  0.30802650112E+02  0.92523199949E+01  0.32577337062E+02  0.10566000000E+00 0.  1.
         23    2    1    0    0    0  0.76520207025E+01 -0.29917667877E+02  0.66958044869E+01  0.93401676156E+02  0.87894362953E+02 0.  0.
         13    1    3    3    0    0  0.24690633569E+01 -0.60720317989E+02 -0.25565155079E+01  0.60824339093E+02  0.10566000000E+00 0. -1.
         22    1    1    0    0    0 -0.76520207025E+01  0.29917667877E+02 -0.66958044869E+01  0.31598323844E+02  0.00000000000E+00 0. -1.
</event>
<event>
 5    1  0.1267644E-004  0.9118800E+02  0.7818608E-02  0.1130116E+00
         25   -1    0    0    0    0  0.00000000000E+00  0.00000000000E+00  0.99999998245E-14  0.12500000000E+03  0.12500000000E+03 0.  0.
        -13    1    3    3    0    0  0.25673482535E+02 -0.15750013748E+01 -0.52295657795E+02  0.58279115668E+02  0.10566000000E+00 0.  1.
         23    2    1    0    0    0  0.18776567344E+02  0.12888726537E+02 -0.18584200146E+02  0.95605251353E+02  0.90974242719E+02 0.  0.
         13    1    3    3    0    0 -0.68969151909E+01  0.14463727911E+02  0.33711457650E+02  0.37326135685E+02  0.10566000000E+00 0. -1.
         22    1    1    0    0    0 -0.18776567344E+02 -0.12888726537E+02  0.18584200146E+02  0.29394748647E+02  0.00000000000E+00 0.  1.
</event>
<event>
 5    1  0.1267644E-004  0.9118800E+02  0.7818608E-02  0.1130116E+00
         25   -1    0    0    0    0  0.00000000000E+00  0.00000000000E+00  0.99999998245E-14  0.12500000000E+03  0.12500000000E+03 0.  0.
        -13    1    3    3    0    0  0.23034504936E+02 -0.26928764632E+02  0.27982876692E+02  0.45153065613E+02  0.10566000000E+00 0.  1.
         23    2    1    0    0    0  0.27560733552E+02  0.76249857227E+01 -0.80614112915E+01  0.95289382484E+02  0.90539193838E+02 0.  0.
         13    1    3    3    0    0  0.45262286156E+01  0.34553750355E+02 -0.36044287984E+02  0.50136316870E+02  0.10566000000E+00 0. -1.
         22    1    1    0    0    0 -0.27560733552E+02 -0.76249857227E+01  0.80614112915E+01  0.29710617516E+02  0.00000000000E+00 0. -1.
</event>
<event>
 5    1  0.1267644E-004  0.9118800E+02  0.7818608E-02  0.1130116E+00
         25   -1    0    0    0    0  0.00000000000E+00  0.00000000000E+00  0.99999998245E-14  0.12500000000E+03  0.12500000000E+03 0.  0.
        -13    1    3    3    0    0  0.43209413583E+02 -0.25127379248E+02  0.41287346581E+01  0.50154722848E+02  0.10566000000E+00 0. -1.
         23    2    1    0    0    0  0.18624244906E+02  0.39975692090E+01 -0.21646064938E+02  0.96166075793E+02  0.91741587888E+02 0.  0.
         13    1    3    3    0    0 -0.24585168678E+02  0.29124948457E+02 -0.25774799596E+02  0.46011352944E+02  0.10566000000E+00 0.  1.
         22    1    1    0    0    0 -0.18624244906E+02 -0.39975692090E+01  0.21646064938E+02  0.28833924207E+02  0.00000000000E+00 0.  1.
</event>
<event>
 5    1  0.1267644E-004  0.9118800E+02  0.7818608E-02  0.1130116E+00
         25   -1    0    0    0    0  0.00000000000E+00  0.00000000000E+00  0.99999998245E-14  0.12500000000E+03  0.12500000000E+03 0.  0.
        -13    1    3    3    0    0 -0.47837089135E+02  0.16535922856E+02 -0.79844272612E+00  0.50620870364E+02  0.10566000000E+00 0.  1.
         23    2    1    0    0    0 -0.29477747916E+01  0.21506058058E+02 -0.15734212441E+02  0.98190200475E+02  0.94459251102E+02 0.  0.
         13    1    3    3    0    0  0.44889314344E+02  0.49701352024E+01 -0.14935769715E+02  0.47569330111E+02  0.10566000000E+00 0. -1.
         22    1    1    0    0    0  0.29477747916E+01 -0.21506058058E+02  0.15734212441E+02  0.26809799525E+02  0.00000000000E+00 0. -1.
</event>
<event>
 5    1  0.1267644E-004  0.9118800E+02  0.7818608E-02  0.1130116E+00
         25   -1    0    0    0    0  0.00000000000E+00  0.00000000000E+00  0.99999998245E-14  0.12500000000E+03  0.12500000000E+03 0.  0.
        -13    1    3    3    0    0 -0.20757090358E+02  0.40533923802E+02 -0.20011053387E+02  0.49742428576E+02  0.10566000000E+00 0.  1.
         23    2    1    0    0    0 -0.21892660945E+02  0.11762160273E+02  0.15690746181E+02  0.95608903844E+02  0.90979261159E+02 0.  0.
         13    1    3    3    0    0 -0.11355705868E+01 -0.28771763529E+02  0.35701799568E+02  0.45866475269E+02  0.10566000000E+00 0. -1.
         22    1    1    0    0    0  0.21892660945E+02 -0.11762160273E+02 -0.15690746181E+02  0.29391096156E+02  0.00000000000E+00 0.  1.
</event>
<event>
 5    1  0.1267644E-004  0.9118800E+02  0.7818608E-02  0.1130116E+00
         25   -1    0    0    0    0  0.00000000000E+00  0.00000000000E+00  0.99999998245E-14  0.12500000000E+03  0.12500000000E+03 0.  0.
        -13    1    3    3    0    0 -0.17761383855E+02  0.57841224842E+02  0.13091480754E+02  0.61906963098E+02  0.10566000000E+00 0.  1.
         23    2    1    0    0    0 -0.13072319873E+02  0.23646409302E+02  0.81802813668E+01  0.96769604626E+02  0.92560256895E+02 0.  0.
         13    1    3    3    0    0  0.46890639821E+01 -0.34194815540E+02 -0.49111993870E+01  0.34862641528E+02  0.10566000000E+00 0. -1.
         22    1    1    0    0    0  0.13072319873E+02 -0.23646409302E+02 -0.81802813668E+01  0.28230395374E+02  0.00000000000E+00 0.  1.
</event>
<event>
 5    1  0.1267644E-004  0.9118800E+02  0.7818608E-02  0.1130116E+00
         25   -1    0    0    0    0  0.00000000000E+00  0.00000000000E+00  0.99999998245E-14  0.12500000000E+03  0.12500000000E+03 0.  0.
        -13    1    3    3    0    0  0.79024893152E+01  0.54619436288E+02  0.24753326109E+02  0.60485291396E+02  0.10566000000E+00 0. -1.
         23    2    1    0    0    0 -0.68268326155E+01  0.24025068492E+02  0.15212168808E+02  0.95755861451E+02  0.91180948464E+02 0.  0.
         13    1    3    3    0    0 -0.14729321931E+02 -0.30594367796E+02 -0.95411573000E+01  0.35270570055E+02  0.10566000000E+00 0.  1.
         22    1    1    0    0    0  0.68268326155E+01 -0.24025068492E+02 -0.15212168808E+02  0.29244138549E+02  0.00000000000E+00 0. -1.
</event>
<event>
 5    1  0.1267644E-004  0.9118800E+02  0.7818608E-02  0.1130116E+00
         25   -1    0    0    0    0  0.00000000000E+00  0.00000000000E+00  0.99999998245E-14  0.12500000000E+03  0.12500000000E+03 0.  0.
        -13    1    3    3    0    0  0.32690133345E+02  0.58747102692E+01  0.87376152105E+01  0.34344055126E+02  0.10566000000E+00 0. -1.
         23    2    1    0    0    0 -0.28510536049E+02  0.32498356203E+01 -0.54059013255E+00  0.96299750261E+02  0.91923541953E+02 0.  0.
         13    1    3    3    0    0 -0.61200669395E+02 -0.26248746489E+01 -0.92782053431E+01  0.61955695135E+02  0.10566000000E+00 0.  1.
         22    1    1    0    0    0  0.28510536049E+02 -0.32498356203E+01  0.54059013255E+00  0.28700249739E+02  0.00000000000E+00 0.  1.
</event>
<event>
 5    1  0.1267644E-004  0.9118800E+02  0.7818608E-02  0.1130116E+00
         25   -1    0    0    0    0  0.00000000000E+00  0.00000000000E+00  0.99999998245E-14  0.12500000000E+03  0.12500000000E+03 0.  0.
        -13    1    3    3    0    0 -0.12980038128E+02 -0.23780496521E+02  0.22008931784E+02  0.34905553239E+02  0.10566000000E+00 0.  1.
         23    2    1    0    0    0  0.10955747076E+02  0.15515328756E+02 -0.20148595047E+02  0.97310296088E+02  0.93287587716E+02 0.  0.
         13    1    3    3    0    0  0.23935785204E+02  0.39295825277E+02 -0.42157526831E+02  0.62404742849E+02  0.10566000000E+00 0. -1.
         22    1    1    0    0    0 -0.10955747076E+02 -0.15515328756E+02  0.20148595047E+02  0.27689703912E+02  0.00000000000E+00 0. -1.
</event>
<event>
 5    1  0.1267644E-004  0.9118800E+02  0.7818608E-02  0.1130116E+00
         25   -1    0    0    0    0  0.00000000000E+00  0.00000000000E+00  0.99999998245E-14  0.12500000000E+03  0.12500000000E+03 0.  0.
        -13    1    3    3    0    0  0.32003010223E+02 -0.11465177969E+02 -0.21398077903E+02  0.40168792254E+02  0.10566000000E+00 0.  1.
         23    2    1    0    0    0 -0.23607943498E+02 -0.11939024269E+02 -0.77719797249E+01  0.97426843388E+02  0.93443623897E+02 0.  0.
         13    1    3    3    0    0 -0.55610953721E+02 -0.47384629970E+00  0.13626098178E+02  0.57258051134E+02  0.10566000000E+00 0. -1.
         22    1    1    0    0    0  0.23607943498E+02  0.11939024269E+02  0.77719797249E+01  0.27573156612E+02  0.00000000000E+00 0. -1.
</event>
<event>
 5    1  0.1267644E-004  0.9118800E+02  0.7818608E-02  0.1130116E+00
         25   -1    0    0    0    0  0.00000000000E+00  0.00000000000E+00  0.99999998245E-14  0.12500000000E+03  0.12500000000E+03 0.  0.
        -13    1    3    3    0    0 -0.10919509565E+02 -0.21742384005E+02  0.52183593480E+02  0.57576953235E+02  0.10566000000E+00 0.  1.
         23    2    1    0    0    0  0.11714925211E+02 -0.14421553573E+02  0.18816280204E+02  0.98556227938E+02  0.94942387712E+02 0.  0.
         13    1    3    3    0    0  0.22634434776E+02  0.73208304320E+01 -0.33367313276E+02  0.40979274702E+02  0.10566000000E+00 0. -1.
         22    1    1    0    0    0 -0.11714925211E+02  0.14421553573E+02 -0.18816280204E+02  0.26443772062E+02  0.00000000000E+00 0.  1.
</event>
<event>
 5    1  0.1267644E-004  0.9118800E+02  0.7818608E-02  0.1130116E+00
         25   -1    0    0    0    0  0.00000000000E+00  0.00000000000E+00  0.99999998245E-14  0.12500000000E+03  0.12500000000E+03 0.  0.
        -13    1    3    3    0    0  0.39738537429E+01  0.49630183646E+02  0.26427590295E+02  0.56368212098E+02  0.10566000000E+00 0.  1.
         23    2    1    0    0    0  0.19605198597E+02  0.14628802361E+02  0.14726541242E+02  0.96447650053E+02  0.92124440369E+02 0.  0.
         13    1    3    3    0    0  0.15631344854E+02 -0.35001381285E+02 -0.11701049053E+02  0.40079437955E+02  0.10566000000E+00 0. -1.
         22    1    1    0    0    0 -0.19605198597E+02 -0.14628802361E+02 -0.14726541242E+02  0.28552349947E+02  0.00000000000E+00 0.  1.
</event>
<event>
 5    1  0.1267644E-004  0.9118800E+02  0.7818608E-02  0.1130116E+00
         25   -1    0    0    0    0  0.00000000000E+00  0.00000000000E+00  0.99999998245E-14  0.12500000000E+03  0.12500000000E+03 0.  0.
        -13    1    3    3    0    0 -0.55984613565E+02 -0.12358428853E+02  0.21448987704E+02  0.61213380541E+02  0.10566000000E+00 0.  1.
         23    2    1    0    0    0 -0.29604481069E+02  0.16585432841E+01  0.14984437111E+02  0.91777877541E+02  0.85553897546E+02 0.  0.
         13    1    3    3    0    0  0.26380132496E+02  0.14016972137E+02 -0.64645505933E+01  0.30564497000E+02  0.10566000000E+00 0. -1.
         22    1    1    0    0    0  0.29604481069E+02 -0.16585432841E+01 -0.14984437111E+02  0.33222122459E+02  0.00000000000E+00 0.  1.
</event>
<event>
 5    1  0.1267644E-004  0.9118800E+02  0.7818608E-02  0.1130116E+00
         25   -1    0    0    0    0  0.00000000000E+00  0.00000000000E+00  0.99999998245E-14  0.12500000000E+03  0.12500000000E+03 0.  0.
        -13    1    3    3    0    0 -0.32818215085E+02  0.23608244282E+02 -0.47001255966E+02  0.61996077826E+02  0.10566000000E+00 0.  1.
         23    2    1    0    0    0 -0.10136845590E+02  0.11422820628E+02 -0.24175324647E+02  0.96404846714E+02  0.92066343897E+02 0.  0.
         13    1    3    3    0    0  0.22681369495E+02 -0.12185423653E+02  0.22825931319E+02  0.34408768888E+02  0.10566000000E+00 0. -1.
         22    1    1    0    0    0  0.10136845590E+02 -0.11422820628E+02  0.24175324647E+02  0.28595153286E+02  0.00000000000E+00 0.  1.
</event>
<event>
 5    1  0.1267644E-004  0.9118800E+02  0.7818608E-02  0.1130116E+00
         25   -1    0    0    0    0  0.00000000000E+00  0.00000000000E+00  0.99999998245E-14  0.12500000000E+03  0.12500000000E+03 0.  0.
        -13    1    3    3    0    0 -0.35097684682E+02  0.39361622939E+02  0.61825916739E+01  0.53098214982E+02  0.10566000000E+00 0.  1.
         23    2    1    0    0    0 -0.24881578780E+02  0.20887788567E+01  0.18790421040E+02  0.93750425882E+02  0.88388949934E+02 0.  0.
         13    1    3    3    0    0  0.10216105902E+02 -0.37272844082E+02  0.12607829366E+02  0.40652210901E+02  0.10566000000E+00 0. -1.
         22    1    1    0    0    0  0.24881578780E+02 -0.20887788567E+01 -0.18790421040E+02  0.31249574118E+02  0.00000000000E+00 0.  1.
</event>
<event>
 5    1  0.1267644E-004  0.9118800E+02  0.7818608E-02  0.1130116E+00
         25   -1    0    0    0    0  0.00000000000E+00  0.00000000000E+00  0.99999998245E-14  0.12500000000E+03  0.12500000000E+03 0.  0.
        -13    1    3    3    0    0  0.47843151185E+02  0.37201434573E+02 -0.13217129304E+02  0.62029166693E+02  0.10566000000E+00 0.  1.
         23    2    1    0    0    0  0.26186497146E+02  0.15994892642E+02 -0.23650568493E+01  0.94223991205E+02  0.89056149711E+02 0.  0.
         13    1    3    3    0    0 -0.21656654039E+02 -0.21206541930E+02  0.10852072455E+02  0.32194824512E+02  0.10566000000E+00 0. -1.
         22    1    1    0    0    0 -0.26186497146E+02 -0.15994892642E+02  0.23650568493E+01  0.30776008795E+02  0.00000000000E+00 0.  1.
</event>
<event>
 5    1  0.1267644E-004  0.9118800E+02  0.7818608E-02  0.1130116E+00
         25   -1    0    0    0    0  0.00000000000E+00  0.00000000000E+00  0.99999998245E-14  0.12500000000E+03  0.12500000000E+03 0.  0.
        -13    1    3    3    0    0  0.30484165909E+02  0.21481009610E+02 -0.29391261865E+02  0.47482371288E+02  0.10566000000E+00 0. -1.
         23    2    1    0    0    0  0.22405226487E+01  0.25853233290E+02  0.10877283008E+02  0.96862393511E+02  0.92685480943E+02 0.  0.
         13    1    3    3    0    0 -0.28243643260E+02  0.43722236800E+01  0.40268544874E+02  0.49380022223E+02  0.10566000000E+00 0.  1.
         22    1    1    0    0    0 -0.22405226487E+01 -0.25853233290E+02 -0.10877283008E+02  0.28137606489E+02  0.00000000000E+00 0.  1.
</event>
<event>
 5    1  0.1267644E-004  0.9118800E+02  0.7818608E-02  0.1130116E+00
         25   -1    0    0    0    0  0.00000000000E+00  0.00000000000E+00  0.99999998245E-14  0.12500000000E+03  0.12500000000E+03 0.  0.
        -13    1    3    3    0    0  0.28357106799E+02 -0.28829793676E-01  0.49479842329E+02  0.57029749238E+02  0.10566000000E+00 0.  1.
         23    2    1    0    0    0  0.18773908448E+02 -0.17754500641E+02  0.22274789176E+02  0.90884781046E+02  0.84238917737E+02 0.  0.
         13    1    3    3    0    0 -0.95831983507E+01 -0.17725670848E+02 -0.27205053153E+02  0.33855031808E+02  0.10566000000E+00 0. -1.
         22    1    1    0    0    0 -0.18773908448E+02  0.17754500641E+02 -0.22274789176E+02  0.34115218954E+02  0.00000000000E+00 0.  1.
</event>
<event>
 5    1  0.1267644E-004  0.9118800E+02  0.7818608E-02  0.1130116E+00
         25   -1    0    0    0    0  0.00000000000E+00  0.00000000000E+00  0.99999998245E-14  0.12500000000E+03  0.12500000000E+03 0.  0.
        -13    1    3    3    0    0  0.16803126898E+02 -0.28709562744E+02  0.24104822259E+02  0.41080867648E+02  0.10566000000E+00 0.  1.
         23    2    1    0    0    0  0.24375844887E+02  0.17613910744E+02 -0.21254785422E+01  0.94851213545E+02  0.89932215508E+02 0.  0.
         13    1    3    3    0    0  0.75727179892E+01  0.46323473489E+02 -0.26230300801E+02  0.53770345897E+02  0.10566000000E+00 0. -1.
         22    1    1    0    0    0 -0.24375844887E+02 -0.17613910744E+02  0.21254785422E+01  0.30148786455E+02  0.00000000000E+00 0. -1.
</event>
<event>
 5    1  0.1267644E-004  0.9118800E+02  0.7818608E-02  0.1130116E+00
         25   -1    0    0    0    0  0.00000000000E+00  0.00000000000E+00  0.99999998245E-14  0.12500000000E+03  0.12500000000E+03 0.  0.
        -13    1    3    3    0    0 -0.10671223128E+02  0.73540124616E+01  0.36340526836E+02  0.38582399576E+02  0.10566000000E+00 0.  1.
         23    2    1    0    0    0 -0.15522919020E+02  0.28686323934E+01 -0.22346469022E+02  0.97640271484E+02  0.93728692891E+02 0.  0.
         13    1    3    3    0    0 -0.48516958914E+01 -0.44853800682E+01 -0.58686995858E+02  0.59057871908E+02  0.10566000000E+00 0. -1.
         22    1    1    0    0    0  0.15522919020E+02 -0.28686323934E+01  0.22346469022E+02  0.27359728516E+02  0.00000000000E+00 0. -1.
</event>
<event>
 5    1  0.1267644E-004  0.9118800E+02  0.7818608E-02  0.1130116E+00
         25   -1    0    0    0    0  0.00000000000E+00  0.00000000000E+00  0.99999998245E-14  0.12500000000E+03  0.12500000000E+03 0.  0.
        -13    1    3    3    0    0  0.11490806610E+02  0.33833596130E+02  0.25056020717E+02  0.43641335931E+02  0.10566000000E+00 0. -1.
         23    2    1    0    0    0  0.33083230444E+02  0.10677348009E+02 -0.79085321842E+01  0.89348200909E+02  0.81927103130E+02 0.  0.
         13    1    3    3    0    0  0.21592423834E+02 -0.23156248121E+02 -0.32964552901E+02  0.45706864978E+02  0.10566000000E+00 0.  1.
         22    1    1    0    0    0 -0.33083230444E+02 -0.10677348009E+02  0.79085321842E+01  0.35651799091E+02  0.00000000000E+00 0. -1.
</event>
<event>
 5    1  0.1267644E-004  0.9118800E+02  0.7818608E-02  0.1130116E+00
         25   -1    0    0    0    0  0.00000000000E+00  0.00000000000E+00  0.99999998245E-14  0.12500000000E+03  0.12500000000E+03 0.  0.
        -13    1    3    3    0    0 -0.89350726782E+01 -0.54901682615E+02 -0.12728835110E+02  0.57061937270E+02  0.10566000000E+00 0. -1.
         23    2    1    0    0    0  0.11390830144E+02 -0.26668439171E+02  0.41084251017E+01  0.95711165676E+02  0.91119654406E+02 0.  0.
         13    1    3    3    0    0  0.20325902823E+02  0.28233243444E+02  0.16837260212E+02  0.38649228406E+02  0.10566000000E+00 0.  1.
         22    1    1    0    0    0 -0.11390830144E+02  0.26668439171E+02 -0.41084251017E+01  0.29288834324E+02  0.00000000000E+00 0. -1.
</event>
<event>
 5    1  0.1267644E-004  0.9118800E+02  0.7818608E-02  0.1130116E+00
         25   -1    0    0    0    0  0.00000000000E+00  0.00000000000E+00  0.99999998245E-14  0.12500000000E+03  0.12500000000E+03 0.  0.
        -13    1    3    3    0    0  0.30846993892E+02 -0.23299156817E+02  0.11297973321E+01  0.38673962127E+02  0.10566000000E+00 0.  1.
         23    2    1    0    0    0 -0.16213152657E+02 -0.36193565947E+01 -0.24216255739E+02  0.95633469677E+02  0.91013006868E+02 0.  0.
         13    1    3    3    0    0 -0.47060146549E+02  0.19679800222E+02 -0.25346053071E+02  0.56959507550E+02  0.10566000000E+00 0. -1.
         22    1    1    0    0    0  0.16213152657E+02  0.36193565947E+01  0.24216255739E+02  0.29366530323E+02  0.00000000000E+00 0. -1.
</event>
<event>
 5    1  0.1267644E-004  0.9118800E+02  0.7818608E-02  0.1130116E+00
         25   -1    0    0    0    0  0.00000000000E+00  0.00000000000E+00  0.99999998245E-14  0.12500000000E+03  0.12500000000E+03 0.  0.
        -13    1    3    3    0    0 -0.91461718427E+00  0.46874577326E+02  0.26812647611E+02  0.54009182183E+02  0.10566000000E+00 0.  1.
         23    2    1    0    0    0 -0.14001647873E+02  0.38739725888E+00  0.16435000936E+02  0.10340589257E+03  0.10112602604E+03 0.  0.
         13    1    3    3    0    0 -0.13087030689E+02 -0.46487180067E+02 -0.10377646675E+02  0.49396710390E+02  0.10566000000E+00 0. -1.
         22    1    1    0    0    0  0.14001647873E+02 -0.38739725888E+00 -0.16435000936E+02  0.21594107427E+02  0.00000000000E+00 0. -1.
</event>
<event>
 5    1  0.1267644E-004  0.9118800E+02  0.7818608E-02  0.1130116E+00
         25   -1    0    0    0    0  0.00000000000E+00  0.00000000000E+00  0.99999998245E-14  0.12500000000E+03  0.12500000000E+03 0.  0.
        -13    1    3    3    0    0  0.37188800468E+02  0.46117211550E+02  0.10404229960E+02  0.60150338707E+02  0.10566000000E+00 0. -1.
         23    2    1    0    0    0  0.20770295594E+02  0.90977464496E+01 -0.12472978616E+01  0.10229031217E+03  0.99737545798E+02 0.  0.
         13    1    3    3    0    0 -0.16418504875E+02 -0.37019465101E+02 -0.11651527821E+02  0.42139973461E+02  0.10566000000E+00 0.  1.
         22    1    1    0    0    0 -0.20770295594E+02 -0.90977464496E+01  0.12472978616E+01  0.22709687833E+02  0.00000000000E+00 0. -1.
</event>
<event>
 5    1  0.1267644E-004  0.9118800E+02  0.7818608E-02  0.1130116E+00
         25   -1    0    0    0    0  0.00000000000E+00  0.00000000000E+00  0.99999998245E-14  0.12500000000E+03  0.12500000000E+03 0.  0.
        -13    1    3    3    0    0  0.44223187944E+02 -0.22161801360E+02 -0.33704941083E+02  0.59857079856E+02  0.10566000000E+00 0. -1.
         23    2    1    0    0    0  0.11752747178E+02 -0.69883071855E+01 -0.24629979767E+02  0.96829103548E+02  0.92640573655E+02 0.  0.
         13    1    3    3    0    0 -0.32470440766E+02  0.15173494175E+02  0.90749613155E+01  0.36972023692E+02  0.10566000000E+00 0.  1.
         22    1    1    0    0    0 -0.11752747178E+02  0.69883071855E+01  0.24629979767E+02  0.28170896452E+02  0.00000000000E+00 0. -1.
</event>
<event>
 5    1  0.1267644E-004  0.9118800E+02  0.7818608E-02  0.1130116E+00
         25   -1    0    0    0    0  0.00000000000E+00  0.00000000000E+00  0.99999998245E-14  0.12500000000E+03  0.12500000000E+03 0.  0.
        -13    1    3    3    0    0 -0.23554724276E+02  0.29414748656E+01  0.26272122033E+02  0.35407808040E+02  0.10566000000E+00 0.  1.
         23    2    1    0    0    0  0.19988143644E+02  0.19126141601E+02 -0.11262766607E+02  0.95130532470E+02  0.90319616460E+02 0.  0.
         13    1    3    3    0    0  0.43542867920E+02  0.16184666736E+02 -0.37534888640E+02  0.59722724429E+02  0.10566000000E+00 0. -1.
         22    1    1    0    0    0 -0.19988143644E+02 -0.19126141601E+02  0.11262766607E+02  0.29869467530E+02  0.00000000000E+00 0. -1.
</event>
<event>
 5    1  0.1267644E-004  0.9118800E+02  0.7818608E-02  0.1130116E+00
         25   -1    0    0    0    0  0.00000000000E+00  0.00000000000E+00  0.99999998245E-14  0.12500000000E+03  0.12500000000E+03 0.  0.
        -13    1    3    3    0    0  0.23239177870E+02 -0.57038866682E+02 -0.76233476136E+01  0.62061407439E+02  0.10566000000E+00 0. -1.
         23    2    1    0    0    0  0.12324086053E+02 -0.26438011248E+02 -0.86754490536E+01  0.94567863169E+02  0.89537510532E+02 0.  0.
         13    1    3    3    0    0 -0.10915091818E+02  0.30600855434E+02 -0.10521014400E+01  0.32506455730E+02  0.10566000000E+00 0.  1.
         22    1    1    0    0    0 -0.12324086053E+02  0.26438011248E+02  0.86754490536E+01  0.30432136831E+02  0.00000000000E+00 0. -1.
</event>
<event>
 5    1  0.1267644E-004  0.9118800E+02  0.7818608E-02  0.1130116E+00
         25   -1    0    0    0    0  0.00000000000E+00  0.00000000000E+00  0.99999998245E-14  0.12500000000E+03  0.12500000000E+03 0.  0.
        -13    1    3    3    0    0 -0.23848977590E+02  0.52060440757E+02 -0.23078468685E+02  0.61738886488E+02  0.10566000000E+00 0.  1.
         23    2    1    0    0    0 -0.11119042600E+02  0.33784995147E+02 -0.82739215812E+01  0.88482650921E+02  0.80595674389E+02 0.  0.
         13    1    3    3    0    0  0.12729934990E+02 -0.18275445609E+02  0.14804547103E+02  0.26743764433E+02  0.10566000000E+00 0. -1.
         22    1    1    0    0    0  0.11119042600E+02 -0.33784995147E+02  0.82739215812E+01  0.36517349079E+02  0.00000000000E+00 0.  1.
</event>
<event>
 5    1  0.1267644E-004  0.9118800E+02  0.7818608E-02  0.1130116E+00
         25   -1    0    0    0    0  0.00000000000E+00  0.00000000000E+00  0.99999998245E-14  0.12500000000E+03  0.12500000000E+03 0.  0.
        -13    1    3    3    0    0 -0.90698805321E+01 -0.35067823484E+02  0.61347599625E+01  0.36737738371E+02  0.10566000000E+00 0. -1.
         23    2    1    0    0    0  0.20725919838E+02  0.10723213377E+02 -0.17064046955E+02  0.96090957180E+02  0.91639179912E+02 0.  0.
         13    1    3    3    0    0  0.29795800371E+02  0.45791036861E+02 -0.23198806918E+02  0.59353218809E+02  0.10566000000E+00 0.  1.
         22    1    1    0    0    0 -0.20725919838E+02 -0.10723213377E+02  0.17064046955E+02  0.28909042820E+02  0.00000000000E+00 0.  1.
</event>
<event>
 5    1  0.1267644E-004  0.9118800E+02  0.7818608E-02  0.1130116E+00
         25   -1    0    0    0    0  0.00000000000E+00  0.00000000000E+00  0.99999998245E-14  0.12500000000E+03  0.12500000000E+03 0.  0.
        -13    1    3    3    0    0 -0.47212725862E+02  0.49142603473E+01  0.38376183608E+02  0.61040429802E+02  0.10566000000E+00 0. -1.
         23    2    1    0    0    0 -0.23323582567E+02  0.12026300277E+02  0.19764073931E+02  0.92148211305E+02  0.86093279797E+02 0.  0.
         13    1    3    3    0    0  0.23889143296E+02  0.71120399299E+01 -0.18612109677E+02  0.31107781503E+02  0.10566000000E+00 0.  1.
         22    1    1    0    0    0  0.23323582567E+02 -0.12026300277E+02 -0.19764073931E+02  0.32851788695E+02  0.00000000000E+00 0. -1.
</event>
<event>
 5    1  0.1267644E-004  0.9118800E+02  0.7818608E-02  0.1130116E+00
         25   -1    0    0    0    0  0.00000000000E+00  0.00000000000E+00  0.99999998245E-14  0.12500000000E+03  0.12500000000E+03 0.  0.
        -13    1    3    3    0    0 -0.10246684303E+02  0.52283693592E+02  0.32312025360E+02  0.62310972563E+02  0.10566000000E+00 0. -1.
         23    2    1    0    0    0 -0.26576220604E+01  0.25849455549E+02  0.12792405804E+02  0.96036178542E+02  0.91564428877E+02 0.  0.
         13    1    3    3    0    0  0.75890622427E+01 -0.26434238043E+02 -0.19519619556E+02  0.33725205979E+02  0.10566000000E+00 0.  1.
         22    1    1    0    0    0  0.26576220604E+01 -0.25849455549E+02 -0.12792405804E+02  0.28963821458E+02  0.00000000000E+00 0. -1.
</event>
<event>
 5    1  0.1267644E-004  0.9118800E+02  0.7818608E-02  0.1130116E+00
         25   -1    0    0    0    0  0.00000000000E+00  0.00000000000E+00  0.99999998245E-14  0.12500000000E+03  0.12500000000E+03 0.  0.
        -13    1    3    3    0    0 -0.43670455041E+02  0.14406502263E+01  0.30174272710E+02  0.53100678095E+02  0.10566000000E+00 0.  1.
         23    2    1    0    0    0 -0.21081912364E+02  0.21053850384E+02  0.55241202855E+00  0.95200389198E+02  0.90416244666E+02 0.  0.
         13    1    3    3    0    0  0.22588542677E+02  0.19613200157E+02 -0.29621860682E+02  0.42099711103E+02  0.10566000000E+00 0. -1.
         22    1    1    0    0    0  0.21081912364E+02 -0.21053850384E+02 -0.55241202855E+00  0.29799610802E+02  0.00000000000E+00 0.  1.
</event>
<event>
 5    1  0.1267644E-004  0.9118800E+02  0.7818608E-02  0.1130116E+00
         25   -1    0    0    0    0  0.00000000000E+00  0.00000000000E+00  0.99999998245E-14  0.12500000000E+03  0.12500000000E+03 0.  0.
        -13    1    3    3    0    0  0.22408897168E+02 -0.20537537574E+02  0.90370340369E+01  0.31711642501E+02  0.10566000000E+00 0.  1.
         23    2    1    0    0    0 -0.62643404913E+01  0.27681377737E+02 -0.15178250106E+02  0.92814911659E+02  0.87055889605E+02 0.  0.
         13    1    3    3    0    0 -0.28673237660E+02  0.48218915311E+02 -0.24215284143E+02  0.61103269158E+02  0.10566000000E+00 0. -1.
         22    1    1    0    0    0  0.62643404913E+01 -0.27681377737E+02  0.15178250106E+02  0.32185088341E+02  0.00000000000E+00 0. -1.
</event>
<event>
 5    1  0.1267644E-004  0.9118800E+02  0.7818608E-02  0.1130116E+00
         25   -1    0    0    0    0  0.00000000000E+00  0.00000000000E+00  0.99999998245E-14  0.12500000000E+03  0.12500000000E+03 0.  0.
        -13    1    3    3    0    0  0.48623918310E+01 -0.52876436356E+02 -0.31173467955E+02  0.61573993247E+02  0.10566000000E+00 0. -1.
         23    2    1    0    0    0  0.44802839172E+01 -0.20441969583E+02 -0.20456427345E+02  0.95735473963E+02  0.91152994964E+02 0.  0.
         13    1    3    3    0    0 -0.38210791379E+00  0.32434466773E+02  0.10717040609E+02  0.34161480717E+02  0.10566000000E+00 0.  1.
         22    1    1    0    0    0 -0.44802839172E+01  0.20441969583E+02  0.20456427345E+02  0.29264526037E+02  0.00000000000E+00 0. -1.
</event>
<event>
 5    1  0.1267644E-004  0.9118800E+02  0.7818608E-02  0.1130116E+00
         25   -1    0    0    0    0  0.00000000000E+00  0.00000000000E+00  0.99999998245E-14  0.12500000000E+03  0.12500000000E+03 0.  0.
        -13    1    3    3    0    0 -0.52091346369E+02  0.13504828805E+01  0.15484877881E+02  0.54361059386E+02  0.10566000000E+00 0. -1.
         23    2    1    0    0    0 -0.43102757031E+01  0.11311091780E+02  0.18084247018E+02  0.10323858313E+03  0.10091900605E+03 0.  0.
         13    1    3    3    0    0  0.47781070666E+02  0.99606088995E+01  0.25993691365E+01  0.48877523746E+02  0.10566000000E+00 0.  1.
         22    1    1    0    0    0  0.43102757031E+01 -0.11311091780E+02 -0.18084247018E+02  0.21761416868E+02  0.00000000000E+00 0. -1.
</event>
<event>
 5    1  0.1267644E-004  0.9118800E+02  0.7818608E-02  0.1130116E+00
         25   -1    0    0    0    0  0.00000000000E+00  0.00000000000E+00  0.99999998245E-14  0.12500000000E+03  0.12500000000E+03 0.  0.
        -13    1    3    3    0    0 -0.60387578035E+00 -0.57168639557E+01  0.38653818738E+02  0.39079100124E+02  0.10566000000E+00 0. -1.
         23    2    1    0    0    0  0.30113009301E+02  0.39379432407E+01 -0.59128077950E+01  0.94060348707E+02  0.88826162681E+02 0.  0.
         13    1    3    3    0    0  0.30716885082E+02  0.96548071965E+01 -0.44566626533E+02  0.54981248582E+02  0.10566000000E+00 0.  1.
         22    1    1    0    0    0 -0.30113009301E+02 -0.39379432407E+01  0.59128077950E+01  0.30939651293E+02  0.00000000000E+00 0.  1.
</event>
<event>
 5    1  0.1267644E-004  0.9118800E+02  0.7818608E-02  0.1130116E+00
         25   -1    0    0    0    0  0.00000000000E+00  0.00000000000E+00  0.99999998245E-14  0.12500000000E+03  0.12500000000E+03 0.  0.
        -13    1    3    3    0    0 -0.44797341571E+02  0.60302857587E+01 -0.47420695415E+01  0.45449582459E+02  0.10566000000E+00 0. -1.
         23    2    1    0    0    0 -0.41126131653E+01  0.25854395115E+02  0.15002288260E+02  0.94826634480E+02  0.89898045696E+02 0.  0.
         13    1    3    3    0    0  0.40684728406E+02  0.19824109356E+02  0.19744357801E+02  0.49377052020E+02  0.10566000000E+00 0.  1.
         22    1    1    0    0    0  0.41126131653E+01 -0.25854395115E+02 -0.15002288260E+02  0.30173365520E+02  0.00000000000E+00 0.  1.
</event>
<event>
 5    1  0.1267644E-004  0.9118800E+02  0.7818608E-02  0.1130116E+00
         25   -1    0    0    0    0  0.00000000000E+00  0.00000000000E+00  0.99999998245E-14  0.12500000000E+03  0.12500000000E+03 0.  0.
        -13    1    3    3    0    0 -0.16791991098E+02 -0.51322121604E+02  0.45406433316E+00  0.54001374699E+02  0.10566000000E+00 0. -1.
         23    2    1    0    0    0 -0.19726997681E+02 -0.17072776709E+02  0.18683493253E+02  0.92910951055E+02  0.87193679609E+02 0.  0.
         13    1    3    3    0    0 -0.29350065834E+01  0.34249344895E+02  0.18229428920E+02  0.38909576356E+02  0.10566000000E+00 0.  1.
         22    1    1    0    0    0  0.19726997681E+02  0.17072776709E+02 -0.18683493253E+02  0.32089048945E+02  0.00000000000E+00 0. -1.
</event>
<event>
 5    1  0.1267644E-004  0.9118800E+02  0.7818608E-02  0.1130116E+00
         25   -1    0    0    0    0  0.00000000000E+00  0.00000000000E+00  0.99999998245E-14  0.12500000000E+03  0.12500000000E+03 0.  0.
        -13    1    3    3    0    0 -0.42084919569E+01 -0.65539053917E+01 -0.45470907884E+02  0.46133282002E+02  0.10566000000E+00 0.  1.
         23    2    1    0    0    0  0.74363199608E+01  0.24761379211E+02 -0.49079053269E+01  0.98684371760E+02  0.95110950684E+02 0.  0.
         13    1    3    3    0    0  0.11644811918E+02  0.31315284602E+02  0.40563002557E+02  0.52551089758E+02  0.10566000000E+00 0. -1.
         22    1    1    0    0    0 -0.74363199608E+01 -0.24761379211E+02  0.49079053269E+01  0.26315628240E+02  0.00000000000E+00 0. -1.
</event>
<event>
 5    1  0.1267644E-004  0.9118800E+02  0.7818608E-02  0.1130116E+00
         25   -1    0    0    0    0  0.00000000000E+00  0.00000000000E+00  0.99999998245E-14  0.12500000000E+03  0.12500000000E+03 0.  0.
        -13    1    3    3    0    0  0.49079123250E+02  0.23704509025E+02 -0.19563062945E+02  0.57908450877E+02  0.10566000000E+00 0.  1.
         23    2    1    0    0    0  0.27206350089E+02  0.88892543127E+01  0.71711709495E+01  0.95493559683E+02  0.90820646995E+02 0.  0.
         13    1    3    3    0    0 -0.21872773161E+02 -0.14815254712E+02  0.26734233895E+02  0.37585108806E+02  0.10566000000E+00 0. -1.
         22    1    1    0    0    0 -0.27206350089E+02 -0.88892543127E+01 -0.71711709495E+01  0.29506440317E+02  0.00000000000E+00 0.  1.
</event>
<event>
 5    1  0.1267644E-004  0.9118800E+02  0.7818608E-02  0.1130116E+00
         25   -1    0    0    0    0  0.00000000000E+00  0.00000000000E+00  0.99999998245E-14  0.12500000000E+03  0.12500000000E+03 0.  0.
        -13    1    3    3    0    0  0.65663775958E+01  0.24717335792E+02 -0.32134893949E+02  0.41069776923E+02  0.10566000000E+00 0. -1.
         23    2    1    0    0    0  0.18721255294E+02 -0.20954377161E+02 -0.26465490598E+01  0.96776330077E+02  0.92569338980E+02 0.  0.
         13    1    3    3    0    0  0.12154877698E+02 -0.45671712953E+02  0.29488344889E+02  0.55706553154E+02  0.10566000000E+00 0.  1.
         22    1    1    0    0    0 -0.18721255294E+02  0.20954377161E+02  0.26465490598E+01  0.28223669923E+02  0.00000000000E+00 0.  1.
</event>
<event>
 5    1  0.1267644E-004  0.9118800E+02  0.7818608E-02  0.1130116E+00
         25   -1    0    0    0    0  0.00000000000E+00  0.00000000000E+00  0.99999998245E-14  0.12500000000E+03  0.12500000000E+03 0.  0.
        -13    1    3    3    0    0  0.27404795473E+02 -0.20182024109E+02 -0.36185700393E+02  0.49676483259E+02  0.10566000000E+00 0. -1.
         23    2    1    0    0    0 -0.10136032535E+02  0.28666530197E+01 -0.28788257753E+02  0.94345136771E+02  0.89226028674E+02 0.  0.
         13    1    3    3    0    0 -0.37540828008E+02  0.23048677129E+02  0.73974426395E+01  0.44668653512E+02  0.10566000000E+00 0.  1.
         22    1    1    0    0    0  0.10136032535E+02 -0.28666530197E+01  0.28788257753E+02  0.30654863229E+02  0.00000000000E+00 0. -1.
</event>
<event>
 5    1  0.1267644E-004  0.9118800E+02  0.7818608E-02  0.1130116E+00
         25   -1    0    0    0    0  0.00000000000E+00  0.00000000000E+00  0.99999998245E-14  0.12500000000E+03  0.12500000000E+03 0.  0.
        -13    1    3    3    0    0 -0.30782390742E+02  0.43157902386E+02 -0.10232055842E+02  0.53989501284E+02  0.10566000000E+00 0.  1.
         23    2    1    0    0    0  0.13946001802E+01  0.27328268136E+02  0.10822584161E+02  0.95573694134E+02  0.90930872280E+02 0.  0.
         13    1    3    3    0    0  0.32176990922E+02 -0.15829634250E+02  0.21054640003E+02  0.41584192850E+02  0.10566000000E+00 0. -1.
         22    1    1    0    0    0 -0.13946001802E+01 -0.27328268136E+02 -0.10822584161E+02  0.29426305866E+02  0.00000000000E+00 0. -1.
</event>
<event>
 5    1  0.1267644E-004  0.9118800E+02  0.7818608E-02  0.1130116E+00
         25   -1    0    0    0    0  0.00000000000E+00  0.00000000000E+00  0.99999998245E-14  0.12500000000E+03  0.12500000000E+03 0.  0.
        -13    1    3    3    0    0 -0.47723379299E+01 -0.24382495720E+01  0.21225586008E+02  0.21891937687E+02  0.10566000000E+00 0. -1.
         23    2    1    0    0    0 -0.13907668848E+01 -0.33618708721E+01 -0.40810789429E+02  0.84027363496E+02  0.73361031031E+02 0.  0.
         13    1    3    3    0    0  0.33815710451E+01 -0.92362130015E+00 -0.62036375437E+02  0.62135425809E+02  0.10566000000E+00 0.  1.
         22    1    1    0    0    0  0.13907668848E+01  0.33618708721E+01  0.40810789429E+02  0.40972636504E+02  0.00000000000E+00 0.  1.
</event>
<event>
 5    1  0.1267644E-004  0.9118800E+02  0.7818608E-02  0.1130116E+00
         25   -1    0    0    0    0  0.00000000000E+00  0.00000000000E+00  0.99999998245E-14  0.12500000000E+03  0.12500000000E+03 0.  0.
        -13    1    3    3    0    0 -0.14657811924E+02  0.11258879784E+02 -0.54843846679E+02  0.57874627489E+02  0.10566000000E+00 0.  1.
         23    2    1    0    0    0 -0.99711599634E+01 -0.11560143316E+02 -0.24560741310E+02  0.96081304348E+02  0.91626012066E+02 0.  0.
         13    1    3    3    0    0  0.46866519610E+01 -0.22819023100E+02  0.30283105369E+02  0.38206676860E+02  0.10566000000E+00 0. -1.
         22    1    1    0    0    0  0.99711599634E+01  0.11560143316E+02  0.24560741310E+02  0.28918695652E+02  0.00000000000E+00 0.  1.
</event>
<event>
 5    1  0.1267644E-004  0.9118800E+02  0.7818608E-02  0.1130116E+00
         25   -1    0    0    0    0  0.00000000000E+00  0.00000000000E+00  0.99999998245E-14  0.12500000000E+03  0.12500000000E+03 0.  0.
        -13    1    3    3    0    0 -0.16487883834E+02 -0.82232768213E+01 -0.49380506887E+02  0.52705959999E+02  0.10566000000E+00 0. -1.
         23    2    1    0    0    0  0.72321902148E+01  0.14876300648E+02 -0.29083554290E+02  0.91541637422E+02  0.85208035745E+02 0.  0.
         13    1    3    3    0    0  0.23720074049E+02  0.23099577469E+02  0.20296952597E+02  0.38835677423E+02  0.10566000000E+00 0.  1.
         22    1    1    0    0    0 -0.72321902148E+01 -0.14876300648E+02  0.29083554290E+02  0.33458362578E+02  0.00000000000E+00 0. -1.
</event>
<event>
 5    1  0.1267644E-004  0.9118800E+02  0.7818608E-02  0.1130116E+00
         25   -1    0    0    0    0  0.00000000000E+00  0.00000000000E+00  0.99999998245E-14  0.12500000000E+03  0.12500000000E+03 0.  0.
        -13    1    3    3    0    0 -0.33112073568E+02  0.12786364903E+02  0.99656692941E+01  0.36867686013E+02  0.10566000000E+00 0.  1.
         23    2    1    0    0    0  0.56802116889E+01 -0.27081049757E+02 -0.94125976237E+01  0.95772529107E+02  0.91203795298E+02 0.  0.
         13    1    3    3    0    0  0.38792285257E+02 -0.39867414661E+02 -0.19378266918E+02  0.58904843094E+02  0.10566000000E+00 0. -1.
         22    1    1    0    0    0 -0.56802116889E+01  0.27081049757E+02  0.94125976237E+01  0.29227470893E+02  0.00000000000E+00 0. -1.
</event>
<event>
 5    1  0.1267644E-004  0.9118800E+02  0.7818608E-02  0.1130116E+00
         25   -1    0    0    0    0  0.00000000000E+00  0.00000000000E+00  0.99999998245E-14  0.12500000000E+03  0.12500000000E+03 0.  0.
        -13    1    3    3    0    0  0.50591180530E+02 -0.19832120807E+02  0.10688900316E+02  0.55380902098E+02  0.10566000000E+00 0.  1.
         23    2    1    0    0    0  0.17027361359E+02  0.22181620898E+01  0.21990114503E+02  0.97099885059E+02  0.93005221707E+02 0.  0.
         13    1    3    3    0    0 -0.33563819172E+02  0.22050282896E+02  0.11301214187E+02  0.41718982961E+02  0.10566000000E+00 0. -1.
         22    1    1    0    0    0 -0.17027361359E+02 -0.22181620898E+01 -0.21990114503E+02  0.27900114941E+02  0.00000000000E+00 0.  1.
</event>
<event>
 5    1  0.1267644E-004  0.9118800E+02  0.7818608E-02  0.1130116E+00
         25   -1    0    0    0    0  0.00000000000E+00  0.00000000000E+00  0.99999998245E-14  0.12500000000E+03  0.12500000000E+03 0.  0.
        -13    1    3    3    0    0  0.56493552431E+01  0.13665073043E+02  0.37428199216E+02  0.40243393204E+02  0.10566000000E+00 0. -1.
         23    2    1    0    0    0  0.33050191518E+02  0.27223973255E+02  0.10670131267E+02  0.80871646525E+02  0.67771023537E+02 0.  0.
         13    1    3    3    0    0  0.27400836275E+02  0.13558900212E+02 -0.26758067949E+02  0.40628253321E+02  0.10566000000E+00 0.  1.
         22    1    1    0    0    0 -0.33050191518E+02 -0.27223973255E+02 -0.10670131267E+02  0.44128353475E+02  0.00000000000E+00 0. -1.
</event>
<event>
 5    1  0.1267644E-004  0.9118800E+02  0.7818608E-02  0.1130116E+00
         25   -1    0    0    0    0  0.00000000000E+00  0.00000000000E+00  0.99999998245E-14  0.12500000000E+03  0.12500000000E+03 0.  0.
        -13    1    3    3    0    0  0.51308487835E+02  0.70234948698E+00  0.26843283117E+02  0.57910510542E+02  0.10566000000E+00 0.  1.
         23    2    1    0    0    0  0.28077818638E+02 -0.29651993365E+01  0.32346635787E+02  0.82064453499E+02  0.69936495300E+02 0.  0.
         13    1    3    3    0    0 -0.23230669197E+02 -0.36675488235E+01  0.55033526699E+01  0.24153942957E+02  0.10566000000E+00 0. -1.
         22    1    1    0    0    0 -0.28077818638E+02  0.29651993365E+01 -0.32346635787E+02  0.42935546501E+02  0.00000000000E+00 0.  1.
</event>
<event>
 5    1  0.1267644E-004  0.9118800E+02  0.7818608E-02  0.1130116E+00
         25   -1    0    0    0    0  0.00000000000E+00  0.00000000000E+00  0.99999998245E-14  0.12500000000E+03  0.12500000000E+03 0.  0.
        -13    1    3    3    0    0  0.10050836144E+02  0.24903910987E+02 -0.51037333517E+02  0.57671870666E+02  0.10566000000E+00 0.  1.
         23    2    1    0    0    0  0.96629621711E+01 -0.43074325253E+01 -0.28593871628E+02  0.94511702121E+02  0.89459071816E+02 0.  0.
         13    1    3    3    0    0 -0.38787397262E+00 -0.29211343513E+02  0.22443461888E+02  0.36839831455E+02  0.10566000000E+00 0. -1.
         22    1    1    0    0    0 -0.96629621711E+01  0.43074325253E+01  0.28593871628E+02  0.30488297879E+02  0.00000000000E+00 0.  1.
</event>
<event>
 5    1  0.1267644E-004  0.9118800E+02  0.7818608E-02  0.1130116E+00
         25   -1    0    0    0    0  0.00000000000E+00  0.00000000000E+00  0.99999998245E-14  0.12500000000E+03  0.12500000000E+03 0.  0.
        -13    1    3    3    0    0 -0.25869512868E+02 -0.46228272624E+02 -0.13720491039E+02  0.54722462703E+02  0.10566000000E+00 0.  1.
         23    2    1    0    0    0 -0.26313983095E+02 -0.20615234462E+02  0.10484959855E+02  0.89966473466E+02  0.82865061193E+02 0.  0.
         13    1    3    3    0    0 -0.44447022703E+00  0.25613038162E+02  0.24205450894E+02  0.35244010764E+02  0.10566000000E+00 0. -1.
         22    1    1    0    0    0  0.26313983095E+02  0.20615234462E+02 -0.10484959855E+02  0.35033526534E+02  0.00000000000E+00 0.  1.
</event>
<event>
 5    1  0.1267644E-004  0.9118800E+02  0.7818608E-02  0.1130116E+00
         25   -1    0    0    0    0  0.00000000000E+00  0.00000000000E+00  0.99999998245E-14  0.12500000000E+03  0.12500000000E+03 0.  0.
        -13    1    3    3    0    0 -0.35368352854E+02 -0.14068665567E+00 -0.34343917104E+01  0.35535142983E+02  0.10566000000E+00 0. -1.
         23    2    1    0    0    0  0.21961393290E+02  0.18824358568E+02 -0.29767030434E+01  0.95922172850E+02  0.91408660490E+02 0.  0.
         13    1    3    3    0    0  0.57329746144E+02  0.18965045224E+02  0.45768866696E+00  0.60387029868E+02  0.10566000000E+00 0.  1.
         22    1    1    0    0    0 -0.21961393290E+02 -0.18824358568E+02  0.29767030434E+01  0.29077827150E+02  0.00000000000E+00 0.  1.
</event>
<event>
 5    1  0.1267644E-004  0.9118800E+02  0.7818608E-02  0.1130116E+00
         25   -1    0    0    0    0  0.00000000000E+00  0.00000000000E+00  0.99999998245E-14  0.12500000000E+03  0.12500000000E+03 0.  0.
        -13    1    3    3    0    0  0.28689646672E+02 -0.36119820754E+02  0.25091594847E+02  0.52510347299E+02  0.10566000000E+00 0.  1.
         23    2    1    0    0    0  0.27286504921E+02  0.10988895511E+00 -0.18036300830E+01  0.97653729543E+02  0.93746639331E+02 0.  0.
         13    1    3    3    0    0 -0.14031417508E+01  0.36229709709E+02 -0.26895224930E+02  0.45143382244E+02  0.10566000000E+00 0. -1.
         22    1    1    0    0    0 -0.27286504921E+02 -0.10988895511E+00  0.18036300830E+01  0.27346270457E+02  0.00000000000E+00 0. -1.
</event>
<event>
 5    1  0.1267644E-004  0.9118800E+02  0.7818608E-02  0.1130116E+00
         25   -1    0    0    0    0  0.00000000000E+00  0.00000000000E+00  0.99999998245E-14  0.12500000000E+03  0.12500000000E+03 0.  0.
        -13    1    3    3    0    0  0.44331601777E+02  0.34526645579E+02 -0.73601771978E+01  0.56670658576E+02  0.10566000000E+00 0. -1.
         23    2    1    0    0    0  0.14045904902E+02  0.12216346574E+02 -0.21231882942E+02  0.96763154897E+02  0.92551546309E+02 0.  0.
         13    1    3    3    0    0 -0.30285696875E+02 -0.22310299006E+02 -0.13871705744E+02  0.40092496321E+02  0.10566000000E+00 0.  1.
         22    1    1    0    0    0 -0.14045904902E+02 -0.12216346574E+02  0.21231882942E+02  0.28236845103E+02  0.00000000000E+00 0. -1.
</event>
<event>
 5    1  0.1267644E-004  0.9118800E+02  0.7818608E-02  0.1130116E+00
         25   -1    0    0    0    0  0.00000000000E+00  0.00000000000E+00  0.99999998245E-14  0.12500000000E+03  0.12500000000E+03 0.  0.
        -13    1    3    3    0    0  0.22312593544E+02 -0.42256795277E+02 -0.31591386322E+02  0.57284513017E+02  0.10566000000E+00 0.  1.
         23    2    1    0    0    0  0.24112362500E+02 -0.80536699793E+01 -0.16358291047E+02  0.94769860876E+02  0.89819069351E+02 0.  0.
         13    1    3    3    0    0  0.17997689562E+01  0.34203125298E+02  0.15233095275E+02  0.37485347859E+02  0.10566000000E+00 0. -1.
         22    1    1    0    0    0 -0.24112362500E+02  0.80536699793E+01  0.16358291047E+02  0.30230139124E+02  0.00000000000E+00 0. -1.
</event>
<event>
 5    1  0.1267644E-004  0.9118800E+02  0.7818608E-02  0.1130116E+00
         25   -1    0    0    0    0  0.00000000000E+00  0.00000000000E+00  0.99999998245E-14  0.12500000000E+03  0.12500000000E+03 0.  0.
        -13    1    3    3    0    0 -0.19990751861E+02  0.53534437823E+02 -0.22950852030E+02  0.61581807102E+02  0.10566000000E+00 0. -1.
         23    2    1    0    0    0 -0.13738394931E+02  0.27234200425E+02 -0.48548803545E+01  0.94112866249E+02  0.88900036909E+02 0.  0.
         13    1    3    3    0    0  0.62523569295E+01 -0.26300237398E+02  0.18095971675E+02  0.32531059148E+02  0.10566000000E+00 0.  1.
         22    1    1    0    0    0  0.13738394931E+02 -0.27234200425E+02  0.48548803545E+01  0.30887133751E+02  0.00000000000E+00 0. -1.
</event>
<event>
 5    1  0.1267644E-004  0.9118800E+02  0.7818608E-02  0.1130116E+00
         25   -1    0    0    0    0  0.00000000000E+00  0.00000000000E+00  0.99999998245E-14  0.12500000000E+03  0.12500000000E+03 0.  0.
        -13    1    3    3    0    0  0.54031876869E+02 -0.18936027834E+02 -0.97846856741E+01  0.58084146769E+02  0.10566000000E+00 0. -1.
         23    2    1    0    0    0  0.28417742721E+02  0.40326795461E+01 -0.14555751989E+02  0.92817698628E+02  0.87059891207E+02 0.  0.
         13    1    3    3    0    0 -0.25614134149E+02  0.22968707380E+02 -0.47710663148E+01  0.34733551858E+02  0.10566000000E+00 0.  1.
         22    1    1    0    0    0 -0.28417742721E+02 -0.40326795461E+01  0.14555751989E+02  0.32182301372E+02  0.00000000000E+00 0. -1.
</event>
<event>
 5    1  0.1267644E-004  0.9118800E+02  0.7818608E-02  0.1130116E+00
         25   -1    0    0    0    0  0.00000000000E+00  0.00000000000E+00  0.99999998245E-14  0.12500000000E+03  0.12500000000E+03 0.  0.
        -13    1    3    3    0    0  0.40886834308E+02  0.60780077636E+01 -0.74123382946E+01  0.41995586924E+02  0.10566000000E+00 0. -1.
         23    2    1    0    0    0 -0.20587424649E+01  0.12437354887E+02  0.25552672204E+02  0.96506750381E+02  0.92204596388E+02 0.  0.
         13    1    3    3    0    0 -0.42945576773E+02  0.63593471235E+01  0.32965010498E+02  0.54511163456E+02  0.10566000000E+00 0.  1.
         22    1    1    0    0    0  0.20587424649E+01 -0.12437354887E+02 -0.25552672204E+02  0.28493249619E+02  0.00000000000E+00 0.  1.
</event>
<event>
 5    1  0.1267644E-004  0.9118800E+02  0.7818608E-02  0.1130116E+00
         25   -1    0    0    0    0  0.00000000000E+00  0.00000000000E+00  0.99999998245E-14  0.12500000000E+03  0.12500000000E+03 0.  0.
        -13    1    3    3    0    0  0.28589017171E+02 -0.42967225057E+02  0.60267226900E+01  0.51960050831E+02  0.10566000000E+00 0. -1.
         23    2    1    0    0    0  0.12547768383E+02 -0.85382998283E+01  0.26015248722E+02  0.94881198207E+02  0.89973882609E+02 0.  0.
         13    1    3    3    0    0 -0.16041248788E+02  0.34428925229E+02  0.19988526032E+02  0.42921147376E+02  0.10566000000E+00 0.  1.
         22    1    1    0    0    0 -0.12547768383E+02  0.85382998283E+01 -0.26015248722E+02  0.30118801793E+02  0.00000000000E+00 0.  1.
</event>
<event>
 5    1  0.1267644E-004  0.9118800E+02  0.7818608E-02  0.1130116E+00
         25   -1    0    0    0    0  0.00000000000E+00  0.00000000000E+00  0.99999998245E-14  0.12500000000E+03  0.12500000000E+03 0.  0.
        -13    1    3    3    0    0 -0.50609108295E+02  0.10636741969E+02  0.78928786126E+01  0.52313772746E+02  0.10566000000E+00 0. -1.
         23    2    1    0    0    0 -0.23458274630E+02  0.73911758089E+01  0.29085755041E+02  0.86909301991E+02  0.78117382815E+02 0.  0.
         13    1    3    3    0    0  0.27150833665E+02 -0.32455661596E+01  0.21192876429E+02  0.34595529245E+02  0.10566000000E+00 0.  1.
         22    1    1    0    0    0  0.23458274630E+02 -0.73911758089E+01 -0.29085755041E+02  0.38090698009E+02  0.00000000000E+00 0. -1.
</event>
<event>
 5    1  0.1267644E-004  0.9118800E+02  0.7818608E-02  0.1130116E+00
         25   -1    0    0    0    0  0.00000000000E+00  0.00000000000E+00  0.99999998245E-14  0.12500000000E+03  0.12500000000E+03 0.  0.
        -13    1    3    3    0    0  0.20972870863E+02  0.26790976099E+02 -0.15537974480E+02  0.37403977430E+02  0.10566000000E+00 0. -1.
         23    2    1    0    0    0  0.16875394164E+01 -0.76538918478E+01  0.27852923583E+02  0.96065328724E+02  0.91604214865E+02 0.  0.
         13    1    3    3    0    0 -0.19285331447E+02 -0.34444867947E+02  0.43390898063E+02  0.58661351294E+02  0.10566000000E+00 0.  1.
         22    1    1    0    0    0 -0.16875394164E+01  0.76538918478E+01 -0.27852923583E+02  0.28934671276E+02  0.00000000000E+00 0.  1.
</event>
<event>
 5    1  0.1267644E-004  0.9118800E+02  0.7818608E-02  0.1130116E+00
         25   -1    0    0    0    0  0.00000000000E+00  0.00000000000E+00  0.99999998245E-14  0.12500000000E+03  0.12500000000E+03 0.  0.
        -13    1    3    3    0    0  0.90883612144E+01  0.22194470768E+02  0.23937718979E+02  0.33885371419E+02  0.10566000000E+00 0.  1.
         23    2    1    0    0    0  0.41789735006E+01 -0.23326004053E+02 -0.17423959220E+02  0.95586386833E+02  0.90948318887E+02 0.  0.
         13    1    3    3    0    0 -0.49093877138E+01 -0.45520474822E+02 -0.41361678199E+02  0.61701015414E+02  0.10566000000E+00 0. -1.
         22    1    1    0    0    0 -0.41789735006E+01  0.23326004053E+02  0.17423959220E+02  0.29413613167E+02  0.00000000000E+00 0. -1.
</event>
<event>
 5    1  0.1267644E-004  0.9118800E+02  0.7818608E-02  0.1130116E+00
         25   -1    0    0    0    0  0.00000000000E+00  0.00000000000E+00  0.99999998245E-14  0.12500000000E+03  0.12500000000E+03 0.  0.
        -13    1    3    3    0    0 -0.22708768988E+02 -0.97709586265E+01  0.19483649944E+02  0.31476715213E+02  0.10566000000E+00 0. -1.
         23    2    1    0    0    0  0.21434603994E+02 -0.94098418607E+00 -0.23120350804E+02  0.93458308211E+02  0.87974866029E+02 0.  0.
         13    1    3    3    0    0  0.44143372982E+02  0.88299744405E+01 -0.42604000748E+02  0.61981592998E+02  0.10566000000E+00 0.  1.
         22    1    1    0    0    0 -0.21434603994E+02  0.94098418607E+00  0.23120350804E+02  0.31541691789E+02  0.00000000000E+00 0.  1.
</event>
<event>
 5    1  0.1267644E-004  0.9118800E+02  0.7818608E-02  0.1130116E+00
         25   -1    0    0    0    0  0.00000000000E+00  0.00000000000E+00  0.99999998245E-14  0.12500000000E+03  0.12500000000E+03 0.  0.
        -13    1    3    3    0    0  0.11125021274E+02  0.10663234729E+02  0.38103857980E+02  0.41102138998E+02  0.10566000000E+00 0. -1.
         23    2    1    0    0    0  0.23782610396E+02  0.96693939765E+01 -0.14703503224E+02  0.95414484217E+02  0.90711747057E+02 0.  0.
         13    1    3    3    0    0  0.12657589122E+02 -0.99384075282E+00 -0.52807361203E+02  0.54312345219E+02  0.10566000000E+00 0.  1.
         22    1    1    0    0    0 -0.23782610396E+02 -0.96693939765E+01  0.14703503224E+02  0.29585515783E+02  0.00000000000E+00 0.  1.
</event>
<event>
 5    1  0.1267644E-004  0.9118800E+02  0.7818608E-02  0.1130116E+00
         25   -1    0    0    0    0  0.00000000000E+00  0.00000000000E+00  0.99999998245E-14  0.12500000000E+03  0.12500000000E+03 0.  0.
        -13    1    3    3    0    0  0.15118526601E+02  0.25590300817E+02 -0.35343693895E+02  0.46180311872E+02  0.10566000000E+00 0. -1.
         23    2    1    0    0    0 -0.22067791488E+02 -0.31334816102E+01 -0.48701912458E+01  0.10218498541E+03  0.99605453423E+02 0.  0.
         13    1    3    3    0    0 -0.37186318089E+02 -0.28723782427E+02  0.30473502649E+02  0.56004673534E+02  0.10566000000E+00 0.  1.
         22    1    1    0    0    0  0.22067791488E+02  0.31334816102E+01  0.48701912458E+01  0.22815014594E+02  0.00000000000E+00 0.  1.
</event>
<event>
 5    1  0.1267644E-004  0.9118800E+02  0.7818608E-02  0.1130116E+00
         25   -1    0    0    0    0  0.00000000000E+00  0.00000000000E+00  0.99999998245E-14  0.12500000000E+03  0.12500000000E+03 0.  0.
        -13    1    3    3    0    0 -0.77666576253E+01 -0.39887117245E+02 -0.34042699004E+02  0.53011504527E+02  0.10566000000E+00 0. -1.
         23    2    1    0    0    0 -0.26042733098E+02 -0.90844120547E+01 -0.13675304496E+02  0.94214216875E+02  0.89042429317E+02 0.  0.
         13    1    3    3    0    0 -0.18276075472E+02  0.30802705190E+02  0.20367394508E+02  0.41202712347E+02  0.10566000000E+00 0.  1.
         22    1    1    0    0    0  0.26042733098E+02  0.90844120547E+01  0.13675304496E+02  0.30785783125E+02  0.00000000000E+00 0.  1.
</event>
<event>
 5    1  0.1267644E-004  0.9118800E+02  0.7818608E-02  0.1130116E+00
         25   -1    0    0    0    0  0.00000000000E+00  0.00000000000E+00  0.99999998245E-14  0.12500000000E+03  0.12500000000E+03 0.  0.
        -13    1    3    3    0    0 -0.34594749916E+02  0.15293604785E+02 -0.21123156301E+02  0.43323088132E+02  0.10566000000E+00 0.  1.
         23    2    1    0    0    0  0.11824381311E+02 -0.10675632540E+02 -0.23549634858E+02  0.96568144178E+02  0.92287789249E+02 0.  0.
         13    1    3    3    0    0  0.46419131227E+02 -0.25969237325E+02 -0.24264785574E+01  0.53245056046E+02  0.10566000000E+00 0. -1.
         22    1    1    0    0    0 -0.11824381311E+02  0.10675632540E+02  0.23549634858E+02  0.28431855822E+02  0.00000000000E+00 0. -1.
</event>
<event>
 5    1  0.1267644E-004  0.9118800E+02  0.7818608E-02  0.1130116E+00
         25   -1    0    0    0    0  0.00000000000E+00  0.00000000000E+00  0.99999998245E-14  0.12500000000E+03  0.12500000000E+03 0.  0.
        -13    1    3    3    0    0 -0.34030299451E+01 -0.21658313281E+01 -0.35993321027E+02  0.36218803967E+02  0.10566000000E+00 0.  1.
         23    2    1    0    0    0 -0.91325460801E+01  0.16593844655E+02  0.21134249387E+02  0.96620155471E+02  0.92358209531E+02 0.  0.
         13    1    3    3    0    0 -0.57295161351E+01  0.18759675983E+02  0.57127570414E+02  0.60401351505E+02  0.10566000000E+00 0. -1.
         22    1    1    0    0    0  0.91325460801E+01 -0.16593844655E+02 -0.21134249387E+02  0.28379844529E+02  0.00000000000E+00 0. -1.
</event>
<event>
 5    1  0.1267644E-004  0.9118800E+02  0.7818608E-02  0.1130116E+00
         25   -1    0    0    0    0  0.00000000000E+00  0.00000000000E+00  0.99999998245E-14  0.12500000000E+03  0.12500000000E+03 0.  0.
        -13    1    3    3    0    0  0.40012280913E+02 -0.21607084003E+02  0.28962046277E+02  0.53913449079E+02  0.10566000000E+00 0. -1.
         23    2    1    0    0    0  0.23889834457E+02  0.12227521145E+02  0.73641505276E+01  0.97170749620E+02  0.93100415708E+02 0.  0.
         13    1    3    3    0    0 -0.16122446456E+02  0.33834605148E+02 -0.21597895750E+02  0.43257300541E+02  0.10566000000E+00 0.  1.
         22    1    1    0    0    0 -0.23889834457E+02 -0.12227521145E+02 -0.73641505276E+01  0.27829250380E+02  0.00000000000E+00 0. -1.
</event>
<event>
 5    1  0.1267644E-004  0.9118800E+02  0.7818608E-02  0.1130116E+00
         25   -1    0    0    0    0  0.00000000000E+00  0.00000000000E+00  0.99999998245E-14  0.12500000000E+03  0.12500000000E+03 0.  0.
        -13    1    3    3    0    0  0.30466604155E+02 -0.18842132098E+02  0.43855183617E+02  0.56626214820E+02  0.10566000000E+00 0.  1.
         23    2    1    0    0    0  0.28188822702E+02  0.20401108596E+00  0.10862477971E+02  0.94789988853E+02  0.89847076820E+02 0.  0.
         13    1    3    3    0    0 -0.22777814525E+01  0.19046143184E+02 -0.32992705646E+02  0.38163774033E+02  0.10566000000E+00 0. -1.
         22    1    1    0    0    0 -0.28188822702E+02 -0.20401108596E+00 -0.10862477971E+02  0.30210011147E+02  0.00000000000E+00 0.  1.
</event>
<event>
 5    1  0.1267644E-004  0.9118800E+02  0.7818608E-02  0.1130116E+00
         25   -1    0    0    0    0  0.00000000000E+00  0.00000000000E+00  0.99999998245E-14  0.12500000000E+03  0.12500000000E+03 0.  0.
        -13    1    3    3    0    0  0.39995208208E+02  0.90923931207E+01  0.46858382792E+02  0.62273650079E+02  0.10566000000E+00 0. -1.
         23    2    1    0    0    0  0.21639942437E+02  0.46192413603E+01  0.19594164284E+02  0.95444023050E+02  0.90752442185E+02 0.  0.
         13    1    3    3    0    0 -0.18355265770E+02 -0.44731517604E+01 -0.27264218508E+02  0.33170372971E+02  0.10566000000E+00 0.  1.
         22    1    1    0    0    0 -0.21639942437E+02 -0.46192413603E+01 -0.19594164284E+02  0.29555976950E+02  0.00000000000E+00 0. -1.
</event>
<event>
 5    1  0.1267644E-004  0.9118800E+02  0.7818608E-02  0.1130116E+00
         25   -1    0    0    0    0  0.00000000000E+00  0.00000000000E+00  0.99999998245E-14  0.12500000000E+03  0.12500000000E+03 0.  0.
        -13    1    3    3    0    0  0.15289875531E+02  0.29869371107E+02  0.16483184258E+02  0.37385373495E+02  0.10566000000E+00 0.  1.
         23    2    1    0    0    0 -0.21407292752E+02 -0.15258032303E+02  0.13047419427E+02  0.95651833337E+02  0.91038224578E+02 0.  0.
         13    1    3    3    0    0 -0.36697168283E+02 -0.45127403410E+02 -0.34357648309E+01  0.58266459842E+02  0.10566000000E+00 0. -1.
         22    1    1    0    0    0  0.21407292752E+02  0.15258032303E+02 -0.13047419427E+02  0.29348166663E+02  0.00000000000E+00 0. -1.
</event>
<event>
 5    1  0.1267644E-004  0.9118800E+02  0.7818608E-02  0.1130116E+00
         25   -1    0    0    0    0  0.00000000000E+00  0.00000000000E+00  0.99999998245E-14  0.12500000000E+03  0.12500000000E+03 0.  0.
        -13    1    3    3    0    0  0.31040643936E+02 -0.10327516992E+00  0.15412688366E+02  0.34656808400E+02  0.10566000000E+00 0. -1.
         23    2    1    0    0    0 -0.28097709820E+02  0.68080192383E+01  0.29170107645E+00  0.96087796476E+02  0.91634868467E+02 0.  0.
         13    1    3    3    0    0 -0.59138353756E+02  0.69112944082E+01 -0.15120987290E+02  0.61430988077E+02  0.10566000000E+00 0.  1.
         22    1    1    0    0    0  0.28097709820E+02 -0.68080192383E+01 -0.29170107645E+00  0.28912203524E+02  0.00000000000E+00 0.  1.
</event>
<event>
 5    1  0.1267644E-004  0.9118800E+02  0.7818608E-02  0.1130116E+00
         25   -1    0    0    0    0  0.00000000000E+00  0.00000000000E+00  0.99999998245E-14  0.12500000000E+03  0.12500000000E+03 0.  0.
        -13    1    3    3    0    0  0.55985006717E+02 -0.50502588990E+01  0.27419284520E+01  0.56279262857E+02  0.10566000000E+00 0.  1.
         23    2    1    0    0    0  0.23778668224E+02 -0.12126084957E+02 -0.15672189625E+02  0.94047059485E+02  0.88807459547E+02 0.  0.
         13    1    3    3    0    0 -0.32206338493E+02 -0.70758260577E+01 -0.18414118077E+02  0.37767796628E+02  0.10566000000E+00 0. -1.
         22    1    1    0    0    0 -0.23778668224E+02  0.12126084957E+02  0.15672189625E+02  0.30952940515E+02  0.00000000000E+00 0.  1.
</event>
<event>
 5    1  0.1267644E-004  0.9118800E+02  0.7818608E-02  0.1130116E+00
         25   -1    0    0    0    0  0.00000000000E+00  0.00000000000E+00  0.99999998245E-14  0.12500000000E+03  0.12500000000E+03 0.  0.
        -13    1    3    3    0    0  0.31997820183E+02  0.27239788379E+02  0.43236051925E+02  0.60292901054E+02  0.10566000000E+00 0.  1.
         23    2    1    0    0    0  0.19303434254E+02  0.19264021833E+02  0.11478489774E+02  0.95411474543E+02  0.90707599658E+02 0.  0.
         13    1    3    3    0    0 -0.12694385929E+02 -0.79757665456E+01 -0.31757562151E+02  0.35118573489E+02  0.10566000000E+00 0. -1.
         22    1    1    0    0    0 -0.19303434254E+02 -0.19264021833E+02 -0.11478489774E+02  0.29588525457E+02  0.00000000000E+00 0.  1.
</event>
<event>
 5    1  0.1267644E-004  0.9118800E+02  0.7818608E-02  0.1130116E+00
         25   -1    0    0    0    0  0.00000000000E+00  0.00000000000E+00  0.99999998245E-14  0.12500000000E+03  0.12500000000E+03 0.  0.
        -13    1    3    3    0    0  0.32253188052E+02 -0.37791373784E+02  0.65715309001E+01  0.50116387084E+02  0.10566000000E+00 0. -1.
         23    2    1    0    0    0  0.19041220880E+02 -0.49199936703E+01 -0.21899255040E+02  0.95566145315E+02  0.90920494547E+02 0.  0.
         13    1    3    3    0    0 -0.13211967172E+02  0.32871380113E+02 -0.28470785940E+02  0.45449758230E+02  0.10566000000E+00 0.  1.
         22    1    1    0    0    0 -0.19041220880E+02  0.49199936703E+01  0.21899255040E+02  0.29433854685E+02  0.00000000000E+00 0. -1.
</event>
<event>
 5    1  0.1267644E-004  0.9118800E+02  0.7818608E-02  0.1130116E+00
         25   -1    0    0    0    0  0.00000000000E+00  0.00000000000E+00  0.99999998245E-14  0.12500000000E+03  0.12500000000E+03 0.  0.
        -13    1    3    3    0    0 -0.33146550106E+02 -0.24668988694E+02  0.13927690254E+02  0.43603262572E+02  0.10566000000E+00 0. -1.
         23    2    1    0    0    0  0.12135408476E+02 -0.26247773950E+02 -0.94361905006E+01  0.94581987780E+02  0.89557227207E+02 0.  0.
         13    1    3    3    0    0  0.45281958582E+02 -0.15787852567E+01 -0.23363880754E+02  0.50978725208E+02  0.10566000000E+00 0.  1.
         22    1    1    0    0    0 -0.12135408476E+02  0.26247773950E+02  0.94361905006E+01  0.30418012220E+02  0.00000000000E+00 0.  1.
</event>
<event>
 5    1  0.1267644E-004  0.9118800E+02  0.7818608E-02  0.1130116E+00
         25   -1    0    0    0    0  0.00000000000E+00  0.00000000000E+00  0.99999998245E-14  0.12500000000E+03  0.12500000000E+03 0.  0.
        -13    1    3    3    0    0  0.57891604909E+01 -0.29448406462E+02  0.18634191445E+02  0.35326580321E+02  0.10566000000E+00 0.  1.
         23    2    1    0    0    0 -0.22223351298E+02  0.15439048787E+02 -0.10789044765E+02  0.95868486869E+02  0.91335216195E+02 0.  0.
         13    1    3    3    0    0 -0.28012511789E+02  0.44887455248E+02 -0.29423236210E+02  0.60541906548E+02  0.10566000000E+00 0. -1.
         22    1    1    0    0    0  0.22223351298E+02 -0.15439048787E+02  0.10789044765E+02  0.29131513131E+02  0.00000000000E+00 0. -1.
</event>
<event>
 5    1  0.1267644E-004  0.9118800E+02  0.7818608E-02  0.1130116E+00
         25   -1    0    0    0    0  0.00000000000E+00  0.00000000000E+00  0.99999998245E-14  0.12500000000E+03  0.12500000000E+03 0.  0.
        -13    1    3    3    0    0  0.18514138654E+02 -0.31357879623E+02  0.45548528115E+02  0.58316117173E+02  0.10566000000E+00 0.  1.
         23    2    1    0    0    0 -0.70638509180E+01 -0.19033484787E+02  0.19637333100E+02  0.96754710407E+02  0.92540140489E+02 0.  0.
         13    1    3    3    0    0 -0.25577989572E+02  0.12324394837E+02 -0.25911195015E+02  0.38438593234E+02  0.10566000000E+00 0. -1.
         22    1    1    0    0    0  0.70638509180E+01  0.19033484787E+02 -0.19637333100E+02  0.28245289593E+02  0.00000000000E+00 0.  1.
</event>
<event>
 5    1  0.1267644E-004  0.9118800E+02  0.7818608E-02  0.1130116E+00
         25   -1    0    0    0    0  0.00000000000E+00  0.00000000000E+00  0.99999998245E-14  0.12500000000E+03  0.12500000000E+03 0.  0.
        -13    1    3    3    0    0 -0.36228244120E+02 -0.42681975823E+01  0.31843032459E+02  0.48422030760E+02  0.10566000000E+00 0. -1.
         23    2    1    0    0    0  0.83397480246E+01  0.65858362325E+01  0.28694812363E+02  0.94400704378E+02  0.89303841432E+02 0.  0.
         13    1    3    3    0    0  0.44567992145E+02  0.10854033815E+02 -0.31482200962E+01  0.45978673618E+02  0.10566000000E+00 0.  1.
         22    1    1    0    0    0 -0.83397480246E+01 -0.65858362325E+01 -0.28694812363E+02  0.30599295622E+02  0.00000000000E+00 0. -1.
</event>
<event>
 5    1  0.1267644E-004  0.9118800E+02  0.7818608E-02  0.1130116E+00
         25   -1    0    0    0    0  0.00000000000E+00  0.00000000000E+00  0.99999998245E-14  0.12500000000E+03  0.12500000000E+03 0.  0.
        -13    1    3    3    0    0  0.31090074773E+02 -0.12507627656E+02 -0.28657988398E+02  0.44094500361E+02  0.10566000000E+00 0. -1.
         23    2    1    0    0    0  0.14180411503E+02  0.19784556294E+02  0.11284632774E+02  0.98169873742E+02  0.94432348459E+02 0.  0.
         13    1    3    3    0    0 -0.16909663270E+02  0.32292183950E+02  0.39942621173E+02  0.54075373382E+02  0.10566000000E+00 0.  1.
         22    1    1    0    0    0 -0.14180411503E+02 -0.19784556294E+02 -0.11284632774E+02  0.26830126258E+02  0.00000000000E+00 0.  1.
</event>
<event>
 5    1  0.1267644E-004  0.9118800E+02  0.7818608E-02  0.1130116E+00
         25   -1    0    0    0    0  0.00000000000E+00  0.00000000000E+00  0.99999998245E-14  0.12500000000E+03  0.12500000000E+03 0.  0.
        -13    1    3    3    0    0  0.36334732553E+02  0.55706798675E+01  0.70964655381E+01  0.37438165701E+02  0.10566000000E+00 0.  1.
         23    2    1    0    0    0 -0.10746689801E+02 -0.23091574696E+02 -0.13369012139E+02  0.96234697130E+02  0.91835038425E+02 0.  0.
         13    1    3    3    0    0 -0.47081422354E+02 -0.28662254563E+02 -0.20465477677E+02  0.58796531429E+02  0.10566000000E+00 0. -1.
         22    1    1    0    0    0  0.10746689801E+02  0.23091574696E+02  0.13369012139E+02  0.28765302870E+02  0.00000000000E+00 0. -1.
</event>
<event>
 5    1  0.1267644E-004  0.9118800E+02  0.7818608E-02  0.1130116E+00
         25   -1    0    0    0    0  0.00000000000E+00  0.00000000000E+00  0.99999998245E-14  0.12500000000E+03  0.12500000000E+03 0.  0.
        -13    1    3    3    0    0 -0.18924444726E+02  0.30978222965E+02 -0.50872069466E+02  0.62496108055E+02  0.10566000000E+00 0. -1.
         23    2    1    0    0    0 -0.85734289701E+01  0.14941139629E+02 -0.23910688182E+02  0.95530314778E+02  0.90871220387E+02 0.  0.
         13    1    3    3    0    0  0.10351015756E+02 -0.16037083336E+02  0.26961381284E+02  0.33034206724E+02  0.10566000000E+00 0.  1.
         22    1    1    0    0    0  0.85734289701E+01 -0.14941139629E+02  0.23910688182E+02  0.29469685222E+02  0.00000000000E+00 0. -1.
</event>
<event>
 5    1  0.1267644E-004  0.9118800E+02  0.7818608E-02  0.1130116E+00
         25   -1    0    0    0    0  0.00000000000E+00  0.00000000000E+00  0.99999998245E-14  0.12500000000E+03  0.12500000000E+03 0.  0.
        -13    1    3    3    0    0 -0.48364415503E+02  0.36378209522E+02 -0.11020190739E+02  0.61513791811E+02  0.10566000000E+00 0. -1.
         23    2    1    0    0    0 -0.19122886157E+02  0.22366437926E+02 -0.61897340631E+00  0.95566592984E+02  0.90921110014E+02 0.  0.
         13    1    3    3    0    0  0.29241529346E+02 -0.14011771596E+02  0.10401217333E+02  0.34052801174E+02  0.10566000000E+00 0.  1.
         22    1    1    0    0    0  0.19122886157E+02 -0.22366437926E+02  0.61897340631E+00  0.29433407016E+02  0.00000000000E+00 0. -1.
</event>
<event>
 4    1  0.1267644E-004  0.9118800E+02  0.7818608E-02  0.1130116E+00
         25   -1    0    0    0    0  0.00000000000E+00  0.00000000000E+00  0.99999998245E-14  0.12500000000E+03  0.12500000000E+03 0.  0.
        -13    1    1    0    0    0 -0.40505533560E+02  0.40920571660E+02  0.10073790655E+01  0.57586607910E+02  0.10566000000E+00 0. -1.
         13    1    1    0    0    0  0.32475699407E+01 -0.29379914172E+01  0.11886283482E+02  0.12667809721E+02  0.10566000000E+00 0.  1.
         22    1    1    0    0    0  0.37257963619E+02 -0.37982580243E+02 -0.12893662547E+02  0.54745582369E+02  0.00000000000E+00 0. -1.
</event>
<event>
 5    1  0.1267644E-004  0.9118800E+02  0.7818608E-02  0.1130116E+00
         25   -1    0    0    0    0  0.00000000000E+00  0.00000000000E+00  0.99999998245E-14  0.12500000000E+03  0.12500000000E+03 0.  0.
        -13    1    3    3    0    0 -0.27711259661E+02  0.50396411929E+01  0.25872679434E+02  0.38245504318E+02  0.10566000000E+00 0. -1.
         23    2    1    0    0    0  0.39449327800E+01  0.25852686314E+02 -0.15704748474E+02  0.94494869138E+02  0.89435548214E+02 0.  0.
         13    1    3    3    0    0  0.31656192441E+02  0.20813045121E+02 -0.41577427909E+02  0.56249364820E+02  0.10566000000E+00 0.  1.
         22    1    1    0    0    0 -0.39449327800E+01 -0.25852686314E+02  0.15704748474E+02  0.30505130862E+02  0.00000000000E+00 0.  1.
</event>
<event>
 5    1  0.1267644E-004  0.9118800E+02  0.7818608E-02  0.1130116E+00
         25   -1    0    0    0    0  0.00000000000E+00  0.00000000000E+00  0.99999998245E-14  0.12500000000E+03  0.12500000000E+03 0.  0.
        -13    1    3    3    0    0  0.17207679608E+02 -0.95978348130E+01  0.23649360134E+02  0.30781911399E+02  0.10566000000E+00 0.  1.
         23    2    1    0    0    0 -0.96754250078E+01  0.12684685445E+02 -0.27792005963E+02  0.92954552751E+02  0.87256164183E+02 0.  0.
         13    1    3    3    0    0 -0.26883104616E+02  0.22282520258E+02 -0.51441366097E+02  0.62172641353E+02  0.10566000000E+00 0. -1.
         22    1    1    0    0    0  0.96754250078E+01 -0.12684685445E+02  0.27792005963E+02  0.32045447249E+02  0.00000000000E+00 0. -1.
</event>
<event>
 5    1  0.1267644E-004  0.9118800E+02  0.7818608E-02  0.1130116E+00
         25   -1    0    0    0    0  0.00000000000E+00  0.00000000000E+00  0.99999998245E-14  0.12500000000E+03  0.12500000000E+03 0.  0.
        -13    1    3    3    0    0  0.35516678619E+02 -0.43158988030E+01 -0.12271957853E+02  0.37824245612E+02  0.10566000000E+00 0.  1.
         23    2    1    0    0    0 -0.18293561479E+02 -0.20736740752E+02  0.54619448875E+01  0.96813129820E+02  0.92619017782E+02 0.  0.
         13    1    3    3    0    0 -0.53810240097E+02 -0.16420841949E+02  0.17733902740E+02  0.58988884208E+02  0.10566000000E+00 0. -1.
         22    1    1    0    0    0  0.18293561479E+02  0.20736740752E+02 -0.54619448875E+01  0.28186870180E+02  0.00000000000E+00 0. -1.
</event>
<event>
 5    1  0.1267644E-004  0.9118800E+02  0.7818608E-02  0.1130116E+00
         25   -1    0    0    0    0  0.00000000000E+00  0.00000000000E+00  0.99999998245E-14  0.12500000000E+03  0.12500000000E+03 0.  0.
        -13    1    3    3    0    0  0.53490593776E+01  0.83032805599E+00 -0.61264639154E+02  0.61503406862E+02  0.10566000000E+00 0.  1.
         23    2    1    0    0    0 -0.24335543321E+01 -0.57395715598E+01 -0.28996312660E+02  0.95341088755E+02  0.90610552304E+02 0.  0.
         13    1    3    3    0    0 -0.77826137097E+01 -0.65698996158E+01  0.32268326494E+02  0.33837681893E+02  0.10566000000E+00 0. -1.
         22    1    1    0    0    0  0.24335543321E+01  0.57395715598E+01  0.28996312660E+02  0.29658911245E+02  0.00000000000E+00 0.  1.
</event>
<event>
 5    1  0.1267644E-004  0.9118800E+02  0.7818608E-02  0.1130116E+00
         25   -1    0    0    0    0  0.00000000000E+00  0.00000000000E+00  0.99999998245E-14  0.12500000000E+03  0.12500000000E+03 0.  0.
        -13    1    3    3    0    0 -0.66793386031E+01  0.32828658818E+02 -0.68451702086E+01  0.34193594768E+02  0.10566000000E+00 0.  1.
         23    2    1    0    0    0  0.18563371021E+02 -0.20125766488E+02  0.10973283564E+02  0.95503251492E+02  0.90833985231E+02 0.  0.
         13    1    3    3    0    0  0.25242709624E+02 -0.52954425306E+02  0.17818453772E+02  0.61309656723E+02  0.10566000000E+00 0. -1.
         22    1    1    0    0    0 -0.18563371021E+02  0.20125766488E+02 -0.10973283564E+02  0.29496748508E+02  0.00000000000E+00 0. -1.
</event>
<event>
 5    1  0.1267644E-004  0.9118800E+02  0.7818608E-02  0.1130116E+00
         25   -1    0    0    0    0  0.00000000000E+00  0.00000000000E+00  0.99999998245E-14  0.12500000000E+03  0.12500000000E+03 0.  0.
        -13    1    3    3    0    0  0.15027864738E+02 -0.47082214850E+02 -0.21028530646E+02  0.53710166067E+02  0.10566000000E+00 0.  1.
         23    2    1    0    0    0  0.28070654998E+02 -0.13441500673E+02 -0.39546231640E+01  0.93626848154E+02  0.88214012711E+02 0.  0.
         13    1    3    3    0    0  0.13042790260E+02  0.33640714177E+02  0.17073907482E+02  0.39916682087E+02  0.10566000000E+00 0. -1.
         22    1    1    0    0    0 -0.28070654998E+02  0.13441500673E+02  0.39546231640E+01  0.31373151846E+02  0.00000000000E+00 0.  1.
</event>
<event>
 5    1  0.1267644E-004  0.9118800E+02  0.7818608E-02  0.1130116E+00
         25   -1    0    0    0    0  0.00000000000E+00  0.00000000000E+00  0.99999998245E-14  0.12500000000E+03  0.12500000000E+03 0.  0.
        -13    1    3    3    0    0  0.26861155957E+02  0.66313599615E+01  0.33128564321E+02  0.43162594596E+02  0.10566000000E+00 0. -1.
         23    2    1    0    0    0 -0.13880936774E+02 -0.21229144773E+02  0.13366644956E+02  0.96329035752E+02  0.91963356496E+02 0.  0.
         13    1    3    3    0    0 -0.40742092731E+02 -0.27860504735E+02 -0.19761919365E+02  0.53166441156E+02  0.10566000000E+00 0.  1.
         22    1    1    0    0    0  0.13880936774E+02  0.21229144773E+02 -0.13366644956E+02  0.28670964248E+02  0.00000000000E+00 0.  1.
</event>
<event>
 5    1  0.1267644E-004  0.9118800E+02  0.7818608E-02  0.1130116E+00
         25   -1    0    0    0    0  0.00000000000E+00  0.00000000000E+00  0.99999998245E-14  0.12500000000E+03  0.12500000000E+03 0.  0.
        -13    1    3    3    0    0 -0.22658645413E+02  0.89606330848E+01  0.27208080093E+02  0.36523936585E+02  0.10566000000E+00 0. -1.
         23    2    1    0    0    0  0.22283205859E+02 -0.19127445338E+02  0.10762914533E+01  0.95613628468E+02  0.90985752275E+02 0.  0.
         13    1    3    3    0    0  0.44941851272E+02 -0.28088078423E+02 -0.26131788640E+02  0.59089691883E+02  0.10566000000E+00 0.  1.
         22    1    1    0    0    0 -0.22283205859E+02  0.19127445338E+02 -0.10762914533E+01  0.29386371532E+02  0.00000000000E+00 0.  1.
</event>
<event>
 5    1  0.1267644E-004  0.9118800E+02  0.7818608E-02  0.1130116E+00
         25   -1    0    0    0    0  0.00000000000E+00  0.00000000000E+00  0.99999998245E-14  0.12500000000E+03  0.12500000000E+03 0.  0.
        -13    1    3    3    0    0  0.23716497301E+02 -0.17424312664E+02  0.13758884700E+02  0.32486874092E+02  0.10566000000E+00 0. -1.
         23    2    1    0    0    0 -0.18508701903E+02  0.81150716241E+01 -0.23267433032E+02  0.94181176637E+02  0.88996034514E+02 0.  0.
         13    1    3    3    0    0 -0.42225199204E+02  0.25539384288E+02 -0.37026317732E+02  0.61694302545E+02  0.10566000000E+00 0.  1.
         22    1    1    0    0    0  0.18508701903E+02 -0.81150716241E+01  0.23267433032E+02  0.30818823363E+02  0.00000000000E+00 0.  1.
</event>
<event>
 5    1  0.1267644E-004  0.9118800E+02  0.7818608E-02  0.1130116E+00
         25   -1    0    0    0    0  0.00000000000E+00  0.00000000000E+00  0.99999998245E-14  0.12500000000E+03  0.12500000000E+03 0.  0.
        -13    1    3    3    0    0 -0.24429935119E+02  0.38617658219E+02 -0.20897839663E+02  0.50248145467E+02  0.10566000000E+00 0. -1.
         23    2    1    0    0    0 -0.11786774988E+02 -0.40622832033E+01 -0.27079270793E+02  0.95188641156E+02  0.90400001598E+02 0.  0.
         13    1    3    3    0    0  0.12643160130E+02 -0.42679941423E+02 -0.61814311298E+01  0.44940495689E+02  0.10566000000E+00 0.  1.
         22    1    1    0    0    0  0.11786774988E+02  0.40622832033E+01  0.27079270793E+02  0.29811358844E+02  0.00000000000E+00 0.  1.
</event>
<event>
 5    1  0.1267644E-004  0.9118800E+02  0.7818608E-02  0.1130116E+00
         25   -1    0    0    0    0  0.00000000000E+00  0.00000000000E+00  0.99999998245E-14  0.12500000000E+03  0.12500000000E+03 0.  0.
        -13    1    3    3    0    0 -0.76597947630E+01  0.32019358060E+02  0.39082561080E+02  0.51101560553E+02  0.10566000000E+00 0.  1.
         23    2    1    0    0    0 -0.83896889524E+01 -0.82454766952E+01  0.30545001557E+02  0.92268182349E+02  0.86267291526E+02 0.  0.
         13    1    3    3    0    0 -0.72989418935E+00 -0.40264834755E+02 -0.85375595233E+01  0.41166621795E+02  0.10566000000E+00 0. -1.
         22    1    1    0    0    0  0.83896889524E+01  0.82454766952E+01 -0.30545001557E+02  0.32731817651E+02  0.00000000000E+00 0.  1.
</event>
<event>
 5    1  0.1267644E-004  0.9118800E+02  0.7818608E-02  0.1130116E+00
         25   -1    0    0    0    0  0.00000000000E+00  0.00000000000E+00  0.99999998245E-14  0.12500000000E+03  0.12500000000E+03 0.  0.
        -13    1    3    3    0    0 -0.47789248785E+02 -0.36703675503E+01 -0.36359892552E+02  0.60160924592E+02  0.10566000000E+00 0.  1.
         23    2    1    0    0    0 -0.20364405280E+02 -0.13627404397E+02 -0.16163129919E+02  0.95645921548E+02  0.91030107036E+02 0.  0.
         13    1    3    3    0    0  0.27424843505E+02 -0.99570368464E+01  0.20196762633E+02  0.35484996955E+02  0.10566000000E+00 0. -1.
         22    1    1    0    0    0  0.20364405280E+02  0.13627404397E+02  0.16163129919E+02  0.29354078452E+02  0.00000000000E+00 0.  1.
</event>
<event>
 5    1  0.1267644E-004  0.9118800E+02  0.7818608E-02  0.1130116E+00
         25   -1    0    0    0    0  0.00000000000E+00  0.00000000000E+00  0.99999998245E-14  0.12500000000E+03  0.12500000000E+03 0.  0.
        -13    1    3    3    0    0 -0.32819506240E+02  0.27543442125E+02 -0.43960200684E+02  0.61386249292E+02  0.10566000000E+00 0. -1.
         23    2    1    0    0    0 -0.86754774470E+01  0.17921118081E+02 -0.20925009537E+02  0.96115983549E+02  0.91673310660E+02 0.  0.
         13    1    3    3    0    0  0.24144028793E+02 -0.96223240440E+01  0.23035191147E+02  0.34729734257E+02  0.10566000000E+00 0.  1.
         22    1    1    0    0    0  0.86754774470E+01 -0.17921118081E+02  0.20925009537E+02  0.28884016451E+02  0.00000000000E+00 0. -1.
</event>
<event>
 5    1  0.1267644E-004  0.9118800E+02  0.7818608E-02  0.1130116E+00
         25   -1    0    0    0    0  0.00000000000E+00  0.00000000000E+00  0.99999998245E-14  0.12500000000E+03  0.12500000000E+03 0.  0.
        -13    1    3    3    0    0 -0.97922990789E+01 -0.44585594310E+02  0.31615769654E+01  0.45757743325E+02  0.10566000000E+00 0.  1.
         23    2    1    0    0    0  0.14498044755E+02 -0.24441623076E+02 -0.24314540518E+02  0.87599690898E+02  0.79214409828E+02 0.  0.
         13    1    3    3    0    0  0.24290343834E+02  0.20143971234E+02 -0.27476117484E+02  0.41841947573E+02  0.10566000000E+00 0. -1.
         22    1    1    0    0    0 -0.14498044755E+02  0.24441623076E+02  0.24314540518E+02  0.37400309102E+02  0.00000000000E+00 0.  1.
</event>
<event>
 5    1  0.1267644E-004  0.9118800E+02  0.7818608E-02  0.1130116E+00
         25   -1    0    0    0    0  0.00000000000E+00  0.00000000000E+00  0.99999998245E-14  0.12500000000E+03  0.12500000000E+03 0.  0.
        -13    1    3    3    0    0 -0.35589298907E+01 -0.45410989433E+02  0.42667079701E+02  0.62412457069E+02  0.10566000000E+00 0. -1.
         23    2    1    0    0    0 -0.25646852886E+01 -0.20591746129E+02  0.16528886275E+02  0.98470738782E+02  0.94829766927E+02 0.  0.
         13    1    3    3    0    0  0.99424460216E+00  0.24819243303E+02 -0.26138193425E+02  0.36058281713E+02  0.10566000000E+00 0.  1.
         22    1    1    0    0    0  0.25646852886E+01  0.20591746129E+02 -0.16528886275E+02  0.26529261218E+02  0.00000000000E+00 0. -1.
</event>
<event>
 5    1  0.1267644E-004  0.9118800E+02  0.7818608E-02  0.1130116E+00
         25   -1    0    0    0    0  0.00000000000E+00  0.00000000000E+00  0.99999998245E-14  0.12500000000E+03  0.12500000000E+03 0.  0.
        -13    1    3    3    0    0 -0.50745384678E+02 -0.14081704054E+02  0.23680635421E+02  0.57742290508E+02  0.10566000000E+00 0.  1.
         23    2    1    0    0    0 -0.20329113956E+02  0.10471721580E+02  0.14586619012E+02  0.97876222953E+02  0.94042839910E+02 0.  0.
         13    1    3    3    0    0  0.30416270722E+02  0.24553425634E+02 -0.90940164083E+01  0.40133932445E+02  0.10566000000E+00 0. -1.
         22    1    1    0    0    0  0.20329113956E+02 -0.10471721580E+02 -0.14586619012E+02  0.27123777047E+02  0.00000000000E+00 0.  1.
</event>
<event>
 5    1  0.1267644E-004  0.9118800E+02  0.7818608E-02  0.1130116E+00
         25   -1    0    0    0    0  0.00000000000E+00  0.00000000000E+00  0.99999998245E-14  0.12500000000E+03  0.12500000000E+03 0.  0.
        -13    1    3    3    0    0  0.17819573879E+02  0.43783134251E+02 -0.40430589883E+02  0.62202442238E+02  0.10566000000E+00 0.  1.
         23    2    1    0    0    0  0.41965960980E+01  0.21706737407E+02 -0.18782173406E+02  0.95990279120E+02  0.91501747416E+02 0.  0.
         13    1    3    3    0    0 -0.13622977781E+02 -0.22076396844E+02  0.21648416477E+02  0.33787836883E+02  0.10566000000E+00 0. -1.
         22    1    1    0    0    0 -0.41965960980E+01 -0.21706737407E+02  0.18782173406E+02  0.29009720880E+02  0.00000000000E+00 0.  1.
</event>
<event>
 5    1  0.1267644E-004  0.9118800E+02  0.7818608E-02  0.1130116E+00
         25   -1    0    0    0    0  0.00000000000E+00  0.00000000000E+00  0.99999998245E-14  0.12500000000E+03  0.12500000000E+03 0.  0.
        -13    1    3    3    0    0  0.13680343976E+02  0.41248619599E+02 -0.37310060439E+02  0.57276977959E+02  0.10566000000E+00 0.  1.
         23    2    1    0    0    0 -0.57916732385E+01  0.12755173644E+02 -0.29028339936E+02  0.92768300494E+02  0.86988936788E+02 0.  0.
         13    1    3    3    0    0 -0.19472017215E+02 -0.28493445954E+02  0.82817205023E+01  0.35491322535E+02  0.10566000000E+00 0. -1.
         22    1    1    0    0    0  0.57916732385E+01 -0.12755173644E+02  0.29028339936E+02  0.32231699506E+02  0.00000000000E+00 0.  1.
</event>
<event>
 5    1  0.1267644E-004  0.9118800E+02  0.7818608E-02  0.1130116E+00
         25   -1    0    0    0    0  0.00000000000E+00  0.00000000000E+00  0.99999998245E-14  0.12500000000E+03  0.12500000000E+03 0.  0.
        -13    1    3    3    0    0  0.42761895661E+02  0.40052080032E+02 -0.62735368532E+01  0.58924674493E+02  0.10566000000E+00 0.  1.
         23    2    1    0    0    0  0.18839515073E+02  0.22539219386E+02  0.11456073114E+02  0.93469295125E+02  0.87990475515E+02 0.  0.
         13    1    3    3    0    0 -0.23922380588E+02 -0.17512860646E+02  0.17729609967E+02  0.34544620632E+02  0.10566000000E+00 0. -1.
         22    1    1    0    0    0 -0.18839515073E+02 -0.22539219386E+02 -0.11456073114E+02  0.31530704875E+02  0.00000000000E+00 0.  1.
</event>
<event>
 5    1  0.1267644E-004  0.9118800E+02  0.7818608E-02  0.1130116E+00
         25   -1    0    0    0    0  0.00000000000E+00  0.00000000000E+00  0.99999998245E-14  0.12500000000E+03  0.12500000000E+03 0.  0.
        -13    1    3    3    0    0  0.34594350137E+02 -0.29213545627E+01  0.46417464371E+01  0.35026566316E+02  0.10566000000E+00 0.  1.
         23    2    1    0    0    0 -0.24713554504E+02  0.13175597873E+01  0.15957178778E+02  0.95552974775E+02  0.90902385523E+02 0.  0.
         13    1    3    3    0    0 -0.59307904642E+02  0.42389143501E+01  0.11315432341E+02  0.60526408459E+02  0.10566000000E+00 0. -1.
         22    1    1    0    0    0  0.24713554504E+02 -0.13175597873E+01 -0.15957178778E+02  0.29447025225E+02  0.00000000000E+00 0. -1.
</event>
<event>
 5    1  0.1267644E-004  0.9118800E+02  0.7818608E-02  0.1130116E+00
         25   -1    0    0    0    0  0.00000000000E+00  0.00000000000E+00  0.99999998245E-14  0.12500000000E+03  0.12500000000E+03 0.  0.
        -13    1    3    3    0    0 -0.33835601719E+02 -0.40422490635E+02 -0.22590214282E+01  0.52763055585E+02  0.10566000000E+00 0. -1.
         23    2    1    0    0    0  0.14240499309E+01 -0.16181536450E+02 -0.20129520462E+02  0.99133658277E+02  0.95699605900E+02 0.  0.
         13    1    3    3    0    0  0.35259651650E+02  0.24240954185E+02 -0.17870499034E+02  0.46370602692E+02  0.10566000000E+00 0.  1.
         22    1    1    0    0    0 -0.14240499309E+01  0.16181536450E+02  0.20129520462E+02  0.25866341723E+02  0.00000000000E+00 0. -1.
</event>
<event>
 5    1  0.1267644E-004  0.9118800E+02  0.7818608E-02  0.1130116E+00
         25   -1    0    0    0    0  0.00000000000E+00  0.00000000000E+00  0.99999998245E-14  0.12500000000E+03  0.12500000000E+03 0.  0.
        -13    1    3    3    0    0  0.40545559852E+02 -0.72046540641E+01 -0.96965725658E+01  0.42307022437E+02  0.10566000000E+00 0.  1.
         23    2    1    0    0    0  0.64914665794E+01  0.11063450010E+02  0.26690874545E+02  0.95386796045E+02  0.90673584970E+02 0.  0.
         13    1    3    3    0    0 -0.34054093272E+02  0.18268104074E+02  0.36387447111E+02  0.53079773609E+02  0.10566000000E+00 0. -1.
         22    1    1    0    0    0 -0.64914665794E+01 -0.11063450010E+02 -0.26690874545E+02  0.29613203955E+02  0.00000000000E+00 0. -1.
</event>
<event>
 5    1  0.1267644E-004  0.9118800E+02  0.7818608E-02  0.1130116E+00
         25   -1    0    0    0    0  0.00000000000E+00  0.00000000000E+00  0.99999998245E-14  0.12500000000E+03  0.12500000000E+03 0.  0.
        -13    1    3    3    0    0 -0.74364223885E+01  0.39089871799E+02 -0.39147298035E+02  0.55819714821E+02  0.10566000000E+00 0.  1.
         23    2    1    0    0    0  0.87475933640E+01  0.34174557950E+01 -0.26345500405E+02  0.97030645604E+02  0.92912116545E+02 0.  0.
         13    1    3    3    0    0  0.16184015752E+02 -0.35672416004E+02  0.12801797630E+02  0.41210930783E+02  0.10566000000E+00 0. -1.
         22    1    1    0    0    0 -0.87475933640E+01 -0.34174557950E+01  0.26345500405E+02  0.27969354396E+02  0.00000000000E+00 0.  1.
</event>
<event>
 5    1  0.1267644E-004  0.9118800E+02  0.7818608E-02  0.1130116E+00
         25   -1    0    0    0    0  0.00000000000E+00  0.00000000000E+00  0.99999998245E-14  0.12500000000E+03  0.12500000000E+03 0.  0.
        -13    1    3    3    0    0  0.54435840075E+02 -0.78358348970E+01  0.48745733049E+01  0.55212621946E+02  0.10566000000E+00 0. -1.
         23    2    1    0    0    0  0.23248106820E+02  0.10131980882E+02 -0.14186501507E+02  0.95941639201E+02  0.91435276563E+02 0.  0.
         13    1    3    3    0    0 -0.31187733255E+02  0.17967815779E+02 -0.19061074812E+02  0.40729017255E+02  0.10566000000E+00 0.  1.
         22    1    1    0    0    0 -0.23248106820E+02 -0.10131980882E+02  0.14186501507E+02  0.29058360799E+02  0.00000000000E+00 0. -1.
</event>
<event>
 5    1  0.1267644E-004  0.9118800E+02  0.7818608E-02  0.1130116E+00
         25   -1    0    0    0    0  0.00000000000E+00  0.00000000000E+00  0.99999998245E-14  0.12500000000E+03  0.12500000000E+03 0.  0.
        -13    1    3    3    0    0 -0.44103176359E+02  0.20467690661E+02  0.22228996756E+02  0.53461724502E+02  0.10566000000E+00 0.  1.
         23    2    1    0    0    0 -0.18699508109E+01  0.22845861294E+02  0.17770284727E+02  0.95996325861E+02  0.91510007459E+02 0.  0.
         13    1    3    3    0    0  0.42233225548E+02  0.23781706331E+01 -0.44587120290E+01  0.42534601359E+02  0.10566000000E+00 0. -1.
         22    1    1    0    0    0  0.18699508109E+01 -0.22845861294E+02 -0.17770284727E+02  0.29003674139E+02  0.00000000000E+00 0.  1.
</event>
<event>
 5    1  0.1267644E-004  0.9118800E+02  0.7818608E-02  0.1130116E+00
         25   -1    0    0    0    0  0.00000000000E+00  0.00000000000E+00  0.99999998245E-14  0.12500000000E+03  0.12500000000E+03 0.  0.
        -13    1    3    3    0    0  0.45511159093E+02 -0.39385072490E+00  0.35148116748E+02  0.57504973657E+02  0.10566000000E+00 0. -1.
         23    2    1    0    0    0  0.23254148669E+02  0.13249489704E+02  0.43399180739E+01  0.97886547681E+02  0.94056562346E+02 0.  0.
         13    1    3    3    0    0 -0.22257010423E+02  0.13643340429E+02 -0.30808198674E+02  0.40381574024E+02  0.10566000000E+00 0.  1.
         22    1    1    0    0    0 -0.23254148669E+02 -0.13249489704E+02 -0.43399180739E+01  0.27113452319E+02  0.00000000000E+00 0. -1.
</event>
<event>
 5    1  0.1267644E-004  0.9118800E+02  0.7818608E-02  0.1130116E+00
         25   -1    0    0    0    0  0.00000000000E+00  0.00000000000E+00  0.99999998245E-14  0.12500000000E+03  0.12500000000E+03 0.  0.
        -13    1    3    3    0    0 -0.70334357913E+01  0.34672900795E-01 -0.60486184122E+02  0.60893842504E+02  0.10566000000E+00 0.  1.
         23    2    1    0    0    0 -0.51347985527E+01 -0.96301380390E+01 -0.25000813112E+02  0.97720953625E+02  0.93836231842E+02 0.  0.
         13    1    3    3    0    0  0.18986372386E+01 -0.96648109398E+01  0.35485371009E+02  0.36827111122E+02  0.10566000000E+00 0. -1.
         22    1    1    0    0    0  0.51347985527E+01  0.96301380390E+01  0.25000813112E+02  0.27279046375E+02  0.00000000000E+00 0.  1.
</event>
<event>
 5    1  0.1267644E-004  0.9118800E+02  0.7818608E-02  0.1130116E+00
         25   -1    0    0    0    0  0.00000000000E+00  0.00000000000E+00  0.99999998245E-14  0.12500000000E+03  0.12500000000E+03 0.  0.
        -13    1    3    3    0    0  0.28874636050E+02 -0.78242455569E+01  0.22176261567E+02  0.37239242295E+02  0.10566000000E+00 0. -1.
         23    2    1    0    0    0 -0.24674754096E+02  0.12188264337E+02  0.10218417312E+02  0.95643342669E+02  0.91026565723E+02 0.  0.
         13    1    3    3    0    0 -0.53549390147E+02  0.20012509894E+02 -0.11957844255E+02  0.58404100375E+02  0.10566000000E+00 0.  1.
         22    1    1    0    0    0  0.24674754096E+02 -0.12188264337E+02 -0.10218417312E+02  0.29356657331E+02  0.00000000000E+00 0.  1.
</event>
<event>
 5    1  0.1267644E-004  0.9118800E+02  0.7818608E-02  0.1130116E+00
         25   -1    0    0    0    0  0.00000000000E+00  0.00000000000E+00  0.99999998245E-14  0.12500000000E+03  0.12500000000E+03 0.  0.
        -13    1    3    3    0    0  0.26705600277E+02  0.46120554508E+01  0.23085451379E+02  0.35600693407E+02  0.10566000000E+00 0.  1.
         23    2    1    0    0    0 -0.27948943688E+02 -0.92626684536E+01  0.32439021230E+01  0.95377991609E+02  0.90661446614E+02 0.  0.
         13    1    3    3    0    0 -0.54654543965E+02 -0.13874723904E+02 -0.19841549256E+02  0.59777298202E+02  0.10566000000E+00 0. -1.
         22    1    1    0    0    0  0.27948943688E+02  0.92626684536E+01 -0.32439021230E+01  0.29622008391E+02  0.00000000000E+00 0. -1.
</event>
<event>
 5    1  0.1267644E-004  0.9118800E+02  0.7818608E-02  0.1130116E+00
         25   -1    0    0    0    0  0.00000000000E+00  0.00000000000E+00  0.99999998245E-14  0.12500000000E+03  0.12500000000E+03 0.  0.
        -13    1    3    3    0    0 -0.63826914599E+01  0.40378731657E+02 -0.46383233944E+02  0.61827148371E+02  0.10566000000E+00 0. -1.
         23    2    1    0    0    0 -0.99062304728E+01  0.22787076793E+02 -0.29041561817E+02  0.86779631298E+02  0.77909613172E+02 0.  0.
         13    1    3    3    0    0 -0.35235390130E+01 -0.17591654864E+02  0.17341672128E+02  0.24952482928E+02  0.10566000000E+00 0.  1.
         22    1    1    0    0    0  0.99062304728E+01 -0.22787076793E+02  0.29041561817E+02  0.38220368702E+02  0.00000000000E+00 0. -1.
</event>
<event>
 5    1  0.1267644E-004  0.9118800E+02  0.7818608E-02  0.1130116E+00
         25   -1    0    0    0    0  0.00000000000E+00  0.00000000000E+00  0.99999998245E-14  0.12500000000E+03  0.12500000000E+03 0.  0.
        -13    1    3    3    0    0  0.27393041419E+01 -0.26396270005E+01  0.57880843159E+02  0.58005815112E+02  0.10566000000E+00 0. -1.
         23    2    1    0    0    0  0.10616371325E+02 -0.14814418081E+02  0.23963181654E+02  0.94893382818E+02  0.89990809000E+02 0.  0.
         13    1    3    3    0    0  0.78770671827E+01 -0.12174791080E+02 -0.33917661505E+02  0.36887567706E+02  0.10566000000E+00 0.  1.
         22    1    1    0    0    0 -0.10616371325E+02  0.14814418081E+02 -0.23963181654E+02  0.30106617182E+02  0.00000000000E+00 0. -1.
</event>
<event>
 5    1  0.1267644E-004  0.9118800E+02  0.7818608E-02  0.1130116E+00
         25   -1    0    0    0    0  0.00000000000E+00  0.00000000000E+00  0.99999998245E-14  0.12500000000E+03  0.12500000000E+03 0.  0.
        -13    1    3    3    0    0 -0.77328426908E+01  0.36986204543E+02  0.24183660956E+01  0.37863383911E+02  0.10566000000E+00 0.  1.
         23    2    1    0    0    0  0.12577576662E+02 -0.99789221519E+01 -0.24520898622E+02  0.95690465865E+02  0.91091253511E+02 0.  0.
         13    1    3    3    0    0  0.20310419353E+02 -0.46965126695E+02 -0.26939264717E+02  0.57827081954E+02  0.10566000000E+00 0. -1.
         22    1    1    0    0    0 -0.12577576662E+02  0.99789221519E+01  0.24520898622E+02  0.29309534135E+02  0.00000000000E+00 0. -1.
</event>
<event>
 5    1  0.1267644E-004  0.9118800E+02  0.7818608E-02  0.1130116E+00
         25   -1    0    0    0    0  0.00000000000E+00  0.00000000000E+00  0.99999998245E-14  0.12500000000E+03  0.12500000000E+03 0.  0.
        -13    1    3    3    0    0 -0.40712881344E+02 -0.18544183913E+02  0.76506861476E+01  0.45386888271E+02  0.10566000000E+00 0.  1.
         23    2    1    0    0    0 -0.16527392113E+01 -0.19352889699E+01 -0.25580608846E+02  0.99293105220E+02  0.95907644663E+02 0.  0.
         13    1    3    3    0    0  0.39060142133E+02  0.16608894943E+02 -0.33231294994E+02  0.53906216949E+02  0.10566000000E+00 0. -1.
         22    1    1    0    0    0  0.16527392113E+01  0.19352889699E+01  0.25580608846E+02  0.25706894780E+02  0.00000000000E+00 0. -1.
</event>
<event>
 5    1  0.1267644E-004  0.9118800E+02  0.7818608E-02  0.1130116E+00
         25   -1    0    0    0    0  0.00000000000E+00  0.00000000000E+00  0.99999998245E-14  0.12500000000E+03  0.12500000000E+03 0.  0.
        -13    1    3    3    0    0 -0.82376111415E+01 -0.26996642356E+02  0.85116258025E+01  0.29481110455E+02  0.10566000000E+00 0. -1.
         23    2    1    0    0    0 -0.12518307953E+01  0.33858363106E+02  0.26894959470E+01  0.91011925312E+02  0.84427373096E+02 0.  0.
         13    1    3    3    0    0  0.69857803462E+01  0.60855005462E+02 -0.58221298555E+01  0.61530814857E+02  0.10566000000E+00 0.  1.
         22    1    1    0    0    0  0.12518307953E+01 -0.33858363106E+02 -0.26894959470E+01  0.33988074688E+02  0.00000000000E+00 0.  1.
</event>
<event>
 5    1  0.1267644E-004  0.9118800E+02  0.7818608E-02  0.1130116E+00
         25   -1    0    0    0    0  0.00000000000E+00  0.00000000000E+00  0.99999998245E-14  0.12500000000E+03  0.12500000000E+03 0.  0.
        -13    1    3    3    0    0  0.27608185522E+02  0.34583549053E+02  0.13735206694E+02  0.46334661322E+02  0.10566000000E+00 0. -1.
         23    2    1    0    0    0  0.12429651767E+02  0.73243513019E+01 -0.25038309323E+02  0.96102607405E+02  0.91655069970E+02 0.  0.
         13    1    3    3    0    0 -0.15178533755E+02 -0.27259197751E+02 -0.38773516017E+02  0.49767946083E+02  0.10566000000E+00 0.  1.
         22    1    1    0    0    0 -0.12429651767E+02 -0.73243513019E+01  0.25038309323E+02  0.28897392595E+02  0.00000000000E+00 0. -1.
</event>
<event>
 5    1  0.1267644E-004  0.9118800E+02  0.7818608E-02  0.1130116E+00
         25   -1    0    0    0    0  0.00000000000E+00  0.00000000000E+00  0.99999998245E-14  0.12500000000E+03  0.12500000000E+03 0.  0.
        -13    1    3    3    0    0  0.53596875378E+02 -0.21451802200E+02  0.21662776127E+01  0.57771176123E+02  0.10566000000E+00 0. -1.
         23    2    1    0    0    0  0.27235307171E+02  0.52245307754E+01  0.88996056750E+01  0.95875085241E+02  0.91344246181E+02 0.  0.
         13    1    3    3    0    0 -0.26361568206E+02  0.26676332975E+02  0.67333280624E+01  0.38103909119E+02  0.10566000000E+00 0.  1.
         22    1    1    0    0    0 -0.27235307171E+02 -0.52245307754E+01 -0.88996056750E+01  0.29124914759E+02  0.00000000000E+00 0. -1.
</event>
<event>
 5    1  0.1267644E-004  0.9118800E+02  0.7818608E-02  0.1130116E+00
         25   -1    0    0    0    0  0.00000000000E+00  0.00000000000E+00  0.99999998245E-14  0.12500000000E+03  0.12500000000E+03 0.  0.
        -13    1    3    3    0    0  0.10688227733E+01 -0.42393161367E+02  0.21223056395E+02  0.47421005890E+02  0.10566000000E+00 0.  1.
         23    2    1    0    0    0  0.23518271657E+02  0.72019629184E+00  0.16508063430E+02  0.96257280180E+02  0.91865771891E+02 0.  0.
         13    1    3    3    0    0  0.22449448884E+02  0.43113357659E+02 -0.47149929654E+01  0.48836274290E+02  0.10566000000E+00 0. -1.
         22    1    1    0    0    0 -0.23518271657E+02 -0.72019629184E+00 -0.16508063430E+02  0.28742719820E+02  0.00000000000E+00 0.  1.
</event>
<event>
 5    1  0.1267644E-004  0.9118800E+02  0.7818608E-02  0.1130116E+00
         25   -1    0    0    0    0  0.00000000000E+00  0.00000000000E+00  0.99999998245E-14  0.12500000000E+03  0.12500000000E+03 0.  0.
        -13    1    3    3    0    0 -0.37759166456E+01 -0.12050104643E+02  0.36140706584E+02  0.38283474305E+02  0.10566000000E+00 0. -1.
         23    2    1    0    0    0  0.42646551805E+01  0.32282795836E+02  0.77876624723E+01  0.91518454672E+02  0.85174019912E+02 0.  0.
         13    1    3    3    0    0  0.80405718261E+01  0.44332900479E+02 -0.28353044112E+02  0.53234980367E+02  0.10566000000E+00 0.  1.
         22    1    1    0    0    0 -0.42646551805E+01 -0.32282795836E+02 -0.77876624723E+01  0.33481545328E+02  0.00000000000E+00 0.  1.
</event>
<event>
 5    1  0.1267644E-004  0.9118800E+02  0.7818608E-02  0.1130116E+00
         25   -1    0    0    0    0  0.00000000000E+00  0.00000000000E+00  0.99999998245E-14  0.12500000000E+03  0.12500000000E+03 0.  0.
        -13    1    3    3    0    0  0.34875479828E+02  0.22092740327E+02 -0.81918562987E+01  0.42089261600E+02  0.10566000000E+00 0.  1.
         23    2    1    0    0    0  0.13222649404E+02 -0.20115123139E+02  0.16739729007E+02  0.95679782344E+02  0.91076591866E+02 0.  0.
         13    1    3    3    0    0 -0.21652830424E+02 -0.42207863466E+02  0.24931585305E+02  0.53590520744E+02  0.10566000000E+00 0. -1.
         22    1    1    0    0    0 -0.13222649404E+02  0.20115123139E+02 -0.16739729007E+02  0.29320217656E+02  0.00000000000E+00 0.  1.
</event>
<event>
 5    1  0.1267644E-004  0.9118800E+02  0.7818608E-02  0.1130116E+00
         25   -1    0    0    0    0  0.00000000000E+00  0.00000000000E+00  0.99999998245E-14  0.12500000000E+03  0.12500000000E+03 0.  0.
        -13    1    3    3    0    0 -0.12484161808E+02  0.39989753232E+02  0.43945213575E+01  0.42123124785E+02  0.10566000000E+00 0. -1.
         23    2    1    0    0    0 -0.20300700101E+02 -0.95474159023E+01  0.20310180865E+02  0.94738225073E+02  0.89775031429E+02 0.  0.
         13    1    3    3    0    0 -0.78165382923E+01 -0.49537169134E+02  0.15915659507E+02  0.52615100288E+02  0.10566000000E+00 0.  1.
         22    1    1    0    0    0  0.20300700101E+02  0.95474159023E+01 -0.20310180865E+02  0.30261774927E+02  0.00000000000E+00 0.  1.
</event>
<event>
 5    1  0.1267644E-004  0.9118800E+02  0.7818608E-02  0.1130116E+00
         25   -1    0    0    0    0  0.00000000000E+00  0.00000000000E+00  0.99999998245E-14  0.12500000000E+03  0.12500000000E+03 0.  0.
        -13    1    3    3    0    0 -0.10364451133E+02  0.22301344377E+02 -0.36507508903E+02  0.44017964272E+02  0.10566000000E+00 0.  1.
         23    2    1    0    0    0  0.47273010157E+01 -0.22722750959E+02 -0.43012653716E+01  0.10139551590E+03  0.98609730625E+02 0.  0.
         13    1    3    3    0    0  0.15091752149E+02 -0.45024095337E+02  0.32206243532E+02  0.57377551623E+02  0.10566000000E+00 0. -1.
         22    1    1    0    0    0 -0.47273010157E+01  0.22722750959E+02  0.43012653716E+01  0.23604484105E+02  0.00000000000E+00 0. -1.
</event>
<event>
 5    1  0.1267644E-004  0.9118800E+02  0.7818608E-02  0.1130116E+00
         25   -1    0    0    0    0  0.00000000000E+00  0.00000000000E+00  0.99999998245E-14  0.12500000000E+03  0.12500000000E+03 0.  0.
        -13    1    3    3    0    0 -0.50668698395E+02 -0.15932180496E+02 -0.17609568792E+02  0.55957657648E+02  0.10566000000E+00 0. -1.
         23    2    1    0    0    0 -0.37641640458E+02 -0.74338947709E+01  0.78916141785E+01  0.85828154726E+02  0.76367785626E+02 0.  0.
         13    1    3    3    0    0  0.13027057936E+02  0.84982857251E+01  0.25501182970E+02  0.29870497078E+02  0.10566000000E+00 0.  1.
         22    1    1    0    0    0  0.37641640458E+02  0.74338947709E+01 -0.78916141785E+01  0.39171845274E+02  0.00000000000E+00 0. -1.
</event>
<event>
 5    1  0.1267644E-004  0.9118800E+02  0.7818608E-02  0.1130116E+00
         25   -1    0    0    0    0  0.00000000000E+00  0.00000000000E+00  0.99999998245E-14  0.12500000000E+03  0.12500000000E+03 0.  0.
        -13    1    3    3    0    0  0.41243626917E+02  0.30535095263E+02 -0.32830528748E+02  0.60920305202E+02  0.10566000000E+00 0.  1.
         23    2    1    0    0    0  0.18317516267E+02  0.69832285279E+01 -0.22014602447E+02  0.95522218473E+02  0.90860082645E+02 0.  0.
         13    1    3    3    0    0 -0.22926110650E+02 -0.23551866735E+02  0.10815926301E+02  0.34601913271E+02  0.10566000000E+00 0. -1.
         22    1    1    0    0    0 -0.18317516267E+02 -0.69832285279E+01  0.22014602447E+02  0.29477781527E+02  0.00000000000E+00 0.  1.
</event>
<event>
 5    1  0.1267644E-004  0.9118800E+02  0.7818608E-02  0.1130116E+00
         25   -1    0    0    0    0  0.00000000000E+00  0.00000000000E+00  0.99999998245E-14  0.12500000000E+03  0.12500000000E+03 0.  0.
        -13    1    3    3    0    0  0.18435739490E+02  0.51097140876E+02  0.63235719616E+01  0.54688143346E+02  0.10566000000E+00 0.  1.
         23    2    1    0    0    0 -0.65159389265E+00  0.16225616575E+02  0.22199895836E+02  0.97494898964E+02  0.93534617875E+02 0.  0.
         13    1    3    3    0    0 -0.19087333383E+02 -0.34871524301E+02  0.15876323875E+02  0.42806755618E+02  0.10566000000E+00 0. -1.
         22    1    1    0    0    0  0.65159389265E+00 -0.16225616575E+02 -0.22199895836E+02  0.27505101036E+02  0.00000000000E+00 0.  1.
</event>
<event>
 5    1  0.1267644E-004  0.9118800E+02  0.7818608E-02  0.1130116E+00
         25   -1    0    0    0    0  0.00000000000E+00  0.00000000000E+00  0.99999998245E-14  0.12500000000E+03  0.12500000000E+03 0.  0.
        -13    1    3    3    0    0 -0.33405653155E+02 -0.22967288677E+00 -0.19173928680E+01  0.33461589499E+02  0.10566000000E+00 0. -1.
         23    2    1    0    0    0  0.28116261132E+02 -0.12575720685E+01  0.78940244552E+01  0.95769515063E+02  0.91199664286E+02 0.  0.
         13    1    3    3    0    0  0.61521914287E+02 -0.10278991817E+01  0.98114173231E+01  0.62307925564E+02  0.10566000000E+00 0.  1.
         22    1    1    0    0    0 -0.28116261132E+02  0.12575720685E+01 -0.78940244552E+01  0.29230484937E+02  0.00000000000E+00 0.  1.
</event>
<event>
 5    1  0.1267644E-004  0.9118800E+02  0.7818608E-02  0.1130116E+00
         25   -1    0    0    0    0  0.00000000000E+00  0.00000000000E+00  0.99999998245E-14  0.12500000000E+03  0.12500000000E+03 0.  0.
        -13    1    3    3    0    0 -0.30302123509E+02 -0.15258722633E+02 -0.30587607769E+02  0.45679976123E+02  0.10566000000E+00 0. -1.
         23    2    1    0    0    0  0.15173873277E+02 -0.12962155624E+02 -0.27096381378E+02  0.91347692614E+02  0.84923042535E+02 0.  0.
         13    1    3    3    0    0  0.45475996786E+02  0.22965670085E+01  0.34912263905E+01  0.45667716491E+02  0.10566000000E+00 0.  1.
         22    1    1    0    0    0 -0.15173873277E+02  0.12962155624E+02  0.27096381378E+02  0.33652307386E+02  0.00000000000E+00 0. -1.
</event>
<event>
 5    1  0.1267644E-004  0.9118800E+02  0.7818608E-02  0.1130116E+00
         25   -1    0    0    0    0  0.00000000000E+00  0.00000000000E+00  0.99999998245E-14  0.12500000000E+03  0.12500000000E+03 0.  0.
        -13    1    3    3    0    0 -0.11079284481E+02  0.38012615635E+02 -0.33815150974E+02  0.52069041583E+02  0.10566000000E+00 0.  1.
         23    2    1    0    0    0 -0.22823655532E+02 -0.12221314846E+01 -0.17744588395E+02  0.96064152431E+02  0.91602609722E+02 0.  0.
         13    1    3    3    0    0 -0.11744371051E+02 -0.39234747119E+02  0.16070562578E+02  0.43995110848E+02  0.10566000000E+00 0. -1.
         22    1    1    0    0    0  0.22823655532E+02  0.12221314846E+01  0.17744588395E+02  0.28935847569E+02  0.00000000000E+00 0. -1.
</event>
<event>
 5    1  0.1267644E-004  0.9118800E+02  0.7818608E-02  0.1130116E+00
         25   -1    0    0    0    0  0.00000000000E+00  0.00000000000E+00  0.99999998245E-14  0.12500000000E+03  0.12500000000E+03 0.  0.
        -13    1    3    3    0    0  0.21167655972E+02 -0.27058864968E+02  0.51747397348E+02  0.62113252443E+02  0.10566000000E+00 0. -1.
         23    2    1    0    0    0  0.65873519434E+01 -0.15982817100E+02  0.27883265878E+02  0.92192681241E+02  0.86157822107E+02 0.  0.
         13    1    3    3    0    0 -0.14580304029E+02  0.11076047868E+02 -0.23864131470E+02  0.30079428798E+02  0.10566000000E+00 0.  1.
         22    1    1    0    0    0 -0.65873519434E+01  0.15982817100E+02 -0.27883265878E+02  0.32807318759E+02  0.00000000000E+00 0. -1.
</event>
<event>
 5    1  0.1267644E-004  0.9118800E+02  0.7818608E-02  0.1130116E+00
         25   -1    0    0    0    0  0.00000000000E+00  0.00000000000E+00  0.99999998245E-14  0.12500000000E+03  0.12500000000E+03 0.  0.
        -13    1    3    3    0    0 -0.42643587331E+02 -0.41790096984E+02  0.16319099782E+02  0.61896784473E+02  0.10566000000E+00 0.  1.
         23    2    1    0    0    0 -0.27727154087E+02 -0.24285500669E+02  0.41725290785E+01  0.87905652514E+02  0.79695753516E+02 0.  0.
         13    1    3    3    0    0  0.14916433245E+02  0.17504596314E+02 -0.12146570703E+02  0.26008868041E+02  0.10566000000E+00 0. -1.
         22    1    1    0    0    0  0.27727154087E+02  0.24285500669E+02 -0.41725290785E+01  0.37094347486E+02  0.00000000000E+00 0.  1.
</event>
<event>
 5    1  0.1267644E-004  0.9118800E+02  0.7818608E-02  0.1130116E+00
         25   -1    0    0    0    0  0.00000000000E+00  0.00000000000E+00  0.99999998245E-14  0.12500000000E+03  0.12500000000E+03 0.  0.
        -13    1    3    3    0    0  0.40095761898E+02  0.13588642616E+02  0.11989686220E+02  0.44000966694E+02  0.10566000000E+00 0.  1.
         23    2    1    0    0    0 -0.15138628805E+02  0.17568331324E+02  0.10864822708E+02  0.99390065988E+02  0.96033934091E+02 0.  0.
         13    1    3    3    0    0 -0.55234390704E+02  0.39796887085E+01 -0.11248635120E+01  0.55389099294E+02  0.10566000000E+00 0. -1.
         22    1    1    0    0    0  0.15138628805E+02 -0.17568331324E+02 -0.10864822708E+02  0.25609934012E+02  0.00000000000E+00 0. -1.
</event>
<event>
 5    1  0.1267644E-004  0.9118800E+02  0.7818608E-02  0.1130116E+00
         25   -1    0    0    0    0  0.00000000000E+00  0.00000000000E+00  0.99999998245E-14  0.12500000000E+03  0.12500000000E+03 0.  0.
        -13    1    3    3    0    0 -0.11876356349E+02  0.17628647646E+02  0.43693980887E+02  0.48590042064E+02  0.10566000000E+00 0.  1.
         23    2    1    0    0    0  0.12812213494E+02 -0.13767515846E+02  0.27489664346E+02  0.91692659172E+02  0.85429297041E+02 0.  0.
         13    1    3    3    0    0  0.24688569843E+02 -0.31396163492E+02 -0.16204316541E+02  0.43102617108E+02  0.10566000000E+00 0. -1.
         22    1    1    0    0    0 -0.12812213494E+02  0.13767515846E+02 -0.27489664346E+02  0.33307340828E+02  0.00000000000E+00 0. -1.
</event>
<event>
 5    1  0.1267644E-004  0.9118800E+02  0.7818608E-02  0.1130116E+00
         25   -1    0    0    0    0  0.00000000000E+00  0.00000000000E+00  0.99999998245E-14  0.12500000000E+03  0.12500000000E+03 0.  0.
        -13    1    3    3    0    0 -0.29668115564E+02 -0.33203591357E+01  0.54224864776E+02  0.61899668739E+02  0.10566000000E+00 0.  1.
         23    2    1    0    0    0 -0.10478433921E+02  0.31543743151E+01  0.27278152827E+02  0.95608755106E+02  0.90979056802E+02 0.  0.
         13    1    3    3    0    0  0.19189681643E+02  0.64747334509E+01 -0.26946711949E+02  0.33709086368E+02  0.10566000000E+00 0. -1.
         22    1    1    0    0    0  0.10478433921E+02 -0.31543743151E+01 -0.27278152827E+02  0.29391244894E+02  0.00000000000E+00 0.  1.
</event>
<event>
 5    1  0.1267644E-004  0.9118800E+02  0.7818608E-02  0.1130116E+00
         25   -1    0    0    0    0  0.00000000000E+00  0.00000000000E+00  0.99999998245E-14  0.12500000000E+03  0.12500000000E+03 0.  0.
        -13    1    3    3    0    0 -0.16765609486E+02  0.33483484196E+02 -0.34388136305E+02  0.50840775544E+02  0.10566000000E+00 0.  1.
         23    2    1    0    0    0  0.81930382516E+01 -0.36241532474E+01 -0.27486072303E+02  0.96090753500E+02  0.91638902083E+02 0.  0.
         13    1    3    3    0    0  0.24958647738E+02 -0.37107637443E+02  0.69020640019E+01  0.45249977956E+02  0.10566000000E+00 0. -1.
         22    1    1    0    0    0 -0.81930382516E+01  0.36241532474E+01  0.27486072303E+02  0.28909246500E+02  0.00000000000E+00 0.  1.
</event>
<event>
 5    1  0.1267644E-004  0.9118800E+02  0.7818608E-02  0.1130116E+00
         25   -1    0    0    0    0  0.00000000000E+00  0.00000000000E+00  0.99999998245E-14  0.12500000000E+03  0.12500000000E+03 0.  0.
        -13    1    3    3    0    0 -0.14122769868E+02  0.24052680572E+02 -0.27889889888E+02  0.39444152843E+02  0.10566000000E+00 0. -1.
         23    2    1    0    0    0  0.73869674931E+01  0.15437137299E+02  0.23565462528E+02  0.95876066185E+02  0.91345588543E+02 0.  0.
         13    1    3    3    0    0  0.21509737361E+02 -0.86155432736E+01  0.51455352416E+02  0.56431913342E+02  0.10566000000E+00 0.  1.
         22    1    1    0    0    0 -0.73869674931E+01 -0.15437137299E+02 -0.23565462528E+02  0.29123933815E+02  0.00000000000E+00 0.  1.
</event>
<event>
 5    1  0.1267644E-004  0.9118800E+02  0.7818608E-02  0.1130116E+00
         25   -1    0    0    0    0  0.00000000000E+00  0.00000000000E+00  0.99999998245E-14  0.12500000000E+03  0.12500000000E+03 0.  0.
        -13    1    3    3    0    0 -0.23782515400E+02  0.29847672933E+02  0.19889836442E+02  0.43036128729E+02  0.10566000000E+00 0.  1.
         23    2    1    0    0    0 -0.23709555180E+02 -0.10208415629E+02 -0.14114414536E+02  0.95579404252E+02  0.90938721472E+02 0.  0.
         13    1    3    3    0    0  0.72960220120E-01 -0.40056088562E+02 -0.34004250978E+02  0.52543275523E+02  0.10566000000E+00 0. -1.
         22    1    1    0    0    0  0.23709555180E+02  0.10208415629E+02  0.14114414536E+02  0.29420595748E+02  0.00000000000E+00 0. -1.
</event>
<event>
 5    1  0.1267644E-004  0.9118800E+02  0.7818608E-02  0.1130116E+00
         25   -1    0    0    0    0  0.00000000000E+00  0.00000000000E+00  0.99999998245E-14  0.12500000000E+03  0.12500000000E+03 0.  0.
        -13    1    3    3    0    0  0.58999277488E+02 -0.20250981126E+02 -0.38021132506E+01  0.62493873379E+02  0.10566000000E+00 0. -1.
         23    2    1    0    0    0  0.28589151879E+02 -0.10463591637E+02 -0.18920128494E+01  0.94497441620E+02  0.89439143584E+02 0.  0.
         13    1    3    3    0    0 -0.30410125609E+02  0.97873894895E+01  0.19101004012E+01  0.32003568241E+02  0.10566000000E+00 0.  1.
         22    1    1    0    0    0 -0.28589151879E+02  0.10463591637E+02  0.18920128494E+01  0.30502558380E+02  0.00000000000E+00 0. -1.
</event>
<event>
 5    1  0.1267644E-004  0.9118800E+02  0.7818608E-02  0.1130116E+00
         25   -1    0    0    0    0  0.00000000000E+00  0.00000000000E+00  0.99999998245E-14  0.12500000000E+03  0.12500000000E+03 0.  0.
        -13    1    3    3    0    0 -0.11146622436E+02  0.33369800690E+02  0.23323326310E+01  0.35259633143E+02  0.10566000000E+00 0. -1.
         23    2    1    0    0    0  0.75113172624E+01 -0.23636943296E+02  0.14223179627E+02  0.96409375416E+02  0.92072492385E+02 0.  0.
         13    1    3    3    0    0  0.18657939699E+02 -0.57006743986E+02  0.11890846996E+02  0.61149742273E+02  0.10566000000E+00 0.  1.
         22    1    1    0    0    0 -0.75113172624E+01  0.23636943296E+02 -0.14223179627E+02  0.28590624584E+02  0.00000000000E+00 0.  1.
</event>
<event>
 5    1  0.1267644E-004  0.9118800E+02  0.7818608E-02  0.1130116E+00
         25   -1    0    0    0    0  0.00000000000E+00  0.00000000000E+00  0.99999998245E-14  0.12500000000E+03  0.12500000000E+03 0.  0.
        -13    1    3    3    0    0  0.81629530920E+01 -0.27146899443E+02 -0.48525450839E+02  0.56198918990E+02  0.10566000000E+00 0.  1.
         23    2    1    0    0    0 -0.15599590676E+02 -0.15027826961E+02 -0.17213818745E+02  0.97332358824E+02  0.93317145831E+02 0.  0.
         13    1    3    3    0    0 -0.23762543768E+02  0.12119072482E+02  0.31311632094E+02  0.41133439834E+02  0.10566000000E+00 0. -1.
         22    1    1    0    0    0  0.15599590676E+02  0.15027826961E+02  0.17213818745E+02  0.27667641176E+02  0.00000000000E+00 0.  1.
</event>
<event>
 5    1  0.1267644E-004  0.9118800E+02  0.7818608E-02  0.1130116E+00
         25   -1    0    0    0    0  0.00000000000E+00  0.00000000000E+00  0.99999998245E-14  0.12500000000E+03  0.12500000000E+03 0.  0.
        -13    1    3    3    0    0 -0.22669408535E+02  0.21887793442E+02  0.71208999349E+01  0.32306283676E+02  0.10566000000E+00 0.  1.
         23    2    1    0    0    0  0.10386664885E+02 -0.20307857824E+02  0.27160498510E+02  0.89531921731E+02  0.82206936646E+02 0.  0.
         13    1    3    3    0    0  0.33056073420E+02 -0.42195651265E+02  0.20039598575E+02  0.57225638054E+02  0.10566000000E+00 0. -1.
         22    1    1    0    0    0 -0.10386664885E+02  0.20307857824E+02 -0.27160498510E+02  0.35468078269E+02  0.00000000000E+00 0. -1.
</event>
<event>
 5    1  0.1267644E-004  0.9118800E+02  0.7818608E-02  0.1130116E+00
         25   -1    0    0    0    0  0.00000000000E+00  0.00000000000E+00  0.99999998245E-14  0.12500000000E+03  0.12500000000E+03 0.  0.
        -13    1    3    3    0    0  0.26512623317E+02  0.16080843909E+02 -0.70208593349E+01  0.31793338388E+02  0.10566000000E+00 0.  1.
         23    2    1    0    0    0 -0.69090857182E+00 -0.34154022974E+02  0.58206693535E+01  0.90346647612E+02  0.83436574133E+02 0.  0.
         13    1    3    3    0    0 -0.27203531889E+02 -0.50234866883E+02  0.12841528688E+02  0.58553309225E+02  0.10566000000E+00 0. -1.
         22    1    1    0    0    0  0.69090857182E+00  0.34154022974E+02 -0.58206693535E+01  0.34653352388E+02  0.00000000000E+00 0.  1.
</event>
<event>
 5    1  0.1267644E-004  0.9118800E+02  0.7818608E-02  0.1130116E+00
         25   -1    0    0    0    0  0.00000000000E+00  0.00000000000E+00  0.99999998245E-14  0.12500000000E+03  0.12500000000E+03 0.  0.
        -13    1    3    3    0    0 -0.41904389528E+02  0.25608625462E+02 -0.81981249727E+01  0.49789556906E+02  0.10566000000E+00 0.  1.
         23    2    1    0    0    0 -0.15757421892E+02 -0.11724401299E+02 -0.20100487967E+02  0.96896840977E+02  0.92731926780E+02 0.  0.
         13    1    3    3    0    0  0.26146967636E+02 -0.37333026761E+02 -0.11902362995E+02  0.47107284072E+02  0.10566000000E+00 0. -1.
         22    1    1    0    0    0  0.15757421892E+02  0.11724401299E+02  0.20100487967E+02  0.28103159023E+02  0.00000000000E+00 0. -1.
</event>
<event>
 5    1  0.1267644E-004  0.9118800E+02  0.7818608E-02  0.1130116E+00
         25   -1    0    0    0    0  0.00000000000E+00  0.00000000000E+00  0.99999998245E-14  0.12500000000E+03  0.12500000000E+03 0.  0.
        -13    1    3    3    0    0 -0.26135342686E+02  0.17580354337E+02 -0.22526003195E+02  0.38724113675E+02  0.10566000000E+00 0.  1.
         23    2    1    0    0    0 -0.15420667301E+02 -0.10770275424E+02  0.24157637978E+02  0.94383218892E+02  0.89279363366E+02 0.  0.
         13    1    3    3    0    0  0.10714675385E+02 -0.28350629761E+02  0.46683641173E+02  0.55659105218E+02  0.10566000000E+00 0. -1.
         22    1    1    0    0    0  0.15420667301E+02  0.10770275424E+02 -0.24157637978E+02  0.30616781108E+02  0.00000000000E+00 0.  1.
</event>
<event>
 5    1  0.1267644E-004  0.9118800E+02  0.7818608E-02  0.1130116E+00
         25   -1    0    0    0    0  0.00000000000E+00  0.00000000000E+00  0.99999998245E-14  0.12500000000E+03  0.12500000000E+03 0.  0.
        -13    1    3    3    0    0 -0.18433675804E+02 -0.27845480471E+02 -0.87890852889E+00  0.33405910114E+02  0.10566000000E+00 0.  1.
         23    2    1    0    0    0  0.89868502468E+01  0.26672125873E+02 -0.10045376551E+02  0.95115633418E+02  0.90298994206E+02 0.  0.
         13    1    3    3    0    0  0.27420526051E+02  0.54517606344E+02 -0.91664680218E+01  0.61709723305E+02  0.10566000000E+00 0. -1.
         22    1    1    0    0    0 -0.89868502468E+01 -0.26672125873E+02  0.10045376551E+02  0.29884366582E+02  0.00000000000E+00 0. -1.
</event>
<event>
 5    1  0.1267644E-004  0.9118800E+02  0.7818608E-02  0.1130116E+00
         25   -1    0    0    0    0  0.00000000000E+00  0.00000000000E+00  0.99999998245E-14  0.12500000000E+03  0.12500000000E+03 0.  0.
        -13    1    3    3    0    0 -0.99670953321E+01  0.25933855577E+02 -0.24074863443E+02  0.36762998630E+02  0.10566000000E+00 0.  1.
         23    2    1    0    0    0  0.54228670036E+01 -0.26178542848E+02 -0.20669714413E+02  0.91207091186E+02  0.84715835571E+02 0.  0.
         13    1    3    3    0    0  0.15389962336E+02 -0.52112398425E+02  0.34051490303E+01  0.54444092556E+02  0.10566000000E+00 0. -1.
         22    1    1    0    0    0 -0.54228670036E+01  0.26178542848E+02  0.20669714413E+02  0.33792908814E+02  0.00000000000E+00 0. -1.
</event>
<event>
 5    1  0.1267644E-004  0.9118800E+02  0.7818608E-02  0.1130116E+00
         25   -1    0    0    0    0  0.00000000000E+00  0.00000000000E+00  0.99999998245E-14  0.12500000000E+03  0.12500000000E+03 0.  0.
        -13    1    3    3    0    0  0.43296396883E+02 -0.29790250460E+02  0.33508376438E+02  0.62328640776E+02  0.10566000000E+00 0. -1.
         23    2    1    0    0    0  0.22342133079E+02 -0.11702056263E+02  0.17445207352E+02  0.94333335837E+02  0.89209494783E+02 0.  0.
         13    1    3    3    0    0 -0.20954263804E+02  0.18088194197E+02 -0.16063169085E+02  0.32004695061E+02  0.10566000000E+00 0.  1.
         22    1    1    0    0    0 -0.22342133079E+02  0.11702056263E+02 -0.17445207352E+02  0.30666664163E+02  0.00000000000E+00 0. -1.
</event>
<event>
 5    1  0.1267644E-004  0.9118800E+02  0.7818608E-02  0.1130116E+00
         25   -1    0    0    0    0  0.00000000000E+00  0.00000000000E+00  0.99999998245E-14  0.12500000000E+03  0.12500000000E+03 0.  0.
        -13    1    3    3    0    0 -0.18301744347E+02  0.32358549944E+02  0.36655337936E+02  0.52207801753E+02  0.10566000000E+00 0. -1.
         23    2    1    0    0    0 -0.13024252359E+02  0.26125215488E+02 -0.56261494766E+01  0.95271031102E+02  0.90513854053E+02 0.  0.
         13    1    3    3    0    0  0.52774919876E+01 -0.62333344566E+01 -0.42281487413E+02  0.43063229349E+02  0.10566000000E+00 0.  1.
         22    1    1    0    0    0  0.13024252359E+02 -0.26125215488E+02  0.56261494766E+01  0.29728968898E+02  0.00000000000E+00 0.  1.
</event>
<event>
 5    1  0.1267644E-004  0.9118800E+02  0.7818608E-02  0.1130116E+00
         25   -1    0    0    0    0  0.00000000000E+00  0.00000000000E+00  0.99999998245E-14  0.12500000000E+03  0.12500000000E+03 0.  0.
        -13    1    3    3    0    0  0.14309289252E+02 -0.46109337219E+02  0.28904589863E+02  0.56270002815E+02  0.10566000000E+00 0.  1.
         23    2    1    0    0    0  0.12125479022E+01 -0.30942429177E+02 -0.29394241570E+01  0.93894624095E+02  0.88592640913E+02 0.  0.
         13    1    3    3    0    0 -0.13096741350E+02  0.15166908042E+02 -0.31844014020E+02  0.37624621280E+02  0.10566000000E+00 0. -1.
         22    1    1    0    0    0 -0.12125479022E+01  0.30942429177E+02  0.29394241570E+01  0.31105375905E+02  0.00000000000E+00 0.  1.
</event>
<event>
 5    1  0.1267644E-004  0.9118800E+02  0.7818608E-02  0.1130116E+00
         25   -1    0    0    0    0  0.00000000000E+00  0.00000000000E+00  0.99999998245E-14  0.12500000000E+03  0.12500000000E+03 0.  0.
        -13    1    3    3    0    0 -0.47479117039E+02  0.14775364113E+02  0.35246308281E+02  0.60949908539E+02  0.10566000000E+00 0.  1.
         23    2    1    0    0    0 -0.18165511851E+02  0.32140729430E+01  0.24683723038E+02  0.94184382714E+02  0.89000537518E+02 0.  0.
         13    1    3    3    0    0  0.29313605188E+02 -0.11561291170E+02 -0.10562585243E+02  0.33234474175E+02  0.10566000000E+00 0. -1.
         22    1    1    0    0    0  0.18165511851E+02 -0.32140729430E+01 -0.24683723038E+02  0.30815617286E+02  0.00000000000E+00 0.  1.
</event>
<event>
 5    1  0.1267644E-004  0.9118800E+02  0.7818608E-02  0.1130116E+00
         25   -1    0    0    0    0  0.00000000000E+00  0.00000000000E+00  0.99999998245E-14  0.12500000000E+03  0.12500000000E+03 0.  0.
        -13    1    3    3    0    0  0.22073441643E+02  0.12290608140E+02 -0.34035687101E+01  0.25492966057E+02  0.10566000000E+00 0.  1.
         23    2    1    0    0    0 -0.22622436133E+02  0.36139806958E+02 -0.18743887467E+02  0.78425397684E+02  0.63097935157E+02 0.  0.
         13    1    3    3    0    0 -0.44695877775E+02  0.23849198817E+02 -0.15340318757E+02  0.52932431627E+02  0.10566000000E+00 0. -1.
         22    1    1    0    0    0  0.22622436133E+02 -0.36139806958E+02  0.18743887467E+02  0.46574602316E+02  0.00000000000E+00 0. -1.
</event>
<event>
 5    1  0.1267644E-004  0.9118800E+02  0.7818608E-02  0.1130116E+00
         25   -1    0    0    0    0  0.00000000000E+00  0.00000000000E+00  0.99999998245E-14  0.12500000000E+03  0.12500000000E+03 0.  0.
        -13    1    3    3    0    0  0.28507669868E+02 -0.47691237514E+02 -0.25736617148E+02  0.61233373280E+02  0.10566000000E+00 0. -1.
         23    2    1    0    0    0  0.20560950851E+02 -0.20165546874E+02 -0.73443543704E+01  0.95278938078E+02  0.90524772961E+02 0.  0.
         13    1    3    3    0    0 -0.79467190168E+01  0.27525690640E+02  0.18392262778E+02  0.34045564799E+02  0.10566000000E+00 0.  1.
         22    1    1    0    0    0 -0.20560950851E+02  0.20165546874E+02  0.73443543704E+01  0.29721061922E+02  0.00000000000E+00 0. -1.
</event>
<event>
 5    1  0.1267644E-004  0.9118800E+02  0.7818608E-02  0.1130116E+00
         25   -1    0    0    0    0  0.00000000000E+00  0.00000000000E+00  0.99999998245E-14  0.12500000000E+03  0.12500000000E+03 0.  0.
        -13    1    3    3    0    0  0.74073552506E+01 -0.25544717553E+02  0.13654401682E+02  0.29897413868E+02  0.10566000000E+00 0. -1.
         23    2    1    0    0    0 -0.12348812377E+02  0.29862791437E+02 -0.64206641579E+01  0.92053006089E+02  0.85954938905E+02 0.  0.
         13    1    3    3    0    0 -0.19756167628E+02  0.55407508990E+02 -0.20075065840E+02  0.62155592221E+02  0.10566000000E+00 0.  1.
         22    1    1    0    0    0  0.12348812377E+02 -0.29862791437E+02  0.64206641579E+01  0.32946993911E+02  0.00000000000E+00 0.  1.
</event>
<event>
 5    1  0.1267644E-004  0.9118800E+02  0.7818608E-02  0.1130116E+00
         25   -1    0    0    0    0  0.00000000000E+00  0.00000000000E+00  0.99999998245E-14  0.12500000000E+03  0.12500000000E+03 0.  0.
        -13    1    3    3    0    0 -0.12957449010E+02  0.14899532440E+02  0.25239112293E+02  0.32045522388E+02  0.10566000000E+00 0.  1.
         23    2    1    0    0    0  0.15248367334E+02 -0.10842359450E+02 -0.24133951706E+02  0.94462857211E+02  0.89390795402E+02 0.  0.
         13    1    3    3    0    0  0.28205816344E+02 -0.25741891890E+02 -0.49373063998E+02  0.62417334822E+02  0.10566000000E+00 0. -1.
         22    1    1    0    0    0 -0.15248367334E+02  0.10842359450E+02  0.24133951706E+02  0.30537142789E+02  0.00000000000E+00 0. -1.
</event>
<event>
 5    1  0.1267644E-004  0.9118800E+02  0.7818608E-02  0.1130116E+00
         25   -1    0    0    0    0  0.00000000000E+00  0.00000000000E+00  0.99999998245E-14  0.12500000000E+03  0.12500000000E+03 0.  0.
        -13    1    3    3    0    0  0.51951086649E+01  0.50872218152E+02  0.26201129439E+02  0.57458524882E+02  0.10566000000E+00 0.  1.
         23    2    1    0    0    0 -0.14308326066E+02  0.29399554481E+02  0.94079503948E+01  0.90976897126E+02  0.84375495741E+02 0.  0.
         13    1    3    3    0    0 -0.19503434731E+02 -0.21472663671E+02 -0.16793179044E+02  0.33518372244E+02  0.10566000000E+00 0. -1.
         22    1    1    0    0    0  0.14308326066E+02 -0.29399554481E+02 -0.94079503948E+01  0.34023102874E+02  0.00000000000E+00 0.  1.
</event>
<event>
 5    1  0.1267644E-004  0.9118800E+02  0.7818608E-02  0.1130116E+00
         25   -1    0    0    0    0  0.00000000000E+00  0.00000000000E+00  0.99999998245E-14  0.12500000000E+03  0.12500000000E+03 0.  0.
        -13    1    3    3    0    0  0.36505970453E+02 -0.22082110437E+02  0.21588314316E+02  0.47816021992E+02  0.10566000000E+00 0.  1.
         23    2    1    0    0    0 -0.59593164785E+01 -0.28747337337E+02  0.63904116917E+00  0.95634523153E+02  0.91014453732E+02 0.  0.
         13    1    3    3    0    0 -0.42465286932E+02 -0.66652269002E+01 -0.20949273147E+02  0.47818501161E+02  0.10566000000E+00 0. -1.
         22    1    1    0    0    0  0.59593164785E+01  0.28747337337E+02 -0.63904116917E+00  0.29365476847E+02  0.00000000000E+00 0. -1.
</event>
<event>
 5    1  0.1267644E-004  0.9118800E+02  0.7818608E-02  0.1130116E+00
         25   -1    0    0    0    0  0.00000000000E+00  0.00000000000E+00  0.99999998245E-14  0.12500000000E+03  0.12500000000E+03 0.  0.
        -13    1    3    3    0    0 -0.72035823232E+01  0.10490005791E+02  0.40536398715E+02  0.42486969822E+02  0.10566000000E+00 0. -1.
         23    2    1    0    0    0  0.23343978558E+02 -0.16095687156E+02  0.53283658504E+01  0.96148588205E+02  0.91717757556E+02 0.  0.
         13    1    3    3    0    0  0.30547560881E+02 -0.26585692946E+02 -0.35208032865E+02  0.53661618383E+02  0.10566000000E+00 0.  1.
         22    1    1    0    0    0 -0.23343978558E+02  0.16095687156E+02 -0.53283658504E+01  0.28851411795E+02  0.00000000000E+00 0.  1.
</event>
<event>
 5    1  0.1267644E-004  0.9118800E+02  0.7818608E-02  0.1130116E+00
         25   -1    0    0    0    0  0.00000000000E+00  0.00000000000E+00  0.99999998245E-14  0.12500000000E+03  0.12500000000E+03 0.  0.
        -13    1    3    3    0    0  0.51559849756E+02 -0.10770188755E+02  0.29915903032E+02  0.60575469383E+02  0.10566000000E+00 0.  1.
         23    2    1    0    0    0  0.22164592812E+02 -0.15588824921E+02  0.11757481046E+02  0.95461567450E+02  0.90776604159E+02 0.  0.
         13    1    3    3    0    0 -0.29395256944E+02 -0.48186361658E+01 -0.18158421986E+02  0.34886098067E+02  0.10566000000E+00 0. -1.
         22    1    1    0    0    0 -0.22164592812E+02  0.15588824921E+02 -0.11757481046E+02  0.29538432550E+02  0.00000000000E+00 0.  1.
</event>
<event>
 5    1  0.1267644E-004  0.9118800E+02  0.7818608E-02  0.1130116E+00
         25   -1    0    0    0    0  0.00000000000E+00  0.00000000000E+00  0.99999998245E-14  0.12500000000E+03  0.12500000000E+03 0.  0.
        -13    1    3    3    0    0 -0.20916491427E+01 -0.18612596990E+02 -0.30066440078E+02  0.35423237371E+02  0.10566000000E+00 0. -1.
         23    2    1    0    0    0 -0.28288177012E+02 -0.66606037458E+01  0.17536361853E+02  0.91057274889E+02  0.84494489301E+02 0.  0.
         13    1    3    3    0    0 -0.26196527869E+02  0.11951993244E+02  0.47602801931E+02  0.55634037518E+02  0.10566000000E+00 0.  1.
         22    1    1    0    0    0  0.28288177012E+02  0.66606037458E+01 -0.17536361853E+02  0.33942725111E+02  0.00000000000E+00 0.  1.
</event>
<event>
 5    1  0.1267644E-004  0.9118800E+02  0.7818608E-02  0.1130116E+00
         25   -1    0    0    0    0  0.00000000000E+00  0.00000000000E+00  0.99999998245E-14  0.12500000000E+03  0.12500000000E+03 0.  0.
        -13    1    3    3    0    0 -0.29718293882E+02 -0.38207624522E+02 -0.22952063376E+02  0.53570588387E+02  0.10566000000E+00 0. -1.
         23    2    1    0    0    0 -0.16109527646E+02 -0.20702283258E+02  0.12933043527E+02  0.95753375786E+02  0.91177540801E+02 0.  0.
         13    1    3    3    0    0  0.13608766236E+02  0.17505341264E+02  0.35885106903E+02  0.42182787399E+02  0.10566000000E+00 0.  1.
         22    1    1    0    0    0  0.16109527646E+02  0.20702283258E+02 -0.12933043527E+02  0.29246624214E+02  0.00000000000E+00 0.  1.
</event>
<event>
 5    1  0.1267644E-004  0.9118800E+02  0.7818608E-02  0.1130116E+00
         25   -1    0    0    0    0  0.00000000000E+00  0.00000000000E+00  0.99999998245E-14  0.12500000000E+03  0.12500000000E+03 0.  0.
        -13    1    3    3    0    0 -0.11838106514E+02 -0.37466228724E+02  0.43918823836E+02  0.58929901678E+02  0.10566000000E+00 0. -1.
         23    2    1    0    0    0 -0.18732745607E+02 -0.23055700991E+02  0.15593971010E+02  0.91449246834E+02  0.85072390989E+02 0.  0.
         13    1    3    3    0    0 -0.68946390927E+01  0.14410527733E+02 -0.28324852826E+02  0.32519345156E+02  0.10566000000E+00 0.  1.
         22    1    1    0    0    0  0.18732745607E+02  0.23055700991E+02 -0.15593971010E+02  0.33550753166E+02  0.00000000000E+00 0. -1.
</event>
<event>
 5    1  0.1267644E-004  0.9118800E+02  0.7818608E-02  0.1130116E+00
         25   -1    0    0    0    0  0.00000000000E+00  0.00000000000E+00  0.99999998245E-14  0.12500000000E+03  0.12500000000E+03 0.  0.
        -13    1    3    3    0    0 -0.23336270138E+02  0.45912471379E+01  0.52504706865E+02  0.57640406498E+02  0.10566000000E+00 0.  1.
         23    2    1    0    0    0 -0.16053719653E+02  0.17140710292E+02  0.16962954498E+02  0.96029882822E+02  0.91555833815E+02 0.  0.
         13    1    3    3    0    0  0.72825504854E+01  0.12549463154E+02 -0.35541752368E+02  0.38389476324E+02  0.10566000000E+00 0. -1.
         22    1    1    0    0    0  0.16053719653E+02 -0.17140710292E+02 -0.16962954498E+02  0.28970117178E+02  0.00000000000E+00 0.  1.
</event>
<event>
 5    1  0.1267644E-004  0.9118800E+02  0.7818608E-02  0.1130116E+00
         25   -1    0    0    0    0  0.00000000000E+00  0.00000000000E+00  0.99999998245E-14  0.12500000000E+03  0.12500000000E+03 0.  0.
        -13    1    3    3    0    0  0.24751213898E+02 -0.69580411280E+01 -0.28596965762E+02  0.38455617803E+02  0.10566000000E+00 0.  1.
         23    2    1    0    0    0 -0.27787635568E+02 -0.52663791900E+01 -0.41996080134E+01  0.96407620810E+02  0.92070110256E+02 0.  0.
         13    1    3    3    0    0 -0.52538849467E+02  0.16916619380E+01  0.24397357749E+02  0.57952003007E+02  0.10566000000E+00 0. -1.
         22    1    1    0    0    0  0.27787635568E+02  0.52663791900E+01  0.41996080134E+01  0.28592379190E+02  0.00000000000E+00 0. -1.
</event>
<event>
 5    1  0.1267644E-004  0.9118800E+02  0.7818608E-02  0.1130116E+00
         25   -1    0    0    0    0  0.00000000000E+00  0.00000000000E+00  0.99999998245E-14  0.12500000000E+03  0.12500000000E+03 0.  0.
        -13    1    3    3    0    0 -0.60402942545E+01 -0.79549277584E+01  0.53829174240E+02  0.54748125025E+02  0.10566000000E+00 0.  1.
         23    2    1    0    0    0 -0.65895184719E+01  0.18005961349E+02  0.23049280565E+02  0.95018243341E+02  0.90164077299E+02 0.  0.
         13    1    3    3    0    0 -0.54922421742E+00  0.25960889108E+02 -0.30779893675E+02  0.40270118316E+02  0.10566000000E+00 0. -1.
         22    1    1    0    0    0  0.65895184719E+01 -0.18005961349E+02 -0.23049280565E+02  0.29981756659E+02  0.00000000000E+00 0.  1.
</event>
<event>
 5    1  0.1267644E-004  0.9118800E+02  0.7818608E-02  0.1130116E+00
         25   -1    0    0    0    0  0.00000000000E+00  0.00000000000E+00  0.99999998245E-14  0.12500000000E+03  0.12500000000E+03 0.  0.
        -13    1    3    3    0    0  0.32895392023E+02 -0.78293391293E+01 -0.71218666451E+01  0.34556294884E+02  0.10566000000E+00 0. -1.
         23    2    1    0    0    0 -0.21855615967E+02  0.23965855699E+01  0.18875322240E+02  0.96022606029E+02  0.91545898364E+02 0.  0.
         13    1    3    3    0    0 -0.54751007990E+02  0.10225924699E+02  0.25997188885E+02  0.61466311145E+02  0.10566000000E+00 0.  1.
         22    1    1    0    0    0  0.21855615967E+02 -0.23965855699E+01 -0.18875322240E+02  0.28977393971E+02  0.00000000000E+00 0.  1.
</event>
<event>
 5    1  0.1267644E-004  0.9118800E+02  0.7818608E-02  0.1130116E+00
         25   -1    0    0    0    0  0.00000000000E+00  0.00000000000E+00  0.99999998245E-14  0.12500000000E+03  0.12500000000E+03 0.  0.
        -13    1    3    3    0    0 -0.31558396357E+02  0.40882455000E+02  0.24881772918E+02  0.57327317179E+02  0.10566000000E+00 0. -1.
         23    2    1    0    0    0 -0.28723230595E+01  0.13336605583E+02 -0.82213867755E+01  0.10907183348E+03  0.10790254107E+03 0.  0.
         13    1    3    3    0    0  0.28686073297E+02 -0.27545849417E+02 -0.33103159693E+02  0.51744516299E+02  0.10566000000E+00 0.  1.
         22    1    1    0    0    0  0.28723230595E+01 -0.13336605583E+02  0.82213867755E+01  0.15928166521E+02  0.00000000000E+00 0. -1.
</event>
<event>
 5    1  0.1267644E-004  0.9118800E+02  0.7818608E-02  0.1130116E+00
         25   -1    0    0    0    0  0.00000000000E+00  0.00000000000E+00  0.99999998245E-14  0.12500000000E+03  0.12500000000E+03 0.  0.
        -13    1    3    3    0    0 -0.34913497592E+02  0.34406587407E+02  0.38422640433E+02  0.62282228870E+02  0.10566000000E+00 0.  1.
         23    2    1    0    0    0 -0.15718546977E+02  0.14056004047E+02  0.21006666807E+02  0.95235524208E+02  0.90464805599E+02 0.  0.
         13    1    3    3    0    0  0.19194950615E+02 -0.20350583360E+02 -0.17415973627E+02  0.32953295338E+02  0.10566000000E+00 0. -1.
         22    1    1    0    0    0  0.15718546977E+02 -0.14056004047E+02 -0.21006666807E+02  0.29764475792E+02  0.00000000000E+00 0.  1.
</event>
<event>
 5    1  0.1267644E-004  0.9118800E+02  0.7818608E-02  0.1130116E+00
         25   -1    0    0    0    0  0.00000000000E+00  0.00000000000E+00  0.99999998245E-14  0.12500000000E+03  0.12500000000E+03 0.  0.
        -13    1    3    3    0    0  0.45312245479E+01 -0.54245026271E+02  0.87046986553E+01  0.55125654769E+02  0.10566000000E+00 0.  1.
         23    2    1    0    0    0  0.21274706957E+02 -0.16104277246E+02  0.91794969987E+01  0.96782557400E+02  0.92577747597E+02 0.  0.
         13    1    3    3    0    0  0.16743482409E+02  0.38140749024E+02  0.47479834334E+00  0.41656902631E+02  0.10566000000E+00 0. -1.
         22    1    1    0    0    0 -0.21274706957E+02  0.16104277246E+02 -0.91794969987E+01  0.28217442600E+02  0.00000000000E+00 0.  1.
</event>
<event>
 5    1  0.1267644E-004  0.9118800E+02  0.7818608E-02  0.1130116E+00
         25   -1    0    0    0    0  0.00000000000E+00  0.00000000000E+00  0.99999998245E-14  0.12500000000E+03  0.12500000000E+03 0.  0.
        -13    1    3    3    0    0  0.75006755126E+01 -0.57763006325E+02  0.10954423233E+02  0.59269179050E+02  0.10566000000E+00 0.  1.
         23    2    1    0    0    0 -0.64214871773E+01 -0.27061346461E+02 -0.52878728599E+01  0.96688985020E+02  0.92451318297E+02 0.  0.
         13    1    3    3    0    0 -0.13922162690E+02  0.30701659865E+02 -0.16242296093E+02  0.37419805970E+02  0.10566000000E+00 0. -1.
         22    1    1    0    0    0  0.64214871773E+01  0.27061346461E+02  0.52878728599E+01  0.28311014980E+02  0.00000000000E+00 0.  1.
</event>
<event>
 5    1  0.1267644E-004  0.9118800E+02  0.7818608E-02  0.1130116E+00
         25   -1    0    0    0    0  0.00000000000E+00  0.00000000000E+00  0.99999998245E-14  0.12500000000E+03  0.12500000000E+03 0.  0.
        -13    1    3    3    0    0 -0.15166495808E+02 -0.29023739058E+02  0.26234272962E+02  0.41960079431E+02  0.10566000000E+00 0. -1.
         23    2    1    0    0    0 -0.79203103314E+01  0.23531336728E+02  0.14334413716E+02  0.96330668990E+02  0.91965576427E+02 0.  0.
         13    1    3    3    0    0  0.72461854762E+01  0.52555075787E+02 -0.11899859246E+02  0.54370589559E+02  0.10566000000E+00 0.  1.
         22    1    1    0    0    0  0.79203103314E+01 -0.23531336728E+02 -0.14334413716E+02  0.28669331010E+02  0.00000000000E+00 0.  1.
</event>
<event>
 5    1  0.1267644E-004  0.9118800E+02  0.7818608E-02  0.1130116E+00
         25   -1    0    0    0    0  0.00000000000E+00  0.00000000000E+00  0.99999998245E-14  0.12500000000E+03  0.12500000000E+03 0.  0.
        -13    1    3    3    0    0 -0.35767248571E+02 -0.15106385557E+02  0.13577735281E+02  0.41132286762E+02  0.10566000000E+00 0.  1.
         23    2    1    0    0    0  0.18327206830E+02 -0.21542792682E+02  0.44160864063E+01  0.96373434613E+02  0.92023685284E+02 0.  0.
         13    1    3    3    0    0  0.54094455400E+02 -0.64364071251E+01 -0.91616488747E+01  0.55241147851E+02  0.10566000000E+00 0. -1.
         22    1    1    0    0    0 -0.18327206830E+02  0.21542792682E+02 -0.44160864063E+01  0.28626565387E+02  0.00000000000E+00 0. -1.
</event>
<event>
 5    1  0.1267644E-004  0.9118800E+02  0.7818608E-02  0.1130116E+00
         25   -1    0    0    0    0  0.00000000000E+00  0.00000000000E+00  0.99999998245E-14  0.12500000000E+03  0.12500000000E+03 0.  0.
        -13    1    3    3    0    0 -0.26584891625E+02  0.72334266351E+01  0.27127934132E+02  0.38665422511E+02  0.10566000000E+00 0.  1.
         23    2    1    0    0    0 -0.72443894568E+01 -0.21094478276E+02 -0.18690288324E+02  0.95900428354E+02  0.91378920373E+02 0.  0.
         13    1    3    3    0    0  0.19340502168E+02 -0.28327904911E+02 -0.45818222456E+02  0.57235005843E+02  0.10566000000E+00 0. -1.
         22    1    1    0    0    0  0.72443894568E+01  0.21094478276E+02  0.18690288324E+02  0.29099571646E+02  0.00000000000E+00 0. -1.
</event>
<event>
 5    1  0.1267644E-004  0.9118800E+02  0.7818608E-02  0.1130116E+00
         25   -1    0    0    0    0  0.00000000000E+00  0.00000000000E+00  0.99999998245E-14  0.12500000000E+03  0.12500000000E+03 0.  0.
        -13    1    3    3    0    0  0.22710238737E+02  0.46490948607E+01  0.29886637945E+02  0.37823158491E+02  0.10566000000E+00 0. -1.
         23    2    1    0    0    0 -0.28038006079E+02 -0.13928011747E+01  0.19943347443E+00  0.96926712809E+02  0.92772184421E+02 0.  0.
         13    1    3    3    0    0 -0.50748244817E+02 -0.60418960355E+01 -0.29687204471E+02  0.59103554318E+02  0.10566000000E+00 0.  1.
         22    1    1    0    0    0  0.28038006079E+02  0.13928011747E+01 -0.19943347443E+00  0.28073287191E+02  0.00000000000E+00 0.  1.
</event>
<event>
 5    1  0.1267644E-004  0.9118800E+02  0.7818608E-02  0.1130116E+00
         25   -1    0    0    0    0  0.00000000000E+00  0.00000000000E+00  0.99999998245E-14  0.12500000000E+03  0.12500000000E+03 0.  0.
        -13    1    3    3    0    0 -0.24121233233E+02 -0.33090122988E+02 -0.13427617661E+02  0.43094108787E+02  0.10566000000E+00 0. -1.
         23    2    1    0    0    0 -0.20421562464E+02  0.17801352807E+02 -0.14782936631E+02  0.94137991143E+02  0.88935357343E+02 0.  0.
         13    1    3    3    0    0  0.36996707685E+01  0.50891475795E+02 -0.13553189697E+01  0.51043882356E+02  0.10566000000E+00 0.  1.
         22    1    1    0    0    0  0.20421562464E+02 -0.17801352807E+02  0.14782936631E+02  0.30862008857E+02  0.00000000000E+00 0.  1.
</event>
<event>
 5    1  0.1267644E-004  0.9118800E+02  0.7818608E-02  0.1130116E+00
         25   -1    0    0    0    0  0.00000000000E+00  0.00000000000E+00  0.99999998245E-14  0.12500000000E+03  0.12500000000E+03 0.  0.
        -13    1    3    3    0    0  0.89352142899E+01  0.28978013865E+02 -0.27621668110E+02  0.41018667155E+02  0.10566000000E+00 0.  1.
         23    2    1    0    0    0  0.30454327324E+01 -0.24432802976E+02 -0.14837007841E+02  0.96253290215E+02  0.91860342661E+02 0.  0.
         13    1    3    3    0    0 -0.58897815575E+01 -0.53410816841E+02  0.12784660269E+02  0.55234623060E+02  0.10566000000E+00 0. -1.
         22    1    1    0    0    0 -0.30454327324E+01  0.24432802976E+02  0.14837007841E+02  0.28746709785E+02  0.00000000000E+00 0. -1.
</event>
<event>
 5    1  0.1267644E-004  0.9118800E+02  0.7818608E-02  0.1130116E+00
         25   -1    0    0    0    0  0.00000000000E+00  0.00000000000E+00  0.99999998245E-14  0.12500000000E+03  0.12500000000E+03 0.  0.
        -13    1    3    3    0    0  0.38545093886E+02 -0.28269018116E+02  0.19242345570E+02  0.51528057163E+02  0.10566000000E+00 0. -1.
         23    2    1    0    0    0  0.20350325616E+02 -0.12387691367E+02 -0.17459425693E+02  0.95463206071E+02  0.90778860522E+02 0.  0.
         13    1    3    3    0    0 -0.18194768270E+02  0.15881326749E+02 -0.36701771263E+02  0.43935148908E+02  0.10566000000E+00 0.  1.
         22    1    1    0    0    0 -0.20350325616E+02  0.12387691367E+02  0.17459425693E+02  0.29536793929E+02  0.00000000000E+00 0.  1.
</event>
<event>
 5    1  0.1267644E-004  0.9118800E+02  0.7818608E-02  0.1130116E+00
         25   -1    0    0    0    0  0.00000000000E+00  0.00000000000E+00  0.99999998245E-14  0.12500000000E+03  0.12500000000E+03 0.  0.
        -13    1    3    3    0    0 -0.33936151115E+02 -0.12659891695E+02  0.85419148578E+01  0.37214388127E+02  0.10566000000E+00 0. -1.
         23    2    1    0    0    0  0.76513639255E+01  0.13994615053E+02 -0.23867516380E+02  0.96293712213E+02  0.91915330893E+02 0.  0.
         13    1    3    3    0    0  0.41587515041E+02  0.26654506747E+02 -0.32409431238E+02  0.59079324085E+02  0.10566000000E+00 0.  1.
         22    1    1    0    0    0 -0.76513639255E+01 -0.13994615053E+02  0.23867516380E+02  0.28706287787E+02  0.00000000000E+00 0.  1.
</event>
<event>
 5    1  0.1267644E-004  0.9118800E+02  0.7818608E-02  0.1130116E+00
         25   -1    0    0    0    0  0.00000000000E+00  0.00000000000E+00  0.99999998245E-14  0.12500000000E+03  0.12500000000E+03 0.  0.
        -13    1    3    3    0    0 -0.49647941338E+01  0.34574591787E+02  0.20600464963E+02  0.40551718814E+02  0.10566000000E+00 0.  1.
         23    2    1    0    0    0 -0.25139214961E+02 -0.14364531532E+02  0.78790782958E+01  0.94993337910E+02  0.90129542756E+02 0.  0.
         13    1    3    3    0    0 -0.20174420828E+02 -0.48939123319E+02 -0.12721386668E+02  0.54441619096E+02  0.10566000000E+00 0. -1.
         22    1    1    0    0    0  0.25139214961E+02  0.14364531532E+02 -0.78790782958E+01  0.30006662090E+02  0.00000000000E+00 0. -1.
</event>
<event>
 4    1  0.1267644E-004  0.9118800E+02  0.7818608E-02  0.1130116E+00
         25   -1    0    0    0    0  0.00000000000E+00  0.00000000000E+00  0.99999998245E-14  0.12500000000E+03  0.12500000000E+03 0.  0.
        -13    1    1    0    0    0  0.93314318872E+01 -0.64105813604E+01  0.10673148287E+02  0.15559512616E+02  0.10566000000E+00 0.  1.
         13    1    1    0    0    0  0.25835249567E+02  0.41246781620E+02  0.18402338784E+02  0.52032819940E+02  0.10566000000E+00 0. -1.
         22    1    1    0    0    0 -0.35166681454E+02 -0.34836200259E+02 -0.29075487071E+02  0.57407667444E+02  0.00000000000E+00 0. -1.
</event>
<event>
 5    1  0.1267644E-004  0.9118800E+02  0.7818608E-02  0.1130116E+00
         25   -1    0    0    0    0  0.00000000000E+00  0.00000000000E+00  0.99999998245E-14  0.12500000000E+03  0.12500000000E+03 0.  0.
        -13    1    3    3    0    0 -0.22251242549E+02 -0.42412693056E+02 -0.28117418162E+02  0.55538767499E+02  0.10566000000E+00 0.  1.
         23    2    1    0    0    0 -0.95070949280E+01 -0.70166413288E+01 -0.29538187710E+02  0.93186124997E+02  0.87587277896E+02 0.  0.
         13    1    3    3    0    0  0.12744147620E+02  0.35396051727E+02 -0.14207695486E+01  0.37647357498E+02  0.10566000000E+00 0. -1.
         22    1    1    0    0    0  0.95070949280E+01  0.70166413288E+01  0.29538187710E+02  0.31813875003E+02  0.00000000000E+00 0.  1.
</event>
<event>
 5    1  0.1267644E-004  0.9118800E+02  0.7818608E-02  0.1130116E+00
         25   -1    0    0    0    0  0.00000000000E+00  0.00000000000E+00  0.99999998245E-14  0.12500000000E+03  0.12500000000E+03 0.  0.
        -13    1    3    3    0    0 -0.25329238090E+02 -0.16464608807E+02 -0.15711866903E+02  0.34051836529E+02  0.10566000000E+00 0.  1.
         23    2    1    0    0    0  0.18417358666E+02  0.23212660419E+02  0.73646586557E+00  0.95359333916E+02  0.90635718560E+02 0.  0.
         13    1    3    3    0    0  0.43746596756E+02  0.39677269226E+02  0.16448332769E+02  0.61307497387E+02  0.10566000000E+00 0. -1.
         22    1    1    0    0    0 -0.18417358666E+02 -0.23212660419E+02 -0.73646586557E+00  0.29640666084E+02  0.00000000000E+00 0. -1.
</event>
<event>
 5    1  0.1267644E-004  0.9118800E+02  0.7818608E-02  0.1130116E+00
         25   -1    0    0    0    0  0.00000000000E+00  0.00000000000E+00  0.99999998245E-14  0.12500000000E+03  0.12500000000E+03 0.  0.
        -13    1    3    3    0    0 -0.14066919995E+02  0.13366670516E+02  0.41891772104E+02  0.46167931000E+02  0.10566000000E+00 0. -1.
         23    2    1    0    0    0  0.24554201568E+02 -0.31864418204E+01  0.15720953387E+02  0.95670652897E+02  0.91064061101E+02 0.  0.
         13    1    3    3    0    0  0.38621121563E+02 -0.16553112336E+02 -0.26170818717E+02  0.49502721896E+02  0.10566000000E+00 0.  1.
         22    1    1    0    0    0 -0.24554201568E+02  0.31864418204E+01 -0.15720953387E+02  0.29329347103E+02  0.00000000000E+00 0.  1.
</event>
<event>
 5    1  0.1267644E-004  0.9118800E+02  0.7818608E-02  0.1130116E+00
         25   -1    0    0    0    0  0.00000000000E+00  0.00000000000E+00  0.99999998245E-14  0.12500000000E+03  0.12500000000E+03 0.  0.
        -13    1    3    3    0    0 -0.56640335184E+02  0.60688850095E+01 -0.25074008140E+02  0.62238862323E+02  0.10566000000E+00 0.  1.
         23    2    1    0    0    0 -0.29963394747E+02  0.10396038501E+01 -0.16868530443E+02  0.90598937222E+02  0.83813688055E+02 0.  0.
         13    1    3    3    0    0  0.26676940436E+02 -0.50292811594E+01  0.82054776968E+01  0.28360074899E+02  0.10566000000E+00 0. -1.
         22    1    1    0    0    0  0.29963394747E+02 -0.10396038501E+01  0.16868530443E+02  0.34401062778E+02  0.00000000000E+00 0.  1.
</event>
<event>
 5    1  0.1267644E-004  0.9118800E+02  0.7818608E-02  0.1130116E+00
         25   -1    0    0    0    0  0.00000000000E+00  0.00000000000E+00  0.99999998245E-14  0.12500000000E+03  0.12500000000E+03 0.  0.
        -13    1    3    3    0    0  0.45065877928E+02  0.37079422726E+02  0.14727674472E+02  0.60189139407E+02  0.10566000000E+00 0.  1.
         23    2    1    0    0    0  0.27409142379E+02  0.73246105307E+01  0.88229527126E+01  0.95288798410E+02  0.90538387452E+02 0.  0.
         13    1    3    3    0    0 -0.17656735549E+02 -0.29754812196E+02 -0.59047217591E+01  0.35099659003E+02  0.10566000000E+00 0. -1.
         22    1    1    0    0    0 -0.27409142379E+02 -0.73246105307E+01 -0.88229527126E+01  0.29711201590E+02  0.00000000000E+00 0.  1.
</event>
<event>
 5    1  0.1267644E-004  0.9118800E+02  0.7818608E-02  0.1130116E+00
         25   -1    0    0    0    0  0.00000000000E+00  0.00000000000E+00  0.99999998245E-14  0.12500000000E+03  0.12500000000E+03 0.  0.
        -13    1    3    3    0    0 -0.48274412477E+02 -0.19319008150E+02 -0.46636287623E+01  0.52205397931E+02  0.10566000000E+00 0.  1.
         23    2    1    0    0    0 -0.17866350336E+02 -0.82269595901E+01  0.22965894333E+02  0.94762248084E+02  0.89808474105E+02 0.  0.
         13    1    3    3    0    0  0.30408062141E+02  0.11092048560E+02  0.27629523095E+02  0.42556850153E+02  0.10566000000E+00 0. -1.
         22    1    1    0    0    0  0.17866350336E+02  0.82269595901E+01 -0.22965894333E+02  0.30237751916E+02  0.00000000000E+00 0. -1.
</event>
<event>
 5    1  0.1267644E-004  0.9118800E+02  0.7818608E-02  0.1130116E+00
         25   -1    0    0    0    0  0.00000000000E+00  0.00000000000E+00  0.99999998245E-14  0.12500000000E+03  0.12500000000E+03 0.  0.
        -13    1    3    3    0    0 -0.42598470959E+02  0.12961333202E+02  0.32731740138E+02  0.55263042469E+02  0.10566000000E+00 0.  1.
         23    2    1    0    0    0 -0.50603592004E+01 -0.60766919376E+00  0.29226919301E+02  0.95332015422E+02  0.90598034501E+02 0.  0.
         13    1    3    3    0    0  0.37538111758E+02 -0.13569002395E+02 -0.35048208371E+01  0.40068972953E+02  0.10566000000E+00 0. -1.
         22    1    1    0    0    0  0.50603592004E+01  0.60766919376E+00 -0.29226919301E+02  0.29667984578E+02  0.00000000000E+00 0.  1.
</event>
<event>
 5    1  0.1267644E-004  0.9118800E+02  0.7818608E-02  0.1130116E+00
         25   -1    0    0    0    0  0.00000000000E+00  0.00000000000E+00  0.99999998245E-14  0.12500000000E+03  0.12500000000E+03 0.  0.
        -13    1    3    3    0    0  0.16426014578E+02 -0.20666840656E+02 -0.23706050529E+02  0.35481266231E+02  0.10566000000E+00 0.  1.
         23    2    1    0    0    0 -0.24438005021E+02 -0.10505079240E+02  0.16496521678E+02  0.93699712354E+02  0.88317201544E+02 0.  0.
         13    1    3    3    0    0 -0.40864019599E+02  0.10161761416E+02  0.40202572207E+02  0.58218446123E+02  0.10566000000E+00 0. -1.
         22    1    1    0    0    0  0.24438005021E+02  0.10505079240E+02 -0.16496521678E+02  0.31300287646E+02  0.00000000000E+00 0. -1.
</event>
<event>
 5    1  0.1267644E-004  0.9118800E+02  0.7818608E-02  0.1130116E+00
         25   -1    0    0    0    0  0.00000000000E+00  0.00000000000E+00  0.99999998245E-14  0.12500000000E+03  0.12500000000E+03 0.  0.
        -13    1    3    3    0    0  0.56084648098E+02 -0.19954537357E+02  0.80336210682E+01  0.60068473802E+02  0.10566000000E+00 0.  1.
         23    2    1    0    0    0  0.34796223810E+02 -0.24268226193E+01 -0.34689124799E+01  0.89947182520E+02  0.82835956143E+02 0.  0.
         13    1    3    3    0    0 -0.21288424288E+02  0.17527714738E+02 -0.11502533548E+02  0.29878708718E+02  0.10566000000E+00 0. -1.
         22    1    1    0    0    0 -0.34796223810E+02  0.24268226193E+01  0.34689124799E+01  0.35052817480E+02  0.00000000000E+00 0.  1.
</event>
<event>
 5    1  0.1267644E-004  0.9118800E+02  0.7818608E-02  0.1130116E+00
         25   -1    0    0    0    0  0.00000000000E+00  0.00000000000E+00  0.99999998245E-14  0.12500000000E+03  0.12500000000E+03 0.  0.
        -13    1    3    3    0    0  0.20561515567E+02  0.82452617509E+01  0.40982938685E+02  0.46587258892E+02  0.10566000000E+00 0. -1.
         23    2    1    0    0    0 -0.92410870758E+01 -0.22317081992E+02  0.15378223982E+02  0.96365412316E+02  0.92012787585E+02 0.  0.
         13    1    3    3    0    0 -0.29802602643E+02 -0.30562343743E+02 -0.25604714703E+02  0.49778153425E+02  0.10566000000E+00 0.  1.
         22    1    1    0    0    0  0.92410870758E+01  0.22317081992E+02 -0.15378223982E+02  0.28634587684E+02  0.00000000000E+00 0. -1.
</event>
<event>
 5    1  0.1267644E-004  0.9118800E+02  0.7818608E-02  0.1130116E+00
         25   -1    0    0    0    0  0.00000000000E+00  0.00000000000E+00  0.99999998245E-14  0.12500000000E+03  0.12500000000E+03 0.  0.
        -13    1    3    3    0    0  0.35810375999E+02  0.36312783175E+02  0.14462013053E+01  0.51020622432E+02  0.10566000000E+00 0.  1.
         23    2    1    0    0    0  0.19493282126E+02  0.46846453477E+01 -0.23220371597E+02  0.94322327220E+02  0.89194068217E+02 0.  0.
         13    1    3    3    0    0 -0.16317093873E+02 -0.31628137827E+02 -0.24666572902E+02  0.43301704789E+02  0.10566000000E+00 0. -1.
         22    1    1    0    0    0 -0.19493282126E+02 -0.46846453477E+01  0.23220371597E+02  0.30677672780E+02  0.00000000000E+00 0.  1.
</event>
<event>
 5    1  0.1267644E-004  0.9118800E+02  0.7818608E-02  0.1130116E+00
         25   -1    0    0    0    0  0.00000000000E+00  0.00000000000E+00  0.99999998245E-14  0.12500000000E+03  0.12500000000E+03 0.  0.
        -13    1    3    3    0    0 -0.43319466591E+02 -0.47360717201E+01 -0.43732575682E+02  0.61737799611E+02  0.10566000000E+00 0. -1.
         23    2    1    0    0    0 -0.33284061171E+02  0.24408470067E+01 -0.32021818857E+02  0.78748693586E+02  0.63735181779E+02 0.  0.
         13    1    3    3    0    0  0.10035405420E+02  0.71769187268E+01  0.11710756825E+02  0.17010893974E+02  0.10566000000E+00 0.  1.
         22    1    1    0    0    0  0.33284061171E+02 -0.24408470067E+01  0.32021818857E+02  0.46251306414E+02  0.00000000000E+00 0. -1.
</event>
<event>
 5    1  0.1267644E-004  0.9118800E+02  0.7818608E-02  0.1130116E+00
         25   -1    0    0    0    0  0.00000000000E+00  0.00000000000E+00  0.99999998245E-14  0.12500000000E+03  0.12500000000E+03 0.  0.
        -13    1    3    3    0    0  0.53827207361E+02  0.24013095254E+02 -0.19026486240E+02  0.61935574096E+02  0.10566000000E+00 0.  1.
         23    2    1    0    0    0  0.25775014716E+02  0.52777915429E+01 -0.67014615787E+01  0.97850118702E+02  0.94008136220E+02 0.  0.
         13    1    3    3    0    0 -0.28052192645E+02 -0.18735303711E+02  0.12325024661E+02  0.35914544606E+02  0.10566000000E+00 0. -1.
         22    1    1    0    0    0 -0.25775014716E+02 -0.52777915429E+01  0.67014615787E+01  0.27149881298E+02  0.00000000000E+00 0.  1.
</event>
<event>
 5    1  0.1267644E-004  0.9118800E+02  0.7818608E-02  0.1130116E+00
         25   -1    0    0    0    0  0.00000000000E+00  0.00000000000E+00  0.99999998245E-14  0.12500000000E+03  0.12500000000E+03 0.  0.
        -13    1    3    3    0    0 -0.46570870364E+01  0.21145896117E+02  0.40068501533E+02  0.45544849999E+02  0.10566000000E+00 0. -1.
         23    2    1    0    0    0 -0.15201063471E+02  0.12972296953E+02 -0.13587387568E+02  0.10083453042E+03  0.97896029573E+02 0.  0.
         13    1    3    3    0    0 -0.10543976434E+02 -0.81735991642E+01 -0.53655889101E+02  0.55289680426E+02  0.10566000000E+00 0.  1.
         22    1    1    0    0    0  0.15201063471E+02 -0.12972296953E+02  0.13587387568E+02  0.24165469575E+02  0.00000000000E+00 0.  1.
</event>
<event>
 5    1  0.1267644E-004  0.9118800E+02  0.7818608E-02  0.1130116E+00
         25   -1    0    0    0    0  0.00000000000E+00  0.00000000000E+00  0.99999998245E-14  0.12500000000E+03  0.12500000000E+03 0.  0.
        -13    1    3    3    0    0  0.32350286636E+02  0.15989844969E+02  0.30132211184E+02  0.47012524953E+02  0.10566000000E+00 0. -1.
         23    2    1    0    0    0  0.23889042242E+02 -0.22904478068E+01 -0.15182011690E+02  0.96602359792E+02  0.92334121255E+02 0.  0.
         13    1    3    3    0    0 -0.84612443937E+01 -0.18280292776E+02 -0.45314222874E+02  0.49589834839E+02  0.10566000000E+00 0.  1.
         22    1    1    0    0    0 -0.23889042242E+02  0.22904478068E+01  0.15182011690E+02  0.28397640208E+02  0.00000000000E+00 0.  1.
</event>
<event>
 5    1  0.1267644E-004  0.9118800E+02  0.7818608E-02  0.1130116E+00
         25   -1    0    0    0    0  0.00000000000E+00  0.00000000000E+00  0.99999998245E-14  0.12500000000E+03  0.12500000000E+03 0.  0.
        -13    1    3    3    0    0 -0.30523740711E+02  0.72949104521E+01 -0.25960733937E+02  0.40729416103E+02  0.10566000000E+00 0. -1.
         23    2    1    0    0    0  0.15991988109E+02  0.25126178091E+02 -0.48952222345E+01  0.94816698162E+02  0.89884228541E+02 0.  0.
         13    1    3    3    0    0  0.46515728819E+02  0.17831267639E+02  0.21065511703E+02  0.54087282059E+02  0.10566000000E+00 0.  1.
         22    1    1    0    0    0 -0.15991988109E+02 -0.25126178091E+02  0.48952222345E+01  0.30183301838E+02  0.00000000000E+00 0. -1.
</event>
<event>
 5    1  0.1267644E-004  0.9118800E+02  0.7818608E-02  0.1130116E+00
         25   -1    0    0    0    0  0.00000000000E+00  0.00000000000E+00  0.99999998245E-14  0.12500000000E+03  0.12500000000E+03 0.  0.
        -13    1    3    3    0    0  0.33422286724E+02 -0.43378877399E+00 -0.22818485706E+02  0.40471371073E+02  0.10566000000E+00 0. -1.
         23    2    1    0    0    0 -0.13806238306E+02  0.24361144511E+02 -0.64885994740E+01  0.96256661621E+02  0.91864930225E+02 0.  0.
         13    1    3    3    0    0 -0.47228525030E+02  0.24794933285E+02  0.16329886232E+02  0.55785290548E+02  0.10566000000E+00 0.  1.
         22    1    1    0    0    0  0.13806238306E+02 -0.24361144511E+02  0.64885994740E+01  0.28743338379E+02  0.00000000000E+00 0.  1.
</event>
<event>
 5    1  0.1267644E-004  0.9118800E+02  0.7818608E-02  0.1130116E+00
         25   -1    0    0    0    0  0.00000000000E+00  0.00000000000E+00  0.99999998245E-14  0.12500000000E+03  0.12500000000E+03 0.  0.
        -13    1    3    3    0    0  0.37555861012E+02  0.32586232680E+02  0.18008621575E+01  0.49754994977E+02  0.10566000000E+00 0.  1.
         23    2    1    0    0    0  0.24815256153E+02 -0.99191914110E+01 -0.11244018267E+02  0.96006634501E+02  0.91524087678E+02 0.  0.
         13    1    3    3    0    0 -0.12740604860E+02 -0.42505424091E+02 -0.13044880424E+02  0.46251639524E+02  0.10566000000E+00 0. -1.
         22    1    1    0    0    0 -0.24815256153E+02  0.99191914110E+01  0.11244018267E+02  0.28993365499E+02  0.00000000000E+00 0. -1.
</event>
<event>
 5    1  0.1267644E-004  0.9118800E+02  0.7818608E-02  0.1130116E+00
         25   -1    0    0    0    0  0.00000000000E+00  0.00000000000E+00  0.99999998245E-14  0.12500000000E+03  0.12500000000E+03 0.  0.
        -13    1    3    3    0    0  0.21338603936E+02 -0.19732326898E+00 -0.84178481520E+01  0.22940058543E+02  0.10566000000E+00 0. -1.
         23    2    1    0    0    0 -0.27381349797E+02  0.18354664568E+02 -0.30995993931E+02  0.79751976089E+02  0.65673388996E+02 0.  0.
         13    1    3    3    0    0 -0.48719953733E+02  0.18551987837E+02 -0.22578145779E+02  0.56811917546E+02  0.10566000000E+00 0.  1.
         22    1    1    0    0    0  0.27381349797E+02 -0.18354664568E+02  0.30995993931E+02  0.45248023911E+02  0.00000000000E+00 0.  1.
</event>
<event>
 5    1  0.1267644E-004  0.9118800E+02  0.7818608E-02  0.1130116E+00
         25   -1    0    0    0    0  0.00000000000E+00  0.00000000000E+00  0.99999998245E-14  0.12500000000E+03  0.12500000000E+03 0.  0.
        -13    1    3    3    0    0  0.75605005779E+01 -0.26789804736E+02  0.29973494346E+02  0.40905700509E+02  0.10566000000E+00 0.  1.
         23    2    1    0    0    0  0.21475098195E+02  0.12862620704E+02 -0.91753424788E+01  0.98338909185E+02  0.94655836039E+02 0.  0.
         13    1    3    3    0    0  0.13914597617E+02  0.39652425440E+02 -0.39148836825E+02  0.57433208676E+02  0.10566000000E+00 0. -1.
         22    1    1    0    0    0 -0.21475098195E+02 -0.12862620704E+02  0.91753424788E+01  0.26661090815E+02  0.00000000000E+00 0. -1.
</event>
<event>
 5    1  0.1267644E-004  0.9118800E+02  0.7818608E-02  0.1130116E+00
         25   -1    0    0    0    0  0.00000000000E+00  0.00000000000E+00  0.99999998245E-14  0.12500000000E+03  0.12500000000E+03 0.  0.
        -13    1    3    3    0    0  0.24612809276E+02 -0.38527502706E+02 -0.31793205829E+02  0.55686425151E+02  0.10566000000E+00 0. -1.
         23    2    1    0    0    0  0.25257019496E+02 -0.23628124896E+01 -0.14539602053E+02  0.95761327928E+02  0.91188442151E+02 0.  0.
         13    1    3    3    0    0  0.64421021999E+00  0.36164690216E+02  0.17253603776E+02  0.40074902776E+02  0.10566000000E+00 0.  1.
         22    1    1    0    0    0 -0.25257019496E+02  0.23628124896E+01  0.14539602053E+02  0.29238672072E+02  0.00000000000E+00 0. -1.
</event>
<event>
 5    1  0.1267644E-004  0.9118800E+02  0.7818608E-02  0.1130116E+00
         25   -1    0    0    0    0  0.00000000000E+00  0.00000000000E+00  0.99999998245E-14  0.12500000000E+03  0.12500000000E+03 0.  0.
        -13    1    3    3    0    0  0.53318269266E+02 -0.19224955237E+02  0.26184216518E+02  0.62434454431E+02  0.10566000000E+00 0.  1.
         23    2    1    0    0    0  0.25551146313E+02 -0.75306558357E+01  0.10907008635E+02  0.96215721434E+02  0.91809206284E+02 0.  0.
         13    1    3    3    0    0 -0.27767122953E+02  0.11694299401E+02 -0.15277207884E+02  0.33781267003E+02  0.10566000000E+00 0. -1.
         22    1    1    0    0    0 -0.25551146313E+02  0.75306558357E+01 -0.10907008635E+02  0.28784278566E+02  0.00000000000E+00 0.  1.
</event>
<event>
 5    1  0.1267644E-004  0.9118800E+02  0.7818608E-02  0.1130116E+00
         25   -1    0    0    0    0  0.00000000000E+00  0.00000000000E+00  0.99999998245E-14  0.12500000000E+03  0.12500000000E+03 0.  0.
        -13    1    3    3    0    0  0.23906716990E+02 -0.46163668431E+02  0.23298769551E+02  0.56968932120E+02  0.10566000000E+00 0.  1.
         23    2    1    0    0    0  0.12953542205E+02 -0.63685731853E+01  0.22519683810E+02  0.98251371269E+02  0.94540165101E+02 0.  0.
         13    1    3    3    0    0 -0.10953174785E+02  0.39795095245E+02 -0.77908574157E+00  0.41282439149E+02  0.10566000000E+00 0. -1.
         22    1    1    0    0    0 -0.12953542205E+02  0.63685731853E+01 -0.22519683810E+02  0.26748628731E+02  0.00000000000E+00 0.  1.
</event>
<event>
 5    1  0.1267644E-004  0.9118800E+02  0.7818608E-02  0.1130116E+00
         25   -1    0    0    0    0  0.00000000000E+00  0.00000000000E+00  0.99999998245E-14  0.12500000000E+03  0.12500000000E+03 0.  0.
        -13    1    3    3    0    0  0.27138098676E+01  0.47681767304E+02  0.30821105748E+02  0.56840719742E+02  0.10566000000E+00 0. -1.
         23    2    1    0    0    0 -0.27863599305E+01  0.37722170184E+02  0.28142525338E+01  0.87070513549E+02  0.78374921929E+02 0.  0.
         13    1    3    3    0    0 -0.55001697981E+01 -0.99595971197E+01 -0.28006853215E+02  0.30229793807E+02  0.10566000000E+00 0.  1.
         22    1    1    0    0    0  0.27863599305E+01 -0.37722170184E+02 -0.28142525338E+01  0.37929486451E+02  0.00000000000E+00 0. -1.
</event>
<event>
 5    1  0.1267644E-004  0.9118800E+02  0.7818608E-02  0.1130116E+00
         25   -1    0    0    0    0  0.00000000000E+00  0.00000000000E+00  0.99999998245E-14  0.12500000000E+03  0.12500000000E+03 0.  0.
        -13    1    3    3    0    0  0.17241697396E+02  0.21485873712E+02  0.34716203121E+02  0.44318673508E+02  0.10566000000E+00 0.  1.
         23    2    1    0    0    0 -0.23447604708E+02 -0.44426908524E+01  0.16924738743E+02  0.95742958966E+02  0.91163258726E+02 0.  0.
         13    1    3    3    0    0 -0.40689302105E+02 -0.25928564565E+02 -0.17791464379E+02  0.51424285458E+02  0.10566000000E+00 0. -1.
         22    1    1    0    0    0  0.23447604708E+02  0.44426908524E+01 -0.16924738743E+02  0.29257041034E+02  0.00000000000E+00 0. -1.
</event>
<event>
 5    1  0.1267644E-004  0.9118800E+02  0.7818608E-02  0.1130116E+00
         25   -1    0    0    0    0  0.00000000000E+00  0.00000000000E+00  0.99999998245E-14  0.12500000000E+03  0.12500000000E+03 0.  0.
        -13    1    3    3    0    0 -0.19526840849E+02 -0.11866162677E+02 -0.21685617255E+02  0.31502071201E+02  0.10566000000E+00 0.  1.
         23    2    1    0    0    0  0.16684327525E+02 -0.17873859280E+00  0.26980006913E+02  0.93277460608E+02  0.87717530472E+02 0.  0.
         13    1    3    3    0    0  0.36211168373E+02  0.11687424084E+02  0.48665624168E+02  0.61775389407E+02  0.10566000000E+00 0. -1.
         22    1    1    0    0    0 -0.16684327525E+02  0.17873859280E+00 -0.26980006913E+02  0.31722539392E+02  0.00000000000E+00 0. -1.
</event>
<event>
 5    1  0.1267644E-004  0.9118800E+02  0.7818608E-02  0.1130116E+00
         25   -1    0    0    0    0  0.00000000000E+00  0.00000000000E+00  0.99999998245E-14  0.12500000000E+03  0.12500000000E+03 0.  0.
        -13    1    3    3    0    0 -0.11039746693E+02  0.54465047435E+02  0.22182964256E+02  0.59836547915E+02  0.10566000000E+00 0. -1.
         23    2    1    0    0    0  0.47563243814E+01  0.29820016489E+02  0.34119499791E+01  0.94610899854E+02  0.89597572308E+02 0.  0.
         13    1    3    3    0    0  0.15796071075E+02 -0.24645030946E+02 -0.18771014277E+02  0.34774351939E+02  0.10566000000E+00 0.  1.
         22    1    1    0    0    0 -0.47563243814E+01 -0.29820016489E+02 -0.34119499791E+01  0.30389100146E+02  0.00000000000E+00 0. -1.
</event>
<event>
 5    1  0.1267644E-004  0.9118800E+02  0.7818608E-02  0.1130116E+00
         25   -1    0    0    0    0  0.00000000000E+00  0.00000000000E+00  0.99999998245E-14  0.12500000000E+03  0.12500000000E+03 0.  0.
        -13    1    3    3    0    0  0.57863037871E+02 -0.40074801555E+01 -0.19292800881E+02  0.61126216788E+02  0.10566000000E+00 0. -1.
         23    2    1    0    0    0  0.25879239797E+02 -0.10947245783E+02 -0.74674191802E+01  0.95925275721E+02  0.91412903521E+02 0.  0.
         13    1    3    3    0    0 -0.31983798074E+02 -0.69397656275E+01  0.11825381701E+02  0.34799058933E+02  0.10566000000E+00 0.  1.
         22    1    1    0    0    0 -0.25879239797E+02  0.10947245783E+02  0.74674191802E+01  0.29074724279E+02  0.00000000000E+00 0. -1.
</event>
<event>
 5    1  0.1267644E-004  0.9118800E+02  0.7818608E-02  0.1130116E+00
         25   -1    0    0    0    0  0.00000000000E+00  0.00000000000E+00  0.99999998245E-14  0.12500000000E+03  0.12500000000E+03 0.  0.
        -13    1    3    3    0    0  0.39952886795E+01  0.56692597214E+02 -0.21404479593E+02  0.60730353376E+02  0.10566000000E+00 0.  1.
         23    2    1    0    0    0 -0.82491664027E+01  0.24604247667E+02 -0.12416199968E+02  0.96232313766E+02  0.91831794285E+02 0.  0.
         13    1    3    3    0    0 -0.12244455082E+02 -0.32088349547E+02  0.89882796245E+01  0.35501960390E+02  0.10566000000E+00 0. -1.
         22    1    1    0    0    0  0.82491664027E+01 -0.24604247667E+02  0.12416199968E+02  0.28767686234E+02  0.00000000000E+00 0.  1.
</event>
<event>
 5    1  0.1267644E-004  0.9118800E+02  0.7818608E-02  0.1130116E+00
         25   -1    0    0    0    0  0.00000000000E+00  0.00000000000E+00  0.99999998245E-14  0.12500000000E+03  0.12500000000E+03 0.  0.
        -13    1    3    3    0    0 -0.33232346882E+01  0.10707305467E+02  0.32728148058E+02  0.34595275957E+02  0.10566000000E+00 0. -1.
         23    2    1    0    0    0  0.77377114296E+01  0.36111389842E+01 -0.27481499814E+02  0.96222485602E+02  0.91818415367E+02 0.  0.
         13    1    3    3    0    0  0.11060946118E+02 -0.70961664829E+01 -0.60209647872E+02  0.61627209645E+02  0.10566000000E+00 0.  1.
         22    1    1    0    0    0 -0.77377114296E+01 -0.36111389842E+01  0.27481499814E+02  0.28777514398E+02  0.00000000000E+00 0.  1.
</event>
<event>
 5    1  0.1267644E-004  0.9118800E+02  0.7818608E-02  0.1130116E+00
         25   -1    0    0    0    0  0.00000000000E+00  0.00000000000E+00  0.99999998245E-14  0.12500000000E+03  0.12500000000E+03 0.  0.
        -13    1    3    3    0    0 -0.10890508176E+02  0.25589746708E+02 -0.53663503701E+02  0.60441881990E+02  0.10566000000E+00 0.  1.
         23    2    1    0    0    0 -0.15341434419E+02  0.76056082455E+01 -0.22079471533E+02  0.97058848449E+02  0.92950051707E+02 0.  0.
         13    1    3    3    0    0 -0.44509262429E+01 -0.17984138462E+02  0.31584032169E+02  0.36616966460E+02  0.10566000000E+00 0. -1.
         22    1    1    0    0    0  0.15341434419E+02 -0.76056082455E+01  0.22079471533E+02  0.27941151551E+02  0.00000000000E+00 0.  1.
</event>
<event>
 5    1  0.1267644E-004  0.9118800E+02  0.7818608E-02  0.1130116E+00
         25   -1    0    0    0    0  0.00000000000E+00  0.00000000000E+00  0.99999998245E-14  0.12500000000E+03  0.12500000000E+03 0.  0.
        -13    1    3    3    0    0 -0.28672755685E+02 -0.22901681735E+02 -0.30131431031E+02  0.47481872803E+02  0.10566000000E+00 0.  1.
         23    2    1    0    0    0  0.12951732496E+02  0.10040764323E+01 -0.26338067587E+02  0.95632512052E+02  0.91011691629E+02 0.  0.
         13    1    3    3    0    0  0.41624488181E+02  0.23905758167E+02  0.37933634435E+01  0.48150639250E+02  0.10566000000E+00 0. -1.
         22    1    1    0    0    0 -0.12951732496E+02 -0.10040764323E+01  0.26338067587E+02  0.29367487948E+02  0.00000000000E+00 0. -1.
</event>
<event>
 5    1  0.1267644E-004  0.9118800E+02  0.7818608E-02  0.1130116E+00
         25   -1    0    0    0    0  0.00000000000E+00  0.00000000000E+00  0.99999998245E-14  0.12500000000E+03  0.12500000000E+03 0.  0.
        -13    1    3    3    0    0  0.45638683618E+02  0.28422934483E+02  0.23615672232E+02  0.58723622045E+02  0.10566000000E+00 0.  1.
         23    2    1    0    0    0  0.11685936158E+02  0.25192958546E+02  0.92936596714E+01  0.95714877937E+02  0.91124746826E+02 0.  0.
         13    1    3    3    0    0 -0.33952747460E+02 -0.32299759372E+01 -0.14322012561E+02  0.36991255892E+02  0.10566000000E+00 0. -1.
         22    1    1    0    0    0 -0.11685936158E+02 -0.25192958546E+02 -0.92936596714E+01  0.29285122063E+02  0.00000000000E+00 0.  1.
</event>
<event>
 5    1  0.1267644E-004  0.9118800E+02  0.7818608E-02  0.1130116E+00
         25   -1    0    0    0    0  0.00000000000E+00  0.00000000000E+00  0.99999998245E-14  0.12500000000E+03  0.12500000000E+03 0.  0.
        -13    1    3    3    0    0  0.79548035073E+01  0.40570595340E+02 -0.43735436914E+02  0.60183483707E+02  0.10566000000E+00 0. -1.
         23    2    1    0    0    0  0.13745343483E+02  0.20498539961E+02 -0.13693076317E+02  0.96775454884E+02  0.92568157165E+02 0.  0.
         13    1    3    3    0    0  0.57905399755E+01 -0.20072055379E+02  0.30042360597E+02  0.36591971177E+02  0.10566000000E+00 0.  1.
         22    1    1    0    0    0 -0.13745343483E+02 -0.20498539961E+02  0.13693076317E+02  0.28224545116E+02  0.00000000000E+00 0. -1.
</event>
<event>
 5    1  0.1267644E-004  0.9118800E+02  0.7818608E-02  0.1130116E+00
         25   -1    0    0    0    0  0.00000000000E+00  0.00000000000E+00  0.99999998245E-14  0.12500000000E+03  0.12500000000E+03 0.  0.
        -13    1    3    3    0    0  0.10874970559E+02 -0.33067599404E+02 -0.24578814222E+02  0.42612913390E+02  0.10566000000E+00 0.  1.
         23    2    1    0    0    0  0.15961724090E+02  0.19092687529E+02 -0.15159140106E+02  0.95860561403E+02  0.91324368877E+02 0.  0.
         13    1    3    3    0    0  0.50867535309E+01  0.52160286933E+02  0.94196741160E+01  0.53247648013E+02  0.10566000000E+00 0. -1.
         22    1    1    0    0    0 -0.15961724090E+02 -0.19092687529E+02  0.15159140106E+02  0.29139438597E+02  0.00000000000E+00 0. -1.
</event>
<event>
 5    1  0.1267644E-004  0.9118800E+02  0.7818608E-02  0.1130116E+00
         25   -1    0    0    0    0  0.00000000000E+00  0.00000000000E+00  0.99999998245E-14  0.12500000000E+03  0.12500000000E+03 0.  0.
        -13    1    3    3    0    0 -0.47510538622E+02  0.74746043875E+01 -0.94191488806E+01  0.49008698418E+02  0.10566000000E+00 0. -1.
         23    2    1    0    0    0 -0.45336115758E+01  0.24589448212E+02 -0.15370638406E+02  0.95649512401E+02  0.91035037762E+02 0.  0.
         13    1    3    3    0    0  0.42976927046E+02  0.17114843824E+02 -0.59514895254E+01  0.46640813984E+02  0.10566000000E+00 0.  1.
         22    1    1    0    0    0  0.45336115758E+01 -0.24589448212E+02  0.15370638406E+02  0.29350487599E+02  0.00000000000E+00 0.  1.
</event>
<event>
 5    1  0.1267644E-004  0.9118800E+02  0.7818608E-02  0.1130116E+00
         25   -1    0    0    0    0  0.00000000000E+00  0.00000000000E+00  0.99999998245E-14  0.12500000000E+03  0.12500000000E+03 0.  0.
        -13    1    3    3    0    0 -0.18165113226E+02  0.19667290382E+02  0.29477251791E+02  0.39820763261E+02  0.10566000000E+00 0. -1.
         23    2    1    0    0    0 -0.70736326157E+00 -0.19510742511E+02 -0.14062800903E+02  0.10093899825E+03  0.98029330110E+02 0.  0.
         13    1    3    3    0    0  0.17457749965E+02 -0.39178032892E+02 -0.43540052695E+02  0.61118234986E+02  0.10566000000E+00 0.  1.
         22    1    1    0    0    0  0.70736326157E+00  0.19510742511E+02  0.14062800903E+02  0.24061001753E+02  0.00000000000E+00 0.  1.
</event>
<event>
 5    1  0.1267644E-004  0.9118800E+02  0.7818608E-02  0.1130116E+00
         25   -1    0    0    0    0  0.00000000000E+00  0.00000000000E+00  0.99999998245E-14  0.12500000000E+03  0.12500000000E+03 0.  0.
        -13    1    3    3    0    0 -0.26140459856E+02 -0.34560739869E+02 -0.19740060688E+02  0.47617743980E+02  0.10566000000E+00 0.  1.
         23    2    1    0    0    0 -0.24630796892E+02 -0.23933538378E+01  0.15848458981E+02  0.95613303177E+02  0.90985305375E+02 0.  0.
         13    1    3    3    0    0  0.15096629648E+01  0.32167386031E+02  0.35588519669E+02  0.47995559197E+02  0.10566000000E+00 0. -1.
         22    1    1    0    0    0  0.24630796892E+02  0.23933538378E+01 -0.15848458981E+02  0.29386696823E+02  0.00000000000E+00 0. -1.
</event>
<event>
 5    1  0.1267644E-004  0.9118800E+02  0.7818608E-02  0.1130116E+00
         25   -1    0    0    0    0  0.00000000000E+00  0.00000000000E+00  0.99999998245E-14  0.12500000000E+03  0.12500000000E+03 0.  0.
        -13    1    3    3    0    0 -0.70532238142E+01 -0.14919045088E+02  0.40618905062E+02  0.43843271833E+02  0.10566000000E+00 0. -1.
         23    2    1    0    0    0  0.30371189802E+02 -0.45242227146E+01  0.12255492335E+02  0.91938317443E+02  0.85787990772E+02 0.  0.
         13    1    3    3    0    0  0.37424413616E+02  0.10394822373E+02 -0.28363412727E+02  0.48095045610E+02  0.10566000000E+00 0.  1.
         22    1    1    0    0    0 -0.30371189802E+02  0.45242227146E+01 -0.12255492335E+02  0.33061682557E+02  0.00000000000E+00 0.  1.
</event>
<event>
 5    1  0.1267644E-004  0.9118800E+02  0.7818608E-02  0.1130116E+00
         25   -1    0    0    0    0  0.00000000000E+00  0.00000000000E+00  0.99999998245E-14  0.12500000000E+03  0.12500000000E+03 0.  0.
        -13    1    3    3    0    0 -0.37171800697E+01  0.40968672671E+02 -0.41430325878E+02  0.58384352651E+02  0.10566000000E+00 0.  1.
         23    2    1    0    0    0 -0.62184461525E+01  0.27534655301E+02 -0.63021115675E+01  0.96076948202E+02  0.91620069037E+02 0.  0.
         13    1    3    3    0    0 -0.25012660828E+01 -0.13434017370E+02  0.35128214310E+02  0.37692595551E+02  0.10566000000E+00 0. -1.
         22    1    1    0    0    0  0.62184461525E+01 -0.27534655301E+02  0.63021115675E+01  0.28923051798E+02  0.00000000000E+00 0.  1.
</event>
<event>
 5    1  0.1267644E-004  0.9118800E+02  0.7818608E-02  0.1130116E+00
         25   -1    0    0    0    0  0.00000000000E+00  0.00000000000E+00  0.99999998245E-14  0.12500000000E+03  0.12500000000E+03 0.  0.
        -13    1    3    3    0    0  0.86807595446E+01  0.99005986770E+01  0.31618017117E+02  0.34250366580E+02  0.10566000000E+00 0. -1.
         23    2    1    0    0    0 -0.10331751013E+02  0.77479060613E+01 -0.26545214138E+02  0.95480116516E+02  0.90802142755E+02 0.  0.
         13    1    3    3    0    0 -0.19012510557E+02 -0.21526926157E+01 -0.58163231254E+02  0.61229749936E+02  0.10566000000E+00 0.  1.
         22    1    1    0    0    0  0.10331751013E+02 -0.77479060613E+01  0.26545214138E+02  0.29519883484E+02  0.00000000000E+00 0.  1.
</event>
<event>
 5    1  0.1267644E-004  0.9118800E+02  0.7818608E-02  0.1130116E+00
         25   -1    0    0    0    0  0.00000000000E+00  0.00000000000E+00  0.99999998245E-14  0.12500000000E+03  0.12500000000E+03 0.  0.
        -13    1    3    3    0    0  0.14933594269E+02 -0.17458076171E+02  0.25786396786E+02  0.34536156194E+02  0.10566000000E+00 0. -1.
         23    2    1    0    0    0 -0.21305295669E+02  0.65083824919E+00 -0.20068956410E+02  0.95723691740E+02  0.91136836323E+02 0.  0.
         13    1    3    3    0    0 -0.36238889938E+02  0.18108914421E+02 -0.45855353196E+02  0.61187535546E+02  0.10566000000E+00 0.  1.
         22    1    1    0    0    0  0.21305295669E+02 -0.65083824919E+00  0.20068956410E+02  0.29276308260E+02  0.00000000000E+00 0.  1.
</event>
<event>
 5    1  0.1267644E-004  0.9118800E+02  0.7818608E-02  0.1130116E+00
         25   -1    0    0    0    0  0.00000000000E+00  0.00000000000E+00  0.99999998245E-14  0.12500000000E+03  0.12500000000E+03 0.  0.
        -13    1    3    3    0    0  0.19594693995E+01 -0.26804144672E+02 -0.23491254241E+02  0.35695264136E+02  0.10566000000E+00 0. -1.
         23    2    1    0    0    0  0.17277598675E+02  0.22956389286E+02  0.61653826820E+01  0.95614235272E+02  0.90986585923E+02 0.  0.
         13    1    3    3    0    0  0.15318129276E+02  0.49760533958E+02  0.29656636923E+02  0.59918971135E+02  0.10566000000E+00 0.  1.
         22    1    1    0    0    0 -0.17277598675E+02 -0.22956389286E+02 -0.61653826820E+01  0.29385764728E+02  0.00000000000E+00 0.  1.
</event>
<event>
 5    1  0.1267644E-004  0.9118800E+02  0.7818608E-02  0.1130116E+00
         25   -1    0    0    0    0  0.00000000000E+00  0.00000000000E+00  0.99999998245E-14  0.12500000000E+03  0.12500000000E+03 0.  0.
        -13    1    3    3    0    0 -0.22043444153E+02 -0.30293513139E+02 -0.35822720588E+02  0.51835208525E+02  0.10566000000E+00 0.  1.
         23    2    1    0    0    0  0.12276876623E+02 -0.24564864815E+02 -0.79707301263E+01  0.96404776243E+02  0.92066248216E+02 0.  0.
         13    1    3    3    0    0  0.34320320776E+02  0.57286483238E+01  0.27851990462E+02  0.44569567718E+02  0.10566000000E+00 0. -1.
         22    1    1    0    0    0 -0.12276876623E+02  0.24564864815E+02  0.79707301263E+01  0.28595223757E+02  0.00000000000E+00 0.  1.
</event>
<event>
 5    1  0.1267644E-004  0.9118800E+02  0.7818608E-02  0.1130116E+00
         25   -1    0    0    0    0  0.00000000000E+00  0.00000000000E+00  0.99999998245E-14  0.12500000000E+03  0.12500000000E+03 0.  0.
        -13    1    3    3    0    0 -0.22583089559E+02  0.28754643128E+02  0.52080742915E+01  0.36931837719E+02  0.10566000000E+00 0. -1.
         23    2    1    0    0    0  0.21229359176E+01 -0.11582176813E+02 -0.27931936668E+02  0.94687514740E+02  0.89704396130E+02 0.  0.
         13    1    3    3    0    0  0.24706025476E+02 -0.40336819941E+02 -0.33140010959E+02  0.57755677021E+02  0.10566000000E+00 0.  1.
         22    1    1    0    0    0 -0.21229359176E+01  0.11582176813E+02  0.27931936668E+02  0.30312485260E+02  0.00000000000E+00 0.  1.
</event>
<event>
 5    1  0.1267644E-004  0.9118800E+02  0.7818608E-02  0.1130116E+00
         25   -1    0    0    0    0  0.00000000000E+00  0.00000000000E+00  0.99999998245E-14  0.12500000000E+03  0.12500000000E+03 0.  0.
        -13    1    3    3    0    0 -0.11591963152E+02 -0.95042891627E+01  0.36143161639E+02  0.39128562707E+02  0.10566000000E+00 0.  1.
         23    2    1    0    0    0  0.28861342374E+02 -0.20853488668E+01 -0.30025790708E+01  0.95908055332E+02  0.91389352952E+02 0.  0.
         13    1    3    3    0    0  0.40453305525E+02  0.74189402959E+01 -0.39145740710E+02  0.56779492625E+02  0.10566000000E+00 0. -1.
         22    1    1    0    0    0 -0.28861342374E+02  0.20853488668E+01  0.30025790708E+01  0.29091944668E+02  0.00000000000E+00 0. -1.
</event>
<event>
 5    1  0.1267644E-004  0.9118800E+02  0.7818608E-02  0.1130116E+00
         25   -1    0    0    0    0  0.00000000000E+00  0.00000000000E+00  0.99999998245E-14  0.12500000000E+03  0.12500000000E+03 0.  0.
        -13    1    3    3    0    0 -0.37553478372E+02  0.26776973647E+02  0.36031355389E+02  0.58528111115E+02  0.10566000000E+00 0. -1.
         23    2    1    0    0    0 -0.19432380009E+02 -0.25966918964E+01  0.21290269520E+02  0.96058061954E+02  0.91594298341E+02 0.  0.
         13    1    3    3    0    0  0.18121098363E+02 -0.29373665543E+02 -0.14741085869E+02  0.37529950839E+02  0.10566000000E+00 0.  1.
         22    1    1    0    0    0  0.19432380009E+02  0.25966918964E+01 -0.21290269520E+02  0.28941938046E+02  0.00000000000E+00 0. -1.
</event>
<event>
 5    1  0.1267644E-004  0.9118800E+02  0.7818608E-02  0.1130116E+00
         25   -1    0    0    0    0  0.00000000000E+00  0.00000000000E+00  0.99999998245E-14  0.12500000000E+03  0.12500000000E+03 0.  0.
        -13    1    3    3    0    0  0.38604546838E+02 -0.32066317621E+02 -0.19770241205E+02  0.53939163542E+02  0.10566000000E+00 0. -1.
         23    2    1    0    0    0  0.10717596151E+02 -0.26148967827E+01 -0.27626194283E+02  0.95252543588E+02  0.90488319119E+02 0.  0.
         13    1    3    3    0    0 -0.27886950687E+02  0.29451420838E+02 -0.78559530778E+01  0.41313380046E+02  0.10566000000E+00 0.  1.
         22    1    1    0    0    0 -0.10717596151E+02  0.26148967827E+01  0.27626194283E+02  0.29747456412E+02  0.00000000000E+00 0. -1.
</event>
<event>
 5    1  0.1267644E-004  0.9118800E+02  0.7818608E-02  0.1130116E+00
         25   -1    0    0    0    0  0.00000000000E+00  0.00000000000E+00  0.99999998245E-14  0.12500000000E+03  0.12500000000E+03 0.  0.
        -13    1    3    3    0    0 -0.21136376815E+02 -0.33488504011E+02 -0.18436746631E+02  0.43682389084E+02  0.10566000000E+00 0. -1.
         23    2    1    0    0    0  0.84217557101E+01 -0.10093212777E+01 -0.33756988130E+02  0.90193693872E+02  0.83207111883E+02 0.  0.
         13    1    3    3    0    0  0.29558132526E+02  0.32479182733E+02 -0.15320241499E+02  0.46511304787E+02  0.10566000000E+00 0.  1.
         22    1    1    0    0    0 -0.84217557101E+01  0.10093212777E+01  0.33756988130E+02  0.34806306128E+02  0.00000000000E+00 0.  1.
</event>
<event>
 5    1  0.1267644E-004  0.9118800E+02  0.7818608E-02  0.1130116E+00
         25   -1    0    0    0    0  0.00000000000E+00  0.00000000000E+00  0.99999998245E-14  0.12500000000E+03  0.12500000000E+03 0.  0.
        -13    1    3    3    0    0 -0.91834267244E+01 -0.55561261265E+02 -0.76559681520E+01  0.56833212932E+02  0.10566000000E+00 0. -1.
         23    2    1    0    0    0  0.94521534295E+01 -0.21498940293E+02 -0.16046397001E+02  0.96556468312E+02  0.92271973415E+02 0.  0.
         13    1    3    3    0    0  0.18635580154E+02  0.34062320972E+02 -0.83904288490E+01  0.39723255380E+02  0.10566000000E+00 0.  1.
         22    1    1    0    0    0 -0.94521534295E+01  0.21498940293E+02  0.16046397001E+02  0.28443531688E+02  0.00000000000E+00 0. -1.
</event>
<event>
 5    1  0.1267644E-004  0.9118800E+02  0.7818608E-02  0.1130116E+00
         25   -1    0    0    0    0  0.00000000000E+00  0.00000000000E+00  0.99999998245E-14  0.12500000000E+03  0.12500000000E+03 0.  0.
        -13    1    3    3    0    0 -0.45391403051E+02 -0.21457469236E+00  0.25260290459E+02  0.51947270875E+02  0.10566000000E+00 0. -1.
         23    2    1    0    0    0 -0.24653923344E+02 -0.10055598595E+02 -0.12066812722E+02  0.95767501499E+02  0.91196904415E+02 0.  0.
         13    1    3    3    0    0  0.20737479707E+02 -0.98410239023E+01 -0.37327103181E+02  0.43820230624E+02  0.10566000000E+00 0.  1.
         22    1    1    0    0    0  0.24653923344E+02  0.10055598595E+02  0.12066812722E+02  0.29232498501E+02  0.00000000000E+00 0. -1.
</event>
<event>
 5    1  0.1267644E-004  0.9118800E+02  0.7818608E-02  0.1130116E+00
         25   -1    0    0    0    0  0.00000000000E+00  0.00000000000E+00  0.99999998245E-14  0.12500000000E+03  0.12500000000E+03 0.  0.
        -13    1    3    3    0    0  0.39699439349E+02  0.60877154236E+01  0.63189061206E+01  0.40657662283E+02  0.10566000000E+00 0.  1.
         23    2    1    0    0    0 -0.79507211171E+01 -0.87926855796E+01  0.27628755774E+02  0.94935512118E+02  0.90049308879E+02 0.  0.
         13    1    3    3    0    0 -0.47650160466E+02 -0.14880401003E+02  0.21309849653E+02  0.54277849835E+02  0.10566000000E+00 0. -1.
         22    1    1    0    0    0  0.79507211171E+01  0.87926855796E+01 -0.27628755774E+02  0.30064487882E+02  0.00000000000E+00 0. -1.
</event>
<event>
 5    1  0.1267644E-004  0.9118800E+02  0.7818608E-02  0.1130116E+00
         25   -1    0    0    0    0  0.00000000000E+00  0.00000000000E+00  0.99999998245E-14  0.12500000000E+03  0.12500000000E+03 0.  0.
        -13    1    3    3    0    0 -0.31722761350E+02 -0.29239401299E+02 -0.30559668605E+02  0.52869468366E+02  0.10566000000E+00 0.  1.
         23    2    1    0    0    0 -0.69907916156E+01 -0.28468903874E+02  0.40416866371E+01  0.95408026661E+02  0.90702848165E+02 0.  0.
         13    1    3    3    0    0  0.24731969735E+02  0.77049742447E+00  0.34601355242E+02  0.42538558296E+02  0.10566000000E+00 0. -1.
         22    1    1    0    0    0  0.69907916156E+01  0.28468903874E+02 -0.40416866371E+01  0.29591973339E+02  0.00000000000E+00 0.  1.
</event>
<event>
 5    1  0.1267644E-004  0.9118800E+02  0.7818608E-02  0.1130116E+00
         25   -1    0    0    0    0  0.00000000000E+00  0.00000000000E+00  0.99999998245E-14  0.12500000000E+03  0.12500000000E+03 0.  0.
        -13    1    3    3    0    0 -0.30849461253E+02  0.15398456405E+02 -0.30921443374E+02  0.46313589190E+02  0.10566000000E+00 0. -1.
         23    2    1    0    0    0 -0.17839449192E+02  0.26965262150E+02  0.10305299113E+02  0.91065202224E+02  0.84506216079E+02 0.  0.
         13    1    3    3    0    0  0.13010012061E+02  0.11566805746E+02  0.41226742487E+02  0.44751613034E+02  0.10566000000E+00 0.  1.
         22    1    1    0    0    0  0.17839449192E+02 -0.26965262150E+02 -0.10305299113E+02  0.33934797776E+02  0.00000000000E+00 0. -1.
</event>
<event>
 5    1  0.1267644E-004  0.9118800E+02  0.7818608E-02  0.1130116E+00
         25   -1    0    0    0    0  0.00000000000E+00  0.00000000000E+00  0.99999998245E-14  0.12500000000E+03  0.12500000000E+03 0.  0.
        -13    1    3    3    0    0  0.17696292746E+02 -0.23871903424E+01  0.47448589060E+02  0.50697507064E+02  0.10566000000E+00 0. -1.
         23    2    1    0    0    0 -0.73473813218E+01  0.21407988662E+02  0.18799797110E+02  0.95576907671E+02  0.90935289727E+02 0.  0.
         13    1    3    3    0    0 -0.25043674068E+02  0.23795179004E+02 -0.28648791950E+02  0.44879400607E+02  0.10566000000E+00 0.  1.
         22    1    1    0    0    0  0.73473813218E+01 -0.21407988662E+02 -0.18799797110E+02  0.29423092329E+02  0.00000000000E+00 0.  1.
</event>
<event>
 5    1  0.1267644E-004  0.9118800E+02  0.7818608E-02  0.1130116E+00
         25   -1    0    0    0    0  0.00000000000E+00  0.00000000000E+00  0.99999998245E-14  0.12500000000E+03  0.12500000000E+03 0.  0.
        -13    1    3    3    0    0 -0.33519222401E+02  0.37258002913E+01 -0.94429889198E+01  0.35022864845E+02  0.10566000000E+00 0.  1.
         23    2    1    0    0    0  0.12663665459E+02  0.74252420090E+01  0.27199012485E+02  0.94092251426E+02  0.88871046222E+02 0.  0.
         13    1    3    3    0    0  0.46182887860E+02  0.36994417177E+01  0.36642001405E+02  0.59069386581E+02  0.10566000000E+00 0. -1.
         22    1    1    0    0    0 -0.12663665459E+02 -0.74252420090E+01 -0.27199012485E+02  0.30907748574E+02  0.00000000000E+00 0. -1.
</event>
<event>
 5    1  0.1267644E-004  0.9118800E+02  0.7818608E-02  0.1130116E+00
         25   -1    0    0    0    0  0.00000000000E+00  0.00000000000E+00  0.99999998245E-14  0.12500000000E+03  0.12500000000E+03 0.  0.
        -13    1    3    3    0    0  0.16911345325E+02  0.28233674745E+02  0.49994488990E+02  0.59854774945E+02  0.10566000000E+00 0. -1.
         23    2    1    0    0    0  0.18385694111E+02  0.15381086304E+02  0.16127518997E+02  0.96108678936E+02  0.91663350004E+02 0.  0.
         13    1    3    3    0    0  0.14743487862E+01 -0.12852588441E+02 -0.33866969993E+02  0.36253903990E+02  0.10566000000E+00 0.  1.
         22    1    1    0    0    0 -0.18385694111E+02 -0.15381086304E+02 -0.16127518997E+02  0.28891321064E+02  0.00000000000E+00 0. -1.
</event>
<event>
 5    1  0.1267644E-004  0.9118800E+02  0.7818608E-02  0.1130116E+00
         25   -1    0    0    0    0  0.00000000000E+00  0.00000000000E+00  0.99999998245E-14  0.12500000000E+03  0.12500000000E+03 0.  0.
        -13    1    3    3    0    0  0.31058817615E+02 -0.25199067415E+02 -0.20183896663E+02  0.44800044629E+02  0.10566000000E+00 0. -1.
         23    2    1    0    0    0  0.13436695928E+02  0.22546891609E+02 -0.11117261047E+02  0.96495603639E+02  0.92189483727E+02 0.  0.
         13    1    3    3    0    0 -0.17622121687E+02  0.47745959025E+02  0.90666356155E+01  0.51695559010E+02  0.10566000000E+00 0.  1.
         22    1    1    0    0    0 -0.13436695928E+02 -0.22546891609E+02  0.11117261047E+02  0.28504396361E+02  0.00000000000E+00 0.  1.
</event>
<event>
 5    1  0.1267644E-004  0.9118800E+02  0.7818608E-02  0.1130116E+00
         25   -1    0    0    0    0  0.00000000000E+00  0.00000000000E+00  0.99999998245E-14  0.12500000000E+03  0.12500000000E+03 0.  0.
        -13    1    3    3    0    0  0.21947737456E+02 -0.36906461610E+02 -0.52050055889E+01  0.43253824516E+02  0.10566000000E+00 0.  1.
         23    2    1    0    0    0 -0.41495117586E+01  0.28300958485E+01 -0.28406019748E+02  0.96153339044E+02  0.91724232137E+02 0.  0.
         13    1    3    3    0    0 -0.26097249215E+02  0.39736557459E+02 -0.23201014160E+02  0.52899514528E+02  0.10566000000E+00 0. -1.
         22    1    1    0    0    0  0.41495117586E+01 -0.28300958485E+01  0.28406019748E+02  0.28846660956E+02  0.00000000000E+00 0. -1.
</event>
<event>
 5    1  0.1267644E-004  0.9118800E+02  0.7818608E-02  0.1130116E+00
         25   -1    0    0    0    0  0.00000000000E+00  0.00000000000E+00  0.99999998245E-14  0.12500000000E+03  0.12500000000E+03 0.  0.
        -13    1    3    3    0    0 -0.51535959361E+02 -0.86309252770E+01 -0.17347306206E+02  0.55058043690E+02  0.10566000000E+00 0. -1.
         23    2    1    0    0    0 -0.21550895674E+02 -0.83441089534E+01  0.13628682219E+02  0.98170795062E+02  0.94433568001E+02 0.  0.
         13    1    3    3    0    0  0.29985063686E+02  0.28681632366E+00  0.30975988425E+02  0.43112751372E+02  0.10566000000E+00 0.  1.
         22    1    1    0    0    0  0.21550895674E+02  0.83441089534E+01 -0.13628682219E+02  0.26829204938E+02  0.00000000000E+00 0. -1.
</event>
<event>
 5    1  0.1267644E-004  0.9118800E+02  0.7818608E-02  0.1130116E+00
         25   -1    0    0    0    0  0.00000000000E+00  0.00000000000E+00  0.99999998245E-14  0.12500000000E+03  0.12500000000E+03 0.  0.
        -13    1    3    3    0    0 -0.41461019999E+02 -0.14063488853E+02 -0.18957363694E+02  0.47709440370E+02  0.10566000000E+00 0. -1.
         23    2    1    0    0    0  0.31553896759E+01  0.12260641080E+01 -0.28893951927E+02  0.95908417452E+02  0.91389848249E+02 0.  0.
         13    1    3    3    0    0  0.44616409675E+02  0.15289552961E+02 -0.99365882323E+01  0.48198977082E+02  0.10566000000E+00 0.  1.
         22    1    1    0    0    0 -0.31553896759E+01 -0.12260641080E+01  0.28893951927E+02  0.29091582548E+02  0.00000000000E+00 0. -1.
</event>
<event>
 5    1  0.1267644E-004  0.9118800E+02  0.7818608E-02  0.1130116E+00
         25   -1    0    0    0    0  0.00000000000E+00  0.00000000000E+00  0.99999998245E-14  0.12500000000E+03  0.12500000000E+03 0.  0.
        -13    1    3    3    0    0 -0.24432313746E+02 -0.10107358138E+02  0.50874352728E+02  0.57335046639E+02  0.10566000000E+00 0. -1.
         23    2    1    0    0    0  0.36374417012E+01  0.43974076332E+01  0.28208149403E+02  0.96220356695E+02  0.91815517064E+02 0.  0.
         13    1    3    3    0    0  0.28069755447E+02  0.14504765771E+02 -0.22666203325E+02  0.38885310056E+02  0.10566000000E+00 0.  1.
         22    1    1    0    0    0 -0.36374417012E+01 -0.43974076332E+01 -0.28208149403E+02  0.28779643305E+02  0.00000000000E+00 0. -1.
</event>
<event>
 5    1  0.1267644E-004  0.9118800E+02  0.7818608E-02  0.1130116E+00
         25   -1    0    0    0    0  0.00000000000E+00  0.00000000000E+00  0.99999998245E-14  0.12500000000E+03  0.12500000000E+03 0.  0.
        -13    1    3    3    0    0 -0.13626311533E+02  0.14807058755E+02 -0.28790886712E+02  0.35126224913E+02  0.10566000000E+00 0. -1.
         23    2    1    0    0    0 -0.18211527847E+02 -0.13413047605E+02  0.22023121391E+02  0.93431226372E+02  0.87936378098E+02 0.  0.
         13    1    3    3    0    0 -0.45852163143E+01 -0.28220106360E+02  0.50814008103E+02  0.58305001459E+02  0.10566000000E+00 0.  1.
         22    1    1    0    0    0  0.18211527847E+02  0.13413047605E+02 -0.22023121391E+02  0.31568773628E+02  0.00000000000E+00 0.  1.
</event>
<event>
 5    1  0.1267644E-004  0.9118800E+02  0.7818608E-02  0.1130116E+00
         25   -1    0    0    0    0  0.00000000000E+00  0.00000000000E+00  0.99999998245E-14  0.12500000000E+03  0.12500000000E+03 0.  0.
        -13    1    3    3    0    0 -0.93680302796E-01 -0.32485913503E+02  0.48734554045E+02  0.58569712942E+02  0.10566000000E+00 0.  1.
         23    2    1    0    0    0 -0.44206402337E+01 -0.17217162300E+01  0.29525419421E+02  0.95095873883E+02  0.90271637133E+02 0.  0.
         13    1    3    3    0    0 -0.43269599309E+01  0.30764197273E+02 -0.19209134624E+02  0.36526160941E+02  0.10566000000E+00 0. -1.
         22    1    1    0    0    0  0.44206402337E+01  0.17217162300E+01 -0.29525419421E+02  0.29904126117E+02  0.00000000000E+00 0.  1.
</event>
<event>
 5    1  0.1267644E-004  0.9118800E+02  0.7818608E-02  0.1130116E+00
         25   -1    0    0    0    0  0.00000000000E+00  0.00000000000E+00  0.99999998245E-14  0.12500000000E+03  0.12500000000E+03 0.  0.
        -13    1    3    3    0    0 -0.29449330233E+01 -0.25322644236E+02 -0.54052517671E+02  0.59762820986E+02  0.10566000000E+00 0. -1.
         23    2    1    0    0    0  0.10935971729E+02 -0.15483911317E+02 -0.22779642696E+02  0.95364563295E+02  0.90642930357E+02 0.  0.
         13    1    3    3    0    0  0.13880904752E+02  0.98387329189E+01  0.31272874975E+02  0.35601742309E+02  0.10566000000E+00 0.  1.
         22    1    1    0    0    0 -0.10935971729E+02  0.15483911317E+02  0.22779642696E+02  0.29635436705E+02  0.00000000000E+00 0. -1.
</event>
<event>
 5    1  0.1267644E-004  0.9118800E+02  0.7818608E-02  0.1130116E+00
         25   -1    0    0    0    0  0.00000000000E+00  0.00000000000E+00  0.99999998245E-14  0.12500000000E+03  0.12500000000E+03 0.  0.
        -13    1    3    3    0    0  0.10213663434E+02  0.19435514222E+02 -0.48406278972E+02  0.53152959859E+02  0.10566000000E+00 0.  1.
         23    2    1    0    0    0  0.15306231123E+02 -0.12859612857E+02 -0.22767448277E+02  0.94701368759E+02  0.89723699153E+02 0.  0.
         13    1    3    3    0    0  0.50925676894E+01 -0.32295127079E+02  0.25638830695E+02  0.41548408900E+02  0.10566000000E+00 0. -1.
         22    1    1    0    0    0 -0.15306231123E+02  0.12859612857E+02  0.22767448277E+02  0.30298631241E+02  0.00000000000E+00 0.  1.
</event>
<event>
 5    1  0.1267644E-004  0.9118800E+02  0.7818608E-02  0.1130116E+00
         25   -1    0    0    0    0  0.00000000000E+00  0.00000000000E+00  0.99999998245E-14  0.12500000000E+03  0.12500000000E+03 0.  0.
        -13    1    3    3    0    0  0.49120992564E+02 -0.10639739237E+02 -0.34442839640E+02  0.60929437286E+02  0.10566000000E+00 0.  1.
         23    2    1    0    0    0  0.20431684866E+02 -0.15251899467E+01 -0.25411619449E+02  0.92357537564E+02  0.86396668865E+02 0.  0.
         13    1    3    3    0    0 -0.28689307697E+02  0.91145492906E+01  0.90312201905E+01  0.31428100278E+02  0.10566000000E+00 0. -1.
         22    1    1    0    0    0 -0.20431684866E+02  0.15251899467E+01  0.25411619449E+02  0.32642462436E+02  0.00000000000E+00 0.  1.
</event>
<event>
 5    1  0.1267644E-004  0.9118800E+02  0.7818608E-02  0.1130116E+00
         25   -1    0    0    0    0  0.00000000000E+00  0.00000000000E+00  0.99999998245E-14  0.12500000000E+03  0.12500000000E+03 0.  0.
        -13    1    3    3    0    0  0.22178442435E+02 -0.23801243662E+02 -0.27449045391E+01  0.32648555461E+02  0.10566000000E+00 0.  1.
         23    2    1    0    0    0 -0.16718041783E+02  0.15515494142E+02 -0.23993014424E+02  0.91895797538E+02  0.85726013464E+02 0.  0.
         13    1    3    3    0    0 -0.38896484218E+02  0.39316737804E+02 -0.21248109885E+02  0.59247242077E+02  0.10566000000E+00 0. -1.
         22    1    1    0    0    0  0.16718041783E+02 -0.15515494142E+02  0.23993014424E+02  0.33104202462E+02  0.00000000000E+00 0. -1.
</event>
<event>
 5    1  0.1267644E-004  0.9118800E+02  0.7818608E-02  0.1130116E+00
         25   -1    0    0    0    0  0.00000000000E+00  0.00000000000E+00  0.99999998245E-14  0.12500000000E+03  0.12500000000E+03 0.  0.
        -13    1    3    3    0    0 -0.14733469945E+02  0.28875515383E+02  0.11702874319E+02  0.34465039628E+02  0.10566000000E+00 0.  1.
         23    2    1    0    0    0  0.17600816169E+02 -0.14371181133E+02 -0.17925870420E+02  0.96057705563E+02  0.91593811967E+02 0.  0.
         13    1    3    3    0    0  0.32334286114E+02 -0.43246696516E+02 -0.29628744739E+02  0.61592665934E+02  0.10566000000E+00 0. -1.
         22    1    1    0    0    0 -0.17600816169E+02  0.14371181133E+02  0.17925870420E+02  0.28942294437E+02  0.00000000000E+00 0. -1.
</event>
<event>
 5    1  0.1267644E-004  0.9118800E+02  0.7818608E-02  0.1130116E+00
         25   -1    0    0    0    0  0.00000000000E+00  0.00000000000E+00  0.99999998245E-14  0.12500000000E+03  0.12500000000E+03 0.  0.
        -13    1    3    3    0    0 -0.25901583431E+02 -0.42654733931E+01 -0.30414623543E+02  0.40176445547E+02  0.10566000000E+00 0.  1.
         23    2    1    0    0    0  0.16801966943E+02  0.18510394493E+02  0.41626735654E+01  0.99656980278E+02  0.96380729762E+02 0.  0.
         13    1    3    3    0    0  0.42703550374E+02  0.22775867886E+02  0.34577297108E+02  0.59480534731E+02  0.10566000000E+00 0. -1.
         22    1    1    0    0    0 -0.16801966943E+02 -0.18510394493E+02 -0.41626735654E+01  0.25343019722E+02  0.00000000000E+00 0. -1.
</event>
<event>
 5    1  0.1267644E-004  0.9118800E+02  0.7818608E-02  0.1130116E+00
         25   -1    0    0    0    0  0.00000000000E+00  0.00000000000E+00  0.99999998245E-14  0.12500000000E+03  0.12500000000E+03 0.  0.
        -13    1    3    3    0    0  0.86657061272E+01 -0.26993262480E+02  0.23486672713E+02  0.36815290860E+02  0.10566000000E+00 0.  1.
         23    2    1    0    0    0  0.84528221604E+01  0.13773303302E+02 -0.21874289635E+02  0.97803701844E+02  0.93946396744E+02 0.  0.
         13    1    3    3    0    0 -0.21288396687E+00  0.40766565782E+02 -0.45360962348E+02  0.60988410984E+02  0.10566000000E+00 0. -1.
         22    1    1    0    0    0 -0.84528221604E+01 -0.13773303302E+02  0.21874289635E+02  0.27196298156E+02  0.00000000000E+00 0. -1.
</event>
<event>
 5    1  0.1267644E-004  0.9118800E+02  0.7818608E-02  0.1130116E+00
         25   -1    0    0    0    0  0.00000000000E+00  0.00000000000E+00  0.99999998245E-14  0.12500000000E+03  0.12500000000E+03 0.  0.
        -13    1    3    3    0    0  0.20514630956E+02 -0.34628586494E+02  0.41386064240E+02  0.57730464775E+02  0.10566000000E+00 0.  1.
         23    2    1    0    0    0  0.16959794799E+02 -0.11084667523E+01  0.23811444902E+02  0.95745115853E+02  0.91166216128E+02 0.  0.
         13    1    3    3    0    0 -0.35548361574E+01  0.33520119742E+02 -0.17574619338E+02  0.38014651077E+02  0.10566000000E+00 0. -1.
         22    1    1    0    0    0 -0.16959794799E+02  0.11084667523E+01 -0.23811444902E+02  0.29254884147E+02  0.00000000000E+00 0.  1.
</event>
<event>
 5    1  0.1267644E-004  0.9118800E+02  0.7818608E-02  0.1130116E+00
         25   -1    0    0    0    0  0.00000000000E+00  0.00000000000E+00  0.99999998245E-14  0.12500000000E+03  0.12500000000E+03 0.  0.
        -13    1    3    3    0    0 -0.23515577438E+02 -0.24337405320E+02 -0.41161253418E+02  0.53287443426E+02  0.10566000000E+00 0. -1.
         23    2    1    0    0    0 -0.80877206580E+01 -0.28213806558E+02 -0.19703626215E+01  0.95583806589E+02  0.90944772512E+02 0.  0.
         13    1    3    3    0    0  0.15427856780E+02 -0.38764012381E+01  0.39190890796E+02  0.42296363163E+02  0.10566000000E+00 0.  1.
         22    1    1    0    0    0  0.80877206580E+01  0.28213806558E+02  0.19703626215E+01  0.29416193411E+02  0.00000000000E+00 0. -1.
</event>
<event>
 5    1  0.1267644E-004  0.9118800E+02  0.7818608E-02  0.1130116E+00
         25   -1    0    0    0    0  0.00000000000E+00  0.00000000000E+00  0.99999998245E-14  0.12500000000E+03  0.12500000000E+03 0.  0.
        -13    1    3    3    0    0  0.27044643729E+02 -0.17260257433E+02 -0.45756919951E+02  0.55884131277E+02  0.10566000000E+00 0.  1.
         23    2    1    0    0    0 -0.48290388542E+01 -0.19124645654E+02 -0.20035945534E+02  0.96883976079E+02  0.92714583641E+02 0.  0.
         13    1    3    3    0    0 -0.31873682584E+02 -0.18643882209E+01  0.25720974416E+02  0.40999844803E+02  0.10566000000E+00 0. -1.
         22    1    1    0    0    0  0.48290388542E+01  0.19124645654E+02  0.20035945534E+02  0.28116023921E+02  0.00000000000E+00 0.  1.
</event>
<event>
 5    1  0.1267644E-004  0.9118800E+02  0.7818608E-02  0.1130116E+00
         25   -1    0    0    0    0  0.00000000000E+00  0.00000000000E+00  0.99999998245E-14  0.12500000000E+03  0.12500000000E+03 0.  0.
        -13    1    3    3    0    0 -0.27519339927E+02  0.74347335603E+01 -0.49740371554E+02  0.57329792076E+02  0.10566000000E+00 0.  1.
         23    2    1    0    0    0 -0.14926224116E+02 -0.13581085248E+02 -0.14931432328E+02  0.99896499960E+02  0.96690873354E+02 0.  0.
         13    1    3    3    0    0  0.12593115810E+02 -0.21015818808E+02  0.34808939226E+02  0.42566707884E+02  0.10566000000E+00 0. -1.
         22    1    1    0    0    0  0.14926224116E+02  0.13581085248E+02  0.14931432328E+02  0.25103500040E+02  0.00000000000E+00 0.  1.
</event>
<event>
 5    1  0.1267644E-004  0.9118800E+02  0.7818608E-02  0.1130116E+00
         25   -1    0    0    0    0  0.00000000000E+00  0.00000000000E+00  0.99999998245E-14  0.12500000000E+03  0.12500000000E+03 0.  0.
        -13    1    3    3    0    0  0.51319488440E+02 -0.17822519371E+02  0.26079263147E+02  0.60261689495E+02  0.10566000000E+00 0.  1.
         23    2    1    0    0    0  0.17919041868E+02 -0.16597612635E+02  0.18032511868E+02  0.94639758056E+02  0.89637824125E+02 0.  0.
         13    1    3    3    0    0 -0.33400446573E+02  0.12249067360E+01 -0.80467512785E+01  0.34378068560E+02  0.10566000000E+00 0. -1.
         22    1    1    0    0    0 -0.17919041868E+02  0.16597612635E+02 -0.18032511868E+02  0.30360241944E+02  0.00000000000E+00 0.  1.
</event>
<event>
 5    1  0.1267644E-004  0.9118800E+02  0.7818608E-02  0.1130116E+00
         25   -1    0    0    0    0  0.00000000000E+00  0.00000000000E+00  0.99999998245E-14  0.12500000000E+03  0.12500000000E+03 0.  0.
        -13    1    3    3    0    0 -0.16836022773E+02 -0.27706361445E+02 -0.44954548720E+02  0.55425776873E+02  0.10566000000E+00 0.  1.
         23    2    1    0    0    0  0.81054977984E+01  0.74443973339E+00 -0.26023469567E+02  0.97733275712E+02  0.93852644758E+02 0.  0.
         13    1    3    3    0    0  0.24941520571E+02  0.28450801179E+02  0.18931079153E+02  0.42307498839E+02  0.10566000000E+00 0. -1.
         22    1    1    0    0    0 -0.81054977984E+01 -0.74443973339E+00  0.26023469567E+02  0.27266724288E+02  0.00000000000E+00 0. -1.
</event>
<event>
 5    1  0.1267644E-004  0.9118800E+02  0.7818608E-02  0.1130116E+00
         25   -1    0    0    0    0  0.00000000000E+00  0.00000000000E+00  0.99999998245E-14  0.12500000000E+03  0.12500000000E+03 0.  0.
        -13    1    3    3    0    0 -0.11118832223E+02  0.24403174121E+02 -0.49272438503E+02  0.56097483877E+02  0.10566000000E+00 0. -1.
         23    2    1    0    0    0  0.36084560996E+01  0.26024346528E+02 -0.12178013350E+02  0.96041554310E+02  0.91571767360E+02 0.  0.
         13    1    3    3    0    0  0.14727288323E+02  0.16211724069E+01  0.37094425153E+02  0.39944070433E+02  0.10566000000E+00 0.  1.
         22    1    1    0    0    0 -0.36084560996E+01 -0.26024346528E+02  0.12178013350E+02  0.28958445690E+02  0.00000000000E+00 0. -1.
</event>
<event>
 5    1  0.1267644E-004  0.9118800E+02  0.7818608E-02  0.1130116E+00
         25   -1    0    0    0    0  0.00000000000E+00  0.00000000000E+00  0.99999998245E-14  0.12500000000E+03  0.12500000000E+03 0.  0.
        -13    1    3    3    0    0  0.21693508090E+02  0.24430829485E+02  0.20359291466E+01  0.32735758646E+02  0.10566000000E+00 0. -1.
         23    2    1    0    0    0 -0.11869687940E+01  0.21708204267E+02  0.41337538630E+02  0.78294035419E+02  0.62837161416E+02 0.  0.
         13    1    3    3    0    0 -0.22880476884E+02 -0.27226252175E+01  0.39301609484E+02  0.45558276773E+02  0.10566000000E+00 0.  1.
         22    1    1    0    0    0  0.11869687940E+01 -0.21708204267E+02 -0.41337538630E+02  0.46705964581E+02  0.00000000000E+00 0.  1.
</event>
<event>
 5    1  0.1267644E-004  0.9118800E+02  0.7818608E-02  0.1130116E+00
         25   -1    0    0    0    0  0.00000000000E+00  0.00000000000E+00  0.99999998245E-14  0.12500000000E+03  0.12500000000E+03 0.  0.
        -13    1    3    3    0    0  0.12767928876E+02 -0.58235746692E+01 -0.31125648927E+02  0.34143099081E+02  0.10566000000E+00 0. -1.
         23    2    1    0    0    0 -0.24188609450E+02  0.24552944027E+02 -0.13176875069E+01  0.90508375105E+02  0.83678514424E+02 0.  0.
         13    1    3    3    0    0 -0.36956538325E+02  0.30376518697E+02  0.29807961420E+02  0.56365276024E+02  0.10566000000E+00 0.  1.
         22    1    1    0    0    0  0.24188609450E+02 -0.24552944027E+02  0.13176875069E+01  0.34491624895E+02  0.00000000000E+00 0.  1.
</event>
<event>
 5    1  0.1267644E-004  0.9118800E+02  0.7818608E-02  0.1130116E+00
         25   -1    0    0    0    0  0.00000000000E+00  0.00000000000E+00  0.99999998245E-14  0.12500000000E+03  0.12500000000E+03 0.  0.
        -13    1    3    3    0    0  0.19565997829E+02 -0.38839121779E+01 -0.57953032300E+02  0.61290114714E+02  0.10566000000E+00 0. -1.
         23    2    1    0    0    0  0.21549314351E+01  0.29458967750E+01 -0.29082261260E+02  0.95689593021E+02  0.91090055742E+02 0.  0.
         13    1    3    3    0    0 -0.17411066393E+02  0.68298089528E+01  0.28870771040E+02  0.34399478307E+02  0.10566000000E+00 0.  1.
         22    1    1    0    0    0 -0.21549314351E+01 -0.29458967750E+01  0.29082261260E+02  0.29310406979E+02  0.00000000000E+00 0. -1.
</event>
<event>
 5    1  0.1267644E-004  0.9118800E+02  0.7818608E-02  0.1130116E+00
         25   -1    0    0    0    0  0.00000000000E+00  0.00000000000E+00  0.99999998245E-14  0.12500000000E+03  0.12500000000E+03 0.  0.
        -13    1    3    3    0    0 -0.31904407421E+02  0.14158485561E+02  0.39059651704E+02  0.52383408456E+02  0.10566000000E+00 0. -1.
         23    2    1    0    0    0  0.34031667668E+01  0.24192045297E+02  0.13789608880E+02  0.96946659508E+02  0.92799056445E+02 0.  0.
         13    1    3    3    0    0  0.35307574188E+02  0.10033559736E+02 -0.25270042824E+02  0.44563251052E+02  0.10566000000E+00 0.  1.
         22    1    1    0    0    0 -0.34031667668E+01 -0.24192045297E+02 -0.13789608880E+02  0.28053340492E+02  0.00000000000E+00 0. -1.
</event>
<event>
 5    1  0.1267644E-004  0.9118800E+02  0.7818608E-02  0.1130116E+00
         25   -1    0    0    0    0  0.00000000000E+00  0.00000000000E+00  0.99999998245E-14  0.12500000000E+03  0.12500000000E+03 0.  0.
        -13    1    3    3    0    0  0.72381518116E+01  0.18961923981E+01 -0.61735699233E+02  0.62187571998E+02  0.10566000000E+00 0.  1.
         23    2    1    0    0    0 -0.70245858780E+00 -0.74492959634E+00 -0.29189169895E+02  0.95792877455E+02  0.91231679607E+02 0.  0.
         13    1    3    3    0    0 -0.79406103995E+01 -0.26411219944E+01  0.32546529338E+02  0.33605305457E+02  0.10566000000E+00 0. -1.
         22    1    1    0    0    0  0.70245858780E+00  0.74492959634E+00  0.29189169895E+02  0.29207122545E+02  0.00000000000E+00 0.  1.
</event>
<event>
 5    1  0.1267644E-004  0.9118800E+02  0.7818608E-02  0.1130116E+00
         25   -1    0    0    0    0  0.00000000000E+00  0.00000000000E+00  0.99999998245E-14  0.12500000000E+03  0.12500000000E+03 0.  0.
        -13    1    3    3    0    0  0.41428695439E+02  0.38285851155E+02 -0.13595950176E+01  0.56426969324E+02  0.10566000000E+00 0.  1.
         23    2    1    0    0    0  0.29062334363E+02  0.83278773773E+00 -0.17814835447E+01  0.95871208441E+02  0.91338940821E+02 0.  0.
         13    1    3    3    0    0 -0.12366361076E+02 -0.37453063417E+02 -0.42188852705E+00  0.39444239117E+02  0.10566000000E+00 0. -1.
         22    1    1    0    0    0 -0.29062334363E+02 -0.83278773773E+00  0.17814835447E+01  0.29128791559E+02  0.00000000000E+00 0.  1.
</event>
<event>
 5    1  0.1267644E-004  0.9118800E+02  0.7818608E-02  0.1130116E+00
         25   -1    0    0    0    0  0.00000000000E+00  0.00000000000E+00  0.99999998245E-14  0.12500000000E+03  0.12500000000E+03 0.  0.
        -13    1    3    3    0    0  0.45766821257E+02 -0.36537235864E+02 -0.96507875874E+01  0.59352509615E+02  0.10566000000E+00 0. -1.
         23    2    1    0    0    0  0.15658637291E+02 -0.27086510794E+02 -0.13067640834E+02  0.91093728814E+02  0.84548401543E+02 0.  0.
         13    1    3    3    0    0 -0.30108183966E+02  0.94507250704E+01 -0.34168532469E+01  0.31741219198E+02  0.10566000000E+00 0.  1.
         22    1    1    0    0    0 -0.15658637291E+02  0.27086510794E+02  0.13067640834E+02  0.33906271186E+02  0.00000000000E+00 0. -1.
</event>
<event>
 5    1  0.1267644E-004  0.9118800E+02  0.7818608E-02  0.1130116E+00
         25   -1    0    0    0    0  0.00000000000E+00  0.00000000000E+00  0.99999998245E-14  0.12500000000E+03  0.12500000000E+03 0.  0.
        -13    1    3    3    0    0 -0.43775616436E+02  0.20956505040E+02  0.36180338548E+01  0.48668069931E+02  0.10566000000E+00 0. -1.
         23    2    1    0    0    0 -0.18376884792E+02 -0.56453841720E+01 -0.23699929814E+02  0.94483333565E+02  0.89419424016E+02 0.  0.
         13    1    3    3    0    0  0.25398731644E+02 -0.26601889212E+02 -0.27317963669E+02  0.45815263634E+02  0.10566000000E+00 0.  1.
         22    1    1    0    0    0  0.18376884792E+02  0.56453841720E+01  0.23699929814E+02  0.30516666435E+02  0.00000000000E+00 0.  1.
</event>
<event>
 5    1  0.1267644E-004  0.9118800E+02  0.7818608E-02  0.1130116E+00
         25   -1    0    0    0    0  0.00000000000E+00  0.00000000000E+00  0.99999998245E-14  0.12500000000E+03  0.12500000000E+03 0.  0.
        -13    1    3    3    0    0 -0.28919160374E+02  0.42449744032E+02 -0.20358147920E+02  0.55251823100E+02  0.10566000000E+00 0.  1.
         23    2    1    0    0    0 -0.14011763073E+02  0.26173469609E+02  0.10776759723E+02  0.93416482686E+02  0.87915417713E+02 0.  0.
         13    1    3    3    0    0  0.14907397302E+02 -0.16276274423E+02  0.31134907643E+02  0.38164659587E+02  0.10566000000E+00 0. -1.
         22    1    1    0    0    0  0.14011763073E+02 -0.26173469609E+02 -0.10776759723E+02  0.31583517314E+02  0.00000000000E+00 0.  1.
</event>
<event>
 5    1  0.1267644E-004  0.9118800E+02  0.7818608E-02  0.1130116E+00
         25   -1    0    0    0    0  0.00000000000E+00  0.00000000000E+00  0.99999998245E-14  0.12500000000E+03  0.12500000000E+03 0.  0.
        -13    1    3    3    0    0  0.20832435793E+02 -0.21996856987E+02  0.20303811359E+02  0.36470645979E+02  0.10566000000E+00 0.  1.
         23    2    1    0    0    0 -0.14009519564E+02  0.23256342030E+02 -0.19834049946E+01  0.97777619898E+02  0.93911687103E+02 0.  0.
         13    1    3    3    0    0 -0.34841955357E+02  0.45253199017E+02 -0.22287216354E+02  0.61306973920E+02  0.10566000000E+00 0. -1.
         22    1    1    0    0    0  0.14009519564E+02 -0.23256342030E+02  0.19834049946E+01  0.27222380102E+02  0.00000000000E+00 0. -1.
</event>
<event>
 5    1  0.1267644E-004  0.9118800E+02  0.7818608E-02  0.1130116E+00
         25   -1    0    0    0    0  0.00000000000E+00  0.00000000000E+00  0.99999998245E-14  0.12500000000E+03  0.12500000000E+03 0.  0.
        -13    1    3    3    0    0  0.82000330408E+01  0.21685222874E+02 -0.41164847229E+02  0.47244526078E+02  0.10566000000E+00 0.  1.
         23    2    1    0    0    0  0.57687663587E+01 -0.21485194789E+02 -0.18517008147E+02  0.96055711251E+02  0.91591090248E+02 0.  0.
         13    1    3    3    0    0 -0.24312666821E+01 -0.43170417663E+02  0.22647839082E+02  0.48811185173E+02  0.10566000000E+00 0. -1.
         22    1    1    0    0    0 -0.57687663587E+01  0.21485194789E+02  0.18517008147E+02  0.28944288749E+02  0.00000000000E+00 0. -1.
</event>
<event>
 5    1  0.1267644E-004  0.9118800E+02  0.7818608E-02  0.1130116E+00
         25   -1    0    0    0    0  0.00000000000E+00  0.00000000000E+00  0.99999998245E-14  0.12500000000E+03  0.12500000000E+03 0.  0.
        -13    1    3    3    0    0  0.18459285409E+02  0.39005647363E+02 -0.57266127026E+01  0.43531494359E+02  0.10566000000E+00 0.  1.
         23    2    1    0    0    0 -0.23476064817E+02  0.96836336732E+01  0.10942299013E+02  0.97348014753E+02  0.93338114874E+02 0.  0.
         13    1    3    3    0    0 -0.41935350226E+02 -0.29322013690E+02  0.16668911716E+02  0.53816520394E+02  0.10566000000E+00 0. -1.
         22    1    1    0    0    0  0.23476064817E+02 -0.96836336732E+01 -0.10942299013E+02  0.27651985247E+02  0.00000000000E+00 0. -1.
</event>
<event>
 5    1  0.1267644E-004  0.9118800E+02  0.7818608E-02  0.1130116E+00
         25   -1    0    0    0    0  0.00000000000E+00  0.00000000000E+00  0.99999998245E-14  0.12500000000E+03  0.12500000000E+03 0.  0.
        -13    1    3    3    0    0 -0.15750862096E+02  0.10134891449E+02  0.35779460293E+02  0.40385475414E+02  0.10566000000E+00 0. -1.
         23    2    1    0    0    0  0.13438492779E+02 -0.26337591045E+02  0.97303884068E+01  0.93872162799E+02  0.88560943422E+02 0.  0.
         13    1    3    3    0    0  0.29189354875E+02 -0.36472482494E+02 -0.26049071886E+02  0.53486687386E+02  0.10566000000E+00 0.  1.
         22    1    1    0    0    0 -0.13438492779E+02  0.26337591045E+02 -0.97303884068E+01  0.31127837201E+02  0.00000000000E+00 0.  1.
</event>
<event>
 5    1  0.1267644E-004  0.9118800E+02  0.7818608E-02  0.1130116E+00
         25   -1    0    0    0    0  0.00000000000E+00  0.00000000000E+00  0.99999998245E-14  0.12500000000E+03  0.12500000000E+03 0.  0.
        -13    1    3    3    0    0  0.24947541396E+02  0.63953101402E+01 -0.66380772584E+01  0.26596147225E+02  0.10566000000E+00 0.  1.
         23    2    1    0    0    0 -0.30891465423E+02 -0.13201926929E+02  0.13045053383E+02  0.88961868412E+02  0.81335521778E+02 0.  0.
         13    1    3    3    0    0 -0.55839006819E+02 -0.19597237069E+02  0.19683130642E+02  0.62365721187E+02  0.10566000000E+00 0. -1.
         22    1    1    0    0    0  0.30891465423E+02  0.13201926929E+02 -0.13045053383E+02  0.36038131588E+02  0.00000000000E+00 0. -1.
</event>
<event>
 5    1  0.1267644E-004  0.9118800E+02  0.7818608E-02  0.1130116E+00
         25   -1    0    0    0    0  0.00000000000E+00  0.00000000000E+00  0.99999998245E-14  0.12500000000E+03  0.12500000000E+03 0.  0.
        -13    1    3    3    0    0 -0.84310462225E+00 -0.56305263791E+02  0.41202223586E+01  0.56462208177E+02  0.10566000000E+00 0.  1.
         23    2    1    0    0    0 -0.12304955688E+02 -0.27446792723E+02 -0.13350789836E+02  0.92091308830E+02  0.86010622644E+02 0.  0.
         13    1    3    3    0    0 -0.11461851065E+02  0.28858471068E+02 -0.17471012195E+02  0.35629100653E+02  0.10566000000E+00 0. -1.
         22    1    1    0    0    0  0.12304955688E+02  0.27446792723E+02  0.13350789836E+02  0.32908691170E+02  0.00000000000E+00 0.  1.
</event>
<event>
 5    1  0.1267644E-004  0.9118800E+02  0.7818608E-02  0.1130116E+00
         25   -1    0    0    0    0  0.00000000000E+00  0.00000000000E+00  0.99999998245E-14  0.12500000000E+03  0.12500000000E+03 0.  0.
        -13    1    3    3    0    0 -0.47327891328E+02 -0.15919167080E+02 -0.31238841633E+02  0.58900132162E+02  0.10566000000E+00 0. -1.
         23    2    1    0    0    0 -0.24871309381E+02  0.73286323619E+01 -0.13731976845E+02  0.95659617066E+02  0.91048911397E+02 0.  0.
         13    1    3    3    0    0  0.22456581947E+02  0.23247799442E+02  0.17506864788E+02  0.36759484904E+02  0.10566000000E+00 0.  1.
         22    1    1    0    0    0  0.24871309381E+02 -0.73286323619E+01  0.13731976845E+02  0.29340382934E+02  0.00000000000E+00 0. -1.
</event>
<event>
 5    1  0.1267644E-004  0.9118800E+02  0.7818608E-02  0.1130116E+00
         25   -1    0    0    0    0  0.00000000000E+00  0.00000000000E+00  0.99999998245E-14  0.12500000000E+03  0.12500000000E+03 0.  0.
        -13    1    3    3    0    0 -0.46899914450E+02 -0.22992518478E+02 -0.10992776477E+02  0.53377056682E+02  0.10566000000E+00 0.  1.
         23    2    1    0    0    0 -0.16797557610E+02  0.45150296369E+01 -0.23255991755E+02  0.95958915537E+02  0.91458891773E+02 0.  0.
         13    1    3    3    0    0  0.30102356840E+02  0.27507548114E+02 -0.12263215277E+02  0.42581858855E+02  0.10566000000E+00 0. -1.
         22    1    1    0    0    0  0.16797557610E+02 -0.45150296369E+01  0.23255991755E+02  0.29041084463E+02  0.00000000000E+00 0.  1.
</event>
<event>
 5    1  0.1267644E-004  0.9118800E+02  0.7818608E-02  0.1130116E+00
         25   -1    0    0    0    0  0.00000000000E+00  0.00000000000E+00  0.99999998245E-14  0.12500000000E+03  0.12500000000E+03 0.  0.
        -13    1    3    3    0    0  0.22221865028E+02  0.36220567851E+02 -0.33122278789E+01  0.42623031782E+02  0.10566000000E+00 0.  1.
         23    2    1    0    0    0 -0.24214128662E+02  0.14517171428E+02  0.90538839118E+01  0.95351305138E+02  0.90624645017E+02 0.  0.
         13    1    3    3    0    0 -0.46435993690E+02 -0.21703396423E+02  0.12366111791E+02  0.52728273356E+02  0.10566000000E+00 0. -1.
         22    1    1    0    0    0  0.24214128662E+02 -0.14517171428E+02 -0.90538839118E+01  0.29648694862E+02  0.00000000000E+00 0. -1.
</event>
<event>
 5    1  0.1267644E-004  0.9118800E+02  0.7818608E-02  0.1130116E+00
         25   -1    0    0    0    0  0.00000000000E+00  0.00000000000E+00  0.99999998245E-14  0.12500000000E+03  0.12500000000E+03 0.  0.
        -13    1    3    3    0    0 -0.29508453001E+02 -0.23403074683E+02  0.21835727601E+02  0.43534616881E+02  0.10566000000E+00 0.  1.
         23    2    1    0    0    0 -0.29734206827E+01  0.19388392687E+02  0.24087765651E+02  0.93936010307E+02  0.88651015656E+02 0.  0.
         13    1    3    3    0    0  0.26535032319E+02  0.42791467370E+02  0.22520380507E+01  0.50401393426E+02  0.10566000000E+00 0. -1.
         22    1    1    0    0    0  0.29734206827E+01 -0.19388392687E+02 -0.24087765651E+02  0.31063989693E+02  0.00000000000E+00 0.  1.
</event>
<event>
 5    1  0.1267644E-004  0.9118800E+02  0.7818608E-02  0.1130116E+00
         25   -1    0    0    0    0  0.00000000000E+00  0.00000000000E+00  0.99999998245E-14  0.12500000000E+03  0.12500000000E+03 0.  0.
        -13    1    3    3    0    0 -0.24598681194E+02 -0.27709825752E+02 -0.49562621784E+02  0.61882099203E+02  0.10566000000E+00 0. -1.
         23    2    1    0    0    0 -0.53717077624E+01 -0.13714849579E+02 -0.24357265084E+02  0.96535483394E+02  0.92243540958E+02 0.  0.
         13    1    3    3    0    0  0.19226973432E+02  0.13994976172E+02  0.25205356700E+02  0.34653384190E+02  0.10566000000E+00 0.  1.
         22    1    1    0    0    0  0.53717077624E+01  0.13714849579E+02  0.24357265084E+02  0.28464516606E+02  0.00000000000E+00 0. -1.
</event>
<event>
 5    1  0.1267644E-004  0.9118800E+02  0.7818608E-02  0.1130116E+00
         25   -1    0    0    0    0  0.00000000000E+00  0.00000000000E+00  0.99999998245E-14  0.12500000000E+03  0.12500000000E+03 0.  0.
        -13    1    3    3    0    0  0.38985936850E+02  0.29705768253E+01 -0.25391913313E+02  0.46620682368E+02  0.10566000000E+00 0. -1.
         23    2    1    0    0    0  0.41927083639E+01 -0.27493375069E+02 -0.11472287474E+02  0.94915488104E+02  0.90021508685E+02 0.  0.
         13    1    3    3    0    0 -0.34793228486E+02 -0.30463951895E+02  0.13919625838E+02  0.48294805736E+02  0.10566000000E+00 0.  1.
         22    1    1    0    0    0 -0.41927083639E+01  0.27493375069E+02  0.11472287474E+02  0.30084511896E+02  0.00000000000E+00 0. -1.
</event>
<event>
 5    1  0.1267644E-004  0.9118800E+02  0.7818608E-02  0.1130116E+00
         25   -1    0    0    0    0  0.00000000000E+00  0.00000000000E+00  0.99999998245E-14  0.12500000000E+03  0.12500000000E+03 0.  0.
        -13    1    3    3    0    0 -0.10535744339E+02  0.14721962314E+02 -0.31794992076E+02  0.36587850010E+02  0.10566000000E+00 0. -1.
         23    2    1    0    0    0 -0.11490183748E+02  0.67395797084E+01  0.26449928392E+02  0.95385054969E+02  0.90671184741E+02 0.  0.
         13    1    3    3    0    0 -0.95443940946E+00 -0.79823826057E+01  0.58244920469E+02  0.58797204960E+02  0.10566000000E+00 0.  1.
         22    1    1    0    0    0  0.11490183748E+02 -0.67395797084E+01 -0.26449928392E+02  0.29614945031E+02  0.00000000000E+00 0.  1.
</event>
<event>
 5    1  0.1267644E-004  0.9118800E+02  0.7818608E-02  0.1130116E+00
         25   -1    0    0    0    0  0.00000000000E+00  0.00000000000E+00  0.99999998245E-14  0.12500000000E+03  0.12500000000E+03 0.  0.
        -13    1    3    3    0    0 -0.25879670908E+01 -0.33644189750E+02 -0.42864395598E+02  0.54552696099E+02  0.10566000000E+00 0.  1.
         23    2    1    0    0    0 -0.21081980148E+02 -0.48854517228E+01 -0.14872577056E+02  0.98741457127E+02  0.95185945821E+02 0.  0.
         13    1    3    3    0    0 -0.18494013058E+02  0.28758738027E+02  0.27991818542E+02  0.44188761028E+02  0.10566000000E+00 0. -1.
         22    1    1    0    0    0  0.21081980148E+02  0.48854517228E+01  0.14872577056E+02  0.26258542873E+02  0.00000000000E+00 0.  1.
</event>
<event>
 5    1  0.1267644E-004  0.9118800E+02  0.7818608E-02  0.1130116E+00
         25   -1    0    0    0    0  0.00000000000E+00  0.00000000000E+00  0.99999998245E-14  0.12500000000E+03  0.12500000000E+03 0.  0.
        -13    1    3    3    0    0  0.34239882783E+02 -0.17288238417E+02  0.22580028515E+02  0.44509792319E+02  0.10566000000E+00 0.  1.
         23    2    1    0    0    0  0.11265453739E+02 -0.89190989894E+01 -0.23948332575E+02  0.97071816961E+02  0.92967490233E+02 0.  0.
         13    1    3    3    0    0 -0.22974429044E+02  0.83691394277E+01 -0.46528361090E+02  0.52562024642E+02  0.10566000000E+00 0. -1.
         22    1    1    0    0    0 -0.11265453739E+02  0.89190989894E+01  0.23948332575E+02  0.27928183039E+02  0.00000000000E+00 0. -1.
</event>
<event>
 5    1  0.1267644E-004  0.9118800E+02  0.7818608E-02  0.1130116E+00
         25   -1    0    0    0    0  0.00000000000E+00  0.00000000000E+00  0.99999998245E-14  0.12500000000E+03  0.12500000000E+03 0.  0.
        -13    1    3    3    0    0  0.46053116376E+02 -0.57969755101E+01 -0.47750043218E+01  0.46661614667E+02  0.10566000000E+00 0.  1.
         23    2    1    0    0    0  0.66656474981E+01  0.21411534522E+02 -0.17907944923E+02  0.96301931101E+02  0.91926507468E+02 0.  0.
         13    1    3    3    0    0 -0.39387468878E+02  0.27208510033E+02 -0.13132940601E+02  0.49640316434E+02  0.10566000000E+00 0. -1.
         22    1    1    0    0    0 -0.66656474981E+01 -0.21411534522E+02  0.17907944923E+02  0.28698068899E+02  0.00000000000E+00 0.  1.
</event>
<event>
 5    1  0.1267644E-004  0.9118800E+02  0.7818608E-02  0.1130116E+00
         25   -1    0    0    0    0  0.00000000000E+00  0.00000000000E+00  0.99999998245E-14  0.12500000000E+03  0.12500000000E+03 0.  0.
        -13    1    3    3    0    0 -0.93630727600E+01 -0.37494793012E+02 -0.61904989303E+01  0.39138984089E+02  0.10566000000E+00 0.  1.
         23    2    1    0    0    0  0.21670564607E+02  0.25211595804E+01  0.19335317956E+02  0.95848256716E+02  0.91307525314E+02 0.  0.
         13    1    3    3    0    0  0.31033637367E+02  0.40015952592E+02  0.25525816886E+02  0.56709272627E+02  0.10566000000E+00 0. -1.
         22    1    1    0    0    0 -0.21670564607E+02 -0.25211595804E+01 -0.19335317956E+02  0.29151743284E+02  0.00000000000E+00 0. -1.
</event>
<event>
 5    1  0.1267644E-004  0.9118800E+02  0.7818608E-02  0.1130116E+00
         25   -1    0    0    0    0  0.00000000000E+00  0.00000000000E+00  0.99999998245E-14  0.12500000000E+03  0.12500000000E+03 0.  0.
        -13    1    3    3    0    0 -0.77267459958E+01  0.60141475720E+02 -0.12976586241E+02  0.62008891782E+02  0.10566000000E+00 0.  1.
         23    2    1    0    0    0  0.58934381139E+00  0.27029904141E+02 -0.95759640107E+01  0.96317912720E+02  0.91948236415E+02 0.  0.
         13    1    3    3    0    0  0.83160898072E+01 -0.33111571579E+02  0.34006222301E+01  0.34309020938E+02  0.10566000000E+00 0. -1.
         22    1    1    0    0    0 -0.58934381139E+00 -0.27029904141E+02  0.95759640107E+01  0.28682087280E+02  0.00000000000E+00 0.  1.
</event>
<event>
 5    1  0.1267644E-004  0.9118800E+02  0.7818608E-02  0.1130116E+00
         25   -1    0    0    0    0  0.00000000000E+00  0.00000000000E+00  0.99999998245E-14  0.12500000000E+03  0.12500000000E+03 0.  0.
        -13    1    3    3    0    0  0.26908317567E+02 -0.43691234880E+02  0.25424427985E+02  0.57265995687E+02  0.10566000000E+00 0.  1.
         23    2    1    0    0    0  0.17123163525E+02 -0.58839910601E+01  0.22056106574E+02  0.96464129292E+02  0.92146797681E+02 0.  0.
         13    1    3    3    0    0 -0.97851540427E+01  0.37807243820E+02 -0.33683214108E+01  0.39198133605E+02  0.10566000000E+00 0. -1.
         22    1    1    0    0    0 -0.17123163525E+02  0.58839910601E+01 -0.22056106574E+02  0.28535870708E+02  0.00000000000E+00 0.  1.
</event>
<event>
 5    1  0.1267644E-004  0.9118800E+02  0.7818608E-02  0.1130116E+00
         25   -1    0    0    0    0  0.00000000000E+00  0.00000000000E+00  0.99999998245E-14  0.12500000000E+03  0.12500000000E+03 0.  0.
        -13    1    3    3    0    0  0.86669811479E+01 -0.18612000791E+01  0.38447856810E+02  0.39456678589E+02  0.10566000000E+00 0.  1.
         23    2    1    0    0    0  0.95209683160E+01  0.26304018469E+02 -0.98239010503E+01  0.95351066509E+02  0.90624315872E+02 0.  0.
         13    1    3    3    0    0  0.85398716819E+00  0.28165218548E+02 -0.48271757861E+02  0.55894387920E+02  0.10566000000E+00 0. -1.
         22    1    1    0    0    0 -0.95209683160E+01 -0.26304018469E+02  0.98239010503E+01  0.29648933491E+02  0.00000000000E+00 0. -1.
</event>
<event>
 5    1  0.1267644E-004  0.9118800E+02  0.7818608E-02  0.1130116E+00
         25   -1    0    0    0    0  0.00000000000E+00  0.00000000000E+00  0.99999998245E-14  0.12500000000E+03  0.12500000000E+03 0.  0.
        -13    1    3    3    0    0  0.53874454609E+01 -0.19023460464E+02  0.53561728819E+02  0.57094540674E+02  0.10566000000E+00 0.  1.
         23    2    1    0    0    0  0.11816895366E+02 -0.15419272079E+02  0.68244666416E+01  0.10440955774E+03  0.10235911994E+03 0.  0.
         13    1    3    3    0    0  0.64294499053E+01  0.36041883849E+01 -0.46737262178E+02  0.47315017066E+02  0.10566000000E+00 0. -1.
         22    1    1    0    0    0 -0.11816895366E+02  0.15419272079E+02 -0.68244666416E+01  0.20590442260E+02  0.00000000000E+00 0.  1.
</event>
<event>
 5    1  0.1267644E-004  0.9118800E+02  0.7818608E-02  0.1130116E+00
         25   -1    0    0    0    0  0.00000000000E+00  0.00000000000E+00  0.99999998245E-14  0.12500000000E+03  0.12500000000E+03 0.  0.
        -13    1    3    3    0    0  0.60648295670E+02  0.10844092457E+01 -0.99942975305E+01  0.61475920963E+02  0.10566000000E+00 0.  1.
         23    2    1    0    0    0  0.32130627925E+02  0.78016899197E+01 -0.18550959097E+01  0.91883765351E+02  0.85708467130E+02 0.  0.
         13    1    3    3    0    0 -0.28517667745E+02  0.67172806741E+01  0.81392016207E+01  0.30407844388E+02  0.10566000000E+00 0. -1.
         22    1    1    0    0    0 -0.32130627925E+02 -0.78016899197E+01  0.18550959097E+01  0.33116234649E+02  0.00000000000E+00 0.  1.
</event>
<event>
 5    1  0.1267644E-004  0.9118800E+02  0.7818608E-02  0.1130116E+00
         25   -1    0    0    0    0  0.00000000000E+00  0.00000000000E+00  0.99999998245E-14  0.12500000000E+03  0.12500000000E+03 0.  0.
        -13    1    3    3    0    0 -0.22426956111E+02  0.26706915961E+02  0.50933480496E+02  0.61728909921E+02  0.10566000000E+00 0.  1.
         23    2    1    0    0    0 -0.82738000118E+01  0.18137931454E+02  0.20283512081E+02  0.96559515011E+02  0.92276100659E+02 0.  0.
         13    1    3    3    0    0  0.14153156099E+02 -0.85689845074E+01 -0.30649968416E+02  0.34830605090E+02  0.10566000000E+00 0. -1.
         22    1    1    0    0    0  0.82738000118E+01 -0.18137931454E+02 -0.20283512081E+02  0.28440484989E+02  0.00000000000E+00 0.  1.
</event>
<event>
 5    1  0.1267644E-004  0.9118800E+02  0.7818608E-02  0.1130116E+00
         25   -1    0    0    0    0  0.00000000000E+00  0.00000000000E+00  0.99999998245E-14  0.12500000000E+03  0.12500000000E+03 0.  0.
        -13    1    3    3    0    0  0.72635309330E+01  0.38463492638E+02  0.26220777173E+01  0.39231181516E+02  0.10566000000E+00 0.  1.
         23    2    1    0    0    0 -0.27682711472E+02 -0.64920627811E+01 -0.27956350728E+01  0.96429123761E+02  0.92099299348E+02 0.  0.
         13    1    3    3    0    0 -0.34946242405E+02 -0.44955555419E+02 -0.54177127900E+01  0.57197942246E+02  0.10566000000E+00 0. -1.
         22    1    1    0    0    0  0.27682711472E+02  0.64920627811E+01  0.27956350728E+01  0.28570876239E+02  0.00000000000E+00 0. -1.
</event>
<event>
 5    1  0.1267644E-004  0.9118800E+02  0.7818608E-02  0.1130116E+00
         25   -1    0    0    0    0  0.00000000000E+00  0.00000000000E+00  0.99999998245E-14  0.12500000000E+03  0.12500000000E+03 0.  0.
        -13    1    3    3    0    0 -0.44023634181E+01 -0.59166236619E+02  0.36713133775E+00  0.59331023156E+02  0.10566000000E+00 0.  1.
         23    2    1    0    0    0  0.11776677301E+02 -0.25950557632E+02  0.28446269023E+01  0.96360630736E+02  0.92006291545E+02 0.  0.
         13    1    3    3    0    0  0.16179040719E+02  0.33215678987E+02  0.24774955645E+01  0.37029607579E+02  0.10566000000E+00 0. -1.
         22    1    1    0    0    0 -0.11776677301E+02  0.25950557632E+02 -0.28446269023E+01  0.28639369264E+02  0.00000000000E+00 0.  1.
</event>
<event>
 5    1  0.1267644E-004  0.9118800E+02  0.7818608E-02  0.1130116E+00
         25   -1    0    0    0    0  0.00000000000E+00  0.00000000000E+00  0.99999998245E-14  0.12500000000E+03  0.12500000000E+03 0.  0.
        -13    1    3    3    0    0 -0.26136926166E+02 -0.19851372539E+02  0.13006199244E+02  0.35304224732E+02  0.10566000000E+00 0.  1.
         23    2    1    0    0    0  0.65613222653E+01  0.13373771004E+02 -0.25299814490E+02  0.95640345473E+02  0.91022449804E+02 0.  0.
         13    1    3    3    0    0  0.32698248432E+02  0.33225143543E+02 -0.38306013733E+02  0.60336120741E+02  0.10566000000E+00 0. -1.
         22    1    1    0    0    0 -0.65613222653E+01 -0.13373771004E+02  0.25299814490E+02  0.29359654527E+02  0.00000000000E+00 0. -1.
</event>
<event>
 5    1  0.1267644E-004  0.9118800E+02  0.7818608E-02  0.1130116E+00
         25   -1    0    0    0    0  0.00000000000E+00  0.00000000000E+00  0.99999998245E-14  0.12500000000E+03  0.12500000000E+03 0.  0.
        -13    1    3    3    0    0  0.30860201992E+02  0.90460724776E+01 -0.49088360956E+02  0.58684425870E+02  0.10566000000E+00 0.  1.
         23    2    1    0    0    0 -0.57202235906E+00  0.26212089617E+01 -0.27535416473E+02  0.97334188855E+02  0.93319597158E+02 0.  0.
         13    1    3    3    0    0 -0.31432224351E+02 -0.64248635159E+01  0.21552944483E+02  0.38649762985E+02  0.10566000000E+00 0. -1.
         22    1    1    0    0    0  0.57202235906E+00 -0.26212089617E+01  0.27535416473E+02  0.27665811145E+02  0.00000000000E+00 0.  1.
</event>
<event>
 5    1  0.1267644E-004  0.9118800E+02  0.7818608E-02  0.1130116E+00
         25   -1    0    0    0    0  0.00000000000E+00  0.00000000000E+00  0.99999998245E-14  0.12500000000E+03  0.12500000000E+03 0.  0.
        -13    1    3    3    0    0  0.21789959802E+02 -0.42994426681E+02  0.19478295264E+02  0.51987866125E+02  0.10566000000E+00 0.  1.
         23    2    1    0    0    0  0.17908476759E+01 -0.27542209039E+02 -0.14093603740E+02  0.94009516291E+02  0.88754600290E+02 0.  0.
         13    1    3    3    0    0 -0.19999112126E+02  0.15452217642E+02 -0.33571899004E+02  0.42021650166E+02  0.10566000000E+00 0. -1.
         22    1    1    0    0    0 -0.17908476759E+01  0.27542209039E+02  0.14093603740E+02  0.30990483709E+02  0.00000000000E+00 0.  1.
</event>
<event>
 5    1  0.1267644E-004  0.9118800E+02  0.7818608E-02  0.1130116E+00
         25   -1    0    0    0    0  0.00000000000E+00  0.00000000000E+00  0.99999998245E-14  0.12500000000E+03  0.12500000000E+03 0.  0.
        -13    1    3    3    0    0  0.74933092140E+01 -0.18139400070E+02 -0.43395438873E+02  0.47627332456E+02  0.10566000000E+00 0. -1.
         23    2    1    0    0    0  0.23339844339E+02  0.36404991207E+01  0.29126713251E+01  0.10119904998E+03  0.98360370551E+02 0.  0.
         13    1    3    3    0    0  0.15846535125E+02  0.21779899190E+02  0.46308110198E+02  0.53571717523E+02  0.10566000000E+00 0.  1.
         22    1    1    0    0    0 -0.23339844339E+02 -0.36404991207E+01 -0.29126713251E+01  0.23800950020E+02  0.00000000000E+00 0. -1.
</event>
<event>
 5    1  0.1267644E-004  0.9118800E+02  0.7818608E-02  0.1130116E+00
         25   -1    0    0    0    0  0.00000000000E+00  0.00000000000E+00  0.99999998245E-14  0.12500000000E+03  0.12500000000E+03 0.  0.
        -13    1    3    3    0    0  0.13489630056E+02 -0.30318327608E+02  0.65969920049E+01  0.33833453497E+02  0.10566000000E+00 0. -1.
         23    2    1    0    0    0  0.39268734644E+02  0.66035709363E+01  0.19478956692E+02  0.80670885149E+02  0.67399712812E+02 0.  0.
         13    1    3    3    0    0  0.25779104589E+02  0.36921898544E+02  0.12881964687E+02  0.46837431652E+02  0.10566000000E+00 0.  1.
         22    1    1    0    0    0 -0.39268734644E+02 -0.66035709363E+01 -0.19478956692E+02  0.44329114851E+02  0.00000000000E+00 0.  1.
</event>
<event>
 5    1  0.1267644E-004  0.9118800E+02  0.7818608E-02  0.1130116E+00
         25   -1    0    0    0    0  0.00000000000E+00  0.00000000000E+00  0.99999998245E-14  0.12500000000E+03  0.12500000000E+03 0.  0.
        -13    1    3    3    0    0  0.15216696944E+02 -0.41839523746E+02 -0.42883870542E+02  0.61815298510E+02  0.10566000000E+00 0. -1.
         23    2    1    0    0    0  0.13064248583E+02 -0.21515668445E+02 -0.17801900771E+02  0.94169718608E+02  0.88979939605E+02 0.  0.
         13    1    3    3    0    0 -0.21524483618E+01  0.20323855301E+02  0.25081969771E+02  0.32354420098E+02  0.10566000000E+00 0.  1.
         22    1    1    0    0    0 -0.13064248583E+02  0.21515668445E+02  0.17801900771E+02  0.30830281392E+02  0.00000000000E+00 0. -1.
</event>
<event>
 5    1  0.1267644E-004  0.9118800E+02  0.7818608E-02  0.1130116E+00
         25   -1    0    0    0    0  0.00000000000E+00  0.00000000000E+00  0.99999998245E-14  0.12500000000E+03  0.12500000000E+03 0.  0.
        -13    1    3    3    0    0 -0.24416509955E+02 -0.28091851227E+02 -0.16451134052E+02  0.40693599489E+02  0.10566000000E+00 0. -1.
         23    2    1    0    0    0  0.12648052409E+02 -0.19181561288E+02  0.20810410715E+02  0.94000343271E+02  0.88741680273E+02 0.  0.
         13    1    3    3    0    0  0.37064562364E+02  0.89102899383E+01  0.37261544768E+02  0.53306743781E+02  0.10566000000E+00 0.  1.
         22    1    1    0    0    0 -0.12648052409E+02  0.19181561288E+02 -0.20810410715E+02  0.30999656729E+02  0.00000000000E+00 0.  1.
</event>
<event>
 5    1  0.1267644E-004  0.9118800E+02  0.7818608E-02  0.1130116E+00
         25   -1    0    0    0    0  0.00000000000E+00  0.00000000000E+00  0.99999998245E-14  0.12500000000E+03  0.12500000000E+03 0.  0.
        -13    1    3    3    0    0 -0.23420973329E+02  0.54999167541E+01  0.24829661671E+02  0.34573318307E+02  0.10566000000E+00 0. -1.
         23    2    1    0    0    0  0.17311032910E+01 -0.57122335385E+01 -0.29189329135E+02  0.95206657355E+02  0.90424909947E+02 0.  0.
         13    1    3    3    0    0  0.25152076620E+02 -0.11212150293E+02 -0.54018990806E+02  0.60633339049E+02  0.10566000000E+00 0.  1.
         22    1    1    0    0    0 -0.17311032910E+01  0.57122335385E+01  0.29189329135E+02  0.29793342645E+02  0.00000000000E+00 0.  1.
</event>
<event>
 5    1  0.1267644E-004  0.9118800E+02  0.7818608E-02  0.1130116E+00
         25   -1    0    0    0    0  0.00000000000E+00  0.00000000000E+00  0.99999998245E-14  0.12500000000E+03  0.12500000000E+03 0.  0.
        -13    1    3    3    0    0  0.63693604680E+01 -0.40872163629E+02  0.32472839618E+02  0.52588962620E+02  0.10566000000E+00 0.  1.
         23    2    1    0    0    0  0.23853794014E+02 -0.14427629359E+02  0.12356686276E+01  0.97095038887E+02  0.92998708172E+02 0.  0.
         13    1    3    3    0    0  0.17484433546E+02  0.26444534270E+02 -0.31237170990E+02  0.44506076267E+02  0.10566000000E+00 0. -1.
         22    1    1    0    0    0 -0.23853794014E+02  0.14427629359E+02 -0.12356686276E+01  0.27904961113E+02  0.00000000000E+00 0.  1.
</event>
<event>
 5    1  0.1267644E-004  0.9118800E+02  0.7818608E-02  0.1130116E+00
         25   -1    0    0    0    0  0.00000000000E+00  0.00000000000E+00  0.99999998245E-14  0.12500000000E+03  0.12500000000E+03 0.  0.
        -13    1    3    3    0    0 -0.96222451106E+01 -0.47016825207E+02  0.52641354662E+01  0.48279309644E+02  0.10566000000E+00 0.  1.
         23    2    1    0    0    0 -0.82967372645E+01 -0.71858864952E+01  0.28533403790E+02  0.94428314639E+02  0.89342479593E+02 0.  0.
         13    1    3    3    0    0  0.13255078461E+01  0.39830938711E+02  0.23269268324E+02  0.46149004995E+02  0.10566000000E+00 0. -1.
         22    1    1    0    0    0  0.82967372645E+01  0.71858864952E+01 -0.28533403790E+02  0.30571685361E+02  0.00000000000E+00 0. -1.
</event>
<event>
 5    1  0.1267644E-004  0.9118800E+02  0.7818608E-02  0.1130116E+00
         25   -1    0    0    0    0  0.00000000000E+00  0.00000000000E+00  0.99999998245E-14  0.12500000000E+03  0.12500000000E+03 0.  0.
        -13    1    3    3    0    0 -0.58891358693E+01  0.38994630624E+02 -0.50166649472E+01  0.39754763614E+02  0.10566000000E+00 0.  1.
         23    2    1    0    0    0 -0.25681126919E+02 -0.12604769017E+02  0.51085826536E+01  0.95939750542E+02  0.91432694566E+02 0.  0.
         13    1    3    3    0    0 -0.19791991050E+02 -0.51599399641E+02  0.10125247601E+02  0.56184986928E+02  0.10566000000E+00 0. -1.
         22    1    1    0    0    0  0.25681126919E+02  0.12604769017E+02 -0.51085826536E+01  0.29060249458E+02  0.00000000000E+00 0. -1.
</event>
<event>
 5    1  0.1267644E-004  0.9118800E+02  0.7818608E-02  0.1130116E+00
         25   -1    0    0    0    0  0.00000000000E+00  0.00000000000E+00  0.99999998245E-14  0.12500000000E+03  0.12500000000E+03 0.  0.
        -13    1    3    3    0    0 -0.10043651736E+02 -0.35340916147E+02 -0.37797824720E+02  0.52711877332E+02  0.10566000000E+00 0.  1.
         23    2    1    0    0    0 -0.24252670287E+02 -0.88258622461E+00 -0.13148055303E+02  0.97398508505E+02  0.93405712492E+02 0.  0.
         13    1    3    3    0    0 -0.14209018551E+02  0.34458329922E+02  0.24649769417E+02  0.44686631173E+02  0.10566000000E+00 0. -1.
         22    1    1    0    0    0  0.24252670287E+02  0.88258622461E+00  0.13148055303E+02  0.27601491495E+02  0.00000000000E+00 0.  1.
</event>
<event>
 5    1  0.1267644E-004  0.9118800E+02  0.7818608E-02  0.1130116E+00
         25   -1    0    0    0    0  0.00000000000E+00  0.00000000000E+00  0.99999998245E-14  0.12500000000E+03  0.12500000000E+03 0.  0.
        -13    1    3    3    0    0 -0.19205843618E+02 -0.45087900118E+02  0.37301770160E+02  0.61589093087E+02  0.10566000000E+00 0.  1.
         23    2    1    0    0    0 -0.10560851004E+02 -0.15088742172E+02  0.21848774023E+02  0.96424299823E+02  0.92092751918E+02 0.  0.
         13    1    3    3    0    0  0.86449926146E+01  0.29999157946E+02 -0.15452996137E+02  0.34835206737E+02  0.10566000000E+00 0. -1.
         22    1    1    0    0    0  0.10560851004E+02  0.15088742172E+02 -0.21848774023E+02  0.28575700177E+02  0.00000000000E+00 0.  1.
</event>
<event>
 5    1  0.1267644E-004  0.9118800E+02  0.7818608E-02  0.1130116E+00
         25   -1    0    0    0    0  0.00000000000E+00  0.00000000000E+00  0.99999998245E-14  0.12500000000E+03  0.12500000000E+03 0.  0.
        -13    1    3    3    0    0 -0.35290616284E+02 -0.11495893559E+02  0.39054093654E-01  0.37115978442E+02  0.10566000000E+00 0.  1.
         23    2    1    0    0    0  0.57875124527E+01  0.22464738592E+02 -0.20310172792E+02  0.94167178215E+02  0.88976370760E+02 0.  0.
         13    1    3    3    0    0  0.41078128737E+02  0.33960632152E+02 -0.20349226885E+02  0.57051199773E+02  0.10566000000E+00 0. -1.
         22    1    1    0    0    0 -0.57875124527E+01 -0.22464738592E+02  0.20310172792E+02  0.30832821785E+02  0.00000000000E+00 0. -1.
</event>
<event>
 5    1  0.1267644E-004  0.9118800E+02  0.7818608E-02  0.1130116E+00
         25   -1    0    0    0    0  0.00000000000E+00  0.00000000000E+00  0.99999998245E-14  0.12500000000E+03  0.12500000000E+03 0.  0.
        -13    1    3    3    0    0  0.17077288608E+02  0.49591646542E+01  0.49520032021E+02  0.52616269686E+02  0.10566000000E+00 0. -1.
         23    2    1    0    0    0  0.24912511108E+02  0.77771199561E+01  0.43569840099E+01  0.98540594976E+02  0.94921803313E+02 0.  0.
         13    1    3    3    0    0  0.78352225006E+01  0.28179553019E+01 -0.45163048011E+02  0.45924325291E+02  0.10566000000E+00 0.  1.
         22    1    1    0    0    0 -0.24912511108E+02 -0.77771199561E+01 -0.43569840099E+01  0.26459405024E+02  0.00000000000E+00 0.  1.
</event>
<event>
 5    1  0.1267644E-004  0.9118800E+02  0.7818608E-02  0.1130116E+00
         25   -1    0    0    0    0  0.00000000000E+00  0.00000000000E+00  0.99999998245E-14  0.12500000000E+03  0.12500000000E+03 0.  0.
        -13    1    3    3    0    0  0.35135564364E+01  0.97332073142E+01 -0.51769031488E+02  0.52793221049E+02  0.10566000000E+00 0. -1.
         23    2    1    0    0    0  0.22377652211E+02 -0.77776729657E+01 -0.18033209128E+02  0.95226720928E+02  0.90452640824E+02 0.  0.
         13    1    3    3    0    0  0.18864095775E+02 -0.17510880280E+02  0.33735822361E+02  0.42433499879E+02  0.10566000000E+00 0.  1.
         22    1    1    0    0    0 -0.22377652211E+02  0.77776729657E+01  0.18033209128E+02  0.29773279072E+02  0.00000000000E+00 0. -1.
</event>
<event>
 5    1  0.1267644E-004  0.9118800E+02  0.7818608E-02  0.1130116E+00
         25   -1    0    0    0    0  0.00000000000E+00  0.00000000000E+00  0.99999998245E-14  0.12500000000E+03  0.12500000000E+03 0.  0.
        -13    1    3    3    0    0  0.40971856077E+01 -0.49474847251E+02  0.20050114548E+02  0.53540318433E+02  0.10566000000E+00 0.  1.
         23    2    1    0    0    0 -0.18624322562E+02 -0.22405097910E+02 -0.29633535519E+01  0.95714589511E+02  0.91124351179E+02 0.  0.
         13    1    3    3    0    0 -0.22721508170E+02  0.27069749342E+02 -0.23013468100E+02  0.42174271078E+02  0.10566000000E+00 0. -1.
         22    1    1    0    0    0  0.18624322562E+02  0.22405097910E+02  0.29633535519E+01  0.29285410489E+02  0.00000000000E+00 0.  1.
</event>
<event>
 5    1  0.1267644E-004  0.9118800E+02  0.7818608E-02  0.1130116E+00
         25   -1    0    0    0    0  0.00000000000E+00  0.00000000000E+00  0.99999998245E-14  0.12500000000E+03  0.12500000000E+03 0.  0.
        -13    1    3    3    0    0  0.20574698037E+02  0.13611533384E+02  0.54561897364E+02  0.59879911894E+02  0.10566000000E+00 0. -1.
         23    2    1    0    0    0  0.12946698037E+02  0.16879295154E+02  0.18741532446E+02  0.96649115828E+02  0.92397396916E+02 0.  0.
         13    1    3    3    0    0 -0.76280000003E+01  0.32677617700E+01 -0.35820364919E+02  0.36769203934E+02  0.10566000000E+00 0.  1.
         22    1    1    0    0    0 -0.12946698037E+02 -0.16879295154E+02 -0.18741532446E+02  0.28350884172E+02  0.00000000000E+00 0. -1.
</event>
<event>
 5    1  0.1267644E-004  0.9118800E+02  0.7818608E-02  0.1130116E+00
         25   -1    0    0    0    0  0.00000000000E+00  0.00000000000E+00  0.99999998245E-14  0.12500000000E+03  0.12500000000E+03 0.  0.
        -13    1    3    3    0    0  0.27480392295E+02 -0.20934987867E+02  0.19340226328E+02  0.39591680896E+02  0.10566000000E+00 0.  1.
         23    2    1    0    0    0  0.17617580635E+02  0.22484926020E+02 -0.11974442246E+02  0.94026813005E+02  0.88778957254E+02 0.  0.
         13    1    3    3    0    0 -0.98628116602E+01  0.43419913887E+02 -0.31314668574E+02  0.54435132109E+02  0.10566000000E+00 0. -1.
         22    1    1    0    0    0 -0.17617580635E+02 -0.22484926020E+02  0.11974442246E+02  0.30973186995E+02  0.00000000000E+00 0. -1.
</event>
<event>
 5    1  0.1267644E-004  0.9118800E+02  0.7818608E-02  0.1130116E+00
         25   -1    0    0    0    0  0.00000000000E+00  0.00000000000E+00  0.99999998245E-14  0.12500000000E+03  0.12500000000E+03 0.  0.
        -13    1    3    3    0    0 -0.79567587790E+00 -0.24248938010E+02  0.24413891602E+02  0.34419374804E+02  0.10566000000E+00 0. -1.
         23    2    1    0    0    0  0.26353252911E+01  0.30821289359E+02  0.19156394473E+01  0.94006992859E+02  0.88751046275E+02 0.  0.
         13    1    3    3    0    0  0.34310011690E+01  0.55070227369E+02 -0.22498252154E+02  0.59587618055E+02  0.10566000000E+00 0.  1.
         22    1    1    0    0    0 -0.26353252911E+01 -0.30821289359E+02 -0.19156394473E+01  0.30993007141E+02  0.00000000000E+00 0.  1.
</event>
<event>
 5    1  0.1267644E-004  0.9118800E+02  0.7818608E-02  0.1130116E+00
         25   -1    0    0    0    0  0.00000000000E+00  0.00000000000E+00  0.99999998245E-14  0.12500000000E+03  0.12500000000E+03 0.  0.
        -13    1    3    3    0    0 -0.19203306474E+02 -0.29355404693E+02 -0.14607619760E+02  0.37998690547E+02  0.10566000000E+00 0.  1.
         23    2    1    0    0    0  0.11658020704E+02  0.19926984789E+02 -0.17209497651E+02  0.96204844524E+02  0.91794395967E+02 0.  0.
         13    1    3    3    0    0  0.30861327178E+02  0.49282389481E+02 -0.26018778909E+01  0.58206153977E+02  0.10566000000E+00 0. -1.
         22    1    1    0    0    0 -0.11658020704E+02 -0.19926984789E+02  0.17209497651E+02  0.28795155476E+02  0.00000000000E+00 0. -1.
</event>
<event>
 5    1  0.1267644E-004  0.9118800E+02  0.7818608E-02  0.1130116E+00
         25   -1    0    0    0    0  0.00000000000E+00  0.00000000000E+00  0.99999998245E-14  0.12500000000E+03  0.12500000000E+03 0.  0.
        -13    1    3    3    0    0 -0.72218999219E+01 -0.25989306021E+02 -0.31394145444E+02  0.41390861288E+02  0.10566000000E+00 0. -1.
         23    2    1    0    0    0 -0.13333762236E+02 -0.91761103193E+01  0.21991345507E+02  0.97694149103E+02  0.93800518527E+02 0.  0.
         13    1    3    3    0    0 -0.61118623141E+01  0.16813195702E+02  0.53385490952E+02  0.56303287816E+02  0.10566000000E+00 0.  1.
         22    1    1    0    0    0  0.13333762236E+02  0.91761103193E+01 -0.21991345507E+02  0.27305850897E+02  0.00000000000E+00 0.  1.
</event>
<event>
 5    1  0.1267644E-004  0.9118800E+02  0.7818608E-02  0.1130116E+00
         25   -1    0    0    0    0  0.00000000000E+00  0.00000000000E+00  0.99999998245E-14  0.12500000000E+03  0.12500000000E+03 0.  0.
        -13    1    3    3    0    0 -0.24131668945E+02 -0.48695335590E+02  0.77902677194E+01  0.54902391473E+02  0.10566000000E+00 0. -1.
         23    2    1    0    0    0  0.60451320471E+01 -0.22187877131E+02  0.17352825154E+02  0.96190868568E+02  0.91775362391E+02 0.  0.
         13    1    3    3    0    0  0.30176800992E+02  0.26507458459E+02  0.95625574344E+01  0.41288477095E+02  0.10566000000E+00 0.  1.
         22    1    1    0    0    0 -0.60451320471E+01  0.22187877131E+02 -0.17352825154E+02  0.28809131432E+02  0.00000000000E+00 0. -1.
</event>
<event>
 5    1  0.1267644E-004  0.9118800E+02  0.7818608E-02  0.1130116E+00
         25   -1    0    0    0    0  0.00000000000E+00  0.00000000000E+00  0.99999998245E-14  0.12500000000E+03  0.12500000000E+03 0.  0.
        -13    1    3    3    0    0  0.14376385612E+01  0.35955112823E+02 -0.50155653431E+02  0.61728742720E+02  0.10566000000E+00 0. -1.
         23    2    1    0    0    0  0.93471938000E+00  0.22493739667E+02 -0.19491494300E+02  0.95221477965E+02  0.90445395081E+02 0.  0.
         13    1    3    3    0    0 -0.50291918116E+00 -0.13461373156E+02  0.30664159131E+02  0.33492735245E+02  0.10566000000E+00 0.  1.
         22    1    1    0    0    0 -0.93471938000E+00 -0.22493739667E+02  0.19491494300E+02  0.29778522035E+02  0.00000000000E+00 0. -1.
</event>
<event>
 5    1  0.1267644E-004  0.9118800E+02  0.7818608E-02  0.1130116E+00
         25   -1    0    0    0    0  0.00000000000E+00  0.00000000000E+00  0.99999998245E-14  0.12500000000E+03  0.12500000000E+03 0.  0.
        -13    1    3    3    0    0 -0.15787238647E+02  0.23602083778E+02  0.16107094917E+02  0.32645749087E+02  0.10566000000E+00 0.  1.
         23    2    1    0    0    0  0.50722378552E+01 -0.31240060104E+02  0.55980923715E+00  0.93345895392E+02  0.87814997854E+02 0.  0.
         13    1    3    3    0    0  0.20859476502E+02 -0.54842143881E+02 -0.15547285679E+02  0.60700146305E+02  0.10566000000E+00 0. -1.
         22    1    1    0    0    0 -0.50722378552E+01  0.31240060104E+02 -0.55980923715E+00  0.31654104608E+02  0.00000000000E+00 0. -1.
</event>
<event>
 5    1  0.1267644E-004  0.9118800E+02  0.7818608E-02  0.1130116E+00
         25   -1    0    0    0    0  0.00000000000E+00  0.00000000000E+00  0.99999998245E-14  0.12500000000E+03  0.12500000000E+03 0.  0.
        -13    1    3    3    0    0  0.35003107515E+01  0.32253675915E+02 -0.19319209754E+02  0.37759698290E+02  0.10566000000E+00 0. -1.
         23    2    1    0    0    0  0.14358952634E+02 -0.57333864269E+01  0.24038655151E+02  0.96418394339E+02  0.92084735895E+02 0.  0.
         13    1    3    3    0    0  0.10858641883E+02 -0.37987062342E+02  0.43357864906E+02  0.58658696049E+02  0.10566000000E+00 0.  1.
         22    1    1    0    0    0 -0.14358952634E+02  0.57333864269E+01 -0.24038655151E+02  0.28581605661E+02  0.00000000000E+00 0.  1.
</event>
<event>
 5    1  0.1267644E-004  0.9118800E+02  0.7818608E-02  0.1130116E+00
         25   -1    0    0    0    0  0.00000000000E+00  0.00000000000E+00  0.99999998245E-14  0.12500000000E+03  0.12500000000E+03 0.  0.
        -13    1    3    3    0    0  0.55909919476E+01 -0.31354987383E+02  0.39382248894E+02  0.50649453272E+02  0.10566000000E+00 0.  1.
         23    2    1    0    0    0  0.11842847297E+02 -0.27489988233E+02 -0.41350791028E+01  0.94783260197E+02  0.89837715071E+02 0.  0.
         13    1    3    3    0    0  0.62518553496E+01  0.38649991507E+01 -0.43517327996E+02  0.44133806925E+02  0.10566000000E+00 0. -1.
         22    1    1    0    0    0 -0.11842847297E+02  0.27489988233E+02  0.41350791028E+01  0.30216739803E+02  0.00000000000E+00 0.  1.
</event>
<event>
 5    1  0.1267644E-004  0.9118800E+02  0.7818608E-02  0.1130116E+00
         25   -1    0    0    0    0  0.00000000000E+00  0.00000000000E+00  0.99999998245E-14  0.12500000000E+03  0.12500000000E+03 0.  0.
        -13    1    3    3    0    0 -0.28113828808E+02 -0.17337267645E+02  0.30794425621E+02  0.45158344002E+02  0.10566000000E+00 0. -1.
         23    2    1    0    0    0  0.14774177832E+02 -0.25873639533E+02  0.10074614988E+02  0.93548141225E+02  0.88102413737E+02 0.  0.
         13    1    3    3    0    0  0.42888006640E+02 -0.85363718878E+01 -0.20719810634E+02  0.48389797223E+02  0.10566000000E+00 0.  1.
         22    1    1    0    0    0 -0.14774177832E+02  0.25873639533E+02 -0.10074614988E+02  0.31451858775E+02  0.00000000000E+00 0. -1.
</event>
<event>
 5    1  0.1267644E-004  0.9118800E+02  0.7818608E-02  0.1130116E+00
         25   -1    0    0    0    0  0.00000000000E+00  0.00000000000E+00  0.99999998245E-14  0.12500000000E+03  0.12500000000E+03 0.  0.
        -13    1    3    3    0    0 -0.67803729608E+01 -0.20958609185E+02 -0.11888654643E+02  0.25031740445E+02  0.10566000000E+00 0.  1.
         23    2    1    0    0    0  0.16517497015E+01  0.66913100728E+01  0.39989959273E+02  0.84420463899E+02  0.74027805416E+02 0.  0.
         13    1    3    3    0    0  0.84321226623E+01  0.27649919257E+02  0.51878613916E+02  0.59388723454E+02  0.10566000000E+00 0. -1.
         22    1    1    0    0    0 -0.16517497015E+01 -0.66913100728E+01 -0.39989959273E+02  0.40579536101E+02  0.00000000000E+00 0. -1.
</event>
<event>
 5    1  0.1267644E-004  0.9118800E+02  0.7818608E-02  0.1130116E+00
         25   -1    0    0    0    0  0.00000000000E+00  0.00000000000E+00  0.99999998245E-14  0.12500000000E+03  0.12500000000E+03 0.  0.
        -13    1    3    3    0    0 -0.41731027048E+02 -0.30798706612E+02  0.21932266738E+02  0.56312293824E+02  0.10566000000E+00 0.  1.
         23    2    1    0    0    0 -0.84602206935E+01 -0.97118410534E+01  0.26072279148E+02  0.95919784547E+02  0.91405394462E+02 0.  0.
         13    1    3    3    0    0  0.33270806354E+02  0.21086865559E+02  0.41400124101E+01  0.39607490723E+02  0.10566000000E+00 0. -1.
         22    1    1    0    0    0  0.84602206935E+01  0.97118410534E+01 -0.26072279148E+02  0.29080215453E+02  0.00000000000E+00 0.  1.
</event>
<event>
 5    1  0.1267644E-004  0.9118800E+02  0.7818608E-02  0.1130116E+00
         25   -1    0    0    0    0  0.00000000000E+00  0.00000000000E+00  0.99999998245E-14  0.12500000000E+03  0.12500000000E+03 0.  0.
        -13    1    3    3    0    0 -0.18424841272E+02 -0.33734643147E+02 -0.81688580794E+01  0.39296848862E+02  0.10566000000E+00 0. -1.
         23    2    1    0    0    0  0.18944133085E+02  0.70793828026E+01 -0.20726901840E+02  0.96041369178E+02  0.91571514646E+02 0.  0.
         13    1    3    3    0    0  0.37368974357E+02  0.40814025950E+02 -0.12558043761E+02  0.56744520316E+02  0.10566000000E+00 0.  1.
         22    1    1    0    0    0 -0.18944133085E+02 -0.70793828026E+01  0.20726901840E+02  0.28958630822E+02  0.00000000000E+00 0.  1.
</event>
<event>
 5    1  0.1267644E-004  0.9118800E+02  0.7818608E-02  0.1130116E+00
         25   -1    0    0    0    0  0.00000000000E+00  0.00000000000E+00  0.99999998245E-14  0.12500000000E+03  0.12500000000E+03 0.  0.
        -13    1    3    3    0    0 -0.32154534334E+02 -0.23167210181E+02 -0.15124908133E+02  0.42419426162E+02  0.10566000000E+00 0.  1.
         23    2    1    0    0    0 -0.16737965077E+02  0.12517932467E+02  0.20917008168E+02  0.95430094034E+02  0.90733254700E+02 0.  0.
         13    1    3    3    0    0  0.15416569258E+02  0.35685142649E+02  0.36041916301E+02  0.53010667872E+02  0.10566000000E+00 0. -1.
         22    1    1    0    0    0  0.16737965077E+02 -0.12517932467E+02 -0.20917008168E+02  0.29569905966E+02  0.00000000000E+00 0.  1.
</event>
<event>
 5    1  0.1267644E-004  0.9118800E+02  0.7818608E-02  0.1130116E+00
         25   -1    0    0    0    0  0.00000000000E+00  0.00000000000E+00  0.99999998245E-14  0.12500000000E+03  0.12500000000E+03 0.  0.
        -13    1    3    3    0    0 -0.36201512902E+01  0.60544849848E+02  0.82438069130E+01  0.61210749504E+02  0.10566000000E+00 0. -1.
         23    2    1    0    0    0  0.14787574255E+01  0.29966387898E+02 -0.43719546649E+01  0.94680285048E+02  0.89694321236E+02 0.  0.
         13    1    3    3    0    0  0.50989087156E+01 -0.30578461950E+02 -0.12615761578E+02  0.33469535544E+02  0.10566000000E+00 0.  1.
         22    1    1    0    0    0 -0.14787574255E+01 -0.29966387898E+02  0.43719546649E+01  0.30319714952E+02  0.00000000000E+00 0. -1.
</event>
<event>
 5    1  0.1267644E-004  0.9118800E+02  0.7818608E-02  0.1130116E+00
         25   -1    0    0    0    0  0.00000000000E+00  0.00000000000E+00  0.99999998245E-14  0.12500000000E+03  0.12500000000E+03 0.  0.
        -13    1    3    3    0    0  0.99771382601E+01  0.37622156183E+02 -0.21022008913E+02  0.44236929669E+02  0.10566000000E+00 0.  1.
         23    2    1    0    0    0  0.18469662478E+02  0.92242753281E+01  0.20928464807E+02  0.95602443528E+02  0.90970384642E+02 0.  0.
         13    1    3    3    0    0  0.84925242176E+01 -0.28397880855E+02  0.41950473720E+02  0.51365513859E+02  0.10566000000E+00 0. -1.
         22    1    1    0    0    0 -0.18469662478E+02 -0.92242753281E+01 -0.20928464807E+02  0.29397556472E+02  0.00000000000E+00 0. -1.
</event>
<event>
 5    1  0.1267644E-004  0.9118800E+02  0.7818608E-02  0.1130116E+00
         25   -1    0    0    0    0  0.00000000000E+00  0.00000000000E+00  0.99999998245E-14  0.12500000000E+03  0.12500000000E+03 0.  0.
        -13    1    3    3    0    0  0.43065210755E+02  0.21701904024E+02 -0.16621266324E+02  0.51008456886E+02  0.10566000000E+00 0.  1.
         23    2    1    0    0    0  0.11455627479E+02  0.27474506932E+02  0.10884002857E+02  0.93305498106E+02  0.87757475616E+02 0.  0.
         13    1    3    3    0    0 -0.31609583276E+02  0.57726029084E+01  0.27505269181E+02  0.42297041221E+02  0.10566000000E+00 0. -1.
         22    1    1    0    0    0 -0.11455627479E+02 -0.27474506932E+02 -0.10884002857E+02  0.31694501894E+02  0.00000000000E+00 0.  1.
</event>
<event>
 5    1  0.1267644E-004  0.9118800E+02  0.7818608E-02  0.1130116E+00
         25   -1    0    0    0    0  0.00000000000E+00  0.00000000000E+00  0.99999998245E-14  0.12500000000E+03  0.12500000000E+03 0.  0.
        -13    1    3    3    0    0 -0.31181003609E+02  0.33994903433E+02 -0.54643201100E+01  0.46451893436E+02  0.10566000000E+00 0. -1.
         23    2    1    0    0    0  0.35071516603E+01  0.21145856242E+02 -0.27977198654E+02  0.89755553721E+02  0.82546280536E+02 0.  0.
         13    1    3    3    0    0  0.34688155269E+02 -0.12849047191E+02 -0.22512878544E+02  0.43303660285E+02  0.10566000000E+00 0.  1.
         22    1    1    0    0    0 -0.35071516603E+01 -0.21145856242E+02  0.27977198654E+02  0.35244446279E+02  0.00000000000E+00 0. -1.
</event>
<event>
 5    1  0.1267644E-004  0.9118800E+02  0.7818608E-02  0.1130116E+00
         25   -1    0    0    0    0  0.00000000000E+00  0.00000000000E+00  0.99999998245E-14  0.12500000000E+03  0.12500000000E+03 0.  0.
        -13    1    3    3    0    0 -0.11028305719E+02 -0.33787904684E+01  0.31207792940E+02  0.33271267729E+02  0.10566000000E+00 0.  1.
         23    2    1    0    0    0  0.10603586864E+00 -0.13892200478E+01 -0.29723651077E+02  0.95243713114E+02  0.90476119934E+02 0.  0.
         13    1    3    3    0    0  0.11134341587E+02  0.19895704206E+01 -0.60931444016E+02  0.61972445385E+02  0.10566000000E+00 0. -1.
         22    1    1    0    0    0 -0.10603586864E+00  0.13892200478E+01  0.29723651077E+02  0.29756286886E+02  0.00000000000E+00 0. -1.
</event>
<event>
 5    1  0.1267644E-004  0.9118800E+02  0.7818608E-02  0.1130116E+00
         25   -1    0    0    0    0  0.00000000000E+00  0.00000000000E+00  0.99999998245E-14  0.12500000000E+03  0.12500000000E+03 0.  0.
        -13    1    3    3    0    0  0.32363069676E+02 -0.51350606020E+02  0.58129454068E+01  0.60975851907E+02  0.10566000000E+00 0.  1.
         23    2    1    0    0    0  0.68042714111E+01 -0.28061100479E+02  0.57730757216E+01  0.95554255438E+02  0.90904146547E+02 0.  0.
         13    1    3    3    0    0 -0.25558798265E+02  0.23289505541E+02 -0.39869685197E-01  0.34578403531E+02  0.10566000000E+00 0. -1.
         22    1    1    0    0    0 -0.68042714111E+01  0.28061100479E+02 -0.57730757216E+01  0.29445744562E+02  0.00000000000E+00 0.  1.
</event>
<event>
 5    1  0.1267644E-004  0.9118800E+02  0.7818608E-02  0.1130116E+00
         25   -1    0    0    0    0  0.00000000000E+00  0.00000000000E+00  0.99999998245E-14  0.12500000000E+03  0.12500000000E+03 0.  0.
        -13    1    3    3    0    0 -0.63892114503E+01  0.24805777542E+01  0.34867028408E+02  0.35534435735E+02  0.10566000000E+00 0.  1.
         23    2    1    0    0    0  0.58112105986E+01 -0.18123184047E+02 -0.21205788288E+02  0.96506045807E+02  0.92203641207E+02 0.  0.
         13    1    3    3    0    0  0.12200422049E+02 -0.20603761801E+02 -0.56072816696E+02  0.60971610072E+02  0.10566000000E+00 0. -1.
         22    1    1    0    0    0 -0.58112105986E+01  0.18123184047E+02  0.21205788288E+02  0.28493954193E+02  0.00000000000E+00 0. -1.
</event>
<event>
 5    1  0.1267644E-004  0.9118800E+02  0.7818608E-02  0.1130116E+00
         25   -1    0    0    0    0  0.00000000000E+00  0.00000000000E+00  0.99999998245E-14  0.12500000000E+03  0.12500000000E+03 0.  0.
        -13    1    3    3    0    0  0.21927709579E+01  0.32000043401E+02 -0.19829854864E+02  0.37710016310E+02  0.10566000000E+00 0.  1.
         23    2    1    0    0    0 -0.39132129364E+01  0.12572582100E+02  0.30378148874E+02  0.91890862513E+02  0.85718817235E+02 0.  0.
         13    1    3    3    0    0 -0.61059838942E+01 -0.19427461301E+02  0.50208003738E+02  0.54180846203E+02  0.10566000000E+00 0. -1.
         22    1    1    0    0    0  0.39132129364E+01 -0.12572582100E+02 -0.30378148874E+02  0.33109137487E+02  0.00000000000E+00 0. -1.
</event>
<event>
 5    1  0.1267644E-004  0.9118800E+02  0.7818608E-02  0.1130116E+00
         25   -1    0    0    0    0  0.00000000000E+00  0.00000000000E+00  0.99999998245E-14  0.12500000000E+03  0.12500000000E+03 0.  0.
        -13    1    3    3    0    0 -0.32055843860E+02 -0.13320172610E+02  0.32795147741E+02  0.47754968363E+02  0.10566000000E+00 0.  1.
         23    2    1    0    0    0  0.65527524823E+00  0.20829509806E+02  0.18436217538E+02  0.97175694411E+02  0.93107054527E+02 0.  0.
         13    1    3    3    0    0  0.32711119108E+02  0.34149682416E+02 -0.14358930203E+02  0.49420726047E+02  0.10566000000E+00 0. -1.
         22    1    1    0    0    0 -0.65527524823E+00 -0.20829509806E+02 -0.18436217538E+02  0.27824305589E+02  0.00000000000E+00 0. -1.
</event>
<event>
 5    1  0.1267644E-004  0.9118800E+02  0.7818608E-02  0.1130116E+00
         25   -1    0    0    0    0  0.00000000000E+00  0.00000000000E+00  0.99999998245E-14  0.12500000000E+03  0.12500000000E+03 0.  0.
        -13    1    3    3    0    0 -0.97671934257E+01  0.46546997110E+02 -0.95879058208E+01  0.48517626791E+02  0.10566000000E+00 0. -1.
         23    2    1    0    0    0  0.10628648845E+02  0.54820816439E+01 -0.25324184655E+02  0.96994005572E+02  0.92862809526E+02 0.  0.
         13    1    3    3    0    0  0.20395842271E+02 -0.41064915466E+02 -0.15736278834E+02  0.48476378781E+02  0.10566000000E+00 0.  1.
         22    1    1    0    0    0 -0.10628648845E+02 -0.54820816439E+01  0.25324184655E+02  0.28005994428E+02  0.00000000000E+00 0.  1.
</event>
<event>
 5    1  0.1267644E-004  0.9118800E+02  0.7818608E-02  0.1130116E+00
         25   -1    0    0    0    0  0.00000000000E+00  0.00000000000E+00  0.99999998245E-14  0.12500000000E+03  0.12500000000E+03 0.  0.
        -13    1    3    3    0    0  0.47483300018E+02 -0.34532153139E+02 -0.87217409594E+01  0.59356661888E+02  0.10566000000E+00 0.  1.
         23    2    1    0    0    0  0.14226623689E+02 -0.21704492137E+02 -0.14195813069E+02  0.95419551910E+02  0.90718730026E+02 0.  0.
         13    1    3    3    0    0 -0.33256676330E+02  0.12827661001E+02 -0.54740721095E+01  0.36062890022E+02  0.10566000000E+00 0. -1.
         22    1    1    0    0    0 -0.14226623689E+02  0.21704492137E+02  0.14195813069E+02  0.29580448090E+02  0.00000000000E+00 0.  1.
</event>
<event>
 5    1  0.1267644E-004  0.9118800E+02  0.7818608E-02  0.1130116E+00
         25   -1    0    0    0    0  0.00000000000E+00  0.00000000000E+00  0.99999998245E-14  0.12500000000E+03  0.12500000000E+03 0.  0.
        -13    1    3    3    0    0  0.14112935096E+02 -0.86968810221E+01 -0.49013270408E+02  0.51740917239E+02  0.10566000000E+00 0. -1.
         23    2    1    0    0    0  0.28373818076E+02 -0.11080136884E+01 -0.84947771271E+01  0.95361132192E+02  0.90638198614E+02 0.  0.
         13    1    3    3    0    0  0.14260882979E+02  0.75888673337E+01  0.40518493281E+02  0.43620214953E+02  0.10566000000E+00 0.  1.
         22    1    1    0    0    0 -0.28373818076E+02  0.11080136884E+01  0.84947771271E+01  0.29638867808E+02  0.00000000000E+00 0. -1.
</event>
<event>
 5    1  0.1267644E-004  0.9118800E+02  0.7818608E-02  0.1130116E+00
         25   -1    0    0    0    0  0.00000000000E+00  0.00000000000E+00  0.99999998245E-14  0.12500000000E+03  0.12500000000E+03 0.  0.
        -13    1    3    3    0    0 -0.48720897651E+02 -0.11826208526E+02  0.64601854452E+01  0.50550274342E+02  0.10566000000E+00 0.  1.
         23    2    1    0    0    0 -0.46885488221E+01 -0.25061156790E+02  0.11926233522E+02  0.96852546905E+02  0.92672200396E+02 0.  0.
         13    1    3    3    0    0  0.44032348828E+02 -0.13234948264E+02  0.54660480767E+01  0.46302272563E+02  0.10566000000E+00 0. -1.
         22    1    1    0    0    0  0.46885488221E+01  0.25061156790E+02 -0.11926233522E+02  0.28147453095E+02  0.00000000000E+00 0. -1.
</event>
<event>
 5    1  0.1267644E-004  0.9118800E+02  0.7818608E-02  0.1130116E+00
         25   -1    0    0    0    0  0.00000000000E+00  0.00000000000E+00  0.99999998245E-14  0.12500000000E+03  0.12500000000E+03 0.  0.
        -13    1    3    3    0    0 -0.19741210820E+01  0.12845725028E+02 -0.37511037118E+02  0.39698852316E+02  0.10566000000E+00 0. -1.
         23    2    1    0    0    0  0.25775968933E+02  0.78813387918E+01  0.11065602251E+02  0.95863019567E+02  0.91327733421E+02 0.  0.
         13    1    3    3    0    0  0.27750090015E+02 -0.49643862365E+01  0.48576639369E+02  0.56164167251E+02  0.10566000000E+00 0.  1.
         22    1    1    0    0    0 -0.25775968933E+02 -0.78813387918E+01 -0.11065602251E+02  0.29136980433E+02  0.00000000000E+00 0.  1.
</event>
<event>
 5    1  0.1267644E-004  0.9118800E+02  0.7818608E-02  0.1130116E+00
         25   -1    0    0    0    0  0.00000000000E+00  0.00000000000E+00  0.99999998245E-14  0.12500000000E+03  0.12500000000E+03 0.  0.
        -13    1    3    3    0    0  0.20421482859E+02 -0.21867156416E+02  0.24671680338E+02  0.38780310295E+02  0.10566000000E+00 0. -1.
         23    2    1    0    0    0 -0.29112408831E+02 -0.35902808697E+01  0.43887287589E+01  0.95340542743E+02  0.90609799060E+02 0.  0.
         13    1    3    3    0    0 -0.49533891690E+02  0.18276875547E+02 -0.20282951579E+02  0.56560232447E+02  0.10566000000E+00 0.  1.
         22    1    1    0    0    0  0.29112408831E+02  0.35902808697E+01 -0.43887287589E+01  0.29659457257E+02  0.00000000000E+00 0.  1.
</event>
<event>
 5    1  0.1267644E-004  0.9118800E+02  0.7818608E-02  0.1130116E+00
         25   -1    0    0    0    0  0.00000000000E+00  0.00000000000E+00  0.99999998245E-14  0.12500000000E+03  0.12500000000E+03 0.  0.
        -13    1    3    3    0    0  0.24807586965E+02  0.42820049920E+02  0.10544678572E+02  0.50598166532E+02  0.10566000000E+00 0. -1.
         23    2    1    0    0    0  0.75123663913E+00  0.19138263233E+02 -0.20843234534E+02  0.96693147439E+02  0.92456945979E+02 0.  0.
         13    1    3    3    0    0 -0.24056350326E+02 -0.23681786687E+02 -0.31387913106E+02  0.46094980907E+02  0.10566000000E+00 0.  1.
         22    1    1    0    0    0 -0.75123663913E+00 -0.19138263233E+02  0.20843234534E+02  0.28306852561E+02  0.00000000000E+00 0.  1.
</event>
<event>
 5    1  0.1267644E-004  0.9118800E+02  0.7818608E-02  0.1130116E+00
         25   -1    0    0    0    0  0.00000000000E+00  0.00000000000E+00  0.99999998245E-14  0.12500000000E+03  0.12500000000E+03 0.  0.
        -13    1    3    3    0    0  0.37377608984E+02  0.23925644194E+02  0.37634020084E+02  0.58188080697E+02  0.10566000000E+00 0.  1.
         23    2    1    0    0    0  0.21563839371E+02 -0.47983564218E+01  0.18734390508E+02  0.96034489812E+02  0.91562123462E+02 0.  0.
         13    1    3    3    0    0 -0.15813769613E+02 -0.28724000616E+02 -0.18899629576E+02  0.37846409115E+02  0.10566000000E+00 0. -1.
         22    1    1    0    0    0 -0.21563839371E+02  0.47983564218E+01 -0.18734390508E+02  0.28965510188E+02  0.00000000000E+00 0.  1.
</event>
<event>
 5    1  0.1267644E-004  0.9118800E+02  0.7818608E-02  0.1130116E+00
         25   -1    0    0    0    0  0.00000000000E+00  0.00000000000E+00  0.99999998245E-14  0.12500000000E+03  0.12500000000E+03 0.  0.
        -13    1    3    3    0    0 -0.21587185295E+01  0.23084176422E+02  0.31874908332E+02  0.39415228174E+02  0.10566000000E+00 0.  1.
         23    2    1    0    0    0 -0.34125613109E+02  0.15731616539E+02 -0.30136234814E+01  0.87302212857E+02  0.78743591576E+02 0.  0.
         13    1    3    3    0    0 -0.31966894580E+02 -0.73525598838E+01 -0.34888531814E+02  0.47886984683E+02  0.10566000000E+00 0. -1.
         22    1    1    0    0    0  0.34125613109E+02 -0.15731616539E+02  0.30136234814E+01  0.37697787143E+02  0.00000000000E+00 0.  1.
</event>
<event>
 5    1  0.1267644E-004  0.9118800E+02  0.7818608E-02  0.1130116E+00
         25   -1    0    0    0    0  0.00000000000E+00  0.00000000000E+00  0.99999998245E-14  0.12500000000E+03  0.12500000000E+03 0.  0.
        -13    1    3    3    0    0  0.38154494693E+02 -0.11660125002E+02 -0.46332789235E+02  0.61142967729E+02  0.10566000000E+00 0.  1.
         23    2    1    0    0    0  0.22344196361E+02  0.25560346631E+01 -0.20837810140E+02  0.94340405161E+02  0.89219399742E+02 0.  0.
         13    1    3    3    0    0 -0.15810298332E+02  0.14216159665E+02  0.25494979095E+02  0.33197437432E+02  0.10566000000E+00 0. -1.
         22    1    1    0    0    0 -0.22344196361E+02 -0.25560346631E+01  0.20837810140E+02  0.30659594839E+02  0.00000000000E+00 0.  1.
</event>
<event>
 5    1  0.1267644E-004  0.9118800E+02  0.7818608E-02  0.1130116E+00
         25   -1    0    0    0    0  0.00000000000E+00  0.00000000000E+00  0.99999998245E-14  0.12500000000E+03  0.12500000000E+03 0.  0.
        -13    1    3    3    0    0 -0.36474650576E+02 -0.15800545549E+02 -0.25073025187E+01  0.39829073606E+02  0.10566000000E+00 0. -1.
         23    2    1    0    0    0  0.15644990846E+02 -0.93614984939E+01 -0.22516376243E+02  0.96027761707E+02  0.91552937838E+02 0.  0.
         13    1    3    3    0    0  0.52119641422E+02  0.64390470554E+01 -0.20009073724E+02  0.56198688101E+02  0.10566000000E+00 0.  1.
         22    1    1    0    0    0 -0.15644990846E+02  0.93614984939E+01  0.22516376243E+02  0.28972238293E+02  0.00000000000E+00 0. -1.
</event>
<event>
 5    1  0.1267644E-004  0.9118800E+02  0.7818608E-02  0.1130116E+00
         25   -1    0    0    0    0  0.00000000000E+00  0.00000000000E+00  0.99999998245E-14  0.12500000000E+03  0.12500000000E+03 0.  0.
        -13    1    3    3    0    0 -0.33988903996E+02 -0.52266313839E+01 -0.13988608071E+02  0.37124864852E+02  0.10566000000E+00 0.  1.
         23    2    1    0    0    0  0.39843099459E+01  0.21233333441E+02  0.20789292678E+02  0.95017940951E+02  0.90163658076E+02 0.  0.
         13    1    3    3    0    0  0.37973213942E+02  0.26459964825E+02  0.34777900748E+02  0.57893076099E+02  0.10566000000E+00 0. -1.
         22    1    1    0    0    0 -0.39843099459E+01 -0.21233333441E+02 -0.20789292678E+02  0.29982059049E+02  0.00000000000E+00 0. -1.
</event>
<event>
 5    1  0.1267644E-004  0.9118800E+02  0.7818608E-02  0.1130116E+00
         25   -1    0    0    0    0  0.00000000000E+00  0.00000000000E+00  0.99999998245E-14  0.12500000000E+03  0.12500000000E+03 0.  0.
        -13    1    3    3    0    0  0.13550749199E+01  0.32326730273E+02  0.27191839926E+02  0.42264181534E+02  0.10566000000E+00 0.  1.
         23    2    1    0    0    0  0.27299746140E+02 -0.92309518985E+01  0.64317277899E+01  0.95472830569E+02  0.90792112225E+02 0.  0.
         13    1    3    3    0    0  0.25944671220E+02 -0.41557682172E+02 -0.20760112136E+02  0.53208649035E+02  0.10566000000E+00 0. -1.
         22    1    1    0    0    0 -0.27299746140E+02  0.92309518985E+01 -0.64317277899E+01  0.29527169431E+02  0.00000000000E+00 0. -1.
</event>
<event>
 5    1  0.1267644E-004  0.9118800E+02  0.7818608E-02  0.1130116E+00
         25   -1    0    0    0    0  0.00000000000E+00  0.00000000000E+00  0.99999998245E-14  0.12500000000E+03  0.12500000000E+03 0.  0.
        -13    1    3    3    0    0  0.10893996321E+02  0.19187845280E+01 -0.33113703617E+02  0.34912596884E+02  0.10566000000E+00 0.  1.
         23    2    1    0    0    0  0.22247571724E+01  0.14893938961E+02  0.25399964258E+02  0.95471418142E+02  0.90790167614E+02 0.  0.
         13    1    3    3    0    0 -0.86692391488E+01  0.12975154433E+02  0.58513667875E+02  0.60558821258E+02  0.10566000000E+00 0. -1.
         22    1    1    0    0    0 -0.22247571724E+01 -0.14893938961E+02 -0.25399964258E+02  0.29528581858E+02  0.00000000000E+00 0. -1.
</event>
<event>
 5    1  0.1267644E-004  0.9118800E+02  0.7818608E-02  0.1130116E+00
         25   -1    0    0    0    0  0.00000000000E+00  0.00000000000E+00  0.99999998245E-14  0.12500000000E+03  0.12500000000E+03 0.  0.
        -13    1    3    3    0    0  0.10375706800E+02 -0.37182915712E+02  0.31249984481E+02  0.49666862258E+02  0.10566000000E+00 0. -1.
         23    2    1    0    0    0  0.21379489721E+02 -0.15785598212E+02 -0.93217768207E+01  0.96836846505E+02  0.92651020644E+02 0.  0.
         13    1    3    3    0    0  0.11003782921E+02  0.21397317500E+02 -0.40571761302E+02  0.47169984248E+02  0.10566000000E+00 0.  1.
         22    1    1    0    0    0 -0.21379489721E+02  0.15785598212E+02  0.93217768207E+01  0.28163153495E+02  0.00000000000E+00 0.  1.
</event>
<event>
 5    1  0.1267644E-004  0.9118800E+02  0.7818608E-02  0.1130116E+00
         25   -1    0    0    0    0  0.00000000000E+00  0.00000000000E+00  0.99999998245E-14  0.12500000000E+03  0.12500000000E+03 0.  0.
        -13    1    3    3    0    0  0.47701219312E+01 -0.31394578722E+02  0.44415842699E+02  0.54599925669E+02  0.10566000000E+00 0.  1.
         23    2    1    0    0    0  0.22848509402E+02 -0.23477079372E+02  0.17857088974E+02  0.87689099926E+02  0.79355371472E+02 0.  0.
         13    1    3    3    0    0  0.18078387471E+02  0.79174993502E+01 -0.26558753725E+02  0.33089174257E+02  0.10566000000E+00 0. -1.
         22    1    1    0    0    0 -0.22848509402E+02  0.23477079372E+02 -0.17857088974E+02  0.37310900074E+02  0.00000000000E+00 0.  1.
</event>
<event>
 5    1  0.1267644E-004  0.9118800E+02  0.7818608E-02  0.1130116E+00
         25   -1    0    0    0    0  0.00000000000E+00  0.00000000000E+00  0.99999998245E-14  0.12500000000E+03  0.12500000000E+03 0.  0.
        -13    1    3    3    0    0 -0.22669141095E+02 -0.95573210219E+01 -0.51951338432E+02  0.57482041300E+02  0.10566000000E+00 0.  1.
         23    2    1    0    0    0  0.33063012103E+01  0.59372890903E+01 -0.28350674287E+02  0.95846205016E+02  0.91304716494E+02 0.  0.
         13    1    3    3    0    0  0.25975442305E+02  0.15494610112E+02  0.23600664145E+02  0.38364163716E+02  0.10566000000E+00 0. -1.
         22    1    1    0    0    0 -0.33063012103E+01 -0.59372890903E+01  0.28350674287E+02  0.29153794984E+02  0.00000000000E+00 0.  1.
</event>
<event>
 5    1  0.1267644E-004  0.9118800E+02  0.7818608E-02  0.1130116E+00
         25   -1    0    0    0    0  0.00000000000E+00  0.00000000000E+00  0.99999998245E-14  0.12500000000E+03  0.12500000000E+03 0.  0.
        -13    1    3    3    0    0  0.35633181679E+02  0.23943676149E+00  0.21547155266E+01  0.35699228698E+02  0.10566000000E+00 0.  1.
         23    2    1    0    0    0 -0.25753991218E+02 -0.80942374026E+01 -0.28637511029E+01  0.97852517370E+02  0.94011325607E+02 0.  0.
         13    1    3    3    0    0 -0.61387172897E+02 -0.83336741641E+01 -0.50184666294E+01  0.62153288672E+02  0.10566000000E+00 0. -1.
         22    1    1    0    0    0  0.25753991218E+02  0.80942374026E+01  0.28637511029E+01  0.27147482630E+02  0.00000000000E+00 0. -1.
</event>
<event>
 5    1  0.1267644E-004  0.9118800E+02  0.7818608E-02  0.1130116E+00
         25   -1    0    0    0    0  0.00000000000E+00  0.00000000000E+00  0.99999998245E-14  0.12500000000E+03  0.12500000000E+03 0.  0.
        -13    1    3    3    0    0 -0.23304784029E+02  0.29982071183E+02  0.45050309609E+02  0.58920107866E+02  0.10566000000E+00 0.  1.
         23    2    1    0    0    0 -0.97239853539E+01  0.25358753472E+02  0.11317321198E+02  0.95577151261E+02  0.90935624566E+02 0.  0.
         13    1    3    3    0    0  0.13580798675E+02 -0.46233177102E+01 -0.33732988411E+02  0.36657043395E+02  0.10566000000E+00 0. -1.
         22    1    1    0    0    0  0.97239853539E+01 -0.25358753472E+02 -0.11317321198E+02  0.29422848739E+02  0.00000000000E+00 0.  1.
</event>
<event>
 5    1  0.1267644E-004  0.9118800E+02  0.7818608E-02  0.1130116E+00
         25   -1    0    0    0    0  0.00000000000E+00  0.00000000000E+00  0.99999998245E-14  0.12500000000E+03  0.12500000000E+03 0.  0.
        -13    1    3    3    0    0  0.27790687800E+02 -0.33770844933E+02 -0.15224184353E+02  0.46309602127E+02  0.10566000000E+00 0. -1.
         23    2    1    0    0    0 -0.10337635080E+02 -0.31852644217E+02  0.74239930203E+01  0.90698785516E+02  0.83962470063E+02 0.  0.
         13    1    3    3    0    0 -0.38128322880E+02  0.19182007158E+01  0.22648177373E+02  0.44389183390E+02  0.10566000000E+00 0.  1.
         22    1    1    0    0    0  0.10337635080E+02  0.31852644217E+02 -0.74239930203E+01  0.34301214484E+02  0.00000000000E+00 0. -1.
</event>
<event>
 5    1  0.1267644E-004  0.9118800E+02  0.7818608E-02  0.1130116E+00
         25   -1    0    0    0    0  0.00000000000E+00  0.00000000000E+00  0.99999998245E-14  0.12500000000E+03  0.12500000000E+03 0.  0.
        -13    1    3    3    0    0  0.37267995112E+02  0.16178110881E+01 -0.11545075783E+02  0.39048952755E+02  0.10566000000E+00 0.  1.
         23    2    1    0    0    0 -0.12410706391E+02 -0.25511378600E+02 -0.10971348241E+01  0.96608808127E+02  0.92342850463E+02 0.  0.
         13    1    3    3    0    0 -0.49678701503E+02 -0.27129189688E+02  0.10447940959E+02  0.57559855372E+02  0.10566000000E+00 0. -1.
         22    1    1    0    0    0  0.12410706391E+02  0.25511378600E+02  0.10971348241E+01  0.28391191873E+02  0.00000000000E+00 0. -1.
</event>
<event>
 5    1  0.1267644E-004  0.9118800E+02  0.7818608E-02  0.1130116E+00
         25   -1    0    0    0    0  0.00000000000E+00  0.00000000000E+00  0.99999998245E-14  0.12500000000E+03  0.12500000000E+03 0.  0.
        -13    1    3    3    0    0  0.41334358510E+02 -0.35918216569E+02  0.42129965877E+01  0.54921835177E+02  0.10566000000E+00 0.  1.
         23    2    1    0    0    0  0.30212554230E+02 -0.28747153327E+00 -0.71732781187E+01  0.93946224192E+02  0.88665416301E+02 0.  0.
         13    1    3    3    0    0 -0.11121804280E+02  0.35630745036E+02 -0.11386274706E+02  0.39024389014E+02  0.10566000000E+00 0. -1.
         22    1    1    0    0    0 -0.30212554230E+02  0.28747153327E+00  0.71732781187E+01  0.31053775808E+02  0.00000000000E+00 0.  1.
</event>
<event>
 5    1  0.1267644E-004  0.9118800E+02  0.7818608E-02  0.1130116E+00
         25   -1    0    0    0    0  0.00000000000E+00  0.00000000000E+00  0.99999998245E-14  0.12500000000E+03  0.12500000000E+03 0.  0.
        -13    1    3    3    0    0  0.22122292856E+01  0.12197216872E+02 -0.41148099130E+02  0.42974914589E+02  0.10566000000E+00 0. -1.
         23    2    1    0    0    0 -0.26893078794E+02  0.10084316490E+02  0.32397502603E+01  0.96096244053E+02  0.91646391163E+02 0.  0.
         13    1    3    3    0    0 -0.29105308080E+02 -0.21129003820E+01  0.44387849391E+02  0.53121329464E+02  0.10566000000E+00 0.  1.
         22    1    1    0    0    0  0.26893078794E+02 -0.10084316490E+02 -0.32397502603E+01  0.28903755947E+02  0.00000000000E+00 0.  1.
</event>
<event>
 5    1  0.1267644E-004  0.9118800E+02  0.7818608E-02  0.1130116E+00
         25   -1    0    0    0    0  0.00000000000E+00  0.00000000000E+00  0.99999998245E-14  0.12500000000E+03  0.12500000000E+03 0.  0.
        -13    1    3    3    0    0 -0.30341649835E+01 -0.44205490867E+02  0.13213744427E+02  0.46237925838E+02  0.10566000000E+00 0.  1.
         23    2    1    0    0    0 -0.22735787945E+02  0.22222202692E+01  0.16561647395E+02  0.96784003104E+02  0.92579699588E+02 0.  0.
         13    1    3    3    0    0 -0.19701622962E+02  0.46427711136E+02  0.33479029684E+01  0.50546077266E+02  0.10566000000E+00 0. -1.
         22    1    1    0    0    0  0.22735787945E+02 -0.22222202692E+01 -0.16561647395E+02  0.28215996896E+02  0.00000000000E+00 0. -1.
</event>
<event>
 5    1  0.1267644E-004  0.9118800E+02  0.7818608E-02  0.1130116E+00
         25   -1    0    0    0    0  0.00000000000E+00  0.00000000000E+00  0.99999998245E-14  0.12500000000E+03  0.12500000000E+03 0.  0.
        -13    1    3    3    0    0  0.48779095632E+02  0.10273204956E+02 -0.29910042605E+02  0.58133989399E+02  0.10566000000E+00 0. -1.
         23    2    1    0    0    0  0.12005859031E+02  0.32742061786E+01 -0.26501272061E+02  0.95722389134E+02  0.91135049698E+02 0.  0.
         13    1    3    3    0    0 -0.36773236601E+02 -0.69989987777E+01  0.34087705442E+01  0.37588399735E+02  0.10566000000E+00 0.  1.
         22    1    1    0    0    0 -0.12005859031E+02 -0.32742061786E+01  0.26501272061E+02  0.29277610866E+02  0.00000000000E+00 0. -1.
</event>
<event>
 5    1  0.1267644E-004  0.9118800E+02  0.7818608E-02  0.1130116E+00
         25   -1    0    0    0    0  0.00000000000E+00  0.00000000000E+00  0.99999998245E-14  0.12500000000E+03  0.12500000000E+03 0.  0.
        -13    1    3    3    0    0  0.22692565743E+02  0.15862940461E+02 -0.20595823024E+02  0.34507745654E+02  0.10566000000E+00 0.  1.
         23    2    1    0    0    0 -0.20182617772E+02 -0.20962228814E+02  0.29843596578E+01  0.95748341935E+02  0.91170639374E+02 0.  0.
         13    1    3    3    0    0 -0.42875183515E+02 -0.36825169274E+02  0.23580182681E+02  0.61240596281E+02  0.10566000000E+00 0. -1.
         22    1    1    0    0    0  0.20182617772E+02  0.20962228814E+02 -0.29843596578E+01  0.29251658065E+02  0.00000000000E+00 0. -1.
</event>
<event>
 5    1  0.1267644E-004  0.9118800E+02  0.7818608E-02  0.1130116E+00
         25   -1    0    0    0    0  0.00000000000E+00  0.00000000000E+00  0.99999998245E-14  0.12500000000E+03  0.12500000000E+03 0.  0.
        -13    1    3    3    0    0  0.44209950407E+01  0.48758022594E+02 -0.26520036628E+02  0.55679560623E+02  0.10566000000E+00 0. -1.
         23    2    1    0    0    0 -0.14719622763E+02  0.26629081362E+02 -0.91536668586E+00  0.94559678637E+02  0.89526083682E+02 0.  0.
         13    1    3    3    0    0 -0.19140617804E+02 -0.22128941232E+02  0.25604669942E+02  0.38880118014E+02  0.10566000000E+00 0.  1.
         22    1    1    0    0    0  0.14719622763E+02 -0.26629081362E+02  0.91536668586E+00  0.30440321363E+02  0.00000000000E+00 0. -1.
</event>
<event>
 5    1  0.1267644E-004  0.9118800E+02  0.7818608E-02  0.1130116E+00
         25   -1    0    0    0    0  0.00000000000E+00  0.00000000000E+00  0.99999998245E-14  0.12500000000E+03  0.12500000000E+03 0.  0.
        -13    1    3    3    0    0  0.20262423912E+02  0.50520673190E+02  0.19545911378E+01  0.54467750393E+02  0.10566000000E+00 0. -1.
         23    2    1    0    0    0 -0.43339506118E+01  0.22864121414E+02  0.18752776246E+02  0.95113250547E+02  0.90295695560E+02 0.  0.
         13    1    3    3    0    0 -0.24596374524E+02 -0.27656551775E+02  0.16798185108E+02  0.40645500154E+02  0.10566000000E+00 0.  1.
         22    1    1    0    0    0  0.43339506118E+01 -0.22864121414E+02 -0.18752776246E+02  0.29886749453E+02  0.00000000000E+00 0. -1.
</event>
<event>
 5    1  0.1267644E-004  0.9118800E+02  0.7818608E-02  0.1130116E+00
         25   -1    0    0    0    0  0.00000000000E+00  0.00000000000E+00  0.99999998245E-14  0.12500000000E+03  0.12500000000E+03 0.  0.
        -13    1    3    3    0    0 -0.21164230456E+02 -0.16814402429E+02  0.36818728497E+02  0.45675800070E+02  0.10566000000E+00 0.  1.
         23    2    1    0    0    0 -0.12608186995E+01  0.24260247522E+02  0.92070521030E+01  0.99020795200E+02  0.95552073761E+02 0.  0.
         13    1    3    3    0    0  0.19903411756E+02  0.41074649951E+02 -0.27611676394E+02  0.53344995130E+02  0.10566000000E+00 0. -1.
         22    1    1    0    0    0  0.12608186995E+01 -0.24260247522E+02 -0.92070521030E+01  0.25979204800E+02  0.00000000000E+00 0. -1.
</event>
<event>
 5    1  0.1267644E-004  0.9118800E+02  0.7818608E-02  0.1130116E+00
         25   -1    0    0    0    0  0.00000000000E+00  0.00000000000E+00  0.99999998245E-14  0.12500000000E+03  0.12500000000E+03 0.  0.
        -13    1    3    3    0    0  0.23846832120E+01  0.52052771639E+02  0.54898071078E+01  0.52395867160E+02  0.10566000000E+00 0.  1.
         23    2    1    0    0    0 -0.23245506587E+02  0.16268738179E+02  0.16505731903E+01  0.96579060355E+02  0.92302573576E+02 0.  0.
         13    1    3    3    0    0 -0.25630189799E+02 -0.35784033460E+02 -0.38392339176E+01  0.44183193195E+02  0.10566000000E+00 0. -1.
         22    1    1    0    0    0  0.23245506587E+02 -0.16268738179E+02 -0.16505731903E+01  0.28420939645E+02  0.00000000000E+00 0.  1.
</event>
<event>
 5    1  0.1267644E-004  0.9118800E+02  0.7818608E-02  0.1130116E+00
         25   -1    0    0    0    0  0.00000000000E+00  0.00000000000E+00  0.99999998245E-14  0.12500000000E+03  0.12500000000E+03 0.  0.
        -13    1    3    3    0    0  0.23439782787E+01  0.21438948156E+02  0.25670304383E+02  0.33527577058E+02  0.10566000000E+00 0. -1.
         23    2    1    0    0    0 -0.16295394001E+02 -0.11772254581E+02 -0.22430137961E+02  0.94879625957E+02  0.89971698268E+02 0.  0.
         13    1    3    3    0    0 -0.18639372279E+02 -0.33211202737E+02 -0.48100442345E+02  0.61352048898E+02  0.10566000000E+00 0.  1.
         22    1    1    0    0    0  0.16295394001E+02  0.11772254581E+02  0.22430137961E+02  0.30120374043E+02  0.00000000000E+00 0.  1.
</event>
<event>
 5    1  0.1267644E-004  0.9118800E+02  0.7818608E-02  0.1130116E+00
         25   -1    0    0    0    0  0.00000000000E+00  0.00000000000E+00  0.99999998245E-14  0.12500000000E+03  0.12500000000E+03 0.  0.
        -13    1    3    3    0    0 -0.19599766279E+02 -0.42164365717E+02  0.60390307057E+01  0.46887798310E+02  0.10566000000E+00 0. -1.
         23    2    1    0    0    0  0.83791282810E+01 -0.80115733442E+01  0.26892511179E+02  0.95715153138E+02  0.91125124332E+02 0.  0.
         13    1    3    3    0    0  0.27978894560E+02  0.34152792372E+02  0.20853480473E+02  0.48827354828E+02  0.10566000000E+00 0.  1.
         22    1    1    0    0    0 -0.83791282810E+01  0.80115733442E+01 -0.26892511179E+02  0.29284846862E+02  0.00000000000E+00 0.  1.
</event>
<event>
 5    1  0.1267644E-004  0.9118800E+02  0.7818608E-02  0.1130116E+00
         25   -1    0    0    0    0  0.00000000000E+00  0.00000000000E+00  0.99999998245E-14  0.12500000000E+03  0.12500000000E+03 0.  0.
        -13    1    3    3    0    0 -0.33835330481E+02  0.31502362568E+02 -0.33016862903E+02  0.56809795248E+02  0.10566000000E+00 0. -1.
         23    2    1    0    0    0 -0.14353237114E+02  0.25101994725E+02  0.47407624179E+00  0.96080278302E+02  0.91624612280E+02 0.  0.
         13    1    3    3    0    0  0.19482093367E+02 -0.64003678428E+01  0.33490939144E+02  0.39270483054E+02  0.10566000000E+00 0.  1.
         22    1    1    0    0    0  0.14353237114E+02 -0.25101994725E+02 -0.47407624179E+00  0.28919721698E+02  0.00000000000E+00 0. -1.
</event>
<event>
 5    1  0.1267644E-004  0.9118800E+02  0.7818608E-02  0.1130116E+00
         25   -1    0    0    0    0  0.00000000000E+00  0.00000000000E+00  0.99999998245E-14  0.12500000000E+03  0.12500000000E+03 0.  0.
        -13    1    3    3    0    0 -0.49182454470E+01  0.15330752066E+02  0.51441403468E+02  0.53902228637E+02  0.10566000000E+00 0.  1.
         23    2    1    0    0    0  0.53863406601E+01 -0.14984372538E+02  0.24665613855E+02  0.95641243336E+02  0.91023682819E+02 0.  0.
         13    1    3    3    0    0  0.10304586107E+02 -0.30315124604E+02 -0.26775789614E+02  0.41739014699E+02  0.10566000000E+00 0. -1.
         22    1    1    0    0    0 -0.53863406601E+01  0.14984372538E+02 -0.24665613855E+02  0.29358756664E+02  0.00000000000E+00 0.  1.
</event>
<event>
 5    1  0.1267644E-004  0.9118800E+02  0.7818608E-02  0.1130116E+00
         25   -1    0    0    0    0  0.00000000000E+00  0.00000000000E+00  0.99999998245E-14  0.12500000000E+03  0.12500000000E+03 0.  0.
        -13    1    3    3    0    0  0.35075008122E+02 -0.38148355327E+01  0.11776325239E+02  0.37195458931E+02  0.10566000000E+00 0.  1.
         23    2    1    0    0    0 -0.21020173257E+02 -0.18070005784E+02  0.11272969153E+02  0.95075885538E+02  0.90243954837E+02 0.  0.
         13    1    3    3    0    0 -0.56095181379E+02 -0.14255170251E+02 -0.50335608558E+00  0.57880426607E+02  0.10566000000E+00 0. -1.
         22    1    1    0    0    0  0.21020173257E+02  0.18070005784E+02 -0.11272969153E+02  0.29924114462E+02  0.00000000000E+00 0. -1.
</event>
<event>
 5    1  0.1267644E-004  0.9118800E+02  0.7818608E-02  0.1130116E+00
         25   -1    0    0    0    0  0.00000000000E+00  0.00000000000E+00  0.99999998245E-14  0.12500000000E+03  0.12500000000E+03 0.  0.
        -13    1    3    3    0    0  0.35422613865E+02 -0.45729638679E+02 -0.55734329789E+01  0.58112268463E+02  0.10566000000E+00 0.  1.
         23    2    1    0    0    0  0.26584871273E+02 -0.11486845019E+02  0.61958550244E+01  0.95384267550E+02  0.90670099191E+02 0.  0.
         13    1    3    3    0    0 -0.88377425921E+01  0.34242793660E+02  0.11769288003E+02  0.37271999086E+02  0.10566000000E+00 0. -1.
         22    1    1    0    0    0 -0.26584871273E+02  0.11486845019E+02 -0.61958550244E+01  0.29615732450E+02  0.00000000000E+00 0.  1.
</event>
<event>
 5    1  0.1267644E-004  0.9118800E+02  0.7818608E-02  0.1130116E+00
         25   -1    0    0    0    0  0.00000000000E+00  0.00000000000E+00  0.99999998245E-14  0.12500000000E+03  0.12500000000E+03 0.  0.
        -13    1    3    3    0    0 -0.20521781500E+02 -0.20729575175E+02  0.15640990203E+02  0.33098497570E+02  0.10566000000E+00 0. -1.
         23    2    1    0    0    0  0.28810844693E+02  0.55691173743E+01  0.20485319483E+02  0.89212737537E+02  0.81720158984E+02 0.  0.
         13    1    3    3    0    0  0.49332626193E+02  0.26298692549E+02  0.48443292799E+01  0.56114239967E+02  0.10566000000E+00 0.  1.
         22    1    1    0    0    0 -0.28810844693E+02 -0.55691173743E+01 -0.20485319483E+02  0.35787262463E+02  0.00000000000E+00 0.  1.
</event>
<event>
 5    1  0.1267644E-004  0.9118800E+02  0.7818608E-02  0.1130116E+00
         25   -1    0    0    0    0  0.00000000000E+00  0.00000000000E+00  0.99999998245E-14  0.12500000000E+03  0.12500000000E+03 0.  0.
        -13    1    3    3    0    0 -0.28894510275E+02 -0.17951873039E+02 -0.35517528925E+01  0.34202172186E+02  0.10566000000E+00 0.  1.
         23    2    1    0    0    0  0.24033572957E+02  0.14403770173E+02 -0.62375704989E+01  0.96294799949E+02  0.91916810145E+02 0.  0.
         13    1    3    3    0    0  0.52928083232E+02  0.32355643211E+02 -0.26858176064E+01  0.62092627762E+02  0.10566000000E+00 0. -1.
         22    1    1    0    0    0 -0.24033572957E+02 -0.14403770173E+02  0.62375704989E+01  0.28705200051E+02  0.00000000000E+00 0. -1.
</event>
<event>
 5    1  0.1267644E-004  0.9118800E+02  0.7818608E-02  0.1130116E+00
         25   -1    0    0    0    0  0.00000000000E+00  0.00000000000E+00  0.99999998245E-14  0.12500000000E+03  0.12500000000E+03 0.  0.
        -13    1    3    3    0    0  0.17224509850E+02 -0.37285384307E+02 -0.16977955079E+02  0.44442611818E+02  0.10566000000E+00 0. -1.
         23    2    1    0    0    0 -0.23512965778E+02 -0.47602343313E+01 -0.15196071514E+02  0.96602113106E+02  0.92333787297E+02 0.  0.
         13    1    3    3    0    0 -0.40737475628E+02  0.32525149976E+02  0.17818835647E+01  0.52159501288E+02  0.10566000000E+00 0.  1.
         22    1    1    0    0    0  0.23512965778E+02  0.47602343313E+01  0.15196071514E+02  0.28397886894E+02  0.00000000000E+00 0.  1.
</event>
<event>
 5    1  0.1267644E-004  0.9118800E+02  0.7818608E-02  0.1130116E+00
         25   -1    0    0    0    0  0.00000000000E+00  0.00000000000E+00  0.99999998245E-14  0.12500000000E+03  0.12500000000E+03 0.  0.
        -13    1    3    3    0    0 -0.18107106602E+02 -0.52875916955E+02  0.17863135822E+02  0.58675656696E+02  0.10566000000E+00 0.  1.
         23    2    1    0    0    0  0.59234155590E+01 -0.23222660432E+02  0.14493666714E+02  0.96992051409E+02  0.92860179046E+02 0.  0.
         13    1    3    3    0    0  0.24030522161E+02  0.29653256523E+02 -0.33694691085E+01  0.38316394713E+02  0.10566000000E+00 0. -1.
         22    1    1    0    0    0 -0.59234155590E+01  0.23222660432E+02 -0.14493666714E+02  0.28007948591E+02  0.00000000000E+00 0.  1.
</event>
<event>
 5    1  0.1267644E-004  0.9118800E+02  0.7818608E-02  0.1130116E+00
         25   -1    0    0    0    0  0.00000000000E+00  0.00000000000E+00  0.99999998245E-14  0.12500000000E+03  0.12500000000E+03 0.  0.
        -13    1    3    3    0    0 -0.83358914464E+01  0.21117947236E+02 -0.27970816897E+02  0.36025443003E+02  0.10566000000E+00 0.  1.
         23    2    1    0    0    0  0.19803972293E+02 -0.18330929674E+02  0.85374794782E+01  0.96696133530E+02  0.92460983028E+02 0.  0.
         13    1    3    3    0    0  0.28139863740E+02 -0.39448876910E+02  0.36508296375E+02  0.60670690527E+02  0.10566000000E+00 0. -1.
         22    1    1    0    0    0 -0.19803972293E+02  0.18330929674E+02 -0.85374794782E+01  0.28303866470E+02  0.00000000000E+00 0. -1.
</event>
<event>
 5    1  0.1267644E-004  0.9118800E+02  0.7818608E-02  0.1130116E+00
         25   -1    0    0    0    0  0.00000000000E+00  0.00000000000E+00  0.99999998245E-14  0.12500000000E+03  0.12500000000E+03 0.  0.
        -13    1    3    3    0    0 -0.28537293380E+02 -0.46979377395E+02  0.24282992090E+02  0.60092544319E+02  0.10566000000E+00 0. -1.
         23    2    1    0    0    0 -0.49855945395E+01 -0.18063446312E+02  0.19937403930E+02  0.97638634517E+02  0.93726509747E+02 0.  0.
         13    1    3    3    0    0  0.23551698840E+02  0.28915931083E+02 -0.43455881597E+01  0.37546090198E+02  0.10566000000E+00 0.  1.
         22    1    1    0    0    0  0.49855945395E+01  0.18063446312E+02 -0.19937403930E+02  0.27361365483E+02  0.00000000000E+00 0. -1.
</event>
<event>
 5    1  0.1267644E-004  0.9118800E+02  0.7818608E-02  0.1130116E+00
         25   -1    0    0    0    0  0.00000000000E+00  0.00000000000E+00  0.99999998245E-14  0.12500000000E+03  0.12500000000E+03 0.  0.
        -13    1    3    3    0    0  0.43305805557E+02  0.16330674925E+02  0.11427051866E+02  0.47672554125E+02  0.10566000000E+00 0.  1.
         23    2    1    0    0    0  0.97006760615E+01  0.21288731532E+02 -0.20204221046E+02  0.94088452735E+02  0.88865703079E+02 0.  0.
         13    1    3    3    0    0 -0.33605129495E+02  0.49580566064E+01 -0.31631272912E+02  0.46415898610E+02  0.10566000000E+00 0. -1.
         22    1    1    0    0    0 -0.97006760615E+01 -0.21288731532E+02  0.20204221046E+02  0.30911547265E+02  0.00000000000E+00 0. -1.
</event>
<event>
 5    1  0.1267644E-004  0.9118800E+02  0.7818608E-02  0.1130116E+00
         25   -1    0    0    0    0  0.00000000000E+00  0.00000000000E+00  0.99999998245E-14  0.12500000000E+03  0.12500000000E+03 0.  0.
        -13    1    3    3    0    0  0.33584270926E+01  0.26235414315E+02 -0.20607982317E+02  0.33530226603E+02  0.10566000000E+00 0.  1.
         23    2    1    0    0    0 -0.14197114397E+02 -0.16413118749E+02  0.20377950208E+02  0.95230730964E+02  0.90458182278E+02 0.  0.
         13    1    3    3    0    0 -0.17555541489E+02 -0.42648533064E+02  0.40985932525E+02  0.61700504361E+02  0.10566000000E+00 0. -1.
         22    1    1    0    0    0  0.14197114397E+02  0.16413118749E+02 -0.20377950208E+02  0.29769269036E+02  0.00000000000E+00 0. -1.
</event>
<event>
 5    1  0.1267644E-004  0.9118800E+02  0.7818608E-02  0.1130116E+00
         25   -1    0    0    0    0  0.00000000000E+00  0.00000000000E+00  0.99999998245E-14  0.12500000000E+03  0.12500000000E+03 0.  0.
        -13    1    3    3    0    0  0.12777807043E+01 -0.18680467050E+02  0.39712830351E+02  0.43905724356E+02  0.10566000000E+00 0.  1.
         23    2    1    0    0    0 -0.21626009718E+01 -0.17784811374E+02 -0.16745984397E+02  0.10047645311E+03  0.97437740521E+02 0.  0.
         13    1    3    3    0    0 -0.34403816761E+01  0.89565567628E+00 -0.56458814747E+02  0.56570728755E+02  0.10566000000E+00 0. -1.
         22    1    1    0    0    0  0.21626009718E+01  0.17784811374E+02  0.16745984397E+02  0.24523546889E+02  0.00000000000E+00 0.  1.
</event>
<event>
 5    1  0.1267644E-004  0.9118800E+02  0.7818608E-02  0.1130116E+00
         25   -1    0    0    0    0  0.00000000000E+00  0.00000000000E+00  0.99999998245E-14  0.12500000000E+03  0.12500000000E+03 0.  0.
        -13    1    3    3    0    0 -0.43553487456E+02  0.69244995529E+01 -0.34083306622E+01  0.44232147196E+02  0.10566000000E+00 0. -1.
         23    2    1    0    0    0  0.38795915299E+01  0.21202090630E+02 -0.19107594389E+02  0.96195832926E+02  0.91782123703E+02 0.  0.
         13    1    3    3    0    0  0.47433078986E+02  0.14277591077E+02 -0.15699263727E+02  0.51963685730E+02  0.10566000000E+00 0.  1.
         22    1    1    0    0    0 -0.38795915299E+01 -0.21202090630E+02  0.19107594389E+02  0.28804167074E+02  0.00000000000E+00 0.  1.
</event>
<event>
 5    1  0.1267644E-004  0.9118800E+02  0.7818608E-02  0.1130116E+00
         25   -1    0    0    0    0  0.00000000000E+00  0.00000000000E+00  0.99999998245E-14  0.12500000000E+03  0.12500000000E+03 0.  0.
        -13    1    3    3    0    0 -0.21208494472E+02 -0.19320520054E+02  0.20283446378E+02  0.35135624286E+02  0.10566000000E+00 0.  1.
         23    2    1    0    0    0  0.11417298848E+02  0.24079065053E+02 -0.90605040180E+01  0.96853085074E+02  0.92672926297E+02 0.  0.
         13    1    3    3    0    0  0.32625793321E+02  0.43399585107E+02 -0.29343950396E+02  0.61717460788E+02  0.10566000000E+00 0. -1.
         22    1    1    0    0    0 -0.11417298848E+02 -0.24079065053E+02  0.90605040180E+01  0.28146914926E+02  0.00000000000E+00 0. -1.
</event>
<event>
 5    1  0.1267644E-004  0.9118800E+02  0.7818608E-02  0.1130116E+00
         25   -1    0    0    0    0  0.00000000000E+00  0.00000000000E+00  0.99999998245E-14  0.12500000000E+03  0.12500000000E+03 0.  0.
        -13    1    3    3    0    0  0.32639034791E+01 -0.16996131843E+02  0.51679126387E+02  0.54500136071E+02  0.10566000000E+00 0. -1.
         23    2    1    0    0    0 -0.96266870480E+00 -0.26942323849E+02  0.12242246796E+02  0.95391079857E+02  0.90679490318E+02 0.  0.
         13    1    3    3    0    0 -0.42265721839E+01 -0.99461920057E+01 -0.39436879591E+02  0.40890943786E+02  0.10566000000E+00 0.  1.
         22    1    1    0    0    0  0.96266870480E+00  0.26942323849E+02 -0.12242246796E+02  0.29608920143E+02  0.00000000000E+00 0.  1.
</event>
<event>
 5    1  0.1267644E-004  0.9118800E+02  0.7818608E-02  0.1130116E+00
         25   -1    0    0    0    0  0.00000000000E+00  0.00000000000E+00  0.99999998245E-14  0.12500000000E+03  0.12500000000E+03 0.  0.
        -13    1    3    3    0    0  0.30102840125E+02 -0.15505014181E+02  0.77087096765E+01  0.34727824827E+02  0.10566000000E+00 0.  1.
         23    2    1    0    0    0 -0.26353656159E+02  0.44575647886E+01  0.13801558485E+02  0.94918974528E+02  0.90026349655E+02 0.  0.
         13    1    3    3    0    0 -0.56456496284E+02  0.19962578969E+02  0.60928488089E+01  0.60191149701E+02  0.10566000000E+00 0. -1.
         22    1    1    0    0    0  0.26353656159E+02 -0.44575647886E+01 -0.13801558485E+02  0.30081025472E+02  0.00000000000E+00 0. -1.
</event>
<event>
 5    1  0.1267644E-004  0.9118800E+02  0.7818608E-02  0.1130116E+00
         25   -1    0    0    0    0  0.00000000000E+00  0.00000000000E+00  0.99999998245E-14  0.12500000000E+03  0.12500000000E+03 0.  0.
        -13    1    3    3    0    0 -0.11098777479E+02  0.10487535502E+02  0.30617808253E+02  0.34214508745E+02  0.10566000000E+00 0.  1.
         23    2    1    0    0    0  0.21614509031E+02 -0.97444939618E+01 -0.17292140677E+02  0.95654467249E+02  0.91041840998E+02 0.  0.
         13    1    3    3    0    0  0.32713286511E+02 -0.20232029464E+02 -0.47909948929E+02  0.61439958504E+02  0.10566000000E+00 0. -1.
         22    1    1    0    0    0 -0.21614509031E+02  0.97444939618E+01  0.17292140677E+02  0.29345532751E+02  0.00000000000E+00 0. -1.
</event>
<event>
 5    1  0.1267644E-004  0.9118800E+02  0.7818608E-02  0.1130116E+00
         25   -1    0    0    0    0  0.00000000000E+00  0.00000000000E+00  0.99999998245E-14  0.12500000000E+03  0.12500000000E+03 0.  0.
        -13    1    3    3    0    0  0.19251138546E+01 -0.10567870735E+02 -0.31461578457E+02  0.33244970120E+02  0.10566000000E+00 0. -1.
         23    2    1    0    0    0  0.10865329775E+02  0.11723875292E+02  0.25410154813E+02  0.94980329605E+02  0.90111499828E+02 0.  0.
         13    1    3    3    0    0  0.89402159205E+01  0.22291746028E+02  0.56871733270E+02  0.61735359486E+02  0.10566000000E+00 0.  1.
         22    1    1    0    0    0 -0.10865329775E+02 -0.11723875292E+02 -0.25410154813E+02  0.30019670395E+02  0.00000000000E+00 0.  1.
</event>
<event>
 5    1  0.1267644E-004  0.9118800E+02  0.7818608E-02  0.1130116E+00
         25   -1    0    0    0    0  0.00000000000E+00  0.00000000000E+00  0.99999998245E-14  0.12500000000E+03  0.12500000000E+03 0.  0.
        -13    1    3    3    0    0  0.31833849323E+02 -0.44691261107E+02 -0.14158856090E+02  0.56667337611E+02  0.10566000000E+00 0. -1.
         23    2    1    0    0    0 -0.22786154561E+01 -0.24498157307E+02 -0.14750887640E+02  0.96313060707E+02  0.91941640059E+02 0.  0.
         13    1    3    3    0    0 -0.34112464779E+02  0.20193103800E+02 -0.59203154961E+00  0.39645723096E+02  0.10566000000E+00 0.  1.
         22    1    1    0    0    0  0.22786154561E+01  0.24498157307E+02  0.14750887640E+02  0.28686939293E+02  0.00000000000E+00 0. -1.
</event>
<event>
 5    1  0.1267644E-004  0.9118800E+02  0.7818608E-02  0.1130116E+00
         25   -1    0    0    0    0  0.00000000000E+00  0.00000000000E+00  0.99999998245E-14  0.12500000000E+03  0.12500000000E+03 0.  0.
        -13    1    3    3    0    0  0.13169704444E+02  0.25739486198E+02  0.16174461534E+02  0.33129845077E+02  0.10566000000E+00 0. -1.
         23    2    1    0    0    0 -0.18755222429E+02 -0.78022363881E+01 -0.23378740579E+02  0.94029065690E+02  0.88782128959E+02 0.  0.
         13    1    3    3    0    0 -0.31924926873E+02 -0.33541722586E+02 -0.39553202112E+02  0.60899220613E+02  0.10566000000E+00 0.  1.
         22    1    1    0    0    0  0.18755222429E+02  0.78022363881E+01  0.23378740579E+02  0.30970934310E+02  0.00000000000E+00 0.  1.
</event>
<event>
 5    1  0.1267644E-004  0.9118800E+02  0.7818608E-02  0.1130116E+00
         25   -1    0    0    0    0  0.00000000000E+00  0.00000000000E+00  0.99999998245E-14  0.12500000000E+03  0.12500000000E+03 0.  0.
        -13    1    3    3    0    0  0.54534018990E+02  0.15720596464E+02  0.25896615156E+02  0.62383829804E+02  0.10566000000E+00 0.  1.
         23    2    1    0    0    0  0.25185239470E+02  0.67625778201E+01  0.90039718611E+01  0.97411954487E+02  0.93423704817E+02 0.  0.
         13    1    3    3    0    0 -0.29348779519E+02 -0.89580186438E+01 -0.16892643295E+02  0.35028124683E+02  0.10566000000E+00 0. -1.
         22    1    1    0    0    0 -0.25185239470E+02 -0.67625778201E+01 -0.90039718611E+01  0.27588045513E+02  0.00000000000E+00 0.  1.
</event>
<event>
 5    1  0.1267644E-004  0.9118800E+02  0.7818608E-02  0.1130116E+00
         25   -1    0    0    0    0  0.00000000000E+00  0.00000000000E+00  0.99999998245E-14  0.12500000000E+03  0.12500000000E+03 0.  0.
        -13    1    3    3    0    0  0.42693236736E+02  0.30436976362E+02 -0.12138919940E+02  0.53819016476E+02  0.10566000000E+00 0.  1.
         23    2    1    0    0    0  0.37304298758E+01  0.28545833668E+02  0.38063324899E+01  0.95960907489E+02  0.91461614201E+02 0.  0.
         13    1    3    3    0    0 -0.38962806860E+02 -0.18911426944E+01  0.15945252430E+02  0.42141891013E+02  0.10566000000E+00 0. -1.
         22    1    1    0    0    0 -0.37304298758E+01 -0.28545833668E+02 -0.38063324899E+01  0.29039092511E+02  0.00000000000E+00 0.  1.
</event>
<event>
 5    1  0.1267644E-004  0.9118800E+02  0.7818608E-02  0.1130116E+00
         25   -1    0    0    0    0  0.00000000000E+00  0.00000000000E+00  0.99999998245E-14  0.12500000000E+03  0.12500000000E+03 0.  0.
        -13    1    3    3    0    0  0.17452618345E+02  0.30880770396E+02  0.41041305755E+02  0.54245882880E+02  0.10566000000E+00 0. -1.
         23    2    1    0    0    0  0.25467136259E+02  0.99348732166E-01  0.14356007914E+02  0.95765091711E+02  0.91193601354E+02 0.  0.
         13    1    3    3    0    0  0.80145179147E+01 -0.30781421664E+02 -0.26685297841E+02  0.41519208831E+02  0.10566000000E+00 0.  1.
         22    1    1    0    0    0 -0.25467136259E+02 -0.99348732166E-01 -0.14356007914E+02  0.29234908289E+02  0.00000000000E+00 0. -1.
</event>
<event>
 5    1  0.1267644E-004  0.9118800E+02  0.7818608E-02  0.1130116E+00
         25   -1    0    0    0    0  0.00000000000E+00  0.00000000000E+00  0.99999998245E-14  0.12500000000E+03  0.12500000000E+03 0.  0.
        -13    1    3    3    0    0  0.67701684239E+01 -0.66953798890E+01  0.53752303309E+02  0.54589234904E+02  0.10566000000E+00 0.  1.
         23    2    1    0    0    0  0.89059452873E+01 -0.22332183044E+02  0.14432362062E+02  0.96958328586E+02  0.92814773321E+02 0.  0.
         13    1    3    3    0    0  0.21357768634E+01 -0.15636803155E+02 -0.39319941247E+02  0.42369093682E+02  0.10566000000E+00 0. -1.
         22    1    1    0    0    0 -0.89059452873E+01  0.22332183044E+02 -0.14432362062E+02  0.28041671414E+02  0.00000000000E+00 0.  1.
</event>
<event>
 5    1  0.1267644E-004  0.9118800E+02  0.7818608E-02  0.1130116E+00
         25   -1    0    0    0    0  0.00000000000E+00  0.00000000000E+00  0.99999998245E-14  0.12500000000E+03  0.12500000000E+03 0.  0.
        -13    1    3    3    0    0 -0.46451857460E+02  0.19728239047E+02  0.19910791032E+02  0.54253379995E+02  0.10566000000E+00 0.  1.
         23    2    1    0    0    0 -0.51432748691E+01  0.21571793381E+02  0.19289930565E+02  0.95607875761E+02  0.90977848624E+02 0.  0.
         13    1    3    3    0    0  0.41308582591E+02  0.18435543344E+01 -0.62086046629E+00  0.41354495765E+02  0.10566000000E+00 0. -1.
         22    1    1    0    0    0  0.51432748691E+01 -0.21571793381E+02 -0.19289930565E+02  0.29392124239E+02  0.00000000000E+00 0.  1.
</event>
<event>
 5    1  0.1267644E-004  0.9118800E+02  0.7818608E-02  0.1130116E+00
         25   -1    0    0    0    0  0.00000000000E+00  0.00000000000E+00  0.99999998245E-14  0.12500000000E+03  0.12500000000E+03 0.  0.
        -13    1    3    3    0    0  0.28460209981E+02 -0.35544224257E+02 -0.21188968259E+02  0.50223092001E+02  0.10566000000E+00 0.  1.
         23    2    1    0    0    0  0.28635658876E+02 -0.20263502423E+01  0.85646385508E+01  0.95042361774E+02  0.90197507968E+02 0.  0.
         13    1    3    3    0    0  0.17544889429E+00  0.33517874015E+02  0.29753606810E+02  0.44819269773E+02  0.10566000000E+00 0. -1.
         22    1    1    0    0    0 -0.28635658876E+02  0.20263502423E+01 -0.85646385508E+01  0.29957638226E+02  0.00000000000E+00 0. -1.
</event>
<event>
 5    1  0.1267644E-004  0.9118800E+02  0.7818608E-02  0.1130116E+00
         25   -1    0    0    0    0  0.00000000000E+00  0.00000000000E+00  0.99999998245E-14  0.12500000000E+03  0.12500000000E+03 0.  0.
        -13    1    3    3    0    0  0.44434390602E+02  0.39571683627E+02 -0.95821210003E+01  0.60267415908E+02  0.10566000000E+00 0.  1.
         23    2    1    0    0    0  0.15603973682E+02  0.11746955632E+02 -0.14553968716E+02  0.10064239407E+03  0.97650389233E+02 0.  0.
         13    1    3    3    0    0 -0.28830416920E+02 -0.27824727995E+02 -0.49718477157E+01  0.40374978162E+02  0.10566000000E+00 0. -1.
         22    1    1    0    0    0 -0.15603973682E+02 -0.11746955632E+02  0.14553968716E+02  0.24357605931E+02  0.00000000000E+00 0.  1.
</event>
<event>
 4    1  0.1267644E-004  0.9118800E+02  0.7818608E-02  0.1130116E+00
         25   -1    0    0    0    0  0.00000000000E+00  0.00000000000E+00  0.99999998245E-14  0.12500000000E+03  0.12500000000E+03 0.  0.
        -13    1    1    0    0    0  0.75310286679E+01  0.72291833434E+01 -0.48147192447E+02  0.49266020635E+02  0.10566000000E+00 0.  1.
         13    1    1    0    0    0  0.15395898861E+02 -0.16676761314E+02  0.13068041444E+01  0.22734708504E+02  0.10566000000E+00 0. -1.
         22    1    1    0    0    0 -0.22926927529E+02  0.94475779708E+01  0.46840388303E+02  0.52999270861E+02  0.00000000000E+00 0.  1.
</event>
<event>
 5    1  0.1267644E-004  0.9118800E+02  0.7818608E-02  0.1130116E+00
         25   -1    0    0    0    0  0.00000000000E+00  0.00000000000E+00  0.99999998245E-14  0.12500000000E+03  0.12500000000E+03 0.  0.
        -13    1    3    3    0    0 -0.19962913870E+01  0.33782089077E+02 -0.29181691203E+02  0.44685534430E+02  0.10566000000E+00 0.  1.
         23    2    1    0    0    0 -0.26923567039E+02 -0.60557067531E+01 -0.77469716289E+01  0.96337034072E+02  0.91974227466E+02 0.  0.
         13    1    3    3    0    0 -0.24927275652E+02 -0.39837795830E+02  0.21434719574E+02  0.51651499643E+02  0.10566000000E+00 0. -1.
         22    1    1    0    0    0  0.26923567039E+02  0.60557067531E+01  0.77469716289E+01  0.28662965928E+02  0.00000000000E+00 0. -1.
</event>
<event>
 5    1  0.1267644E-004  0.9118800E+02  0.7818608E-02  0.1130116E+00
         25   -1    0    0    0    0  0.00000000000E+00  0.00000000000E+00  0.99999998245E-14  0.12500000000E+03  0.12500000000E+03 0.  0.
        -13    1    3    3    0    0 -0.25698918316E+02 -0.31264024133E+02 -0.10106532297E+02  0.41713628069E+02  0.10566000000E+00 0.  1.
         23    2    1    0    0    0  0.32468764194E+01 -0.87418578311E+01  0.28529431611E+02  0.94985157790E+02  0.90118197095E+02 0.  0.
         13    1    3    3    0    0  0.28945794735E+02  0.22522166301E+02  0.38635963908E+02  0.53271529722E+02  0.10566000000E+00 0. -1.
         22    1    1    0    0    0 -0.32468764194E+01  0.87418578311E+01 -0.28529431611E+02  0.30014842210E+02  0.00000000000E+00 0. -1.
</event>
<event>
 5    1  0.1267644E-004  0.9118800E+02  0.7818608E-02  0.1130116E+00
         25   -1    0    0    0    0  0.00000000000E+00  0.00000000000E+00  0.99999998245E-14  0.12500000000E+03  0.12500000000E+03 0.  0.
        -13    1    3    3    0    0  0.24740929773E+02 -0.34205943877E+02  0.23176157495E+02  0.48159169873E+02  0.10566000000E+00 0.  1.
         23    2    1    0    0    0  0.25367344294E+02  0.97221683676E+01 -0.67906606195E-02  0.97833425677E+02  0.93985937349E+02 0.  0.
         13    1    3    3    0    0  0.62641452113E+00  0.43928112244E+02 -0.23182948156E+02  0.49674255805E+02  0.10566000000E+00 0. -1.
         22    1    1    0    0    0 -0.25367344294E+02 -0.97221683676E+01  0.67906606195E-02  0.27166574323E+02  0.00000000000E+00 0.  1.
</event>
<event>
 5    1  0.1267644E-004  0.9118800E+02  0.7818608E-02  0.1130116E+00
         25   -1    0    0    0    0  0.00000000000E+00  0.00000000000E+00  0.99999998245E-14  0.12500000000E+03  0.12500000000E+03 0.  0.
        -13    1    3    3    0    0  0.26888608183E+02 -0.14674818331E+02 -0.88781022208E+01  0.31893250166E+02  0.10566000000E+00 0.  1.
         23    2    1    0    0    0 -0.22352480964E+02  0.17596031417E+02  0.11673155556E+02  0.94250751432E+02  0.89093702684E+02 0.  0.
         13    1    3    3    0    0 -0.49241089147E+02  0.32270849748E+02  0.20551257776E+02  0.62357501266E+02  0.10566000000E+00 0. -1.
         22    1    1    0    0    0  0.22352480964E+02 -0.17596031417E+02 -0.11673155556E+02  0.30749248568E+02  0.00000000000E+00 0. -1.
</event>
<event>
 5    1  0.1267644E-004  0.9118800E+02  0.7818608E-02  0.1130116E+00
         25   -1    0    0    0    0  0.00000000000E+00  0.00000000000E+00  0.99999998245E-14  0.12500000000E+03  0.12500000000E+03 0.  0.
        -13    1    3    3    0    0 -0.19176533092E+01  0.11341127497E+02  0.48050409047E+02  0.49408010896E+02  0.10566000000E+00 0.  1.
         23    2    1    0    0    0 -0.19926384167E+02  0.22104143686E+02  0.87125244987E+01  0.93990936208E+02  0.88728428658E+02 0.  0.
         13    1    3    3    0    0 -0.18008730858E+02  0.10763016189E+02 -0.39337884548E+02  0.44582925312E+02  0.10566000000E+00 0. -1.
         22    1    1    0    0    0  0.19926384167E+02 -0.22104143686E+02 -0.87125244987E+01  0.31009063792E+02  0.00000000000E+00 0.  1.
</event>
<event>
 5    1  0.1267644E-004  0.9118800E+02  0.7818608E-02  0.1130116E+00
         25   -1    0    0    0    0  0.00000000000E+00  0.00000000000E+00  0.99999998245E-14  0.12500000000E+03  0.12500000000E+03 0.  0.
        -13    1    3    3    0    0  0.98522658767E+01 -0.48971924887E+02 -0.32756079418E+02  0.59735152741E+02  0.10566000000E+00 0.  1.
         23    2    1    0    0    0 -0.22927572302E+01 -0.18165306902E+02 -0.25453784679E+02  0.93645091851E+02  0.88239860397E+02 0.  0.
         13    1    3    3    0    0 -0.12145023107E+02  0.30806617985E+02  0.73022947395E+01  0.33909939110E+02  0.10566000000E+00 0. -1.
         22    1    1    0    0    0  0.22927572302E+01  0.18165306902E+02  0.25453784679E+02  0.31354908149E+02  0.00000000000E+00 0.  1.
</event>
<event>
 5    1  0.1267644E-004  0.9118800E+02  0.7818608E-02  0.1130116E+00
         25   -1    0    0    0    0  0.00000000000E+00  0.00000000000E+00  0.99999998245E-14  0.12500000000E+03  0.12500000000E+03 0.  0.
        -13    1    3    3    0    0 -0.54442933093E+01  0.35116375348E+02 -0.14705070476E+02  0.38458424422E+02  0.10566000000E+00 0. -1.
         23    2    1    0    0    0 -0.20691445954E+02 -0.85637223892E+01  0.18945930363E+02  0.95667056844E+02  0.91059124809E+02 0.  0.
         13    1    3    3    0    0 -0.15247152645E+02 -0.43680097738E+02  0.33651000839E+02  0.57208632423E+02  0.10566000000E+00 0.  1.
         22    1    1    0    0    0  0.20691445954E+02  0.85637223892E+01 -0.18945930363E+02  0.29332943156E+02  0.00000000000E+00 0. -1.
</event>
<event>
 5    1  0.1267644E-004  0.9118800E+02  0.7818608E-02  0.1130116E+00
         25   -1    0    0    0    0  0.00000000000E+00  0.00000000000E+00  0.99999998245E-14  0.12500000000E+03  0.12500000000E+03 0.  0.
        -13    1    3    3    0    0 -0.34651581141E+01 -0.34060878375E+02 -0.51394441475E+02  0.61753951574E+02  0.10566000000E+00 0.  1.
         23    2    1    0    0    0 -0.70842303377E+01 -0.13043987247E+02 -0.27257998762E+02  0.93962435352E+02  0.88688267758E+02 0.  0.
         13    1    3    3    0    0 -0.36190722236E+01  0.21016891128E+02  0.24136442712E+02  0.32208483778E+02  0.10566000000E+00 0. -1.
         22    1    1    0    0    0  0.70842303377E+01  0.13043987247E+02  0.27257998762E+02  0.31037564648E+02  0.00000000000E+00 0.  1.
</event>
<event>
 5    1  0.1267644E-004  0.9118800E+02  0.7818608E-02  0.1130116E+00
         25   -1    0    0    0    0  0.00000000000E+00  0.00000000000E+00  0.99999998245E-14  0.12500000000E+03  0.12500000000E+03 0.  0.
        -13    1    3    3    0    0 -0.57712533178E+02 -0.80860403475E+01 -0.91611406792E+01  0.58992018078E+02  0.10566000000E+00 0. -1.
         23    2    1    0    0    0 -0.29013739310E+02  0.79523570974E+01  0.44767239001E+01  0.94584903271E+02  0.89561296427E+02 0.  0.
         13    1    3    3    0    0  0.28698793867E+02  0.16038397445E+02  0.13637864579E+02  0.35592885193E+02  0.10566000000E+00 0.  1.
         22    1    1    0    0    0  0.29013739310E+02 -0.79523570974E+01 -0.44767239001E+01  0.30415096729E+02  0.00000000000E+00 0. -1.
</event>
<event>
 5    1  0.1267644E-004  0.9118800E+02  0.7818608E-02  0.1130116E+00
         25   -1    0    0    0    0  0.00000000000E+00  0.00000000000E+00  0.99999998245E-14  0.12500000000E+03  0.12500000000E+03 0.  0.
        -13    1    3    3    0    0 -0.17116721074E+02  0.43435584922E+01 -0.55904537395E+02  0.58627443284E+02  0.10566000000E+00 0.  1.
         23    2    1    0    0    0 -0.49546299219E+01 -0.13385050613E+02 -0.22843602275E+02  0.98064185506E+02  0.94292345270E+02 0.  0.
         13    1    3    3    0    0  0.12162091152E+02 -0.17728609105E+02  0.33060935120E+02  0.39436742222E+02  0.10566000000E+00 0. -1.
         22    1    1    0    0    0  0.49546299219E+01  0.13385050613E+02  0.22843602275E+02  0.26935814494E+02  0.00000000000E+00 0.  1.
</event>
<event>
 5    1  0.1267644E-004  0.9118800E+02  0.7818608E-02  0.1130116E+00
         25   -1    0    0    0    0  0.00000000000E+00  0.00000000000E+00  0.99999998245E-14  0.12500000000E+03  0.12500000000E+03 0.  0.
        -13    1    3    3    0    0  0.45637163863E+02  0.99990297345E+01 -0.84842422986E+00  0.46727532664E+02  0.10566000000E+00 0. -1.
         23    2    1    0    0    0  0.86520284922E+01 -0.18376233298E+02 -0.19412310100E+02  0.96904069144E+02  0.92741669632E+02 0.  0.
         13    1    3    3    0    0 -0.36985135371E+02 -0.28375263032E+02 -0.18563885870E+02  0.50176536481E+02  0.10566000000E+00 0.  1.
         22    1    1    0    0    0 -0.86520284922E+01  0.18376233298E+02  0.19412310100E+02  0.28095930856E+02  0.00000000000E+00 0.  1.
</event>
<event>
 5    1  0.1267644E-004  0.9118800E+02  0.7818608E-02  0.1130116E+00
         25   -1    0    0    0    0  0.00000000000E+00  0.00000000000E+00  0.99999998245E-14  0.12500000000E+03  0.12500000000E+03 0.  0.
        -13    1    3    3    0    0 -0.14656193046E+02 -0.29248351316E+02 -0.15544329602E+02  0.36220262231E+02  0.10566000000E+00 0. -1.
         23    2    1    0    0    0  0.26836002127E+01  0.27393245006E+02 -0.99991235901E+01  0.95715634638E+02  0.91125784823E+02 0.  0.
         13    1    3    3    0    0  0.17339793259E+02  0.56641596322E+02  0.55452060122E+01  0.59495372407E+02  0.10566000000E+00 0.  1.
         22    1    1    0    0    0 -0.26836002127E+01 -0.27393245006E+02  0.99991235901E+01  0.29284365362E+02  0.00000000000E+00 0.  1.
</event>
<event>
 5    1  0.1267644E-004  0.9118800E+02  0.7818608E-02  0.1130116E+00
         25   -1    0    0    0    0  0.00000000000E+00  0.00000000000E+00  0.99999998245E-14  0.12500000000E+03  0.12500000000E+03 0.  0.
        -13    1    3    3    0    0 -0.19052575455E+02  0.10219808644E+02 -0.37167833059E+02  0.42998884852E+02  0.10566000000E+00 0. -1.
         23    2    1    0    0    0 -0.68440291057E+01 -0.24510575641E+02  0.50946571944E+01  0.99046877171E+02  0.95586187772E+02 0.  0.
         13    1    3    3    0    0  0.12208546350E+02 -0.34730384284E+02  0.42262490254E+02  0.56047992319E+02  0.10566000000E+00 0.  1.
         22    1    1    0    0    0  0.68440291057E+01  0.24510575641E+02 -0.50946571944E+01  0.25953122829E+02  0.00000000000E+00 0.  1.
</event>
<event>
 5    1  0.1267644E-004  0.9118800E+02  0.7818608E-02  0.1130116E+00
         25   -1    0    0    0    0  0.00000000000E+00  0.00000000000E+00  0.99999998245E-14  0.12500000000E+03  0.12500000000E+03 0.  0.
        -13    1    3    3    0    0 -0.72907913372E+01  0.21877491717E+01  0.54479902826E+02  0.55009207054E+02  0.10566000000E+00 0.  1.
         23    2    1    0    0    0  0.61732325857E+01 -0.17910926608E+02  0.17436931794E+02  0.99252054783E+02  0.95854127171E+02 0.  0.
         13    1    3    3    0    0  0.13464023923E+02 -0.20098675779E+02 -0.37042971032E+02  0.44242847729E+02  0.10566000000E+00 0. -1.
         22    1    1    0    0    0 -0.61732325857E+01  0.17910926608E+02 -0.17436931794E+02  0.25747945217E+02  0.00000000000E+00 0.  1.
</event>
<event>
 5    1  0.1267644E-004  0.9118800E+02  0.7818608E-02  0.1130116E+00
         25   -1    0    0    0    0  0.00000000000E+00  0.00000000000E+00  0.99999998245E-14  0.12500000000E+03  0.12500000000E+03 0.  0.
        -13    1    3    3    0    0  0.30836689682E+02  0.18499682144E+02  0.31180397522E+02  0.47595882424E+02  0.10566000000E+00 0.  1.
         23    2    1    0    0    0 -0.39851045247E+01 -0.13502000556E+02  0.26336799615E+02  0.95136776948E+02  0.90328258242E+02 0.  0.
         13    1    3    3    0    0 -0.34821794207E+02 -0.32001682700E+02 -0.48435979075E+01  0.47540894524E+02  0.10566000000E+00 0. -1.
         22    1    1    0    0    0  0.39851045247E+01  0.13502000556E+02 -0.26336799615E+02  0.29863223052E+02  0.00000000000E+00 0.  1.
</event>
<event>
 5    1  0.1267644E-004  0.9118800E+02  0.7818608E-02  0.1130116E+00
         25   -1    0    0    0    0  0.00000000000E+00  0.00000000000E+00  0.99999998245E-14  0.12500000000E+03  0.12500000000E+03 0.  0.
        -13    1    3    3    0    0 -0.14824769435E+02  0.10447109758E+02 -0.39157741110E+02  0.43153861287E+02  0.10566000000E+00 0. -1.
         23    2    1    0    0    0  0.20229067551E+02  0.21869549043E+02 -0.25648306829E+01  0.95098984871E+02  0.90275944845E+02 0.  0.
         13    1    3    3    0    0  0.35053836986E+02  0.11422439285E+02  0.36592910427E+02  0.51945123584E+02  0.10566000000E+00 0.  1.
         22    1    1    0    0    0 -0.20229067551E+02 -0.21869549043E+02  0.25648306829E+01  0.29901015129E+02  0.00000000000E+00 0.  1.
</event>
<event>
 5    1  0.1267644E-004  0.9118800E+02  0.7818608E-02  0.1130116E+00
         25   -1    0    0    0    0  0.00000000000E+00  0.00000000000E+00  0.99999998245E-14  0.12500000000E+03  0.12500000000E+03 0.  0.
        -13    1    3    3    0    0  0.51109641975E+02 -0.98647750003E+01 -0.15686192157E+02  0.54365219369E+02  0.10566000000E+00 0. -1.
         23    2    1    0    0    0  0.53772570245E+01 -0.15181483464E+02 -0.18475399671E+02  0.10049015042E+03  0.97455310813E+02 0.  0.
         13    1    3    3    0    0 -0.45732384950E+02 -0.53167084639E+01 -0.27892075137E+01  0.46124931054E+02  0.10566000000E+00 0.  1.
         22    1    1    0    0    0 -0.53772570245E+01  0.15181483464E+02  0.18475399671E+02  0.24509849577E+02  0.00000000000E+00 0. -1.
</event>
<event>
 5    1  0.1267644E-004  0.9118800E+02  0.7818608E-02  0.1130116E+00
         25   -1    0    0    0    0  0.00000000000E+00  0.00000000000E+00  0.99999998245E-14  0.12500000000E+03  0.12500000000E+03 0.  0.
        -13    1    3    3    0    0  0.26976282663E+02 -0.36779763239E+02 -0.36268966541E+01  0.45756271194E+02  0.10566000000E+00 0. -1.
         23    2    1    0    0    0  0.26650837640E+02  0.11165828174E+02  0.78494945865E+01  0.95057431122E+02  0.90218389370E+02 0.  0.
         13    1    3    3    0    0 -0.32544502240E+00  0.47945591413E+02  0.11476391241E+02  0.49301159929E+02  0.10566000000E+00 0.  1.
         22    1    1    0    0    0 -0.26650837640E+02 -0.11165828174E+02 -0.78494945865E+01  0.29942568878E+02  0.00000000000E+00 0. -1.
</event>
<event>
 5    1  0.1267644E-004  0.9118800E+02  0.7818608E-02  0.1130116E+00
         25   -1    0    0    0    0  0.00000000000E+00  0.00000000000E+00  0.99999998245E-14  0.12500000000E+03  0.12500000000E+03 0.  0.
        -13    1    3    3    0    0  0.12103462887E+02  0.97458531483E+01 -0.55855515297E+02  0.57976936971E+02  0.10566000000E+00 0. -1.
         23    2    1    0    0    0 -0.64722751397E+01 -0.69272427802E+01 -0.28286161608E+02  0.95167400775E+02  0.90370626830E+02 0.  0.
         13    1    3    3    0    0 -0.18575738027E+02 -0.16673095928E+02  0.27569353689E+02  0.37190463804E+02  0.10566000000E+00 0.  1.
         22    1    1    0    0    0  0.64722751397E+01  0.69272427802E+01  0.28286161608E+02  0.29832599225E+02  0.00000000000E+00 0. -1.
</event>
<event>
 5    1  0.1267644E-004  0.9118800E+02  0.7818608E-02  0.1130116E+00
         25   -1    0    0    0    0  0.00000000000E+00  0.00000000000E+00  0.99999998245E-14  0.12500000000E+03  0.12500000000E+03 0.  0.
        -13    1    3    3    0    0 -0.17060745316E+02  0.11015022226E+02  0.44553533971E+02  0.48963540504E+02  0.10566000000E+00 0. -1.
         23    2    1    0    0    0 -0.27086159619E+02  0.11452538079E+02 -0.96610972524E+00  0.95576301399E+02  0.90934456340E+02 0.  0.
         13    1    3    3    0    0 -0.10025414302E+02  0.43751585389E+00 -0.45519643696E+02  0.46612760895E+02  0.10566000000E+00 0.  1.
         22    1    1    0    0    0  0.27086159619E+02 -0.11452538079E+02  0.96610972524E+00  0.29423698601E+02  0.00000000000E+00 0.  1.
</event>
<event>
 5    1  0.1267644E-004  0.9118800E+02  0.7818608E-02  0.1130116E+00
         25   -1    0    0    0    0  0.00000000000E+00  0.00000000000E+00  0.99999998245E-14  0.12500000000E+03  0.12500000000E+03 0.  0.
        -13    1    3    3    0    0  0.30803509796E+01  0.40707298945E+02  0.21217124922E+02  0.46008154750E+02  0.10566000000E+00 0.  1.
         23    2    1    0    0    0 -0.44669063832E+01  0.15083364533E+02 -0.22682614590E+02  0.97396338233E+02  0.93402808086E+02 0.  0.
         13    1    3    3    0    0 -0.75472573627E+01 -0.25623934411E+02 -0.43899739512E+02  0.51388183483E+02  0.10566000000E+00 0. -1.
         22    1    1    0    0    0  0.44669063832E+01 -0.15083364533E+02  0.22682614590E+02  0.27603661767E+02  0.00000000000E+00 0. -1.
</event>
<event>
 5    1  0.1267644E-004  0.9118800E+02  0.7818608E-02  0.1130116E+00
         25   -1    0    0    0    0  0.00000000000E+00  0.00000000000E+00  0.99999998245E-14  0.12500000000E+03  0.12500000000E+03 0.  0.
        -13    1    3    3    0    0  0.11909083388E+02 -0.29053444471E+02 -0.35841371108E+02  0.47650225075E+02  0.10566000000E+00 0.  1.
         23    2    1    0    0    0  0.19904016156E+02 -0.11391197609E+02  0.11889258727E+02  0.99168164695E+02  0.95744666556E+02 0.  0.
         13    1    3    3    0    0  0.79949327681E+01  0.17662246861E+02  0.47730629836E+02  0.51517939620E+02  0.10566000000E+00 0. -1.
         22    1    1    0    0    0 -0.19904016156E+02  0.11391197609E+02 -0.11889258727E+02  0.25831835305E+02  0.00000000000E+00 0. -1.
</event>
<event>
 5    1  0.1267644E-004  0.9118800E+02  0.7818608E-02  0.1130116E+00
         25   -1    0    0    0    0  0.00000000000E+00  0.00000000000E+00  0.99999998245E-14  0.12500000000E+03  0.12500000000E+03 0.  0.
        -13    1    3    3    0    0 -0.32802347163E+02 -0.21151763034E+01  0.15331752517E+02  0.36270397703E+02  0.10566000000E+00 0. -1.
         23    2    1    0    0    0  0.14808534745E+02  0.23831497278E+02 -0.87640458434E+01  0.95605417789E+02  0.90974471404E+02 0.  0.
         13    1    3    3    0    0  0.47610881908E+02  0.25946673581E+02 -0.24095798361E+02  0.59335020087E+02  0.10566000000E+00 0.  1.
         22    1    1    0    0    0 -0.14808534745E+02 -0.23831497278E+02  0.87640458434E+01  0.29394582211E+02  0.00000000000E+00 0.  1.
</event>
<event>
 5    1  0.1267644E-004  0.9118800E+02  0.7818608E-02  0.1130116E+00
         25   -1    0    0    0    0  0.00000000000E+00  0.00000000000E+00  0.99999998245E-14  0.12500000000E+03  0.12500000000E+03 0.  0.
        -13    1    3    3    0    0 -0.23910807959E+02 -0.39183197804E+02  0.31389873250E+02  0.55609217168E+02  0.10566000000E+00 0.  1.
         23    2    1    0    0    0 -0.10413968293E+02 -0.28507381302E+01  0.28555707162E+02  0.94471229062E+02  0.89402501449E+02 0.  0.
         13    1    3    3    0    0  0.13496839666E+02  0.36332459674E+02 -0.28341660880E+01  0.38862011893E+02  0.10566000000E+00 0. -1.
         22    1    1    0    0    0  0.10413968293E+02  0.28507381302E+01 -0.28555707162E+02  0.30528770938E+02  0.00000000000E+00 0.  1.
</event>
<event>
 5    1  0.1267644E-004  0.9118800E+02  0.7818608E-02  0.1130116E+00
         25   -1    0    0    0    0  0.00000000000E+00  0.00000000000E+00  0.99999998245E-14  0.12500000000E+03  0.12500000000E+03 0.  0.
        -13    1    3    3    0    0  0.76806824774E+01 -0.13672777181E+02  0.43336496084E+02  0.46086882906E+02  0.10566000000E+00 0. -1.
         23    2    1    0    0    0 -0.24627498838E+02 -0.14621601318E+02  0.55243314863E+01  0.95831126822E+02  0.91284071477E+02 0.  0.
         13    1    3    3    0    0 -0.32308181316E+02 -0.94882413651E+00 -0.37812164597E+02  0.49744243916E+02  0.10566000000E+00 0.  1.
         22    1    1    0    0    0  0.24627498838E+02  0.14621601318E+02 -0.55243314863E+01  0.29168873178E+02  0.00000000000E+00 0.  1.
</event>
<event>
 5    1  0.1267644E-004  0.9118800E+02  0.7818608E-02  0.1130116E+00
         25   -1    0    0    0    0  0.00000000000E+00  0.00000000000E+00  0.99999998245E-14  0.12500000000E+03  0.12500000000E+03 0.  0.
        -13    1    3    3    0    0  0.45958704767E+02  0.21945528625E+02 -0.16774062369E+02  0.53620789838E+02  0.10566000000E+00 0.  1.
         23    2    1    0    0    0  0.24541299408E+02  0.36466118080E+01  0.14939081016E+02  0.96038831240E+02  0.91568050160E+02 0.  0.
         13    1    3    3    0    0 -0.21417405358E+02 -0.18298916817E+02  0.31713143386E+02  0.42418041402E+02  0.10566000000E+00 0. -1.
         22    1    1    0    0    0 -0.24541299408E+02 -0.36466118080E+01 -0.14939081016E+02  0.28961168760E+02  0.00000000000E+00 0.  1.
</event>
<event>
 5    1  0.1267644E-004  0.9118800E+02  0.7818608E-02  0.1130116E+00
         25   -1    0    0    0    0  0.00000000000E+00  0.00000000000E+00  0.99999998245E-14  0.12500000000E+03  0.12500000000E+03 0.  0.
        -13    1    3    3    0    0  0.20551502610E+02  0.29403241687E+02  0.45493519018E+02  0.57936053696E+02  0.10566000000E+00 0. -1.
         23    2    1    0    0    0 -0.44044518504E+01  0.22802536986E+02  0.24826614994E+02  0.91004181122E+02  0.84415906561E+02 0.  0.
         13    1    3    3    0    0 -0.24955954460E+02 -0.66007047009E+01 -0.20666904023E+02  0.33068127427E+02  0.10566000000E+00 0.  1.
         22    1    1    0    0    0  0.44044518504E+01 -0.22802536986E+02 -0.24826614994E+02  0.33995818878E+02  0.00000000000E+00 0. -1.
</event>
<event>
 5    1  0.1267644E-004  0.9118800E+02  0.7818608E-02  0.1130116E+00
         25   -1    0    0    0    0  0.00000000000E+00  0.00000000000E+00  0.99999998245E-14  0.12500000000E+03  0.12500000000E+03 0.  0.
        -13    1    3    3    0    0 -0.12230501176E+02 -0.53606398072E+02 -0.11739322768E+02  0.56223250852E+02  0.10566000000E+00 0.  1.
         23    2    1    0    0    0 -0.13630821831E+02 -0.23868087930E+02  0.12681656484E+02  0.94729398149E+02  0.89762740251E+02 0.  0.
         13    1    3    3    0    0 -0.14003206550E+01  0.29738310142E+02  0.24420979252E+02  0.38506147297E+02  0.10566000000E+00 0. -1.
         22    1    1    0    0    0  0.13630821831E+02  0.23868087930E+02 -0.12681656484E+02  0.30270601851E+02  0.00000000000E+00 0.  1.
</event>
<event>
 5    1  0.1267644E-004  0.9118800E+02  0.7818608E-02  0.1130116E+00
         25   -1    0    0    0    0  0.00000000000E+00  0.00000000000E+00  0.99999998245E-14  0.12500000000E+03  0.12500000000E+03 0.  0.
        -13    1    3    3    0    0 -0.30808393140E+02 -0.29376069445E+02 -0.41982076853E+02  0.59788096515E+02  0.10566000000E+00 0.  1.
         23    2    1    0    0    0 -0.24832040771E+02 -0.86526043052E+01 -0.13720922876E+02  0.95339225656E+02  0.90607982065E+02 0.  0.
         13    1    3    3    0    0  0.59763523687E+01  0.20723465140E+02  0.28261153977E+02  0.35551129141E+02  0.10566000000E+00 0. -1.
         22    1    1    0    0    0  0.24832040771E+02  0.86526043052E+01  0.13720922876E+02  0.29660774344E+02  0.00000000000E+00 0.  1.
</event>
<event>
 5    1  0.1267644E-004  0.9118800E+02  0.7818608E-02  0.1130116E+00
         25   -1    0    0    0    0  0.00000000000E+00  0.00000000000E+00  0.99999998245E-14  0.12500000000E+03  0.12500000000E+03 0.  0.
        -13    1    3    3    0    0 -0.23980100056E+02  0.10934046032E+02  0.31123383845E+02  0.40783265531E+02  0.10566000000E+00 0. -1.
         23    2    1    0    0    0  0.38872152421E+01  0.25951974527E+02 -0.13495669894E+02  0.95491551547E+02  0.90817883078E+02 0.  0.
         13    1    3    3    0    0  0.27867315298E+02  0.15017928496E+02 -0.44619053739E+02  0.54708286016E+02  0.10566000000E+00 0.  1.
         22    1    1    0    0    0 -0.38872152421E+01 -0.25951974527E+02  0.13495669894E+02  0.29508448453E+02  0.00000000000E+00 0.  1.
</event>
<event>
 5    1  0.1267644E-004  0.9118800E+02  0.7818608E-02  0.1130116E+00
         25   -1    0    0    0    0  0.00000000000E+00  0.00000000000E+00  0.99999998245E-14  0.12500000000E+03  0.12500000000E+03 0.  0.
        -13    1    3    3    0    0  0.78145600677E+01 -0.24278298130E+02 -0.37450684429E+02  0.45310793828E+02  0.10566000000E+00 0.  1.
         23    2    1    0    0    0 -0.26524453174E+02  0.25346481611E+01 -0.11895838148E+02  0.95819835115E+02  0.91268607849E+02 0.  0.
         13    1    3    3    0    0 -0.34339013242E+02  0.26812946291E+02  0.25554846280E+02  0.50509041286E+02  0.10566000000E+00 0. -1.
         22    1    1    0    0    0  0.26524453174E+02 -0.25346481611E+01  0.11895838148E+02  0.29180164885E+02  0.00000000000E+00 0.  1.
</event>
<event>
 5    1  0.1267644E-004  0.9118800E+02  0.7818608E-02  0.1130116E+00
         25   -1    0    0    0    0  0.00000000000E+00  0.00000000000E+00  0.99999998245E-14  0.12500000000E+03  0.12500000000E+03 0.  0.
        -13    1    3    3    0    0  0.26045604237E+02 -0.10941795718E+02  0.32801288906E+02  0.43290092533E+02  0.10566000000E+00 0. -1.
         23    2    1    0    0    0  0.16881608626E+02 -0.14455112166E+02 -0.18845249807E+02  0.95860981179E+02  0.91324943443E+02 0.  0.
         13    1    3    3    0    0 -0.91639956111E+01 -0.35133164484E+01 -0.51646538713E+02  0.52570888646E+02  0.10566000000E+00 0.  1.
         22    1    1    0    0    0 -0.16881608626E+02  0.14455112166E+02  0.18845249807E+02  0.29139018821E+02  0.00000000000E+00 0.  1.
</event>
<event>
 5    1  0.1267644E-004  0.9118800E+02  0.7818608E-02  0.1130116E+00
         25   -1    0    0    0    0  0.00000000000E+00  0.00000000000E+00  0.99999998245E-14  0.12500000000E+03  0.12500000000E+03 0.  0.
        -13    1    3    3    0    0 -0.54309625128E+02  0.17102197526E+02 -0.25384529413E+02  0.62341046184E+02  0.10566000000E+00 0.  1.
         23    2    1    0    0    0 -0.25103207055E+02  0.68978275557E+01 -0.83419442052E+01  0.97662497141E+02  0.93758329152E+02 0.  0.
         13    1    3    3    0    0  0.29206418073E+02 -0.10204369970E+02  0.17042585208E+02  0.35321450957E+02  0.10566000000E+00 0. -1.
         22    1    1    0    0    0  0.25103207055E+02 -0.68978275557E+01  0.83419442052E+01  0.27337502859E+02  0.00000000000E+00 0.  1.
</event>
<event>
 5    1  0.1267644E-004  0.9118800E+02  0.7818608E-02  0.1130116E+00
         25   -1    0    0    0    0  0.00000000000E+00  0.00000000000E+00  0.99999998245E-14  0.12500000000E+03  0.12500000000E+03 0.  0.
        -13    1    3    3    0    0  0.25936498445E+02 -0.34594619860E+02 -0.22412352492E+02  0.48701277017E+02  0.10566000000E+00 0. -1.
         23    2    1    0    0    0  0.27942801642E+02  0.49342012756E+00  0.87941778886E+01  0.95701856855E+02  0.91106883459E+02 0.  0.
         13    1    3    3    0    0  0.20063031974E+01  0.35088039987E+02  0.31206530381E+02  0.47000579838E+02  0.10566000000E+00 0.  1.
         22    1    1    0    0    0 -0.27942801642E+02 -0.49342012756E+00 -0.87941778886E+01  0.29298143145E+02  0.00000000000E+00 0. -1.
</event>
<event>
 5    1  0.1267644E-004  0.9118800E+02  0.7818608E-02  0.1130116E+00
         25   -1    0    0    0    0  0.00000000000E+00  0.00000000000E+00  0.99999998245E-14  0.12500000000E+03  0.12500000000E+03 0.  0.
        -13    1    3    3    0    0  0.13317555820E+02  0.57718801784E+02  0.33424895391E+01  0.59329594409E+02  0.10566000000E+00 0.  1.
         23    2    1    0    0    0  0.19174499944E+02  0.23536025255E+02  0.57818214185E+01  0.94096353098E+02  0.88876815168E+02 0.  0.
         13    1    3    3    0    0  0.58569441246E+01 -0.34182776529E+02  0.24393318794E+01  0.34766758689E+02  0.10566000000E+00 0. -1.
         22    1    1    0    0    0 -0.19174499944E+02 -0.23536025255E+02 -0.57818214185E+01  0.30903646902E+02  0.00000000000E+00 0.  1.
</event>
<event>
 5    1  0.1267644E-004  0.9118800E+02  0.7818608E-02  0.1130116E+00
         25   -1    0    0    0    0  0.00000000000E+00  0.00000000000E+00  0.99999998245E-14  0.12500000000E+03  0.12500000000E+03 0.  0.
        -13    1    3    3    0    0  0.48728213113E+02  0.47752164976E+00 -0.24222733037E+02  0.54418918952E+02  0.10566000000E+00 0. -1.
         23    2    1    0    0    0  0.12945062600E+02  0.19420273886E+02 -0.18308446191E+02  0.95336539556E+02  0.90604276329E+02 0.  0.
         13    1    3    3    0    0 -0.35783150513E+02  0.18942752237E+02  0.59142868452E+01  0.40917620604E+02  0.10566000000E+00 0.  1.
         22    1    1    0    0    0 -0.12945062600E+02 -0.19420273886E+02  0.18308446191E+02  0.29663460444E+02  0.00000000000E+00 0. -1.
</event>
<event>
 5    1  0.1267644E-004  0.9118800E+02  0.7818608E-02  0.1130116E+00
         25   -1    0    0    0    0  0.00000000000E+00  0.00000000000E+00  0.99999998245E-14  0.12500000000E+03  0.12500000000E+03 0.  0.
        -13    1    3    3    0    0  0.24638337523E+02  0.40707736230E+02  0.35516924143E+02  0.59377020214E+02  0.10566000000E+00 0. -1.
         23    2    1    0    0    0  0.21389132294E+02  0.20279444762E+02  0.68292711007E+01  0.94744590502E+02  0.89783894021E+02 0.  0.
         13    1    3    3    0    0 -0.32492052290E+01 -0.20428291469E+02 -0.28687653043E+02  0.35367570288E+02  0.10566000000E+00 0.  1.
         22    1    1    0    0    0 -0.21389132294E+02 -0.20279444762E+02 -0.68292711007E+01  0.30255409498E+02  0.00000000000E+00 0. -1.
</event>
<event>
 5    1  0.1267644E-004  0.9118800E+02  0.7818608E-02  0.1130116E+00
         25   -1    0    0    0    0  0.00000000000E+00  0.00000000000E+00  0.99999998245E-14  0.12500000000E+03  0.12500000000E+03 0.  0.
        -13    1    3    3    0    0 -0.12464420013E+02  0.36330707359E+02 -0.16149213743E+02  0.41666417317E+02  0.10566000000E+00 0.  1.
         23    2    1    0    0    0 -0.26184906445E+01 -0.11736555858E+02 -0.30025268403E+02  0.92656221938E+02  0.86827734535E+02 0.  0.
         13    1    3    3    0    0  0.98459293689E+01 -0.48067263217E+02 -0.13876054660E+02  0.50989804621E+02  0.10566000000E+00 0. -1.
         22    1    1    0    0    0  0.26184906445E+01  0.11736555858E+02  0.30025268403E+02  0.32343778062E+02  0.00000000000E+00 0. -1.
</event>
<event>
 5    1  0.1267644E-004  0.9118800E+02  0.7818608E-02  0.1130116E+00
         25   -1    0    0    0    0  0.00000000000E+00  0.00000000000E+00  0.99999998245E-14  0.12500000000E+03  0.12500000000E+03 0.  0.
        -13    1    3    3    0    0  0.49019032831E+02  0.82587413505E+01  0.10955475395E+02  0.50902907515E+02  0.10566000000E+00 0. -1.
         23    2    1    0    0    0  0.12344975819E+02  0.13734248328E+02  0.27796056314E+02  0.91628623766E+02  0.85335549108E+02 0.  0.
         13    1    3    3    0    0 -0.36674057012E+02  0.54755069778E+01  0.16840580919E+02  0.40725716251E+02  0.10566000000E+00 0.  1.
         22    1    1    0    0    0 -0.12344975819E+02 -0.13734248328E+02 -0.27796056314E+02  0.33371376234E+02  0.00000000000E+00 0. -1.
</event>
<event>
 5    1  0.1267644E-004  0.9118800E+02  0.7818608E-02  0.1130116E+00
         25   -1    0    0    0    0  0.00000000000E+00  0.00000000000E+00  0.99999998245E-14  0.12500000000E+03  0.12500000000E+03 0.  0.
        -13    1    3    3    0    0 -0.47426626955E+02 -0.20704821844E+02  0.75984753334E+01  0.52304135433E+02  0.10566000000E+00 0. -1.
         23    2    1    0    0    0 -0.35772317471E+02 -0.26944688473E+02 -0.14389468008E+02  0.77960317564E+02  0.62169762674E+02 0.  0.
         13    1    3    3    0    0  0.11654309485E+02 -0.62398666294E+01 -0.21987943342E+02  0.25656182131E+02  0.10566000000E+00 0.  1.
         22    1    1    0    0    0  0.35772317471E+02  0.26944688473E+02  0.14389468008E+02  0.47039682436E+02  0.00000000000E+00 0. -1.
</event>
<event>
 5    1  0.1267644E-004  0.9118800E+02  0.7818608E-02  0.1130116E+00
         25   -1    0    0    0    0  0.00000000000E+00  0.00000000000E+00  0.99999998245E-14  0.12500000000E+03  0.12500000000E+03 0.  0.
        -13    1    3    3    0    0  0.44969312106E+02  0.36154360667E+02  0.11938992169E+02  0.58923064453E+02  0.10566000000E+00 0.  1.
         23    2    1    0    0    0  0.13701640813E+02  0.16112894440E+02  0.18812580616E+02  0.96693224881E+02  0.92457050679E+02 0.  0.
         13    1    3    3    0    0 -0.31267671293E+02 -0.20041466226E+02  0.68735884473E+01  0.37770160428E+02  0.10566000000E+00 0. -1.
         22    1    1    0    0    0 -0.13701640813E+02 -0.16112894440E+02 -0.18812580616E+02  0.28306775119E+02  0.00000000000E+00 0.  1.
</event>
<event>
 5    1  0.1267644E-004  0.9118800E+02  0.7818608E-02  0.1130116E+00
         25   -1    0    0    0    0  0.00000000000E+00  0.00000000000E+00  0.99999998245E-14  0.12500000000E+03  0.12500000000E+03 0.  0.
        -13    1    3    3    0    0 -0.45166449529E+02 -0.24975935911E+02 -0.29149168184E+02  0.59274705462E+02  0.10566000000E+00 0. -1.
         23    2    1    0    0    0 -0.13601654525E+02 -0.56876532874E+01 -0.24292437490E+02  0.96583861541E+02  0.92309075313E+02 0.  0.
         13    1    3    3    0    0  0.31564795004E+02  0.19288282624E+02  0.48567306942E+01  0.37309156079E+02  0.10566000000E+00 0.  1.
         22    1    1    0    0    0  0.13601654525E+02  0.56876532874E+01  0.24292437490E+02  0.28416138459E+02  0.00000000000E+00 0. -1.
</event>
<event>
 5    1  0.1267644E-004  0.9118800E+02  0.7818608E-02  0.1130116E+00
         25   -1    0    0    0    0  0.00000000000E+00  0.00000000000E+00  0.99999998245E-14  0.12500000000E+03  0.12500000000E+03 0.  0.
        -13    1    3    3    0    0  0.77141873788E+01 -0.56390726323E+01 -0.44814601901E+02  0.45822129312E+02  0.10566000000E+00 0.  1.
         23    2    1    0    0    0 -0.66969980371E+00  0.28078133582E+02 -0.95306828070E+01  0.95340869904E+02  0.90610250392E+02 0.  0.
         13    1    3    3    0    0 -0.83838871825E+01  0.33717206214E+02  0.35283919094E+02  0.49518740592E+02  0.10566000000E+00 0. -1.
         22    1    1    0    0    0  0.66969980371E+00 -0.28078133582E+02  0.95306828070E+01  0.29659130096E+02  0.00000000000E+00 0. -1.
</event>
<event>
 5    1  0.1267644E-004  0.9118800E+02  0.7818608E-02  0.1130116E+00
         25   -1    0    0    0    0  0.00000000000E+00  0.00000000000E+00  0.99999998245E-14  0.12500000000E+03  0.12500000000E+03 0.  0.
        -13    1    3    3    0    0 -0.36797985083E+02  0.40521997794E+02  0.59621218855E-01  0.54736995991E+02  0.10566000000E+00 0. -1.
         23    2    1    0    0    0 -0.25881093218E+01  0.27249439861E+02 -0.14271578864E+02  0.94130788059E+02  0.88925232722E+02 0.  0.
         13    1    3    3    0    0  0.34209875761E+02 -0.13272557932E+02 -0.14331200083E+02  0.39393792068E+02  0.10566000000E+00 0.  1.
         22    1    1    0    0    0  0.25881093218E+01 -0.27249439861E+02  0.14271578864E+02  0.30869211941E+02  0.00000000000E+00 0. -1.
</event>
<event>
 5    1  0.1267644E-004  0.9118800E+02  0.7818608E-02  0.1130116E+00
         25   -1    0    0    0    0  0.00000000000E+00  0.00000000000E+00  0.99999998245E-14  0.12500000000E+03  0.12500000000E+03 0.  0.
        -13    1    3    3    0    0  0.42467715584E+01 -0.24574218407E+02 -0.52330941499E+02  0.57969525452E+02  0.10566000000E+00 0. -1.
         23    2    1    0    0    0 -0.22449779955E+01  0.44414218758E+01 -0.28484568959E+02  0.96083969442E+02  0.91629647825E+02 0.  0.
         13    1    3    3    0    0 -0.64917495539E+01  0.29015640282E+02  0.23846372540E+02  0.38114443990E+02  0.10566000000E+00 0.  1.
         22    1    1    0    0    0  0.22449779955E+01 -0.44414218758E+01  0.28484568959E+02  0.28916030558E+02  0.00000000000E+00 0. -1.
</event>
<event>
 5    1  0.1267644E-004  0.9118800E+02  0.7818608E-02  0.1130116E+00
         25   -1    0    0    0    0  0.00000000000E+00  0.00000000000E+00  0.99999998245E-14  0.12500000000E+03  0.12500000000E+03 0.  0.
        -13    1    3    3    0    0 -0.26241951643E+02 -0.56232548012E+01 -0.31443588596E+02  0.41339707890E+02  0.10566000000E+00 0. -1.
         23    2    1    0    0    0 -0.24130556485E+02 -0.46651867321E+00  0.20349000185E+02  0.93431293906E+02  0.87936474096E+02 0.  0.
         13    1    3    3    0    0  0.21113951583E+01  0.51567361279E+01  0.51792588781E+02  0.52091586016E+02  0.10566000000E+00 0.  1.
         22    1    1    0    0    0  0.24130556485E+02  0.46651867321E+00 -0.20349000185E+02  0.31568706094E+02  0.00000000000E+00 0.  1.
</event>
