<event>
 5    1  0.1264859E-009  0.9118800E+02  0.7815553E-02  0.1125453E+00
         25   -1    0    0    0    0  0.00000000000E+00  0.00000000000E+00  0.99999998245E-14  0.12509000000E+03  0.12509000000E+03 0.  0.
        -13    1    3    3    0    0 -0.36063515314E+01 -0.55405876703E+02 -0.21771608662E+02  0.59639173807E+02  0.10566000000E+00 0. -1.
         23    2    1    0    0    0  0.10519489010E+02 -0.27942240034E+02 -0.48907105354E+01  0.94835290008E+02  0.89879835081E+02 0.  0.
         13    1    3    3    0    0  0.14125840542E+02  0.27463636669E+02  0.16880898126E+02  0.35196116202E+02  0.10566000000E+00 0.  1.
         22    1    1    0    0    0 -0.10519489010E+02  0.27942240034E+02  0.48907105354E+01  0.30254709992E+02  0.00000000000E+00 0. -1.
</event>
<event>
 5    1  0.1264859E-009  0.9118800E+02  0.7815553E-02  0.1125453E+00
         25   -1    0    0    0    0  0.00000000000E+00  0.00000000000E+00  0.99999998245E-14  0.12509000000E+03  0.12509000000E+03 0.  0.
        -13    1    3    3    0    0  0.26979694095E+02 -0.39439997751E+02  0.20519305345E+02  0.52004522611E+02  0.10566000000E+00 0. -1.
         23    2    1    0    0    0 -0.38096619261E+01 -0.10095017838E+02  0.27902091019E+02  0.95174291879E+02  0.90350408092E+02 0.  0.
         13    1    3    3    0    0 -0.30789356022E+02  0.29344979914E+02  0.73827856735E+01  0.43169769268E+02  0.10566000000E+00 0.  1.
         22    1    1    0    0    0  0.38096619261E+01  0.10095017838E+02 -0.27902091019E+02  0.29915708121E+02  0.00000000000E+00 0. -1.
</event>
<event>
 5    1  0.1264859E-009  0.9118800E+02  0.7815553E-02  0.1125453E+00
         25   -1    0    0    0    0  0.00000000000E+00  0.00000000000E+00  0.99999998245E-14  0.12509000000E+03  0.12509000000E+03 0.  0.
        -13    1    3    3    0    0  0.37653817387E+02  0.84437664641E+01 -0.46620941171E+02  0.60519670155E+02  0.10566000000E+00 0. -1.
         23    2    1    0    0    0  0.74565348618E+01  0.39538464750E+01 -0.26978397778E+02  0.96822231062E+02  0.92603875011E+02 0.  0.
         13    1    3    3    0    0 -0.30197282525E+02 -0.44899199891E+01  0.19642543393E+02  0.36302560907E+02  0.10566000000E+00 0.  1.
         22    1    1    0    0    0 -0.74565348618E+01 -0.39538464750E+01  0.26978397778E+02  0.28267768938E+02  0.00000000000E+00 0. -1.
</event>
<event>
 5    1  0.1264859E-009  0.9118800E+02  0.7815553E-02  0.1125453E+00
         25   -1    0    0    0    0  0.00000000000E+00  0.00000000000E+00  0.99999998245E-14  0.12509000000E+03  0.12509000000E+03 0.  0.
        -13    1    3    3    0    0  0.47656575757E+02  0.97898675228E+01 -0.12772421527E+02  0.50300463563E+02  0.10566000000E+00 0.  1.
         23    2    1    0    0    0  0.76464004822E+01  0.28279661226E+02 -0.85192581116E+01  0.94581239977E+02  0.89525563486E+02 0.  0.
         13    1    3    3    0    0 -0.40010175275E+02  0.18489793703E+02  0.42531634150E+01  0.44280776413E+02  0.10566000000E+00 0. -1.
         22    1    1    0    0    0 -0.76464004822E+01 -0.28279661226E+02  0.85192581116E+01  0.30508760023E+02  0.00000000000E+00 0.  1.
</event>
<event>
 5    1  0.1264859E-009  0.9118800E+02  0.7815553E-02  0.1125453E+00
         25   -1    0    0    0    0  0.00000000000E+00  0.00000000000E+00  0.99999998245E-14  0.12509000000E+03  0.12509000000E+03 0.  0.
        -13    1    3    3    0    0 -0.24193563615E+02 -0.10382657257E+02 -0.21946426366E+02  0.34275135104E+02  0.10566000000E+00 0.  1.
         23    2    1    0    0    0  0.12519175493E+02 -0.85759094488E+00  0.26480234979E+02  0.95786961561E+02  0.91194703482E+02 0.  0.
         13    1    3    3    0    0  0.36712739108E+02  0.95250663118E+01  0.48426661345E+02  0.61511826457E+02  0.10566000000E+00 0. -1.
         22    1    1    0    0    0 -0.12519175493E+02  0.85759094488E+00 -0.26480234979E+02  0.29303038439E+02  0.00000000000E+00 0. -1.
</event>
<event>
 5    1  0.1264859E-009  0.9118800E+02  0.7815553E-02  0.1125453E+00
         25   -1    0    0    0    0  0.00000000000E+00  0.00000000000E+00  0.99999998245E-14  0.12509000000E+03  0.12509000000E+03 0.  0.
        -13    1    3    3    0    0 -0.11525657557E+02  0.77167938080E+01 -0.51877626914E+02  0.53699990941E+02  0.10566000000E+00 0.  1.
         23    2    1    0    0    0 -0.20459174992E+02 -0.13051280888E+02 -0.16289120434E+02  0.95862457875E+02  0.91298201577E+02 0.  0.
         13    1    3    3    0    0 -0.89335174351E+01 -0.20768074696E+02  0.35588506481E+02  0.42162466933E+02  0.10566000000E+00 0. -1.
         22    1    1    0    0    0  0.20459174992E+02  0.13051280888E+02  0.16289120434E+02  0.29227542125E+02  0.00000000000E+00 0.  1.
</event>
<event>
 5    1  0.1264859E-009  0.9118800E+02  0.7815553E-02  0.1125453E+00
         25   -1    0    0    0    0  0.00000000000E+00  0.00000000000E+00  0.99999998245E-14  0.12509000000E+03  0.12509000000E+03 0.  0.
        -13    1    3    3    0    0 -0.18135823420E+02 -0.94578006021E+01 -0.31071187844E+02  0.37199300550E+02  0.10566000000E+00 0. -1.
         23    2    1    0    0    0  0.20740556329E+02 -0.21242992550E+02  0.88041709478E+01  0.94123100972E+02  0.88883121577E+02 0.  0.
         13    1    3    3    0    0  0.38876379749E+02 -0.11785191948E+02  0.39875358792E+02  0.56923800422E+02  0.10566000000E+00 0.  1.
         22    1    1    0    0    0 -0.20740556329E+02  0.21242992550E+02 -0.88041709478E+01  0.30966899028E+02  0.00000000000E+00 0.  1.
</event>
<event>
 5    1  0.1264859E-009  0.9118800E+02  0.7815553E-02  0.1125453E+00
         25   -1    0    0    0    0  0.00000000000E+00  0.00000000000E+00  0.99999998245E-14  0.12509000000E+03  0.12509000000E+03 0.  0.
        -13    1    3    3    0    0  0.29912748085E+02  0.94359101717E+01 -0.28734585437E+02  0.42538176536E+02  0.10566000000E+00 0.  1.
         23    2    1    0    0    0  0.16436066019E+02 -0.14822348204E+01  0.22817638755E+02  0.96929994237E+02  0.92749328074E+02 0.  0.
         13    1    3    3    0    0 -0.13476682066E+02 -0.10918144992E+02  0.51552224192E+02  0.54391817701E+02  0.10566000000E+00 0. -1.
         22    1    1    0    0    0 -0.16436066019E+02  0.14822348204E+01 -0.22817638755E+02  0.28160005763E+02  0.00000000000E+00 0. -1.
</event>
<event>
 5    1  0.1264859E-009  0.9118800E+02  0.7815553E-02  0.1125453E+00
         25   -1    0    0    0    0  0.00000000000E+00  0.00000000000E+00  0.99999998245E-14  0.12509000000E+03  0.12509000000E+03 0.  0.
        -13    1    3    3    0    0 -0.16605089574E+02  0.59048223076E+00 -0.59940145881E+02  0.62200562066E+02  0.10566000000E+00 0.  1.
         23    2    1    0    0    0 -0.35044259919E+01 -0.16642432585E+01 -0.28377723891E+02  0.96448318479E+02  0.92097406136E+02 0.  0.
         13    1    3    3    0    0  0.13100663582E+02 -0.22547254893E+01  0.31562421991E+02  0.34247756412E+02  0.10566000000E+00 0. -1.
         22    1    1    0    0    0  0.35044259919E+01  0.16642432585E+01  0.28377723891E+02  0.28641681521E+02  0.00000000000E+00 0.  1.
</event>
<event>
 5    1  0.1264859E-009  0.9118800E+02  0.7815553E-02  0.1125453E+00
         25   -1    0    0    0    0  0.00000000000E+00  0.00000000000E+00  0.99999998245E-14  0.12509000000E+03  0.12509000000E+03 0.  0.
        -13    1    3    3    0    0 -0.27400027958E+02  0.43566918823E+01 -0.26416623307E+02  0.38309156180E+02  0.10566000000E+00 0.  1.
         23    2    1    0    0    0  0.23788133477E+02 -0.14625617124E+02 -0.65374269110E+01  0.96410357025E+02  0.92045831087E+02 0.  0.
         13    1    3    3    0    0  0.51188161434E+02 -0.18982309006E+02  0.19879196396E+02  0.58101200845E+02  0.10566000000E+00 0. -1.
         22    1    1    0    0    0 -0.23788133477E+02  0.14625617124E+02  0.65374269110E+01  0.28679642975E+02  0.00000000000E+00 0. -1.
</event>
<event>
 5    1  0.1264859E-009  0.9118800E+02  0.7815553E-02  0.1125453E+00
         25   -1    0    0    0    0  0.00000000000E+00  0.00000000000E+00  0.99999998245E-14  0.12509000000E+03  0.12509000000E+03 0.  0.
        -13    1    3    3    0    0  0.29691644136E+02  0.41915203053E+01 -0.39545188118E+02  0.49628576861E+02  0.10566000000E+00 0.  1.
         23    2    1    0    0    0 -0.45488715120E+00 -0.23136620970E+02 -0.18645745059E+02  0.95371757101E+02  0.90623386007E+02 0.  0.
         13    1    3    3    0    0 -0.30146531287E+02 -0.27328141276E+02  0.20899443059E+02  0.45743180240E+02  0.10566000000E+00 0. -1.
         22    1    1    0    0    0  0.45488715120E+00  0.23136620970E+02  0.18645745059E+02  0.29718242899E+02  0.00000000000E+00 0. -1.
</event>
<event>
 5    1  0.1264859E-009  0.9118800E+02  0.7815553E-02  0.1125453E+00
         25   -1    0    0    0    0  0.00000000000E+00  0.00000000000E+00  0.99999998245E-14  0.12509000000E+03  0.12509000000E+03 0.  0.
        -13    1    3    3    0    0  0.23280394437E+02 -0.13398686910E+01 -0.46191809018E+02  0.51744240236E+02  0.10566000000E+00 0. -1.
         23    2    1    0    0    0 -0.10351892734E+02 -0.15064439358E+02 -0.26011822932E+02  0.93298272325E+02  0.87714614918E+02 0.  0.
         13    1    3    3    0    0 -0.33632287171E+02 -0.13724570667E+02  0.20179986086E+02  0.41554032088E+02  0.10566000000E+00 0.  1.
         22    1    1    0    0    0  0.10351892734E+02  0.15064439358E+02  0.26011822932E+02  0.31791727675E+02  0.00000000000E+00 0. -1.
</event>
<event>
 5    1  0.1264859E-009  0.9118800E+02  0.7815553E-02  0.1125453E+00
         25   -1    0    0    0    0  0.00000000000E+00  0.00000000000E+00  0.99999998245E-14  0.12509000000E+03  0.12509000000E+03 0.  0.
        -13    1    3    3    0    0 -0.10166687771E+02 -0.13894099452E+02 -0.30204626234E+02  0.34766911709E+02  0.10566000000E+00 0.  1.
         23    2    1    0    0    0 -0.73081420149E+01  0.24300467003E+02  0.16236274600E+02  0.94964624497E+02  0.90059656099E+02 0.  0.
         13    1    3    3    0    0  0.28585457559E+01  0.38194566455E+02  0.46440900835E+02  0.60197712788E+02  0.10566000000E+00 0. -1.
         22    1    1    0    0    0  0.73081420149E+01 -0.24300467003E+02 -0.16236274600E+02  0.30125375503E+02  0.00000000000E+00 0. -1.
</event>
<event>
 5    1  0.1264859E-009  0.9118800E+02  0.7815553E-02  0.1125453E+00
         25   -1    0    0    0    0  0.00000000000E+00  0.00000000000E+00  0.99999998245E-14  0.12509000000E+03  0.12509000000E+03 0.  0.
        -13    1    3    3    0    0  0.22304747294E+02 -0.31015938141E+02  0.36960567574E+02  0.53156230962E+02  0.10566000000E+00 0.  1.
         23    2    1    0    0    0 -0.10794432507E+02 -0.11722491017E+02  0.28570267868E+02  0.92376137879E+02  0.86389548411E+02 0.  0.
         13    1    3    3    0    0 -0.33099179801E+02  0.19293447124E+02 -0.83902997057E+01  0.39219906918E+02  0.10566000000E+00 0. -1.
         22    1    1    0    0    0  0.10794432507E+02  0.11722491017E+02 -0.28570267868E+02  0.32713862121E+02  0.00000000000E+00 0.  1.
</event>
<event>
 5    1  0.1264859E-009  0.9118800E+02  0.7815553E-02  0.1125453E+00
         25   -1    0    0    0    0  0.00000000000E+00  0.00000000000E+00  0.99999998245E-14  0.12509000000E+03  0.12509000000E+03 0.  0.
        -13    1    3    3    0    0  0.27467975170E+02 -0.45353836928E+02 -0.59031229532E+01  0.53350896981E+02  0.10566000000E+00 0. -1.
         23    2    1    0    0    0 -0.54227232909E+01 -0.26766989432E+02  0.12121867799E+02  0.95209950969E+02  0.90399764566E+02 0.  0.
         13    1    3    3    0    0 -0.32890698461E+02  0.18586847496E+02  0.18024990753E+02  0.41859053988E+02  0.10566000000E+00 0.  1.
         22    1    1    0    0    0  0.54227232909E+01  0.26766989432E+02 -0.12121867799E+02  0.29880049031E+02  0.00000000000E+00 0. -1.
</event>
<event>
 5    1  0.1264859E-009  0.9118800E+02  0.7815553E-02  0.1125453E+00
         25   -1    0    0    0    0  0.00000000000E+00  0.00000000000E+00  0.99999998245E-14  0.12509000000E+03  0.12509000000E+03 0.  0.
        -13    1    3    3    0    0 -0.29790329334E+02  0.65351715651E+01  0.20778457313E+02  0.36904303835E+02  0.10566000000E+00 0.  1.
         23    2    1    0    0    0  0.21796002908E+02 -0.12166531495E+02  0.22039953831E+02  0.91790603666E+02  0.85537507124E+02 0.  0.
         13    1    3    3    0    0  0.51586332242E+02 -0.18701703060E+02  0.12614965178E+01  0.54886299830E+02  0.10566000000E+00 0. -1.
         22    1    1    0    0    0 -0.21796002908E+02  0.12166531495E+02 -0.22039953831E+02  0.33299396334E+02  0.00000000000E+00 0. -1.
</event>
<event>
 5    1  0.1264859E-009  0.9118800E+02  0.7815553E-02  0.1125453E+00
         25   -1    0    0    0    0  0.00000000000E+00  0.00000000000E+00  0.99999998245E-14  0.12509000000E+03  0.12509000000E+03 0.  0.
        -13    1    3    3    0    0 -0.43629290266E+02  0.38702159757E+02 -0.10041678729E+01  0.58330023626E+02  0.10566000000E+00 0.  1.
         23    2    1    0    0    0 -0.26220214865E+02  0.83408793207E+01  0.11182448645E+02  0.95389543891E+02  0.90647934287E+02 0.  0.
         13    1    3    3    0    0  0.17409075401E+02 -0.30361280437E+02  0.12186616518E+02  0.37059520265E+02  0.10566000000E+00 0. -1.
         22    1    1    0    0    0  0.26220214865E+02 -0.83408793207E+01 -0.11182448645E+02  0.29700456109E+02  0.00000000000E+00 0.  1.
</event>
<event>
 5    1  0.1264859E-009  0.9118800E+02  0.7815553E-02  0.1125453E+00
         25   -1    0    0    0    0  0.00000000000E+00  0.00000000000E+00  0.99999998245E-14  0.12509000000E+03  0.12509000000E+03 0.  0.
        -13    1    3    3    0    0 -0.36991422745E+02 -0.14097677187E+02 -0.87930384892E+01  0.40551677508E+02  0.10566000000E+00 0.  1.
         23    2    1    0    0    0  0.12785633603E+01  0.18199939479E+02 -0.25846221207E+02  0.93453001533E+02  0.87934997717E+02 0.  0.
         13    1    3    3    0    0  0.38269986105E+02  0.32297616666E+02 -0.17053182718E+02  0.52901324026E+02  0.10566000000E+00 0. -1.
         22    1    1    0    0    0 -0.12785633603E+01 -0.18199939479E+02  0.25846221207E+02  0.31636998467E+02  0.00000000000E+00 0. -1.
</event>
<event>
 5    1  0.1264859E-009  0.9118800E+02  0.7815553E-02  0.1125453E+00
         25   -1    0    0    0    0  0.00000000000E+00  0.00000000000E+00  0.99999998245E-14  0.12509000000E+03  0.12509000000E+03 0.  0.
        -13    1    3    3    0    0  0.16642070653E+02 -0.48622416239E+02  0.33499451566E+02  0.61345923221E+02  0.10566000000E+00 0.  1.
         23    2    1    0    0    0 -0.22945585563E+00 -0.21925937357E+02  0.18914405979E+02  0.96132200834E+02  0.91667038267E+02 0.  0.
         13    1    3    3    0    0 -0.16871526509E+02  0.26696478881E+02 -0.14585045587E+02  0.34786277614E+02  0.10566000000E+00 0. -1.
         22    1    1    0    0    0  0.22945585563E+00  0.21925937357E+02 -0.18914405979E+02  0.28957799166E+02  0.00000000000E+00 0.  1.
</event>
<event>
 5    1  0.1264859E-009  0.9118800E+02  0.7815553E-02  0.1125453E+00
         25   -1    0    0    0    0  0.00000000000E+00  0.00000000000E+00  0.99999998245E-14  0.12509000000E+03  0.12509000000E+03 0.  0.
        -13    1    3    3    0    0 -0.29600897964E+02  0.15565482497E+02  0.16025937339E+02  0.37085566428E+02  0.10566000000E+00 0. -1.
         23    2    1    0    0    0 -0.19042321344E+02  0.23707198451E+00 -0.31586377748E+02  0.88206867479E+02  0.80125439193E+02 0.  0.
         13    1    3    3    0    0  0.10558576620E+02 -0.15328410513E+02 -0.47612315088E+02  0.51121301051E+02  0.10566000000E+00 0.  1.
         22    1    1    0    0    0  0.19042321344E+02 -0.23707198451E+00  0.31586377748E+02  0.36883132521E+02  0.00000000000E+00 0.  1.
</event>
<event>
 5    1  0.1264859E-009  0.9118800E+02  0.7815553E-02  0.1125453E+00
         25   -1    0    0    0    0  0.00000000000E+00  0.00000000000E+00  0.99999998245E-14  0.12509000000E+03  0.12509000000E+03 0.  0.
        -13    1    3    3    0    0 -0.47733574864E+02 -0.17278592569E+02 -0.71516637073E+01  0.51265986661E+02  0.10566000000E+00 0. -1.
         23    2    1    0    0    0 -0.53536771945E+01 -0.27865185702E+02  0.42172366055E+01  0.96403495885E+02  0.92036506347E+02 0.  0.
         13    1    3    3    0    0  0.42379897670E+02 -0.10586593133E+02  0.11368900313E+02  0.45137509225E+02  0.10566000000E+00 0.  1.
         22    1    1    0    0    0  0.53536771945E+01  0.27865185702E+02 -0.42172366055E+01  0.28686504115E+02  0.00000000000E+00 0. -1.
</event>
<event>
 5    1  0.1264859E-009  0.9118800E+02  0.7815553E-02  0.1125453E+00
         25   -1    0    0    0    0  0.00000000000E+00  0.00000000000E+00  0.99999998245E-14  0.12509000000E+03  0.12509000000E+03 0.  0.
        -13    1    3    3    0    0 -0.46853066509E+02  0.12007978386E+02 -0.28719646989E+02  0.56251494855E+02  0.10566000000E+00 0.  1.
         23    2    1    0    0    0 -0.34603596183E+02  0.39194614213E+00  0.10428918581E+01  0.90468473257E+02  0.83581663895E+02 0.  0.
         13    1    3    3    0    0  0.12249470326E+02 -0.11616032244E+02  0.29762538847E+02  0.34216978402E+02  0.10566000000E+00 0. -1.
         22    1    1    0    0    0  0.34603596183E+02 -0.39194614213E+00 -0.10428918581E+01  0.34621526743E+02  0.00000000000E+00 0.  1.
</event>
<event>
 5    1  0.1264859E-009  0.9118800E+02  0.7815553E-02  0.1125453E+00
         25   -1    0    0    0    0  0.00000000000E+00  0.00000000000E+00  0.99999998245E-14  0.12509000000E+03  0.12509000000E+03 0.  0.
        -13    1    3    3    0    0 -0.42935922578E+02  0.11941477692E+02 -0.30746406898E+02  0.54142820745E+02  0.10566000000E+00 0.  1.
         23    2    1    0    0    0 -0.20475046108E+02 -0.17466146798E+02 -0.12032537487E+02  0.95609909168E+02  0.90951519919E+02 0.  0.
         13    1    3    3    0    0  0.22460876470E+02 -0.29407624490E+02  0.18713869410E+02  0.41467088423E+02  0.10566000000E+00 0. -1.
         22    1    1    0    0    0  0.20475046108E+02  0.17466146798E+02  0.12032537487E+02  0.29480090832E+02  0.00000000000E+00 0.  1.
</event>
<event>
 5    1  0.1264859E-009  0.9118800E+02  0.7815553E-02  0.1125453E+00
         25   -1    0    0    0    0  0.00000000000E+00  0.00000000000E+00  0.99999998245E-14  0.12509000000E+03  0.12509000000E+03 0.  0.
        -13    1    3    3    0    0 -0.69311653974E+01  0.35232438519E+02 -0.41258365154E+02  0.54695791767E+02  0.10566000000E+00 0. -1.
         23    2    1    0    0    0  0.18479059908E+02  0.10041343562E+02 -0.18324371121E+02  0.97195792491E+02  0.93107117157E+02 0.  0.
         13    1    3    3    0    0  0.25410225305E+02 -0.25191094957E+02  0.22933994033E+02  0.42500000724E+02  0.10566000000E+00 0.  1.
         22    1    1    0    0    0 -0.18479059908E+02 -0.10041343562E+02  0.18324371121E+02  0.27894207509E+02  0.00000000000E+00 0. -1.
</event>
<event>
 5    1  0.1264859E-009  0.9118800E+02  0.7815553E-02  0.1125453E+00
         25   -1    0    0    0    0  0.00000000000E+00  0.00000000000E+00  0.99999998245E-14  0.12509000000E+03  0.12509000000E+03 0.  0.
        -13    1    3    3    0    0  0.26637017513E+02 -0.27924908205E+02 -0.86169719524E+01  0.39542313664E+02  0.10566000000E+00 0. -1.
         23    2    1    0    0    0  0.57472275232E+01  0.24105022156E+02 -0.15238341290E+02  0.95998940160E+02  0.91485008330E+02 0.  0.
         13    1    3    3    0    0 -0.20889789990E+02  0.52029930362E+02 -0.66213693378E+01  0.56456626495E+02  0.10566000000E+00 0.  1.
         22    1    1    0    0    0 -0.57472275232E+01 -0.24105022156E+02  0.15238341290E+02  0.29091059840E+02  0.00000000000E+00 0.  1.
</event>
<event>
 5    1  0.1264859E-009  0.9118800E+02  0.7815553E-02  0.1125453E+00
         25   -1    0    0    0    0  0.00000000000E+00  0.00000000000E+00  0.99999998245E-14  0.12509000000E+03  0.12509000000E+03 0.  0.
        -13    1    3    3    0    0  0.19763370550E+02 -0.34468489396E+02  0.37726380052E+02  0.54790131344E+02  0.10566000000E+00 0.  1.
         23    2    1    0    0    0 -0.11962879103E+02 -0.22169883929E+02  0.14030264086E+02  0.96254907835E+02  0.91834333134E+02 0.  0.
         13    1    3    3    0    0 -0.31726249654E+02  0.12298605468E+02 -0.23696115966E+02  0.41464776491E+02  0.10566000000E+00 0. -1.
         22    1    1    0    0    0  0.11962879103E+02  0.22169883929E+02 -0.14030264086E+02  0.28835092165E+02  0.00000000000E+00 0. -1.
</event>
<event>
 5    1  0.1264859E-009  0.9118800E+02  0.7815553E-02  0.1125453E+00
         25   -1    0    0    0    0  0.00000000000E+00  0.00000000000E+00  0.99999998245E-14  0.12509000000E+03  0.12509000000E+03 0.  0.
        -13    1    3    3    0    0  0.50232322681E+02  0.15319789795E+02  0.32364697533E+02  0.61688467412E+02  0.10566000000E+00 0.  1.
         23    2    1    0    0    0  0.22273607202E+02  0.64306896817E+01  0.22870071153E+02  0.92524565838E+02  0.86604201869E+02 0.  0.
         13    1    3    3    0    0 -0.27958715478E+02 -0.88891001133E+01 -0.94946263794E+01  0.30836098426E+02  0.10566000000E+00 0. -1.
         22    1    1    0    0    0 -0.22273607202E+02 -0.64306896817E+01 -0.22870071153E+02  0.32565434162E+02  0.00000000000E+00 0.  1.
</event>
<event>
 5    1  0.1264859E-009  0.9118800E+02  0.7815553E-02  0.1125453E+00
         25   -1    0    0    0    0  0.00000000000E+00  0.00000000000E+00  0.99999998245E-14  0.12509000000E+03  0.12509000000E+03 0.  0.
        -13    1    3    3    0    0 -0.51033692472E+02 -0.28138039138E+02  0.14955641470E+02  0.60165350408E+02  0.10566000000E+00 0.  1.
         23    2    1    0    0    0 -0.25438657242E+02 -0.17418797183E+02 -0.43277766049E+01  0.93956907833E+02  0.88648920476E+02 0.  0.
         13    1    3    3    0    0  0.25595035230E+02  0.10719241955E+02 -0.19283418075E+02  0.33791557425E+02  0.10566000000E+00 0. -1.
         22    1    1    0    0    0  0.25438657242E+02  0.17418797183E+02  0.43277766049E+01  0.31133092167E+02  0.00000000000E+00 0.  1.
</event>
<event>
 5    1  0.1264859E-009  0.9118800E+02  0.7815553E-02  0.1125453E+00
         25   -1    0    0    0    0  0.00000000000E+00  0.00000000000E+00  0.99999998245E-14  0.12509000000E+03  0.12509000000E+03 0.  0.
        -13    1    3    3    0    0  0.35282166403E+02  0.20919461116E+01  0.24342514737E+02  0.42915925860E+02  0.10566000000E+00 0.  1.
         23    2    1    0    0    0  0.45957379370E+01  0.32350736041E+02 -0.58400954113E-02  0.92414459244E+02  0.86445019021E+02 0.  0.
         13    1    3    3    0    0 -0.30686428466E+02  0.30258789930E+02 -0.24348354833E+02  0.49498533384E+02  0.10566000000E+00 0. -1.
         22    1    1    0    0    0 -0.45957379370E+01 -0.32350736041E+02  0.58400954113E-02  0.32675540756E+02  0.00000000000E+00 0.  1.
</event>
<event>
 5    1  0.1264859E-009  0.9118800E+02  0.7815553E-02  0.1125453E+00
         25   -1    0    0    0    0  0.00000000000E+00  0.00000000000E+00  0.99999998245E-14  0.12509000000E+03  0.12509000000E+03 0.  0.
        -13    1    3    3    0    0 -0.24390625068E+01  0.73186931873E+00 -0.38240291335E+02  0.38325131494E+02  0.10566000000E+00 0. -1.
         23    2    1    0    0    0 -0.85154796076E+01  0.14728381019E+02  0.20174317214E+02  0.98699818579E+02  0.95106322146E+02 0.  0.
         13    1    3    3    0    0 -0.60764171008E+01  0.13996511701E+02  0.58414608549E+02  0.60374687085E+02  0.10566000000E+00 0.  1.
         22    1    1    0    0    0  0.85154796076E+01 -0.14728381019E+02 -0.20174317214E+02  0.26390181421E+02  0.00000000000E+00 0.  1.
</event>
<event>
 5    1  0.1264859E-009  0.9118800E+02  0.7815553E-02  0.1125453E+00
         25   -1    0    0    0    0  0.00000000000E+00  0.00000000000E+00  0.99999998245E-14  0.12509000000E+03  0.12509000000E+03 0.  0.
        -13    1    3    3    0    0 -0.26013953059E+02  0.93469771757E+00 -0.54572170675E+02  0.60462652851E+02  0.10566000000E+00 0. -1.
         23    2    1    0    0    0 -0.15670602174E+02 -0.10423391469E+02 -0.24882296982E+02  0.93891545466E+02  0.88556641449E+02 0.  0.
         13    1    3    3    0    0  0.10343350886E+02 -0.11358089187E+02  0.29689873693E+02  0.33428892615E+02  0.10566000000E+00 0.  1.
         22    1    1    0    0    0  0.15670602174E+02  0.10423391469E+02  0.24882296982E+02  0.31198454534E+02  0.00000000000E+00 0. -1.
</event>
<event>
 5    1  0.1264859E-009  0.9118800E+02  0.7815553E-02  0.1125453E+00
         25   -1    0    0    0    0  0.00000000000E+00  0.00000000000E+00  0.99999998245E-14  0.12509000000E+03  0.12509000000E+03 0.  0.
        -13    1    3    3    0    0  0.32724113424E+02  0.21318713292E+01  0.96160206033E+01  0.34174427443E+02  0.10566000000E+00 0.  1.
         23    2    1    0    0    0 -0.15313512684E+02 -0.24290542365E+02  0.20161228491E+02  0.90004258546E+02  0.82883999077E+02 0.  0.
         13    1    3    3    0    0 -0.48037626109E+02 -0.26422413694E+02  0.10545207888E+02  0.55829831103E+02  0.10566000000E+00 0. -1.
         22    1    1    0    0    0  0.15313512684E+02  0.24290542365E+02 -0.20161228491E+02  0.35085741454E+02  0.00000000000E+00 0. -1.
</event>
<event>
 5    1  0.1264859E-009  0.9118800E+02  0.7815553E-02  0.1125453E+00
         25   -1    0    0    0    0  0.00000000000E+00  0.00000000000E+00  0.99999998245E-14  0.12509000000E+03  0.12509000000E+03 0.  0.
        -13    1    3    3    0    0 -0.27963140231E+02  0.49543247737E+02  0.21283997237E+02  0.60741174753E+02  0.10566000000E+00 0. -1.
         23    2    1    0    0    0 -0.98319364922E+01  0.34197793184E+02  0.19381550945E+02  0.84570861918E+02  0.74232271518E+02 0.  0.
         13    1    3    3    0    0  0.18131203739E+02 -0.15345454553E+02 -0.19024462925E+01  0.23829687165E+02  0.10566000000E+00 0.  1.
         22    1    1    0    0    0  0.98319364922E+01 -0.34197793184E+02 -0.19381550945E+02  0.40519138082E+02  0.00000000000E+00 0. -1.
</event>
<event>
 5    1  0.1264859E-009  0.9118800E+02  0.7815553E-02  0.1125453E+00
         25   -1    0    0    0    0  0.00000000000E+00  0.00000000000E+00  0.99999998245E-14  0.12509000000E+03  0.12509000000E+03 0.  0.
        -13    1    3    3    0    0 -0.63979826362E+01  0.66447587221E+01 -0.32457118871E+02  0.33742595184E+02  0.10566000000E+00 0. -1.
         23    2    1    0    0    0  0.86249951073E+01 -0.69372883493E+01  0.26655131728E+02  0.96228043073E+02  0.91797732629E+02 0.  0.
         13    1    3    3    0    0  0.15022977744E+02 -0.13582047071E+02  0.59112250599E+02  0.62485447889E+02  0.10566000000E+00 0.  1.
         22    1    1    0    0    0 -0.86249951073E+01  0.69372883493E+01 -0.26655131728E+02  0.28861956927E+02  0.00000000000E+00 0.  1.
</event>
<event>
 5    1  0.1264859E-009  0.9118800E+02  0.7815553E-02  0.1125453E+00
         25   -1    0    0    0    0  0.00000000000E+00  0.00000000000E+00  0.99999998245E-14  0.12509000000E+03  0.12509000000E+03 0.  0.
        -13    1    3    3    0    0 -0.54183587842E+02 -0.21769930181E+02  0.71353492100E+01  0.58827845651E+02  0.10566000000E+00 0. -1.
         23    2    1    0    0    0 -0.28129567958E+02 -0.14130928317E+02 -0.11297456170E+02  0.91644697721E+02  0.85323867563E+02 0.  0.
         13    1    3    3    0    0  0.26054019884E+02  0.76390018642E+01 -0.18432805380E+02  0.32816852070E+02  0.10566000000E+00 0.  1.
         22    1    1    0    0    0  0.28129567958E+02  0.14130928317E+02  0.11297456170E+02  0.33445302279E+02  0.00000000000E+00 0. -1.
</event>
<event>
 5    1  0.1264859E-009  0.9118800E+02  0.7815553E-02  0.1125453E+00
         25   -1    0    0    0    0  0.00000000000E+00  0.00000000000E+00  0.99999998245E-14  0.12509000000E+03  0.12509000000E+03 0.  0.
        -13    1    3    3    0    0 -0.22358492499E+02  0.23433668507E+02  0.18920383231E+02  0.37510412850E+02  0.10566000000E+00 0. -1.
         23    2    1    0    0    0 -0.12131116174E+02 -0.26916814433E+02 -0.65377431603E+01  0.94850605753E+02  0.89901148197E+02 0.  0.
         13    1    3    3    0    0  0.10227376325E+02 -0.50350482939E+02 -0.25458126392E+02  0.57340192903E+02  0.10566000000E+00 0.  1.
         22    1    1    0    0    0  0.12131116174E+02  0.26916814433E+02  0.65377431603E+01  0.30239394247E+02  0.00000000000E+00 0.  1.
</event>
<event>
 5    1  0.1264859E-009  0.9118800E+02  0.7815553E-02  0.1125453E+00
         25   -1    0    0    0    0  0.00000000000E+00  0.00000000000E+00  0.99999998245E-14  0.12509000000E+03  0.12509000000E+03 0.  0.
        -13    1    3    3    0    0 -0.46496296736E+01  0.34121771600E+01  0.14880533513E+02  0.15959431404E+02  0.10566000000E+00 0.  1.
         23    2    1    0    0    0  0.23378395638E+00 -0.22347754735E+02 -0.41397368004E+02  0.78045139768E+02  0.62272184538E+02 0.  0.
         13    1    3    3    0    0  0.48834136300E+01 -0.25759931895E+02 -0.56277901517E+02  0.62085708364E+02  0.10566000000E+00 0. -1.
         22    1    1    0    0    0 -0.23378395638E+00  0.22347754735E+02  0.41397368004E+02  0.47044860232E+02  0.00000000000E+00 0. -1.
</event>
<event>
 5    1  0.1264859E-009  0.9118800E+02  0.7815553E-02  0.1125453E+00
         25   -1    0    0    0    0  0.00000000000E+00  0.00000000000E+00  0.99999998245E-14  0.12509000000E+03  0.12509000000E+03 0.  0.
        -13    1    3    3    0    0  0.55951062930E+02 -0.23327904428E+02  0.64911482778E+01  0.60966045780E+02  0.10566000000E+00 0.  1.
         23    2    1    0    0    0  0.31575002890E+02 -0.11988111201E+02  0.13448896614E+02  0.88736617244E+02  0.80948247677E+02 0.  0.
         13    1    3    3    0    0 -0.24376060040E+02  0.11339793227E+02  0.69577483364E+01  0.27770571464E+02  0.10566000000E+00 0. -1.
         22    1    1    0    0    0 -0.31575002890E+02  0.11988111201E+02 -0.13448896614E+02  0.36353382756E+02  0.00000000000E+00 0.  1.
</event>
<event>
 5    1  0.1264859E-009  0.9118800E+02  0.7815553E-02  0.1125453E+00
         25   -1    0    0    0    0  0.00000000000E+00  0.00000000000E+00  0.99999998245E-14  0.12509000000E+03  0.12509000000E+03 0.  0.
        -13    1    3    3    0    0 -0.15525217581E+02 -0.12376628737E+02  0.39785665102E+02  0.44464858388E+02  0.10566000000E+00 0.  1.
         23    2    1    0    0    0  0.12813724494E+02  0.21779673328E+02  0.19007622520E+02  0.93469825751E+02  0.87958927383E+02 0.  0.
         13    1    3    3    0    0  0.28338942075E+02  0.34156302065E+02 -0.20778042582E+02  0.49004967363E+02  0.10566000000E+00 0. -1.
         22    1    1    0    0    0 -0.12813724494E+02 -0.21779673328E+02 -0.19007622520E+02  0.31620174249E+02  0.00000000000E+00 0.  1.
</event>
<event>
 5    1  0.1264859E-009  0.9118800E+02  0.7815553E-02  0.1125453E+00
         25   -1    0    0    0    0  0.00000000000E+00  0.00000000000E+00  0.99999998245E-14  0.12509000000E+03  0.12509000000E+03 0.  0.
        -13    1    3    3    0    0 -0.29360247020E+02  0.46883343755E+02 -0.89028517303E+01  0.56029848828E+02  0.10566000000E+00 0. -1.
         23    2    1    0    0    0 -0.19141264353E+02  0.15078797543E+02  0.14423497366E+02  0.96774007829E+02  0.92538711784E+02 0.  0.
         13    1    3    3    0    0  0.10218982667E+02 -0.31804546212E+02  0.23326349096E+02  0.40744159001E+02  0.10566000000E+00 0.  1.
         22    1    1    0    0    0  0.19141264353E+02 -0.15078797543E+02 -0.14423497366E+02  0.28315992171E+02  0.00000000000E+00 0. -1.
</event>
<event>
 5    1  0.1264859E-009  0.9118800E+02  0.7815553E-02  0.1125453E+00
         25   -1    0    0    0    0  0.00000000000E+00  0.00000000000E+00  0.99999998245E-14  0.12509000000E+03  0.12509000000E+03 0.  0.
        -13    1    3    3    0    0  0.29011902851E+02 -0.13251060994E+02 -0.32517879794E+02  0.45548927483E+02  0.10566000000E+00 0.  1.
         23    2    1    0    0    0  0.28988288273E+02  0.20208272537E+02 -0.39724164614E+01  0.89530539536E+02  0.82165943561E+02 0.  0.
         13    1    3    3    0    0 -0.23614578122E-01  0.33459333531E+02  0.28545463332E+02  0.43981612054E+02  0.10566000000E+00 0. -1.
         22    1    1    0    0    0 -0.28988288273E+02 -0.20208272537E+02  0.39724164614E+01  0.35559460464E+02  0.00000000000E+00 0.  1.
</event>
<event>
 5    1  0.1264859E-009  0.9118800E+02  0.7815553E-02  0.1125453E+00
         25   -1    0    0    0    0  0.00000000000E+00  0.00000000000E+00  0.99999998245E-14  0.12509000000E+03  0.12509000000E+03 0.  0.
        -13    1    3    3    0    0  0.39198255922E+02  0.92527365531E+01  0.29813075050E+02  0.50109350515E+02  0.10566000000E+00 0.  1.
         23    2    1    0    0    0 -0.36209907541E+01 -0.74917363194E+01  0.27735535295E+02  0.96133176879E+02  0.91668370181E+02 0.  0.
         13    1    3    3    0    0 -0.42819246676E+02 -0.16744472873E+02 -0.20775397549E+01  0.46023826364E+02  0.10566000000E+00 0. -1.
         22    1    1    0    0    0  0.36209907541E+01  0.74917363194E+01 -0.27735535295E+02  0.28956823121E+02  0.00000000000E+00 0.  1.
</event>
<event>
 5    1  0.1264859E-009  0.9118800E+02  0.7815553E-02  0.1125453E+00
         25   -1    0    0    0    0  0.00000000000E+00  0.00000000000E+00  0.99999998245E-14  0.12509000000E+03  0.12509000000E+03 0.  0.
        -13    1    3    3    0    0 -0.26156135894E+02  0.45102890524E+02  0.15702110940E+02  0.54451644884E+02  0.10566000000E+00 0. -1.
         23    2    1    0    0    0  0.13403656177E+01  0.30472295167E+02 -0.79595278581E+01  0.93566811131E+02  0.88096746300E+02 0.  0.
         13    1    3    3    0    0  0.27496501512E+02 -0.14630595356E+02 -0.23661638799E+02  0.39115166247E+02  0.10566000000E+00 0.  1.
         22    1    1    0    0    0 -0.13403656177E+01 -0.30472295167E+02  0.79595278581E+01  0.31523188869E+02  0.00000000000E+00 0. -1.
</event>
<event>
 5    1  0.1264859E-009  0.9118800E+02  0.7815553E-02  0.1125453E+00
         25   -1    0    0    0    0  0.00000000000E+00  0.00000000000E+00  0.99999998245E-14  0.12509000000E+03  0.12509000000E+03 0.  0.
        -13    1    3    3    0    0  0.18608415120E+02 -0.17339165893E+02  0.21521694230E+02  0.33318377417E+02  0.10566000000E+00 0.  1.
         23    2    1    0    0    0  0.26514478059E+02  0.23027705329E+02 -0.13623458782E+02  0.87421825254E+02  0.78890329839E+02 0.  0.
         13    1    3    3    0    0  0.79060629398E+01  0.40366871222E+02 -0.35145153013E+02  0.54103447837E+02  0.10566000000E+00 0. -1.
         22    1    1    0    0    0 -0.26514478059E+02 -0.23027705329E+02  0.13623458782E+02  0.37668174746E+02  0.00000000000E+00 0. -1.
</event>
<event>
 5    1  0.1264859E-009  0.9118800E+02  0.7815553E-02  0.1125453E+00
         25   -1    0    0    0    0  0.00000000000E+00  0.00000000000E+00  0.99999998245E-14  0.12509000000E+03  0.12509000000E+03 0.  0.
        -13    1    3    3    0    0  0.20084035844E+02 -0.93760334122E+01 -0.28591712543E+02  0.36177004968E+02  0.10566000000E+00 0.  1.
         23    2    1    0    0    0 -0.31320746789E+02  0.14762453273E+01 -0.71007357092E+01  0.92940522131E+02  0.87202934163E+02 0.  0.
         13    1    3    3    0    0 -0.51404782632E+02  0.10852278740E+02  0.21490976834E+02  0.56763517162E+02  0.10566000000E+00 0. -1.
         22    1    1    0    0    0  0.31320746789E+02 -0.14762453273E+01  0.71007357092E+01  0.32149477869E+02  0.00000000000E+00 0. -1.
</event>
<event>
 5    1  0.1264859E-009  0.9118800E+02  0.7815553E-02  0.1125453E+00
         25   -1    0    0    0    0  0.00000000000E+00  0.00000000000E+00  0.99999998245E-14  0.12509000000E+03  0.12509000000E+03 0.  0.
        -13    1    3    3    0    0 -0.26187445726E+01 -0.14331739885E+02 -0.59952557102E+02  0.61697462333E+02  0.10566000000E+00 0. -1.
         23    2    1    0    0    0 -0.66729541848E+01 -0.17733044423E+01 -0.27630235445E+02  0.96610132779E+02  0.92316926501E+02 0.  0.
         13    1    3    3    0    0 -0.40542096122E+01  0.12558435443E+02  0.32322321656E+02  0.34912670446E+02  0.10566000000E+00 0.  1.
         22    1    1    0    0    0  0.66729541848E+01  0.17733044423E+01  0.27630235445E+02  0.28479867221E+02  0.00000000000E+00 0. -1.
</event>
<event>
 5    1  0.1264859E-009  0.9118800E+02  0.7815553E-02  0.1125453E+00
         25   -1    0    0    0    0  0.00000000000E+00  0.00000000000E+00  0.99999998245E-14  0.12509000000E+03  0.12509000000E+03 0.  0.
        -13    1    3    3    0    0  0.31131179516E+02 -0.33734709619E+02  0.20590707244E+02  0.50310728081E+02  0.10566000000E+00 0. -1.
         23    2    1    0    0    0  0.24739154985E+02 -0.35791089287E+01 -0.13834481653E+02  0.96520283643E+02  0.92195099988E+02 0.  0.
         13    1    3    3    0    0 -0.63920245307E+01  0.30155600691E+02 -0.34425188897E+02  0.46209555562E+02  0.10566000000E+00 0.  1.
         22    1    1    0    0    0 -0.24739154985E+02  0.35791089287E+01  0.13834481653E+02  0.28569716357E+02  0.00000000000E+00 0. -1.
</event>
<event>
 5    1  0.1264859E-009  0.9118800E+02  0.7815553E-02  0.1125453E+00
         25   -1    0    0    0    0  0.00000000000E+00  0.00000000000E+00  0.99999998245E-14  0.12509000000E+03  0.12509000000E+03 0.  0.
        -13    1    3    3    0    0  0.28906298933E+02  0.93086710658E+01  0.12090972956E+02  0.32686820984E+02  0.10566000000E+00 0.  1.
         23    2    1    0    0    0 -0.20512462161E+02 -0.38950738999E+01 -0.22467422912E+02  0.94418876824E+02  0.89298412661E+02 0.  0.
         13    1    3    3    0    0 -0.49418761093E+02 -0.13203744966E+02 -0.34558395869E+02  0.61732055839E+02  0.10566000000E+00 0. -1.
         22    1    1    0    0    0  0.20512462161E+02  0.38950738999E+01  0.22467422912E+02  0.30671123176E+02  0.00000000000E+00 0. -1.
</event>
<event>
 5    1  0.1264859E-009  0.9118800E+02  0.7815553E-02  0.1125453E+00
         25   -1    0    0    0    0  0.00000000000E+00  0.00000000000E+00  0.99999998245E-14  0.12509000000E+03  0.12509000000E+03 0.  0.
        -13    1    3    3    0    0  0.39284028288E+02  0.50509561094E+01  0.82102597625E+01  0.40449555814E+02  0.10566000000E+00 0.  1.
         23    2    1    0    0    0 -0.59770084183E+01  0.20521130114E+02 -0.19863222912E+02  0.95911428493E+02  0.91365272835E+02 0.  0.
         13    1    3    3    0    0 -0.45261036707E+02  0.15470174004E+02 -0.28073482674E+02  0.55461872678E+02  0.10566000000E+00 0. -1.
         22    1    1    0    0    0  0.59770084183E+01 -0.20521130114E+02  0.19863222912E+02  0.29178571507E+02  0.00000000000E+00 0. -1.
</event>
<event>
 5    1  0.1264859E-009  0.9118800E+02  0.7815553E-02  0.1125453E+00
         25   -1    0    0    0    0  0.00000000000E+00  0.00000000000E+00  0.99999998245E-14  0.12509000000E+03  0.12509000000E+03 0.  0.
        -13    1    3    3    0    0  0.39452744692E+02  0.30976499233E+02 -0.91781693914E+01  0.50993259612E+02  0.10566000000E+00 0. -1.
         23    2    1    0    0    0 -0.53444060799E+01  0.24738173532E+02  0.66664814346E+01  0.98917841496E+02  0.95392649012E+02 0.  0.
         13    1    3    3    0    0 -0.44797150772E+02 -0.62383257009E+01  0.15844650826E+02  0.47924581883E+02  0.10566000000E+00 0.  1.
         22    1    1    0    0    0  0.53444060799E+01 -0.24738173532E+02 -0.66664814346E+01  0.26172158504E+02  0.00000000000E+00 0.  1.
</event>
<event>
 5    1  0.1264859E-009  0.9118800E+02  0.7815553E-02  0.1125453E+00
         25   -1    0    0    0    0  0.00000000000E+00  0.00000000000E+00  0.99999998245E-14  0.12509000000E+03  0.12509000000E+03 0.  0.
        -13    1    3    3    0    0  0.31890681973E+02  0.33580938712E+02 -0.48292438260E+01  0.46562085450E+02  0.10566000000E+00 0. -1.
         23    2    1    0    0    0 -0.72401558837E+01  0.16117094328E+02 -0.25443136140E+02  0.94113658004E+02  0.88869830986E+02 0.  0.
         13    1    3    3    0    0 -0.39130837856E+02 -0.17463844384E+02 -0.20613892314E+02  0.47551572554E+02  0.10566000000E+00 0.  1.
         22    1    1    0    0    0  0.72401558837E+01 -0.16117094328E+02  0.25443136140E+02  0.30976341996E+02  0.00000000000E+00 0. -1.
</event>
<event>
 5    1  0.1264859E-009  0.9118800E+02  0.7815553E-02  0.1125453E+00
         25   -1    0    0    0    0  0.00000000000E+00  0.00000000000E+00  0.99999998245E-14  0.12509000000E+03  0.12509000000E+03 0.  0.
        -13    1    3    3    0    0  0.45607615408E+02 -0.12979065132E+02  0.20890197786E+02  0.51816235317E+02  0.10566000000E+00 0.  1.
         23    2    1    0    0    0  0.16230353087E+02 -0.20743720660E+02 -0.11607542820E+02  0.96306995318E+02  0.91905255501E+02 0.  0.
         13    1    3    3    0    0 -0.29377262320E+02 -0.77646555289E+01 -0.32497740606E+02  0.44490760001E+02  0.10566000000E+00 0. -1.
         22    1    1    0    0    0 -0.16230353087E+02  0.20743720660E+02  0.11607542820E+02  0.28783004682E+02  0.00000000000E+00 0.  1.
</event>
<event>
 5    1  0.1264859E-009  0.9118800E+02  0.7815553E-02  0.1125453E+00
         25   -1    0    0    0    0  0.00000000000E+00  0.00000000000E+00  0.99999998245E-14  0.12509000000E+03  0.12509000000E+03 0.  0.
        -13    1    3    3    0    0  0.96967945903E+01 -0.46117331058E+02  0.78342316721E+01  0.47772611391E+02  0.10566000000E+00 0.  1.
         23    2    1    0    0    0 -0.14625320730E+02 -0.12285362748E+02  0.25667098219E+02  0.93095780595E+02  0.87425364108E+02 0.  0.
         13    1    3    3    0    0 -0.24322115320E+02  0.33831968310E+02  0.17832866547E+02  0.45323169204E+02  0.10566000000E+00 0. -1.
         22    1    1    0    0    0  0.14625320730E+02  0.12285362748E+02 -0.25667098219E+02  0.31994219405E+02  0.00000000000E+00 0.  1.
</event>
<event>
 5    1  0.1264859E-009  0.9118800E+02  0.7815553E-02  0.1125453E+00
         25   -1    0    0    0    0  0.00000000000E+00  0.00000000000E+00  0.99999998245E-14  0.12509000000E+03  0.12509000000E+03 0.  0.
        -13    1    3    3    0    0  0.32629988145E+02  0.55679969004E+01  0.46081083455E+02  0.56737960240E+02  0.10566000000E+00 0.  1.
         23    2    1    0    0    0 -0.17731433261E+01  0.23926819172E+01  0.30166828071E+02  0.94776529729E+02  0.89798018395E+02 0.  0.
         13    1    3    3    0    0 -0.34403131471E+02 -0.31753149832E+01 -0.15914255384E+02  0.38038569489E+02  0.10566000000E+00 0. -1.
         22    1    1    0    0    0  0.17731433261E+01 -0.23926819172E+01 -0.30166828071E+02  0.30313470271E+02  0.00000000000E+00 0.  1.
</event>
<event>
 5    1  0.1264859E-009  0.9118800E+02  0.7815553E-02  0.1125453E+00
         25   -1    0    0    0    0  0.00000000000E+00  0.00000000000E+00  0.99999998245E-14  0.12509000000E+03  0.12509000000E+03 0.  0.
        -13    1    3    3    0    0  0.65383527089E+01  0.37788092865E+02  0.23005455087E+02  0.44720824527E+02  0.10566000000E+00 0. -1.
         23    2    1    0    0    0 -0.24829318636E+02  0.14083278572E+02 -0.87208259486E+01  0.95242276393E+02  0.90444483569E+02 0.  0.
         13    1    3    3    0    0 -0.31367671345E+02 -0.23704814293E+02 -0.31726281036E+02  0.50521451866E+02  0.10566000000E+00 0.  1.
         22    1    1    0    0    0  0.24829318636E+02 -0.14083278572E+02  0.87208259486E+01  0.29847723607E+02  0.00000000000E+00 0.  1.
</event>
<event>
 5    1  0.1264859E-009  0.9118800E+02  0.7815553E-02  0.1125453E+00
         25   -1    0    0    0    0  0.00000000000E+00  0.00000000000E+00  0.99999998245E-14  0.12509000000E+03  0.12509000000E+03 0.  0.
        -13    1    3    3    0    0 -0.49593904767E+02 -0.18230339304E+02 -0.20682095395E+02  0.56742055788E+02  0.10566000000E+00 0. -1.
         23    2    1    0    0    0 -0.26390854123E+02 -0.92883916109E+01  0.92195214975E+01  0.95632386778E+02  0.90982429206E+02 0.  0.
         13    1    3    3    0    0  0.23203050643E+02  0.89419476930E+01  0.29901616892E+02  0.38890330990E+02  0.10566000000E+00 0.  1.
         22    1    1    0    0    0  0.26390854123E+02  0.92883916109E+01 -0.92195214975E+01  0.29457613222E+02  0.00000000000E+00 0. -1.
</event>
<event>
 5    1  0.1264859E-009  0.9118800E+02  0.7815553E-02  0.1125453E+00
         25   -1    0    0    0    0  0.00000000000E+00  0.00000000000E+00  0.99999998245E-14  0.12509000000E+03  0.12509000000E+03 0.  0.
        -13    1    3    3    0    0  0.29385003695E+02 -0.41040155088E+02 -0.78570764319E+01  0.51083437491E+02  0.10566000000E+00 0. -1.
         23    2    1    0    0    0  0.20985787231E+02 -0.10873490090E+02  0.20855550733E+02  0.93568736561E+02  0.88099480208E+02 0.  0.
         13    1    3    3    0    0 -0.83992164647E+01  0.30166664998E+02  0.28712627164E+02  0.42485299070E+02  0.10566000000E+00 0.  1.
         22    1    1    0    0    0 -0.20985787231E+02  0.10873490090E+02 -0.20855550733E+02  0.31521263439E+02  0.00000000000E+00 0.  1.
</event>
<event>
 5    1  0.1264859E-009  0.9118800E+02  0.7815553E-02  0.1125453E+00
         25   -1    0    0    0    0  0.00000000000E+00  0.00000000000E+00  0.99999998245E-14  0.12509000000E+03  0.12509000000E+03 0.  0.
        -13    1    3    3    0    0 -0.25879462290E+02  0.26281300633E+02  0.23295077327E+02  0.43624822327E+02  0.10566000000E+00 0.  1.
         23    2    1    0    0    0 -0.38978305817E+01 -0.21976768285E+02 -0.25655735766E+01  0.10262327805E+03  0.10013382846E+03 0.  0.
         13    1    3    3    0    0  0.21981631708E+02 -0.48258068918E+02 -0.25860650904E+02  0.58998455721E+02  0.10566000000E+00 0. -1.
         22    1    1    0    0    0  0.38978305817E+01  0.21976768285E+02  0.25655735766E+01  0.22466721952E+02  0.00000000000E+00 0. -1.
</event>
<event>
 5    1  0.1264859E-009  0.9118800E+02  0.7815553E-02  0.1125453E+00
         25   -1    0    0    0    0  0.00000000000E+00  0.00000000000E+00  0.99999998245E-14  0.12509000000E+03  0.12509000000E+03 0.  0.
        -13    1    3    3    0    0  0.36517068527E+02  0.25944184439E+02  0.10341362410E+01  0.44807115527E+02  0.10566000000E+00 0. -1.
         23    2    1    0    0    0 -0.12955979521E+02  0.19018492645E+02 -0.15404393847E+02  0.97397838336E+02  0.93378172475E+02 0.  0.
         13    1    3    3    0    0 -0.49473048049E+02 -0.69256917943E+01 -0.16438530088E+02  0.52590722809E+02  0.10566000000E+00 0.  1.
         22    1    1    0    0    0  0.12955979521E+02 -0.19018492645E+02  0.15404393847E+02  0.27692161664E+02  0.00000000000E+00 0.  1.
</event>
<event>
 5    1  0.1264859E-009  0.9118800E+02  0.7815553E-02  0.1125453E+00
         25   -1    0    0    0    0  0.00000000000E+00  0.00000000000E+00  0.99999998245E-14  0.12509000000E+03  0.12509000000E+03 0.  0.
        -13    1    3    3    0    0 -0.80492797012E+01  0.39125155145E+02  0.58592075363E+01  0.40372145667E+02  0.10566000000E+00 0.  1.
         23    2    1    0    0    0 -0.10931230574E+02 -0.12322129266E+02  0.24839883873E+02  0.95284857787E+02  0.90503356961E+02 0.  0.
         13    1    3    3    0    0 -0.28819508723E+01 -0.51447284411E+02  0.18980676337E+02  0.54912712119E+02  0.10566000000E+00 0. -1.
         22    1    1    0    0    0  0.10931230574E+02  0.12322129266E+02 -0.24839883873E+02  0.29805142213E+02  0.00000000000E+00 0.  1.
</event>
<event>
 5    1  0.1264859E-009  0.9118800E+02  0.7815553E-02  0.1125453E+00
         25   -1    0    0    0    0  0.00000000000E+00  0.00000000000E+00  0.99999998245E-14  0.12509000000E+03  0.12509000000E+03 0.  0.
        -13    1    3    3    0    0 -0.54201619773E+01 -0.27158909668E+01 -0.61396440545E+02  0.61695123756E+02  0.10566000000E+00 0. -1.
         23    2    1    0    0    0  0.11980775022E+00  0.55147429465E+01 -0.28734061945E+02  0.95831273788E+02  0.91255465460E+02 0.  0.
         13    1    3    3    0    0  0.55399697275E+01  0.82306339133E+01  0.32662378600E+02  0.34136150032E+02  0.10566000000E+00 0.  1.
         22    1    1    0    0    0 -0.11980775022E+00 -0.55147429465E+01  0.28734061945E+02  0.29258726212E+02  0.00000000000E+00 0. -1.
</event>
<event>
 5    1  0.1264859E-009  0.9118800E+02  0.7815553E-02  0.1125453E+00
         25   -1    0    0    0    0  0.00000000000E+00  0.00000000000E+00  0.99999998245E-14  0.12509000000E+03  0.12509000000E+03 0.  0.
        -13    1    3    3    0    0 -0.22925046520E+02  0.18265080530E+02  0.33918972043E+02  0.44829440697E+02  0.10566000000E+00 0. -1.
         23    2    1    0    0    0 -0.83517520969E+01 -0.25370478116E+02  0.11421566659E+02  0.96040643590E+02  0.91542012831E+02 0.  0.
         13    1    3    3    0    0  0.14573294423E+02 -0.43635558646E+02 -0.22497405384E+02  0.51211202893E+02  0.10566000000E+00 0.  1.
         22    1    1    0    0    0  0.83517520969E+01  0.25370478116E+02 -0.11421566659E+02  0.29049356410E+02  0.00000000000E+00 0.  1.
</event>
<event>
 5    1  0.1264859E-009  0.9118800E+02  0.7815553E-02  0.1125453E+00
         25   -1    0    0    0    0  0.00000000000E+00  0.00000000000E+00  0.99999998245E-14  0.12509000000E+03  0.12509000000E+03 0.  0.
        -13    1    3    3    0    0  0.27077234752E+02  0.17390804914E+01 -0.31106772951E+02  0.41277639591E+02  0.10566000000E+00 0.  1.
         23    2    1    0    0    0  0.14102826868E+02 -0.17808169755E+02  0.18265789916E+02  0.95941076916E+02  0.91405856065E+02 0.  0.
         13    1    3    3    0    0 -0.12974407884E+02 -0.19547250246E+02  0.49372562867E+02  0.54663437325E+02  0.10566000000E+00 0. -1.
         22    1    1    0    0    0 -0.14102826868E+02  0.17808169755E+02 -0.18265789916E+02  0.29148923084E+02  0.00000000000E+00 0. -1.
</event>
<event>
 5    1  0.1264859E-009  0.9118800E+02  0.7815553E-02  0.1125453E+00
         25   -1    0    0    0    0  0.00000000000E+00  0.00000000000E+00  0.99999998245E-14  0.12509000000E+03  0.12509000000E+03 0.  0.
        -13    1    3    3    0    0 -0.26051298419E+02 -0.49340094434E+02 -0.89445338395E+00  0.55802565165E+02  0.10566000000E+00 0. -1.
         23    2    1    0    0    0  0.29085884170E+01 -0.25516581030E+02  0.13627990718E+02  0.96016336229E+02  0.91508791369E+02 0.  0.
         13    1    3    3    0    0  0.28959886836E+02  0.23823513404E+02  0.14522444102E+02  0.40213771065E+02  0.10566000000E+00 0.  1.
         22    1    1    0    0    0 -0.29085884170E+01  0.25516581030E+02 -0.13627990718E+02  0.29073663771E+02  0.00000000000E+00 0. -1.
</event>
<event>
 5    1  0.1264859E-009  0.9118800E+02  0.7815553E-02  0.1125453E+00
         25   -1    0    0    0    0  0.00000000000E+00  0.00000000000E+00  0.99999998245E-14  0.12509000000E+03  0.12509000000E+03 0.  0.
        -13    1    3    3    0    0  0.48960965749E+02 -0.16829475524E+02  0.33532664051E+02  0.61683532129E+02  0.10566000000E+00 0. -1.
         23    2    1    0    0    0  0.19160416432E+02 -0.10164173486E+02  0.21630660875E+02  0.94458031888E+02  0.89353244584E+02 0.  0.
         13    1    3    3    0    0 -0.29800549317E+02  0.66653020373E+01 -0.11902003176E+02  0.32774499759E+02  0.10566000000E+00 0.  1.
         22    1    1    0    0    0 -0.19160416432E+02  0.10164173486E+02 -0.21630660875E+02  0.30631968112E+02  0.00000000000E+00 0. -1.
</event>
<event>
 5    1  0.1264859E-009  0.9118800E+02  0.7815553E-02  0.1125453E+00
         25   -1    0    0    0    0  0.00000000000E+00  0.00000000000E+00  0.99999998245E-14  0.12509000000E+03  0.12509000000E+03 0.  0.
        -13    1    3    3    0    0 -0.75833895295E+01  0.34056769447E+02  0.35108399376E+01  0.35067199818E+02  0.10566000000E+00 0.  1.
         23    2    1    0    0    0 -0.31923130428E+02  0.73747047676E+01  0.30635333155E+02  0.80234719773E+02  0.66525289122E+02 0.  0.
         13    1    3    3    0    0 -0.24339740899E+02 -0.26682064680E+02  0.27124493217E+02  0.45167519955E+02  0.10566000000E+00 0. -1.
         22    1    1    0    0    0  0.31923130428E+02 -0.73747047676E+01 -0.30635333155E+02  0.44855280227E+02  0.00000000000E+00 0. -1.
</event>
<event>
 5    1  0.1264859E-009  0.9118800E+02  0.7815553E-02  0.1125453E+00
         25   -1    0    0    0    0  0.00000000000E+00  0.00000000000E+00  0.99999998245E-14  0.12509000000E+03  0.12509000000E+03 0.  0.
        -13    1    3    3    0    0 -0.16299489418E+02 -0.39735042172E+02  0.57806007313E+01  0.43335590922E+02  0.10566000000E+00 0. -1.
         23    2    1    0    0    0 -0.25614131526E+02  0.12119877687E+02 -0.23992934025E+01  0.96651790180E+02  0.92373355288E+02 0.  0.
         13    1    3    3    0    0 -0.93146421081E+01  0.51854919859E+02 -0.81798941338E+01  0.53316199258E+02  0.10566000000E+00 0.  1.
         22    1    1    0    0    0  0.25614131526E+02 -0.12119877687E+02  0.23992934025E+01  0.28438209820E+02  0.00000000000E+00 0.  1.
</event>
<event>
 5    1  0.1264859E-009  0.9118800E+02  0.7815553E-02  0.1125453E+00
         25   -1    0    0    0    0  0.00000000000E+00  0.00000000000E+00  0.99999998245E-14  0.12509000000E+03  0.12509000000E+03 0.  0.
        -13    1    3    3    0    0  0.39647855357E+02 -0.27165660903E+02  0.10675686396E+01  0.48073656336E+02  0.10566000000E+00 0. -1.
         23    2    1    0    0    0  0.24869941585E+02  0.17184154312E+02  0.15108145050E+01  0.94822992974E+02  0.89862719089E+02 0.  0.
         13    1    3    3    0    0 -0.14777913772E+02  0.44349815215E+02  0.44324586538E+00  0.46749336637E+02  0.10566000000E+00 0.  1.
         22    1    1    0    0    0 -0.24869941585E+02 -0.17184154312E+02 -0.15108145050E+01  0.30267007026E+02  0.00000000000E+00 0. -1.
</event>
<event>
 5    1  0.1264859E-009  0.9118800E+02  0.7815553E-02  0.1125453E+00
         25   -1    0    0    0    0  0.00000000000E+00  0.00000000000E+00  0.99999998245E-14  0.12509000000E+03  0.12509000000E+03 0.  0.
        -13    1    3    3    0    0 -0.26825985753E+02 -0.67339174947E+01 -0.98703348216E+01  0.29366883218E+02  0.10566000000E+00 0.  1.
         23    2    1    0    0    0  0.26499067896E+02 -0.38296561244E+01  0.21009944018E+02  0.91056419333E+02  0.84457012075E+02 0.  0.
         13    1    3    3    0    0  0.53325053649E+02  0.29042613703E+01  0.30880278839E+02  0.61689536114E+02  0.10566000000E+00 0. -1.
         22    1    1    0    0    0 -0.26499067896E+02  0.38296561244E+01 -0.21009944018E+02  0.34033580667E+02  0.00000000000E+00 0. -1.
</event>
<event>
 5    1  0.1264859E-009  0.9118800E+02  0.7815553E-02  0.1125453E+00
         25   -1    0    0    0    0  0.00000000000E+00  0.00000000000E+00  0.99999998245E-14  0.12509000000E+03  0.12509000000E+03 0.  0.
        -13    1    3    3    0    0 -0.17250497894E+02  0.31133305053E+02 -0.40316934237E+01  0.35820777170E+02  0.10566000000E+00 0. -1.
         23    2    1    0    0    0  0.20402665099E+02 -0.52641673403E+01  0.22276605787E+02  0.94426872855E+02  0.89309612869E+02 0.  0.
         13    1    3    3    0    0  0.37653162993E+02 -0.36397472394E+02  0.26308299211E+02  0.58606095685E+02  0.10566000000E+00 0.  1.
         22    1    1    0    0    0 -0.20402665099E+02  0.52641673403E+01 -0.22276605787E+02  0.30663127145E+02  0.00000000000E+00 0.  1.
</event>
<event>
 5    1  0.1264859E-009  0.9118800E+02  0.7815553E-02  0.1125453E+00
         25   -1    0    0    0    0  0.00000000000E+00  0.00000000000E+00  0.99999998245E-14  0.12509000000E+03  0.12509000000E+03 0.  0.
        -13    1    3    3    0    0 -0.29690778716E+02  0.41373240647E+02  0.19496481596E+02  0.54528995415E+02  0.10566000000E+00 0.  1.
         23    2    1    0    0    0 -0.20934310658E+02  0.18094171875E+02 -0.12225826754E+02  0.94839127973E+02  0.89885176399E+02 0.  0.
         13    1    3    3    0    0  0.87564680578E+01 -0.23279068772E+02 -0.31722308350E+02  0.40310132558E+02  0.10566000000E+00 0. -1.
         22    1    1    0    0    0  0.20934310658E+02 -0.18094171875E+02  0.12225826754E+02  0.30250872027E+02  0.00000000000E+00 0.  1.
</event>
<event>
 5    1  0.1264859E-009  0.9118800E+02  0.7815553E-02  0.1125453E+00
         25   -1    0    0    0    0  0.00000000000E+00  0.00000000000E+00  0.99999998245E-14  0.12509000000E+03  0.12509000000E+03 0.  0.
        -13    1    3    3    0    0  0.20415364438E+02 -0.13648465433E+02 -0.53730552202E+02  0.59076654592E+02  0.10566000000E+00 0.  1.
         23    2    1    0    0    0 -0.46346670547E+01 -0.11193082865E+02 -0.25239935550E+02  0.97093221805E+02  0.92969210662E+02 0.  0.
         13    1    3    3    0    0 -0.25050031493E+02  0.24553825672E+01  0.28490616653E+02  0.38016567213E+02  0.10566000000E+00 0. -1.
         22    1    1    0    0    0  0.46346670547E+01  0.11193082865E+02  0.25239935550E+02  0.27996778195E+02  0.00000000000E+00 0.  1.
</event>
<event>
 5    1  0.1264859E-009  0.9118800E+02  0.7815553E-02  0.1125453E+00
         25   -1    0    0    0    0  0.00000000000E+00  0.00000000000E+00  0.99999998245E-14  0.12509000000E+03  0.12509000000E+03 0.  0.
        -13    1    3    3    0    0 -0.33924786261E+02 -0.60086365671E+01 -0.16294086419E+02  0.38111720671E+02  0.10566000000E+00 0.  1.
         23    2    1    0    0    0  0.10969129574E+02 -0.18197645333E+02  0.19064082479E+02  0.96543277946E+02  0.92226293303E+02 0.  0.
         13    1    3    3    0    0  0.44893915835E+02 -0.12189008766E+02  0.35358168899E+02  0.58431557275E+02  0.10566000000E+00 0. -1.
         22    1    1    0    0    0 -0.10969129574E+02  0.18197645333E+02 -0.19064082479E+02  0.28546722054E+02  0.00000000000E+00 0. -1.
</event>
<event>
 5    1  0.1264859E-009  0.9118800E+02  0.7815553E-02  0.1125453E+00
         25   -1    0    0    0    0  0.00000000000E+00  0.00000000000E+00  0.99999998245E-14  0.12509000000E+03  0.12509000000E+03 0.  0.
        -13    1    3    3    0    0  0.17153522501E+01  0.18457457821E+02  0.34745737204E+02  0.39381437257E+02  0.10566000000E+00 0.  1.
         23    2    1    0    0    0  0.23408273638E+02 -0.10634504190E+02 -0.10444241612E+02  0.97338925482E+02  0.93299219059E+02 0.  0.
         13    1    3    3    0    0  0.21692921388E+02 -0.29091962011E+02 -0.45189978815E+02  0.57957488225E+02  0.10566000000E+00 0. -1.
         22    1    1    0    0    0 -0.23408273638E+02  0.10634504190E+02  0.10444241612E+02  0.27751074518E+02  0.00000000000E+00 0. -1.
</event>
<event>
 5    1  0.1264859E-009  0.9118800E+02  0.7815553E-02  0.1125453E+00
         25   -1    0    0    0    0  0.00000000000E+00  0.00000000000E+00  0.99999998245E-14  0.12509000000E+03  0.12509000000E+03 0.  0.
        -13    1    3    3    0    0 -0.18915147007E+02 -0.34914873558E+02 -0.22593246619E+02  0.45686947137E+02  0.10566000000E+00 0.  1.
         23    2    1    0    0    0  0.10767518465E+02  0.62462980655E+01 -0.25704665812E+02  0.96529791003E+02  0.92207998640E+02 0.  0.
         13    1    3    3    0    0  0.29682665472E+02  0.41161171624E+02 -0.31114191931E+01  0.50842843866E+02  0.10566000000E+00 0. -1.
         22    1    1    0    0    0 -0.10767518465E+02 -0.62462980655E+01  0.25704665812E+02  0.28560208997E+02  0.00000000000E+00 0. -1.
</event>
<event>
 5    1  0.1264859E-009  0.9118800E+02  0.7815553E-02  0.1125453E+00
         25   -1    0    0    0    0  0.00000000000E+00  0.00000000000E+00  0.99999998245E-14  0.12509000000E+03  0.12509000000E+03 0.  0.
        -13    1    3    3    0    0  0.29149414936E+02  0.14570456768E+02 -0.44493581196E+02  0.55151396476E+02  0.10566000000E+00 0.  1.
         23    2    1    0    0    0  0.19023528483E+02  0.20609862490E+02 -0.47044601048E+01  0.96650713569E+02  0.92371897354E+02 0.  0.
         13    1    3    3    0    0 -0.10125886453E+02  0.60394057228E+01  0.39789121091E+02  0.41499317093E+02  0.10566000000E+00 0. -1.
         22    1    1    0    0    0 -0.19023528483E+02 -0.20609862490E+02  0.47044601048E+01  0.28439286431E+02  0.00000000000E+00 0.  1.
</event>
<event>
 5    1  0.1264859E-009  0.9118800E+02  0.7815553E-02  0.1125453E+00
         25   -1    0    0    0    0  0.00000000000E+00  0.00000000000E+00  0.99999998245E-14  0.12509000000E+03  0.12509000000E+03 0.  0.
        -13    1    3    3    0    0  0.23938275425E+02  0.34922877114E+02 -0.37138543303E+02  0.56319898250E+02  0.10566000000E+00 0. -1.
         23    2    1    0    0    0 -0.63348755523E+01  0.12679698892E+02 -0.25957165567E+02  0.95515012992E+02  0.90820910865E+02 0.  0.
         13    1    3    3    0    0 -0.30273150978E+02 -0.22243178222E+02  0.11181377736E+02  0.39195114742E+02  0.10566000000E+00 0.  1.
         22    1    1    0    0    0  0.63348755523E+01 -0.12679698892E+02  0.25957165567E+02  0.29574987008E+02  0.00000000000E+00 0. -1.
</event>
<event>
 5    1  0.1264859E-009  0.9118800E+02  0.7815553E-02  0.1125453E+00
         25   -1    0    0    0    0  0.00000000000E+00  0.00000000000E+00  0.99999998245E-14  0.12509000000E+03  0.12509000000E+03 0.  0.
        -13    1    3    3    0    0 -0.22540976607E+02 -0.14768001857E+02  0.25653302459E+02  0.37206082787E+02  0.10566000000E+00 0.  1.
         23    2    1    0    0    0  0.28623469939E+02 -0.88913272486E+01 -0.80636132683E+00  0.95106522047E+02  0.90256532094E+02 0.  0.
         13    1    3    3    0    0  0.51164446546E+02  0.58766746080E+01 -0.26459663786E+02  0.57900439260E+02  0.10566000000E+00 0. -1.
         22    1    1    0    0    0 -0.28623469939E+02  0.88913272486E+01  0.80636132683E+00  0.29983477953E+02  0.00000000000E+00 0. -1.
</event>
<event>
 5    1  0.1264859E-009  0.9118800E+02  0.7815553E-02  0.1125453E+00
         25   -1    0    0    0    0  0.00000000000E+00  0.00000000000E+00  0.99999998245E-14  0.12509000000E+03  0.12509000000E+03 0.  0.
        -13    1    3    3    0    0  0.68349929057E+01 -0.23598603066E+02  0.31457528320E+02  0.39914890038E+02  0.10566000000E+00 0.  1.
         23    2    1    0    0    0 -0.16798441431E+02 -0.79823131913E+01 -0.19453758246E+02  0.98176180719E+02  0.94415087737E+02 0.  0.
         13    1    3    3    0    0 -0.23633434336E+02  0.15616289875E+02 -0.50911286566E+02  0.58261290681E+02  0.10566000000E+00 0. -1.
         22    1    1    0    0    0  0.16798441431E+02  0.79823131913E+01  0.19453758246E+02  0.26913819281E+02  0.00000000000E+00 0. -1.
</event>
<event>
 5    1  0.1264859E-009  0.9118800E+02  0.7815553E-02  0.1125453E+00
         25   -1    0    0    0    0  0.00000000000E+00  0.00000000000E+00  0.99999998245E-14  0.12509000000E+03  0.12509000000E+03 0.  0.
        -13    1    3    3    0    0 -0.36610115569E+02 -0.26659514440E+02 -0.14405996979E+02  0.47524458809E+02  0.10566000000E+00 0. -1.
         23    2    1    0    0    0 -0.21719591290E+02  0.17760874704E+01  0.20658467422E+02  0.95062222714E+02  0.90195115048E+02 0.  0.
         13    1    3    3    0    0  0.14890524279E+02  0.28435601911E+02  0.35064464401E+02  0.47537763905E+02  0.10566000000E+00 0.  1.
         22    1    1    0    0    0  0.21719591290E+02 -0.17760874704E+01 -0.20658467422E+02  0.30027777286E+02  0.00000000000E+00 0.  1.
</event>
<event>
 5    1  0.1264859E-009  0.9118800E+02  0.7815553E-02  0.1125453E+00
         25   -1    0    0    0    0  0.00000000000E+00  0.00000000000E+00  0.99999998245E-14  0.12509000000E+03  0.12509000000E+03 0.  0.
        -13    1    3    3    0    0 -0.23919104860E+02 -0.18135496259E+02  0.53333590967E+02  0.61200513816E+02  0.10566000000E+00 0. -1.
         23    2    1    0    0    0 -0.62906288092E+01 -0.16118398552E+02  0.23586117770E+02  0.95837996066E+02  0.91264679673E+02 0.  0.
         13    1    3    3    0    0  0.17628476051E+02  0.20170977067E+01 -0.29747473197E+02  0.34637482250E+02  0.10566000000E+00 0.  1.
         22    1    1    0    0    0  0.62906288092E+01  0.16118398552E+02 -0.23586117770E+02  0.29252003934E+02  0.00000000000E+00 0. -1.
</event>
<event>
 5    1  0.1264859E-009  0.9118800E+02  0.7815553E-02  0.1125453E+00
         25   -1    0    0    0    0  0.00000000000E+00  0.00000000000E+00  0.99999998245E-14  0.12509000000E+03  0.12509000000E+03 0.  0.
        -13    1    3    3    0    0 -0.31945351972E+02 -0.20770087966E+02  0.20403489563E+02  0.43222859890E+02  0.10566000000E+00 0. -1.
         23    2    1    0    0    0 -0.31669936102E+01  0.23268406761E+02  0.17300610498E+02  0.95922214254E+02  0.91380038641E+02 0.  0.
         13    1    3    3    0    0  0.28778358362E+02  0.44038494727E+02 -0.31028790653E+01  0.52699354363E+02  0.10566000000E+00 0.  1.
         22    1    1    0    0    0  0.31669936102E+01 -0.23268406761E+02 -0.17300610498E+02  0.29167785746E+02  0.00000000000E+00 0.  1.
</event>
<event>
 5    1  0.1264859E-009  0.9118800E+02  0.7815553E-02  0.1125453E+00
         25   -1    0    0    0    0  0.00000000000E+00  0.00000000000E+00  0.99999998245E-14  0.12509000000E+03  0.12509000000E+03 0.  0.
        -13    1    3    3    0    0 -0.29306415569E+02 -0.23074147817E+02 -0.12080652725E+02  0.39207596525E+02  0.10566000000E+00 0. -1.
         23    2    1    0    0    0  0.45387487883E+01 -0.10699844293E+02  0.28996085898E+02  0.93851243529E+02  0.88499694950E+02 0.  0.
         13    1    3    3    0    0  0.33845164357E+02  0.12374303525E+02  0.41076738622E+02  0.54643647004E+02  0.10566000000E+00 0.  1.
         22    1    1    0    0    0 -0.45387487883E+01  0.10699844293E+02 -0.28996085898E+02  0.31238756471E+02  0.00000000000E+00 0.  1.
</event>
<event>
 5    1  0.1264859E-009  0.9118800E+02  0.7815553E-02  0.1125453E+00
         25   -1    0    0    0    0  0.00000000000E+00  0.00000000000E+00  0.99999998245E-14  0.12509000000E+03  0.12509000000E+03 0.  0.
        -13    1    3    3    0    0  0.14939675560E+02  0.33921208079E+02 -0.19134234621E+02  0.41712975942E+02  0.10566000000E+00 0.  1.
         23    2    1    0    0    0  0.91697663331E+00  0.37858542327E+01  0.26575835028E+02  0.98230205774E+02  0.94486638106E+02 0.  0.
         13    1    3    3    0    0 -0.14022698927E+02 -0.30135353846E+02  0.45710069649E+02  0.56517229833E+02  0.10566000000E+00 0. -1.
         22    1    1    0    0    0 -0.91697663331E+00 -0.37858542327E+01 -0.26575835028E+02  0.26859794226E+02  0.00000000000E+00 0.  1.
</event>
<event>
 5    1  0.1264859E-009  0.9118800E+02  0.7815553E-02  0.1125453E+00
         25   -1    0    0    0    0  0.00000000000E+00  0.00000000000E+00  0.99999998245E-14  0.12509000000E+03  0.12509000000E+03 0.  0.
        -13    1    3    3    0    0 -0.35787121043E+02  0.32518144043E+01 -0.44439624069E+02  0.57150535264E+02  0.10566000000E+00 0.  1.
         23    2    1    0    0    0 -0.26675628629E+02 -0.11105046064E+01 -0.49190620903E+01  0.97941895921E+02  0.94104173242E+02 0.  0.
         13    1    3    3    0    0  0.91114924146E+01 -0.43623190107E+01  0.39520561979E+02  0.40791360658E+02  0.10566000000E+00 0. -1.
         22    1    1    0    0    0  0.26675628629E+02  0.11105046064E+01  0.49190620903E+01  0.27148104079E+02  0.00000000000E+00 0.  1.
</event>
<event>
 5    1  0.1264859E-009  0.9118800E+02  0.7815553E-02  0.1125453E+00
         25   -1    0    0    0    0  0.00000000000E+00  0.00000000000E+00  0.99999998245E-14  0.12509000000E+03  0.12509000000E+03 0.  0.
        -13    1    3    3    0    0 -0.15950101430E+02  0.93775969678E+00  0.36209667967E+02  0.39578230723E+02  0.10566000000E+00 0. -1.
         23    2    1    0    0    0  0.39904138408E+01 -0.29156125121E+02 -0.59334613349E+01  0.95069856794E+02  0.90205701997E+02 0.  0.
         13    1    3    3    0    0  0.19940515271E+02 -0.30093884817E+02 -0.42143129301E+02  0.55491626071E+02  0.10566000000E+00 0.  1.
         22    1    1    0    0    0 -0.39904138408E+01  0.29156125121E+02  0.59334613349E+01  0.30020143206E+02  0.00000000000E+00 0.  1.
</event>
<event>
 5    1  0.1264859E-009  0.9118800E+02  0.7815553E-02  0.1125453E+00
         25   -1    0    0    0    0  0.00000000000E+00  0.00000000000E+00  0.99999998245E-14  0.12509000000E+03  0.12509000000E+03 0.  0.
        -13    1    3    3    0    0  0.24204957390E+02  0.94052960104E+01  0.22491511593E+02  0.34354312874E+02  0.10566000000E+00 0. -1.
         23    2    1    0    0    0 -0.28670410286E+02 -0.89054340826E+01 -0.10239498236E+01  0.95050897893E+02  0.90179407488E+02 0.  0.
         13    1    3    3    0    0 -0.52875367675E+02 -0.18310730093E+02 -0.23515461416E+02  0.60696585019E+02  0.10566000000E+00 0.  1.
         22    1    1    0    0    0  0.28670410286E+02  0.89054340826E+01  0.10239498236E+01  0.30039102107E+02  0.00000000000E+00 0.  1.
</event>
<event>
 5    1  0.1264859E-009  0.9118800E+02  0.7815553E-02  0.1125453E+00
         25   -1    0    0    0    0  0.00000000000E+00  0.00000000000E+00  0.99999998245E-14  0.12509000000E+03  0.12509000000E+03 0.  0.
        -13    1    3    3    0    0  0.28893845223E+01  0.19853829540E+02 -0.78842473507E+01  0.21556799638E+02  0.10566000000E+00 0.  1.
         23    2    1    0    0    0  0.18563231494E+02 -0.33456445843E+02 -0.24623408673E+02  0.79590114433E+02  0.65301965735E+02 0.  0.
         13    1    3    3    0    0  0.15673846972E+02 -0.53310275382E+02 -0.16739161323E+02  0.58033314795E+02  0.10566000000E+00 0. -1.
         22    1    1    0    0    0 -0.18563231494E+02  0.33456445843E+02  0.24623408673E+02  0.45499885567E+02  0.00000000000E+00 0. -1.
</event>
<event>
 5    1  0.1264859E-009  0.9118800E+02  0.7815553E-02  0.1125453E+00
         25   -1    0    0    0    0  0.00000000000E+00  0.00000000000E+00  0.99999998245E-14  0.12509000000E+03  0.12509000000E+03 0.  0.
        -13    1    3    3    0    0  0.68621712738E+01 -0.33350738334E+02 -0.14402083208E+02  0.36970154271E+02  0.10566000000E+00 0. -1.
         23    2    1    0    0    0 -0.16183630881E+02  0.69903269866E+01  0.22644744961E+02  0.96392281376E+02  0.92021263057E+02 0.  0.
         13    1    3    3    0    0 -0.23045802155E+02  0.40341065321E+02  0.37046828170E+02  0.59422127105E+02  0.10566000000E+00 0.  1.
         22    1    1    0    0    0  0.16183630881E+02 -0.69903269866E+01 -0.22644744961E+02  0.28697718624E+02  0.00000000000E+00 0.  1.
</event>
<event>
 5    1  0.1264859E-009  0.9118800E+02  0.7815553E-02  0.1125453E+00
         25   -1    0    0    0    0  0.00000000000E+00  0.00000000000E+00  0.99999998245E-14  0.12509000000E+03  0.12509000000E+03 0.  0.
        -13    1    3    3    0    0 -0.13198604276E+02 -0.32143617054E+02 -0.96422343042E+01  0.36061047109E+02  0.10566000000E+00 0.  1.
         23    2    1    0    0    0 -0.10385463875E+01  0.13400469072E+02  0.26443284408E+02  0.95426917890E+02  0.90699494033E+02 0.  0.
         13    1    3    3    0    0  0.12160057888E+02  0.45544086126E+02  0.36085518713E+02  0.59365870782E+02  0.10566000000E+00 0. -1.
         22    1    1    0    0    0  0.10385463875E+01 -0.13400469072E+02 -0.26443284408E+02  0.29663082110E+02  0.00000000000E+00 0. -1.
</event>
<event>
 5    1  0.1264859E-009  0.9118800E+02  0.7815553E-02  0.1125453E+00
         25   -1    0    0    0    0  0.00000000000E+00  0.00000000000E+00  0.99999998245E-14  0.12509000000E+03  0.12509000000E+03 0.  0.
        -13    1    3    3    0    0  0.49749896631E+02 -0.25599967496E+02  0.22921887125E+02  0.60463498278E+02  0.10566000000E+00 0.  1.
         23    2    1    0    0    0  0.30362207640E+02 -0.28728260581E+01  0.10216486858E+02  0.92926458745E+02  0.87182758323E+02 0.  0.
         13    1    3    3    0    0 -0.19387688990E+02  0.22727141438E+02 -0.12705400267E+02  0.32462960467E+02  0.10566000000E+00 0. -1.
         22    1    1    0    0    0 -0.30362207640E+02  0.28728260581E+01 -0.10216486858E+02  0.32163541255E+02  0.00000000000E+00 0.  1.
</event>
<event>
 5    1  0.1264859E-009  0.9118800E+02  0.7815553E-02  0.1125453E+00
         25   -1    0    0    0    0  0.00000000000E+00  0.00000000000E+00  0.99999998245E-14  0.12509000000E+03  0.12509000000E+03 0.  0.
        -13    1    3    3    0    0  0.27707879048E+02 -0.30822572206E+02 -0.14599675570E+01  0.41471679349E+02  0.10566000000E+00 0.  1.
         23    2    1    0    0    0 -0.24251596048E+02 -0.16650295651E+02 -0.40699444779E+01  0.95392580849E+02  0.90652125054E+02 0.  0.
         13    1    3    3    0    0 -0.51959475096E+02  0.14172276555E+02 -0.26099769209E+01  0.53920901500E+02  0.10566000000E+00 0. -1.
         22    1    1    0    0    0  0.24251596048E+02  0.16650295651E+02  0.40699444779E+01  0.29697419151E+02  0.00000000000E+00 0.  1.
</event>
<event>
 5    1  0.1264859E-009  0.9118800E+02  0.7815553E-02  0.1125453E+00
         25   -1    0    0    0    0  0.00000000000E+00  0.00000000000E+00  0.99999998245E-14  0.12509000000E+03  0.12509000000E+03 0.  0.
        -13    1    3    3    0    0 -0.87549219418E+01  0.12802684831E+02 -0.31774234594E+02  0.35357750849E+02  0.10566000000E+00 0. -1.
         23    2    1    0    0    0  0.11730038074E+02 -0.18407798535E+02  0.17454868120E+02  0.97141596446E+02  0.93034275936E+02 0.  0.
         13    1    3    3    0    0  0.20484960015E+02 -0.31210483366E+02  0.49229102713E+02  0.61783845597E+02  0.10566000000E+00 0.  1.
         22    1    1    0    0    0 -0.11730038074E+02  0.18407798535E+02 -0.17454868120E+02  0.27948403554E+02  0.00000000000E+00 0.  1.
</event>
<event>
 5    1  0.1264859E-009  0.9118800E+02  0.7815553E-02  0.1125453E+00
         25   -1    0    0    0    0  0.00000000000E+00  0.00000000000E+00  0.99999998245E-14  0.12509000000E+03  0.12509000000E+03 0.  0.
        -13    1    3    3    0    0 -0.25061830032E+02 -0.47289501955E+02  0.15224277238E+01  0.53541771263E+02  0.10566000000E+00 0. -1.
         23    2    1    0    0    0  0.12750768993E+02 -0.23836055970E+02  0.20279968082E+00  0.98057042303E+02  0.94257109776E+02 0.  0.
         13    1    3    3    0    0  0.37812599025E+02  0.23453445985E+02 -0.13196280430E+01  0.44515271040E+02  0.10566000000E+00 0.  1.
         22    1    1    0    0    0 -0.12750768993E+02  0.23836055970E+02 -0.20279968082E+00  0.27032957697E+02  0.00000000000E+00 0. -1.
</event>
<event>
 5    1  0.1264859E-009  0.9118800E+02  0.7815553E-02  0.1125453E+00
         25   -1    0    0    0    0  0.00000000000E+00  0.00000000000E+00  0.99999998245E-14  0.12509000000E+03  0.12509000000E+03 0.  0.
        -13    1    3    3    0    0  0.10585891915E+02 -0.15120960437E+02  0.14912759541E+02  0.23729857002E+02  0.10566000000E+00 0. -1.
         23    2    1    0    0    0  0.53173431615E+01 -0.18478146067E+02 -0.40902329054E+02  0.79893578212E+02  0.65880705045E+02 0.  0.
         13    1    3    3    0    0 -0.52685487533E+01 -0.33571856295E+01 -0.55815088595E+02  0.56163721210E+02  0.10566000000E+00 0.  1.
         22    1    1    0    0    0 -0.53173431615E+01  0.18478146067E+02  0.40902329054E+02  0.45196421788E+02  0.00000000000E+00 0.  1.
</event>
<event>
 5    1  0.1264859E-009  0.9118800E+02  0.7815553E-02  0.1125453E+00
         25   -1    0    0    0    0  0.00000000000E+00  0.00000000000E+00  0.99999998245E-14  0.12509000000E+03  0.12509000000E+03 0.  0.
        -13    1    3    3    0    0 -0.11965611663E+02  0.25118803010E+02  0.42058579612E+02  0.50428815276E+02  0.10566000000E+00 0.  1.
         23    2    1    0    0    0 -0.21285336317E+02 -0.72012553591E+01  0.32825566950E+02  0.85310087149E+02  0.75467671906E+02 0.  0.
         13    1    3    3    0    0 -0.93197246543E+01 -0.32320058370E+02 -0.92330126619E+01  0.34881271873E+02  0.10566000000E+00 0. -1.
         22    1    1    0    0    0  0.21285336317E+02  0.72012553591E+01 -0.32825566950E+02  0.39779912851E+02  0.00000000000E+00 0.  1.
</event>
<event>
 5    1  0.1264859E-009  0.9118800E+02  0.7815553E-02  0.1125453E+00
         25   -1    0    0    0    0  0.00000000000E+00  0.00000000000E+00  0.99999998245E-14  0.12509000000E+03  0.12509000000E+03 0.  0.
        -13    1    3    3    0    0 -0.10709614916E+02 -0.72051028950E+01  0.50142120950E+02  0.51776952564E+02  0.10566000000E+00 0.  1.
         23    2    1    0    0    0  0.68793560778E+01  0.19831087319E+02  0.16426559805E+02  0.98436117894E+02  0.94758851168E+02 0.  0.
         13    1    3    3    0    0  0.17588970994E+02  0.27036190214E+02 -0.33715561145E+02  0.46659165330E+02  0.10566000000E+00 0. -1.
         22    1    1    0    0    0 -0.68793560778E+01 -0.19831087319E+02 -0.16426559805E+02  0.26653882106E+02  0.00000000000E+00 0.  1.
</event>
<event>
 5    1  0.1264859E-009  0.9118800E+02  0.7815553E-02  0.1125453E+00
         25   -1    0    0    0    0  0.00000000000E+00  0.00000000000E+00  0.99999998245E-14  0.12509000000E+03  0.12509000000E+03 0.  0.
        -13    1    3    3    0    0  0.21244199670E+02  0.23837834701E+02 -0.85729680752E+01  0.33061538507E+02  0.10566000000E+00 0. -1.
         23    2    1    0    0    0 -0.13915977334E+02 -0.25545086459E+02  0.59501731589E+01  0.95398074701E+02  0.90659705650E+02 0.  0.
         13    1    3    3    0    0 -0.35160177004E+02 -0.49382921160E+02  0.14523141234E+02  0.62336536193E+02  0.10566000000E+00 0.  1.
         22    1    1    0    0    0  0.13915977334E+02  0.25545086459E+02 -0.59501731589E+01  0.29691925299E+02  0.00000000000E+00 0.  1.
</event>
<event>
 5    1  0.1264859E-009  0.9118800E+02  0.7815553E-02  0.1125453E+00
         25   -1    0    0    0    0  0.00000000000E+00  0.00000000000E+00  0.99999998245E-14  0.12509000000E+03  0.12509000000E+03 0.  0.
        -13    1    3    3    0    0 -0.37886778077E+02 -0.49175335196E+01 -0.18304189209E+02  0.42363245811E+02  0.10566000000E+00 0.  1.
         23    2    1    0    0    0  0.94692115440E+01  0.19833754973E+02 -0.19349513961E+02  0.95807795607E+02  0.91223276661E+02 0.  0.
         13    1    3    3    0    0  0.47355989621E+02  0.24751288493E+02 -0.10453247520E+01  0.53444549796E+02  0.10566000000E+00 0. -1.
         22    1    1    0    0    0 -0.94692115440E+01 -0.19833754973E+02  0.19349513961E+02  0.29282204393E+02  0.00000000000E+00 0. -1.
</event>
<event>
 5    1  0.1264859E-009  0.9118800E+02  0.7815553E-02  0.1125453E+00
         25   -1    0    0    0    0  0.00000000000E+00  0.00000000000E+00  0.99999998245E-14  0.12509000000E+03  0.12509000000E+03 0.  0.
        -13    1    3    3    0    0  0.12141125158E+02 -0.49974030659E+02 -0.18489383353E+02  0.54650518032E+02  0.10566000000E+00 0.  1.
         23    2    1    0    0    0  0.20387855053E+02 -0.28735202104E+02  0.73480491068E+01  0.89098746905E+02  0.81505928624E+02 0.  0.
         13    1    3    3    0    0  0.82467298952E+01  0.21238828554E+02  0.25837432460E+02  0.34448228873E+02  0.10566000000E+00 0. -1.
         22    1    1    0    0    0 -0.20387855053E+02  0.28735202104E+02 -0.73480491068E+01  0.35991253095E+02  0.00000000000E+00 0.  1.
</event>
<event>
 5    1  0.1264859E-009  0.9118800E+02  0.7815553E-02  0.1125453E+00
         25   -1    0    0    0    0  0.00000000000E+00  0.00000000000E+00  0.99999998245E-14  0.12509000000E+03  0.12509000000E+03 0.  0.
        -13    1    3    3    0    0  0.21782150918E+02  0.56155802975E+02 -0.71866917901E+01  0.60659673666E+02  0.10566000000E+00 0. -1.
         23    2    1    0    0    0  0.29522583014E+00  0.29529822745E+02 -0.31786267790E+00  0.95556990903E+02  0.90878709740E+02 0.  0.
         13    1    3    3    0    0 -0.21486925088E+02 -0.26625980229E+02  0.68688291122E+01  0.34897317237E+02  0.10566000000E+00 0.  1.
         22    1    1    0    0    0 -0.29522583014E+00 -0.29529822745E+02  0.31786267790E+00  0.29533009097E+02  0.00000000000E+00 0. -1.
</event>
<event>
 5    1  0.1264859E-009  0.9118800E+02  0.7815553E-02  0.1125453E+00
         25   -1    0    0    0    0  0.00000000000E+00  0.00000000000E+00  0.99999998245E-14  0.12509000000E+03  0.12509000000E+03 0.  0.
        -13    1    3    3    0    0 -0.15604530912E+02 -0.13535602551E+02 -0.43786532608E+02  0.48414724241E+02  0.10566000000E+00 0. -1.
         23    2    1    0    0    0  0.14967154824E+02 -0.23656809275E+02 -0.93187044713E+01  0.95585786714E+02  0.90918337095E+02 0.  0.
         13    1    3    3    0    0  0.30571685737E+02 -0.10121206724E+02  0.34467828137E+02  0.47171062473E+02  0.10566000000E+00 0.  1.
         22    1    1    0    0    0 -0.14967154824E+02  0.23656809275E+02  0.93187044713E+01  0.29504213286E+02  0.00000000000E+00 0.  1.
</event>
<event>
 5    1  0.1264859E-009  0.9118800E+02  0.7815553E-02  0.1125453E+00
         25   -1    0    0    0    0  0.00000000000E+00  0.00000000000E+00  0.99999998245E-14  0.12509000000E+03  0.12509000000E+03 0.  0.
        -13    1    3    3    0    0  0.40936013059E+02  0.56380418241E+01 -0.47332153728E+01  0.41592777890E+02  0.10566000000E+00 0. -1.
         23    2    1    0    0    0 -0.71748379860E+01 -0.22000099296E+02 -0.14287831417E+02  0.97893956249E+02  0.94040426808E+02 0.  0.
         13    1    3    3    0    0 -0.48110851045E+02 -0.27638141120E+02 -0.95546160438E+01  0.56301178359E+02  0.10566000000E+00 0.  1.
         22    1    1    0    0    0  0.71748379860E+01  0.22000099296E+02  0.14287831417E+02  0.27196043751E+02  0.00000000000E+00 0.  1.
</event>
<event>
 5    1  0.1264859E-009  0.9118800E+02  0.7815553E-02  0.1125453E+00
         25   -1    0    0    0    0  0.00000000000E+00  0.00000000000E+00  0.99999998245E-14  0.12509000000E+03  0.12509000000E+03 0.  0.
        -13    1    3    3    0    0  0.38164607838E+02 -0.39233498502E+02 -0.18007723605E+02  0.57620256591E+02  0.10566000000E+00 0. -1.
         23    2    1    0    0    0  0.27642252248E+02 -0.11418719487E+02  0.44056348522E+01  0.94859371781E+02  0.89913344572E+02 0.  0.
         13    1    3    3    0    0 -0.10522355590E+02  0.27814779014E+02  0.22413358457E+02  0.37239115190E+02  0.10566000000E+00 0.  1.
         22    1    1    0    0    0 -0.27642252248E+02  0.11418719487E+02 -0.44056348522E+01  0.30230628219E+02  0.00000000000E+00 0. -1.
</event>
<event>
 5    1  0.1264859E-009  0.9118800E+02  0.7815553E-02  0.1125453E+00
         25   -1    0    0    0    0  0.00000000000E+00  0.00000000000E+00  0.99999998245E-14  0.12509000000E+03  0.12509000000E+03 0.  0.
        -13    1    3    3    0    0  0.10614338718E+02 -0.38430705285E+02 -0.22824254983E+02  0.45940625536E+02  0.10566000000E+00 0. -1.
         23    2    1    0    0    0  0.25707177043E+02 -0.57429645227E+01  0.12102320205E+02  0.96101955096E+02  0.91625755254E+02 0.  0.
         13    1    3    3    0    0  0.15092838325E+02  0.32687740762E+02  0.34926575187E+02  0.50161329560E+02  0.10566000000E+00 0.  1.
         22    1    1    0    0    0 -0.25707177043E+02  0.57429645227E+01 -0.12102320205E+02  0.28988044904E+02  0.00000000000E+00 0.  1.
</event>
<event>
 5    1  0.1264859E-009  0.9118800E+02  0.7815553E-02  0.1125453E+00
         25   -1    0    0    0    0  0.00000000000E+00  0.00000000000E+00  0.99999998245E-14  0.12509000000E+03  0.12509000000E+03 0.  0.
        -13    1    3    3    0    0  0.26442019327E+01  0.40694778478E+02 -0.42092089334E+02  0.58607268728E+02  0.10566000000E+00 0.  1.
         23    2    1    0    0    0  0.72205538852E+01  0.26668313127E+02 -0.71283293056E+01  0.96556714137E+02  0.92244515516E+02 0.  0.
         13    1    3    3    0    0  0.45763519524E+01 -0.14026465351E+02  0.34963760028E+02  0.37949445408E+02  0.10566000000E+00 0. -1.
         22    1    1    0    0    0 -0.72205538852E+01 -0.26668313127E+02  0.71283293056E+01  0.28533285863E+02  0.00000000000E+00 0.  1.
</event>
<event>
 5    1  0.1264859E-009  0.9118800E+02  0.7815553E-02  0.1125453E+00
         25   -1    0    0    0    0  0.00000000000E+00  0.00000000000E+00  0.99999998245E-14  0.12509000000E+03  0.12509000000E+03 0.  0.
        -13    1    3    3    0    0  0.23566606051E+02 -0.61698327532E+01  0.32454585422E+02  0.40580328189E+02  0.10566000000E+00 0.  1.
         23    2    1    0    0    0 -0.26842952141E+02 -0.43801590358E+01  0.73899037453E+01  0.96905952204E+02  0.92716897178E+02 0.  0.
         13    1    3    3    0    0 -0.50409558192E+02  0.17896737174E+01 -0.25064681676E+02  0.56325624015E+02  0.10566000000E+00 0. -1.
         22    1    1    0    0    0  0.26842952141E+02  0.43801590358E+01 -0.73899037453E+01  0.28184047796E+02  0.00000000000E+00 0. -1.
</event>
<event>
 5    1  0.1264859E-009  0.9118800E+02  0.7815553E-02  0.1125453E+00
         25   -1    0    0    0    0  0.00000000000E+00  0.00000000000E+00  0.99999998245E-14  0.12509000000E+03  0.12509000000E+03 0.  0.
        -13    1    3    3    0    0 -0.75905403763E+01  0.45818074998E+01 -0.55734895337E+02  0.56435795249E+02  0.10566000000E+00 0.  1.
         23    2    1    0    0    0 -0.22240653480E+02  0.23102644582E+01 -0.20132141784E+02  0.95002010338E+02  0.90111568882E+02 0.  0.
         13    1    3    3    0    0 -0.14650113104E+02 -0.22715430416E+01  0.35602753553E+02  0.38566215089E+02  0.10566000000E+00 0. -1.
         22    1    1    0    0    0  0.22240653480E+02 -0.23102644582E+01  0.20132141784E+02  0.30087989662E+02  0.00000000000E+00 0. -1.
</event>
<event>
 5    1  0.1264859E-009  0.9118800E+02  0.7815553E-02  0.1125453E+00
         25   -1    0    0    0    0  0.00000000000E+00  0.00000000000E+00  0.99999998245E-14  0.12509000000E+03  0.12509000000E+03 0.  0.
        -13    1    3    3    0    0  0.17727933451E+02 -0.31264862888E+02  0.30213925881E+02  0.46953847095E+02  0.10566000000E+00 0.  1.
         23    2    1    0    0    0  0.27490037352E+02  0.93291896408E+01  0.52803941888E+01  0.95583754971E+02  0.90915541678E+02 0.  0.
         13    1    3    3    0    0  0.97621039009E+01  0.40594052529E+02 -0.24933531693E+02  0.48629907875E+02  0.10566000000E+00 0. -1.
         22    1    1    0    0    0 -0.27490037352E+02 -0.93291896408E+01 -0.52803941888E+01  0.29506245029E+02  0.00000000000E+00 0. -1.
</event>
<event>
 5    1  0.1264859E-009  0.9118800E+02  0.7815553E-02  0.1125453E+00
         25   -1    0    0    0    0  0.00000000000E+00  0.00000000000E+00  0.99999998245E-14  0.12509000000E+03  0.12509000000E+03 0.  0.
        -13    1    3    3    0    0  0.23078825960E+02 -0.41618113844E+01  0.28414931622E+02  0.36842534994E+02  0.10566000000E+00 0. -1.
         23    2    1    0    0    0  0.50864951134E+01  0.13147549875E+02 -0.25328793287E+02  0.96102446298E+02  0.91626425854E+02 0.  0.
         13    1    3    3    0    0 -0.17992330846E+02  0.17309361260E+02 -0.53743724909E+02  0.59259911303E+02  0.10566000000E+00 0.  1.
         22    1    1    0    0    0 -0.50864951134E+01 -0.13147549875E+02  0.25328793287E+02  0.28987553702E+02  0.00000000000E+00 0.  1.
</event>
<event>
 5    1  0.1264859E-009  0.9118800E+02  0.7815553E-02  0.1125453E+00
         25   -1    0    0    0    0  0.00000000000E+00  0.00000000000E+00  0.99999998245E-14  0.12509000000E+03  0.12509000000E+03 0.  0.
        -13    1    3    3    0    0 -0.45286251651E+02  0.25709918711E+02  0.33898183161E+02  0.62136482797E+02  0.10566000000E+00 0.  1.
         23    2    1    0    0    0 -0.21974477630E+02  0.67208028570E+01  0.14472033982E+02  0.97933295014E+02  0.94092739606E+02 0.  0.
         13    1    3    3    0    0  0.23311774021E+02 -0.18989115854E+02 -0.19426149179E+02  0.35796812217E+02  0.10566000000E+00 0. -1.
         22    1    1    0    0    0  0.21974477630E+02 -0.67208028570E+01 -0.14472033982E+02  0.27156704986E+02  0.00000000000E+00 0.  1.
</event>
<event>
 5    1  0.1264859E-009  0.9118800E+02  0.7815553E-02  0.1125453E+00
         25   -1    0    0    0    0  0.00000000000E+00  0.00000000000E+00  0.99999998245E-14  0.12509000000E+03  0.12509000000E+03 0.  0.
        -13    1    3    3    0    0 -0.40299114187E+02 -0.88783177368E+01 -0.38256386255E+02  0.56270821777E+02  0.10566000000E+00 0. -1.
         23    2    1    0    0    0 -0.17931032630E+02  0.15683946514E+02 -0.13438658758E+02  0.97738479774E+02  0.93833388354E+02 0.  0.
         13    1    3    3    0    0  0.22368081557E+02  0.24562264251E+02  0.24817727497E+02  0.41467657998E+02  0.10566000000E+00 0.  1.
         22    1    1    0    0    0  0.17931032630E+02 -0.15683946514E+02  0.13438658758E+02  0.27351520226E+02  0.00000000000E+00 0. -1.
</event>
<event>
 5    1  0.1264859E-009  0.9118800E+02  0.7815553E-02  0.1125453E+00
         25   -1    0    0    0    0  0.00000000000E+00  0.00000000000E+00  0.99999998245E-14  0.12509000000E+03  0.12509000000E+03 0.  0.
        -13    1    3    3    0    0  0.52522190724E+02  0.14917494479E+01 -0.62927770495E+01  0.52918957301E+02  0.10566000000E+00 0.  1.
         23    2    1    0    0    0  0.33706740820E+02 -0.23062875187E+02 -0.56409995095E+01  0.83860623773E+02  0.73025630813E+02 0.  0.
         13    1    3    3    0    0 -0.18815449904E+02 -0.24554624635E+02  0.65177754005E+00  0.30941666472E+02  0.10566000000E+00 0. -1.
         22    1    1    0    0    0 -0.33706740820E+02  0.23062875187E+02  0.56409995095E+01  0.41229376227E+02  0.00000000000E+00 0.  1.
</event>
<event>
 5    1  0.1264859E-009  0.9118800E+02  0.7815553E-02  0.1125453E+00
         25   -1    0    0    0    0  0.00000000000E+00  0.00000000000E+00  0.99999998245E-14  0.12509000000E+03  0.12509000000E+03 0.  0.
        -13    1    3    3    0    0  0.22879590843E+02  0.23180402099E+02 -0.29371461987E+02  0.43857732065E+02  0.10566000000E+00 0.  1.
         23    2    1    0    0    0 -0.10933830054E+02  0.15267408180E+02 -0.40601963203E+02  0.80355652926E+02  0.66752296956E+02 0.  0.
         13    1    3    3    0    0 -0.33813420897E+02 -0.79129939186E+01 -0.11230501217E+02  0.36497920861E+02  0.10566000000E+00 0. -1.
         22    1    1    0    0    0  0.10933830054E+02 -0.15267408180E+02  0.40601963203E+02  0.44734347074E+02  0.00000000000E+00 0. -1.
</event>
<event>
 5    1  0.1264859E-009  0.9118800E+02  0.7815553E-02  0.1125453E+00
         25   -1    0    0    0    0  0.00000000000E+00  0.00000000000E+00  0.99999998245E-14  0.12509000000E+03  0.12509000000E+03 0.  0.
        -13    1    3    3    0    0 -0.33762980910E+02 -0.14855522135E+02  0.97904008770E+01  0.38163969018E+02  0.10566000000E+00 0. -1.
         23    2    1    0    0    0  0.69005133079E+01  0.58149378134E+00 -0.28284601585E+02  0.95970008486E+02  0.91445440691E+02 0.  0.
         13    1    3    3    0    0  0.40663494218E+02  0.15437015917E+02 -0.38075002462E+02  0.57806039468E+02  0.10566000000E+00 0.  1.
         22    1    1    0    0    0 -0.69005133079E+01 -0.58149378134E+00  0.28284601585E+02  0.29119991514E+02  0.00000000000E+00 0.  1.
</event>
<event>
 5    1  0.1264859E-009  0.9118800E+02  0.7815553E-02  0.1125453E+00
         25   -1    0    0    0    0  0.00000000000E+00  0.00000000000E+00  0.99999998245E-14  0.12509000000E+03  0.12509000000E+03 0.  0.
        -13    1    3    3    0    0 -0.25139053216E+02 -0.52686593325E+02 -0.87442453670E+01  0.59028146709E+02  0.10566000000E+00 0. -1.
         23    2    1    0    0    0 -0.18089581817E+02 -0.23639495349E+02  0.92526435364E+01  0.93918376316E+02  0.88594533053E+02 0.  0.
         13    1    3    3    0    0  0.70494713987E+01  0.29047097976E+02  0.17996888903E+02  0.34890229608E+02  0.10566000000E+00 0.  1.
         22    1    1    0    0    0  0.18089581817E+02  0.23639495349E+02 -0.92526435364E+01  0.31171623684E+02  0.00000000000E+00 0. -1.
</event>
<event>
 5    1  0.1264859E-009  0.9118800E+02  0.7815553E-02  0.1125453E+00
         25   -1    0    0    0    0  0.00000000000E+00  0.00000000000E+00  0.99999998245E-14  0.12509000000E+03  0.12509000000E+03 0.  0.
        -13    1    3    3    0    0  0.13044722195E+02  0.56373065830E+01  0.34836517179E+02  0.37623637461E+02  0.10566000000E+00 0.  1.
         23    2    1    0    0    0 -0.28514748985E+02  0.19408403036E+02  0.59206226180E+01  0.90092417365E+02  0.83016943309E+02 0.  0.
         13    1    3    3    0    0 -0.41559471180E+02  0.13771096453E+02 -0.28915894561E+02  0.52468779904E+02  0.10566000000E+00 0. -1.
         22    1    1    0    0    0  0.28514748985E+02 -0.19408403036E+02 -0.59206226180E+01  0.34997582635E+02  0.00000000000E+00 0. -1.
</event>
<event>
 5    1  0.1264859E-009  0.9118800E+02  0.7815553E-02  0.1125453E+00
         25   -1    0    0    0    0  0.00000000000E+00  0.00000000000E+00  0.99999998245E-14  0.12509000000E+03  0.12509000000E+03 0.  0.
        -13    1    3    3    0    0 -0.38286771716E+02  0.30564340305E+01 -0.12483070191E+02  0.40386345252E+02  0.10566000000E+00 0. -1.
         23    2    1    0    0    0 -0.80583300625E+01  0.73284529950E+01  0.30269612713E+02  0.92920257065E+02  0.87173859686E+02 0.  0.
         13    1    3    3    0    0  0.30228441654E+02  0.42720189644E+01  0.42752682904E+02  0.52533911813E+02  0.10566000000E+00 0.  1.
         22    1    1    0    0    0  0.80583300625E+01 -0.73284529950E+01 -0.30269612713E+02  0.32169742935E+02  0.00000000000E+00 0.  1.
</event>
<event>
 5    1  0.1264859E-009  0.9118800E+02  0.7815553E-02  0.1125453E+00
         25   -1    0    0    0    0  0.00000000000E+00  0.00000000000E+00  0.99999998245E-14  0.12509000000E+03  0.12509000000E+03 0.  0.
        -13    1    3    3    0    0  0.41001773937E+01 -0.34939865222E+02  0.40169946488E+02  0.53397016783E+02  0.10566000000E+00 0.  1.
         23    2    1    0    0    0 -0.17952146750E+02 -0.38900108111E+01  0.24234446806E+02  0.94680788089E+02  0.89664549651E+02 0.  0.
         13    1    3    3    0    0 -0.22052324144E+02  0.31049854411E+02 -0.15935499682E+02  0.41283771306E+02  0.10566000000E+00 0. -1.
         22    1    1    0    0    0  0.17952146750E+02  0.38900108111E+01 -0.24234446806E+02  0.30409211911E+02  0.00000000000E+00 0. -1.
</event>
<event>
 5    1  0.1264859E-009  0.9118800E+02  0.7815553E-02  0.1125453E+00
         25   -1    0    0    0    0  0.00000000000E+00  0.00000000000E+00  0.99999998245E-14  0.12509000000E+03  0.12509000000E+03 0.  0.
        -13    1    3    3    0    0  0.39639757486E+02  0.74051502100E+00 -0.96567352983E+01  0.40805911786E+02  0.10566000000E+00 0.  1.
         23    2    1    0    0    0 -0.40558564601E+01  0.29336175931E+02  0.50250047075E+01  0.95051493676E+02  0.90180233909E+02 0.  0.
         13    1    3    3    0    0 -0.43695613946E+02  0.28595660910E+02  0.14681740006E+02  0.54245581890E+02  0.10566000000E+00 0. -1.
         22    1    1    0    0    0  0.40558564601E+01 -0.29336175931E+02 -0.50250047075E+01  0.30038506324E+02  0.00000000000E+00 0. -1.
</event>
<event>
 5    1  0.1264859E-009  0.9118800E+02  0.7815553E-02  0.1125453E+00
         25   -1    0    0    0    0  0.00000000000E+00  0.00000000000E+00  0.99999998245E-14  0.12509000000E+03  0.12509000000E+03 0.  0.
        -13    1    3    3    0    0  0.34138643689E+02 -0.51304504391E+02  0.85835542316E+01  0.62219673183E+02  0.10566000000E+00 0. -1.
         23    2    1    0    0    0  0.14421393247E+02 -0.22623890547E+02  0.82322326413E+01  0.97026025568E+02  0.92878754173E+02 0.  0.
         13    1    3    3    0    0 -0.19717250443E+02  0.28680613844E+02 -0.35132159037E+00  0.34806352385E+02  0.10566000000E+00 0.  1.
         22    1    1    0    0    0 -0.14421393247E+02  0.22623890547E+02 -0.82322326413E+01  0.28063974432E+02  0.00000000000E+00 0. -1.
</event>
<event>
 5    1  0.1264859E-009  0.9118800E+02  0.7815553E-02  0.1125453E+00
         25   -1    0    0    0    0  0.00000000000E+00  0.00000000000E+00  0.99999998245E-14  0.12509000000E+03  0.12509000000E+03 0.  0.
        -13    1    3    3    0    0  0.29924409865E+02  0.26722118580E+02 -0.25373091724E+02  0.47469430952E+02  0.10566000000E+00 0.  1.
         23    2    1    0    0    0  0.18426351745E+02  0.10697968540E+02  0.19324644076E+02  0.96325111017E+02  0.91929909030E+02 0.  0.
         13    1    3    3    0    0 -0.11498058120E+02 -0.16024150040E+02  0.44697735800E+02  0.48855680066E+02  0.10566000000E+00 0. -1.
         22    1    1    0    0    0 -0.18426351745E+02 -0.10697968540E+02 -0.19324644076E+02  0.28764888983E+02  0.00000000000E+00 0.  1.
</event>
<event>
 5    1  0.1264859E-009  0.9118800E+02  0.7815553E-02  0.1125453E+00
         25   -1    0    0    0    0  0.00000000000E+00  0.00000000000E+00  0.99999998245E-14  0.12509000000E+03  0.12509000000E+03 0.  0.
        -13    1    3    3    0    0 -0.12311411348E+02  0.17046051692E+02 -0.35326546522E+02  0.41111005593E+02  0.10566000000E+00 0. -1.
         23    2    1    0    0    0 -0.22736600835E+02  0.15256376790E+01  0.16988388235E+02  0.96666665877E+02  0.92393497440E+02 0.  0.
         13    1    3    3    0    0 -0.10425189487E+02 -0.15520414013E+02  0.52314934757E+02  0.55555660284E+02  0.10566000000E+00 0.  1.
         22    1    1    0    0    0  0.22736600835E+02 -0.15256376790E+01 -0.16988388235E+02  0.28423334123E+02  0.00000000000E+00 0.  1.
</event>
<event>
 5    1  0.1264859E-009  0.9118800E+02  0.7815553E-02  0.1125453E+00
         25   -1    0    0    0    0  0.00000000000E+00  0.00000000000E+00  0.99999998245E-14  0.12509000000E+03  0.12509000000E+03 0.  0.
        -13    1    3    3    0    0 -0.37268767535E+02 -0.21056609992E+02  0.18664128054E+02  0.46697994582E+02  0.10566000000E+00 0. -1.
         23    2    1    0    0    0  0.13431929317E+02 -0.19387974546E+02  0.14051197041E+02  0.97635557364E+02  0.93696081249E+02 0.  0.
         13    1    3    3    0    0  0.50700696852E+02  0.16686354463E+01 -0.46129310133E+01  0.50937562782E+02  0.10566000000E+00 0.  1.
         22    1    1    0    0    0 -0.13431929317E+02  0.19387974546E+02 -0.14051197041E+02  0.27454442636E+02  0.00000000000E+00 0. -1.
</event>
<event>
 5    1  0.1264859E-009  0.9118800E+02  0.7815553E-02  0.1125453E+00
         25   -1    0    0    0    0  0.00000000000E+00  0.00000000000E+00  0.99999998245E-14  0.12509000000E+03  0.12509000000E+03 0.  0.
        -13    1    3    3    0    0 -0.12172194587E+02 -0.46283896343E+02  0.20496496936E+02  0.52062260155E+02  0.10566000000E+00 0.  1.
         23    2    1    0    0    0  0.10148597493E+02 -0.27197053001E+02 -0.99865751864E+01  0.94391377767E+02  0.89259883429E+02 0.  0.
         13    1    3    3    0    0  0.22320792080E+02  0.19086843342E+02 -0.30483072122E+02  0.42329117613E+02  0.10566000000E+00 0. -1.
         22    1    1    0    0    0 -0.10148597493E+02  0.27197053001E+02  0.99865751864E+01  0.30698622233E+02  0.00000000000E+00 0.  1.
</event>
<event>
 5    1  0.1264859E-009  0.9118800E+02  0.7815553E-02  0.1125453E+00
         25   -1    0    0    0    0  0.00000000000E+00  0.00000000000E+00  0.99999998245E-14  0.12509000000E+03  0.12509000000E+03 0.  0.
        -13    1    3    3    0    0  0.42719978487E+02  0.43804343676E+02 -0.39668043046E+01  0.61315281841E+02  0.10566000000E+00 0. -1.
         23    2    1    0    0    0  0.33920267285E+02  0.23878100179E+02 -0.59289793603E+01  0.83186527625E+02  0.71861654456E+02 0.  0.
         13    1    3    3    0    0 -0.87997112014E+01 -0.19926243498E+02 -0.19621750557E+01  0.21871245784E+02  0.10566000000E+00 0.  1.
         22    1    1    0    0    0 -0.33920267285E+02 -0.23878100179E+02  0.59289793603E+01  0.41903472375E+02  0.00000000000E+00 0. -1.
</event>
<event>
 5    1  0.1264859E-009  0.9118800E+02  0.7815553E-02  0.1125453E+00
         25   -1    0    0    0    0  0.00000000000E+00  0.00000000000E+00  0.99999998245E-14  0.12509000000E+03  0.12509000000E+03 0.  0.
        -13    1    3    3    0    0 -0.17455585283E+02  0.18580251498E+02  0.28380643000E+02  0.38149643045E+02  0.10566000000E+00 0.  1.
         23    2    1    0    0    0 -0.15441856294E+02 -0.19081761982E+02 -0.15536466481E+02  0.96039245159E+02  0.91540101889E+02 0.  0.
         13    1    3    3    0    0  0.20137289885E+01 -0.37662013480E+02 -0.43917109481E+02  0.57889602114E+02  0.10566000000E+00 0. -1.
         22    1    1    0    0    0  0.15441856294E+02  0.19081761982E+02  0.15536466481E+02  0.29050754841E+02  0.00000000000E+00 0. -1.
</event>
<event>
 5    1  0.1264859E-009  0.9118800E+02  0.7815553E-02  0.1125453E+00
         25   -1    0    0    0    0  0.00000000000E+00  0.00000000000E+00  0.99999998245E-14  0.12509000000E+03  0.12509000000E+03 0.  0.
        -13    1    3    3    0    0  0.15494547461E+02  0.26062844559E+02  0.16169032750E+02  0.34362794584E+02  0.10566000000E+00 0. -1.
         23    2    1    0    0    0 -0.47807695227E+01 -0.13670779613E+02 -0.25731103067E+02  0.95563137019E+02  0.90887169168E+02 0.  0.
         13    1    3    3    0    0 -0.20275316984E+02 -0.39733624172E+02 -0.41900135816E+02  0.61200342435E+02  0.10566000000E+00 0.  1.
         22    1    1    0    0    0  0.47807695227E+01  0.13670779613E+02  0.25731103067E+02  0.29526862981E+02  0.00000000000E+00 0.  1.
</event>
<event>
 5    1  0.1264859E-009  0.9118800E+02  0.7815553E-02  0.1125453E+00
         25   -1    0    0    0    0  0.00000000000E+00  0.00000000000E+00  0.99999998245E-14  0.12509000000E+03  0.12509000000E+03 0.  0.
        -13    1    3    3    0    0  0.30545870227E+01 -0.37221591728E+02 -0.94596616027E+01  0.38526273559E+02  0.10566000000E+00 0.  1.
         23    2    1    0    0    0  0.20126015274E+02  0.86425294864E+01  0.19816306476E+02  0.95552975623E+02  0.90873182740E+02 0.  0.
         13    1    3    3    0    0  0.17071428251E+02  0.45864121215E+02  0.29275968078E+02  0.57026702064E+02  0.10566000000E+00 0. -1.
         22    1    1    0    0    0 -0.20126015274E+02 -0.86425294864E+01 -0.19816306476E+02  0.29537024377E+02  0.00000000000E+00 0. -1.
</event>
<event>
 5    1  0.1264859E-009  0.9118800E+02  0.7815553E-02  0.1125453E+00
         25   -1    0    0    0    0  0.00000000000E+00  0.00000000000E+00  0.99999998245E-14  0.12509000000E+03  0.12509000000E+03 0.  0.
        -13    1    3    3    0    0  0.42849329776E+02 -0.34890761031E+01 -0.23662392870E+01  0.43056346416E+02  0.10566000000E+00 0. -1.
         23    2    1    0    0    0  0.47639446045E+00 -0.24226917936E+02 -0.20253071788E+02  0.93509033878E+02  0.88014669206E+02 0.  0.
         13    1    3    3    0    0 -0.42372935315E+02 -0.20737841833E+02 -0.17886832501E+02  0.50452687462E+02  0.10566000000E+00 0.  1.
         22    1    1    0    0    0 -0.47639446045E+00  0.24226917936E+02  0.20253071788E+02  0.31580966122E+02  0.00000000000E+00 0.  1.
</event>
<event>
 5    1  0.1264859E-009  0.9118800E+02  0.7815553E-02  0.1125453E+00
         25   -1    0    0    0    0  0.00000000000E+00  0.00000000000E+00  0.99999998245E-14  0.12509000000E+03  0.12509000000E+03 0.  0.
        -13    1    3    3    0    0  0.11812874094E+02  0.34344521274E+02 -0.13100052685E+02  0.38609748514E+02  0.10566000000E+00 0. -1.
         23    2    1    0    0    0 -0.84974988926E+01 -0.35542099708E+01  0.26481512007E+02  0.97052340074E+02  0.92914188043E+02 0.  0.
         13    1    3    3    0    0 -0.20310372986E+02 -0.37898731245E+02  0.39581564692E+02  0.58442591561E+02  0.10566000000E+00 0.  1.
         22    1    1    0    0    0  0.84974988926E+01  0.35542099708E+01 -0.26481512007E+02  0.28037659926E+02  0.00000000000E+00 0.  1.
</event>
<event>
 5    1  0.1264859E-009  0.9118800E+02  0.7815553E-02  0.1125453E+00
         25   -1    0    0    0    0  0.00000000000E+00  0.00000000000E+00  0.99999998245E-14  0.12509000000E+03  0.12509000000E+03 0.  0.
        -13    1    3    3    0    0  0.12372812499E+02 -0.27003321809E+02 -0.44786738536E+02  0.53741315490E+02  0.10566000000E+00 0.  1.
         23    2    1    0    0    0 -0.14499953431E+02 -0.20078023834E+02 -0.96625807504E+01  0.98505396235E+02  0.94850260570E+02 0.  0.
         13    1    3    3    0    0 -0.26872765930E+02  0.69252979751E+01  0.35124157786E+02  0.44764080745E+02  0.10566000000E+00 0. -1.
         22    1    1    0    0    0  0.14499953431E+02  0.20078023834E+02  0.96625807504E+01  0.26584603765E+02  0.00000000000E+00 0.  1.
</event>
<event>
 5    1  0.1264859E-009  0.9118800E+02  0.7815553E-02  0.1125453E+00
         25   -1    0    0    0    0  0.00000000000E+00  0.00000000000E+00  0.99999998245E-14  0.12509000000E+03  0.12509000000E+03 0.  0.
        -13    1    3    3    0    0  0.36681619914E+01  0.46495198873E+02 -0.23930925841E+02  0.52420981547E+02  0.10566000000E+00 0.  1.
         23    2    1    0    0    0  0.24315904341E+02  0.38015973329E+02 -0.95815031376E+01  0.78956686284E+02  0.64077107258E+02 0.  0.
         13    1    3    3    0    0  0.20647742349E+02 -0.84792255445E+01  0.14349422704E+02  0.26535704737E+02  0.10566000000E+00 0. -1.
         22    1    1    0    0    0 -0.24315904341E+02 -0.38015973329E+02  0.95815031376E+01  0.46133313716E+02  0.00000000000E+00 0.  1.
</event>
<event>
 5    1  0.1264859E-009  0.9118800E+02  0.7815553E-02  0.1125453E+00
         25   -1    0    0    0    0  0.00000000000E+00  0.00000000000E+00  0.99999998245E-14  0.12509000000E+03  0.12509000000E+03 0.  0.
        -13    1    3    3    0    0  0.33197180364E+01  0.18593814198E+02  0.31277962362E+02  0.36538644581E+02  0.10566000000E+00 0.  1.
         23    2    1    0    0    0 -0.25563096531E+02  0.17663473541E+00 -0.16007418264E+02  0.94928094498E+02  0.90008902790E+02 0.  0.
         13    1    3    3    0    0 -0.28882814567E+02 -0.18417179462E+02 -0.47285380626E+02  0.58389449917E+02  0.10566000000E+00 0. -1.
         22    1    1    0    0    0  0.25563096531E+02 -0.17663473541E+00  0.16007418264E+02  0.30161905502E+02  0.00000000000E+00 0. -1.
</event>
<event>
 5    1  0.1264859E-009  0.9118800E+02  0.7815553E-02  0.1125453E+00
         25   -1    0    0    0    0  0.00000000000E+00  0.00000000000E+00  0.99999998245E-14  0.12509000000E+03  0.12509000000E+03 0.  0.
        -13    1    3    3    0    0 -0.44434497087E+02  0.25410667006E+02  0.13575476744E+02  0.52956881157E+02  0.10566000000E+00 0.  1.
         23    2    1    0    0    0 -0.30600092593E+01  0.28944164103E+02  0.83556229232E+01  0.94808904796E+02  0.89843106035E+02 0.  0.
         13    1    3    3    0    0  0.41374487828E+02  0.35334970972E+01 -0.52198538203E+01  0.41852023639E+02  0.10566000000E+00 0. -1.
         22    1    1    0    0    0  0.30600092593E+01 -0.28944164103E+02 -0.83556229232E+01  0.30281095204E+02  0.00000000000E+00 0.  1.
</event>
<event>
 5    1  0.1264859E-009  0.9118800E+02  0.7815553E-02  0.1125453E+00
         25   -1    0    0    0    0  0.00000000000E+00  0.00000000000E+00  0.99999998245E-14  0.12509000000E+03  0.12509000000E+03 0.  0.
        -13    1    3    3    0    0  0.23558785468E+02  0.22285496591E+02  0.22113732768E+02  0.39251599610E+02  0.10566000000E+00 0. -1.
         23    2    1    0    0    0  0.34722075698E+01  0.74595253576E+01 -0.28359068993E+02  0.95561411511E+02  0.90884794283E+02 0.  0.
         13    1    3    3    0    0 -0.20086577898E+02 -0.14825971233E+02 -0.50472801761E+02  0.56309811901E+02  0.10566000000E+00 0.  1.
         22    1    1    0    0    0 -0.34722075698E+01 -0.74595253576E+01  0.28359068993E+02  0.29528588489E+02  0.00000000000E+00 0.  1.
</event>
<event>
 5    1  0.1264859E-009  0.9118800E+02  0.7815553E-02  0.1125453E+00
         25   -1    0    0    0    0  0.00000000000E+00  0.00000000000E+00  0.99999998245E-14  0.12509000000E+03  0.12509000000E+03 0.  0.
        -13    1    3    3    0    0  0.24606032751E+02 -0.35443562377E+01  0.19343959268E+02  0.31499511632E+02  0.10566000000E+00 0. -1.
         23    2    1    0    0    0 -0.15457505404E+02  0.14889435492E+02 -0.23694019281E+02  0.93120697345E+02  0.87461008236E+02 0.  0.
         13    1    3    3    0    0 -0.40063538155E+02  0.18433791730E+02 -0.43037978548E+02  0.61621185712E+02  0.10566000000E+00 0.  1.
         22    1    1    0    0    0  0.15457505404E+02 -0.14889435492E+02  0.23694019281E+02  0.31969302655E+02  0.00000000000E+00 0.  1.
</event>
<event>
 5    1  0.1264859E-009  0.9118800E+02  0.7815553E-02  0.1125453E+00
         25   -1    0    0    0    0  0.00000000000E+00  0.00000000000E+00  0.99999998245E-14  0.12509000000E+03  0.12509000000E+03 0.  0.
        -13    1    3    3    0    0 -0.89407261453E+00 -0.36720049998E+02  0.33464300512E+02  0.49689355102E+02  0.10566000000E+00 0.  1.
         23    2    1    0    0    0 -0.26771478712E+02 -0.60992935247E+01  0.12718936791E+02  0.94829715682E+02  0.89872076694E+02 0.  0.
         13    1    3    3    0    0 -0.25877406097E+02  0.30620756474E+02 -0.20745363720E+02  0.45140360580E+02  0.10566000000E+00 0. -1.
         22    1    1    0    0    0  0.26771478712E+02  0.60992935247E+01 -0.12718936791E+02  0.30260284318E+02  0.00000000000E+00 0. -1.
</event>
<event>
 5    1  0.1264859E-009  0.9118800E+02  0.7815553E-02  0.1125453E+00
         25   -1    0    0    0    0  0.00000000000E+00  0.00000000000E+00  0.99999998245E-14  0.12509000000E+03  0.12509000000E+03 0.  0.
        -13    1    3    3    0    0 -0.51313324452E+02 -0.22466309051E+02  0.19912033552E+02  0.59449916340E+02  0.10566000000E+00 0. -1.
         23    2    1    0    0    0 -0.16056794420E+02 -0.11978282893E+02  0.20756629288E+02  0.96243205247E+02  0.91818391342E+02 0.  0.
         13    1    3    3    0    0  0.35256530032E+02  0.10488026158E+02  0.84459573641E+00  0.36793288906E+02  0.10566000000E+00 0.  1.
         22    1    1    0    0    0  0.16056794420E+02  0.11978282893E+02 -0.20756629288E+02  0.28846794753E+02  0.00000000000E+00 0. -1.
</event>
<event>
 5    1  0.1264859E-009  0.9118800E+02  0.7815553E-02  0.1125453E+00
         25   -1    0    0    0    0  0.00000000000E+00  0.00000000000E+00  0.99999998245E-14  0.12509000000E+03  0.12509000000E+03 0.  0.
        -13    1    3    3    0    0 -0.19100178317E+02 -0.27730967098E+02  0.40393451265E+02  0.52587692639E+02  0.10566000000E+00 0. -1.
         23    2    1    0    0    0 -0.27941951748E+02 -0.12660081757E+02  0.25044758430E+01  0.94311716474E+02  0.89148175121E+02 0.  0.
         13    1    3    3    0    0 -0.88417734306E+01  0.15070885341E+02 -0.37888975422E+02  0.41724023835E+02  0.10566000000E+00 0.  1.
         22    1    1    0    0    0  0.27941951748E+02  0.12660081757E+02 -0.25044758430E+01  0.30778283526E+02  0.00000000000E+00 0. -1.
</event>
<event>
 5    1  0.1264859E-009  0.9118800E+02  0.7815553E-02  0.1125453E+00
         25   -1    0    0    0    0  0.00000000000E+00  0.00000000000E+00  0.99999998245E-14  0.12509000000E+03  0.12509000000E+03 0.  0.
        -13    1    3    3    0    0  0.30258378971E+02  0.23538764055E+02  0.19797248428E+02  0.43146090443E+02  0.10566000000E+00 0.  1.
         23    2    1    0    0    0  0.50161532766E+01  0.18385304003E+02 -0.24294400473E+02  0.94212838678E+02  0.89009324682E+02 0.  0.
         13    1    3    3    0    0 -0.25242225694E+02 -0.51534600516E+01 -0.44091648900E+02  0.51066748235E+02  0.10566000000E+00 0. -1.
         22    1    1    0    0    0 -0.50161532766E+01 -0.18385304003E+02  0.24294400473E+02  0.30877161322E+02  0.00000000000E+00 0. -1.
</event>
<event>
 5    1  0.1264859E-009  0.9118800E+02  0.7815553E-02  0.1125453E+00
         25   -1    0    0    0    0  0.00000000000E+00  0.00000000000E+00  0.99999998245E-14  0.12509000000E+03  0.12509000000E+03 0.  0.
        -13    1    3    3    0    0  0.25207057544E+02 -0.64673665261E+01 -0.31481097594E+02  0.40844745679E+02  0.10566000000E+00 0.  1.
         23    2    1    0    0    0 -0.11287542930E+02 -0.26582584082E+02  0.44519982225E+01  0.95869071027E+02  0.91307261976E+02 0.  0.
         13    1    3    3    0    0 -0.36494600474E+02 -0.20115217556E+02  0.35933095816E+02  0.55024325348E+02  0.10566000000E+00 0. -1.
         22    1    1    0    0    0  0.11287542930E+02  0.26582584082E+02 -0.44519982225E+01  0.29220928973E+02  0.00000000000E+00 0. -1.
</event>
<event>
 5    1  0.1264859E-009  0.9118800E+02  0.7815553E-02  0.1125453E+00
         25   -1    0    0    0    0  0.00000000000E+00  0.00000000000E+00  0.99999998245E-14  0.12509000000E+03  0.12509000000E+03 0.  0.
        -13    1    3    3    0    0  0.23946971047E+02  0.20724804546E+02 -0.23850553749E+02  0.39646374664E+02  0.10566000000E+00 0.  1.
         23    2    1    0    0    0  0.10669738601E+02  0.11702123029E+01  0.27170316261E+02  0.95876325045E+02  0.91317199365E+02 0.  0.
         13    1    3    3    0    0 -0.13277232446E+02 -0.19554592243E+02  0.51020870010E+02  0.56229950381E+02  0.10566000000E+00 0. -1.
         22    1    1    0    0    0 -0.10669738601E+02 -0.11702123029E+01 -0.27170316261E+02  0.29213674955E+02  0.00000000000E+00 0. -1.
</event>
<event>
 5    1  0.1264859E-009  0.9118800E+02  0.7815553E-02  0.1125453E+00
         25   -1    0    0    0    0  0.00000000000E+00  0.00000000000E+00  0.99999998245E-14  0.12509000000E+03  0.12509000000E+03 0.  0.
        -13    1    3    3    0    0 -0.51607580345E+02  0.15174341839E+02 -0.93327350752E+00  0.53800419726E+02  0.10566000000E+00 0.  1.
         23    2    1    0    0    0 -0.16607344474E+02  0.14696632386E+02  0.20537547441E+02  0.94864418966E+02  0.89920366085E+02 0.  0.
         13    1    3    3    0    0  0.35000235870E+02 -0.47770945319E+00  0.21470820948E+02  0.41063999239E+02  0.10566000000E+00 0. -1.
         22    1    1    0    0    0  0.16607344474E+02 -0.14696632386E+02 -0.20537547441E+02  0.30225581034E+02  0.00000000000E+00 0.  1.
</event>
<event>
 5    1  0.1264859E-009  0.9118800E+02  0.7815553E-02  0.1125453E+00
         25   -1    0    0    0    0  0.00000000000E+00  0.00000000000E+00  0.99999998245E-14  0.12509000000E+03  0.12509000000E+03 0.  0.
        -13    1    3    3    0    0  0.29945130698E+02 -0.27274304851E+02  0.42303840029E+02  0.58568119339E+02  0.10566000000E+00 0.  1.
         23    2    1    0    0    0 -0.31582717139E+00 -0.13847974793E+02  0.26357598467E+02  0.95314353078E+02  0.90544114956E+02 0.  0.
         13    1    3    3    0    0 -0.30260957870E+02  0.13426330059E+02 -0.15946241562E+02  0.36746233739E+02  0.10566000000E+00 0. -1.
         22    1    1    0    0    0  0.31582717139E+00  0.13847974793E+02 -0.26357598467E+02  0.29775646922E+02  0.00000000000E+00 0.  1.
</event>
<event>
 5    1  0.1264859E-009  0.9118800E+02  0.7815553E-02  0.1125453E+00
         25   -1    0    0    0    0  0.00000000000E+00  0.00000000000E+00  0.99999998245E-14  0.12509000000E+03  0.12509000000E+03 0.  0.
        -13    1    3    3    0    0 -0.49007841876E+02  0.21160199931E+02 -0.19257050211E+02  0.56748284320E+02  0.10566000000E+00 0. -1.
         23    2    1    0    0    0 -0.26311255864E+02 -0.87112044985E+01 -0.47570382702E+01  0.96968892588E+02  0.92801775025E+02 0.  0.
         13    1    3    3    0    0  0.22696586012E+02 -0.29871404429E+02  0.14500011941E+02  0.40220608268E+02  0.10566000000E+00 0.  1.
         22    1    1    0    0    0  0.26311255864E+02  0.87112044985E+01  0.47570382702E+01  0.28121107412E+02  0.00000000000E+00 0. -1.
</event>
<event>
 5    1  0.1264859E-009  0.9118800E+02  0.7815553E-02  0.1125453E+00
         25   -1    0    0    0    0  0.00000000000E+00  0.00000000000E+00  0.99999998245E-14  0.12509000000E+03  0.12509000000E+03 0.  0.
        -13    1    3    3    0    0 -0.18132828271E+02 -0.49981439969E+02 -0.24766565188E+02  0.58654392143E+02  0.10566000000E+00 0.  1.
         23    2    1    0    0    0  0.44893085587E+01 -0.26786068014E+02 -0.28283086434E+01  0.97783468533E+02  0.93893344054E+02 0.  0.
         13    1    3    3    0    0  0.22622136829E+02  0.23195371955E+02  0.21938256544E+02  0.39129076390E+02  0.10566000000E+00 0. -1.
         22    1    1    0    0    0 -0.44893085587E+01  0.26786068014E+02  0.28283086434E+01  0.27306531467E+02  0.00000000000E+00 0.  1.
</event>
<event>
 5    1  0.1264859E-009  0.9118800E+02  0.7815553E-02  0.1125453E+00
         25   -1    0    0    0    0  0.00000000000E+00  0.00000000000E+00  0.99999998245E-14  0.12509000000E+03  0.12509000000E+03 0.  0.
        -13    1    3    3    0    0  0.92752976314E+01 -0.29265148435E+02  0.11679319044E+02  0.32846578459E+02  0.10566000000E+00 0. -1.
         23    2    1    0    0    0  0.23803723140E+02  0.21943788896E+02 -0.11264941149E+02  0.90811055945E+02  0.84092817032E+02 0.  0.
         13    1    3    3    0    0  0.14528425508E+02  0.51208937331E+02 -0.22944260193E+02  0.57964477486E+02  0.10566000000E+00 0.  1.
         22    1    1    0    0    0 -0.23803723140E+02 -0.21943788896E+02  0.11264941149E+02  0.34278944055E+02  0.00000000000E+00 0.  1.
</event>
<event>
 5    1  0.1264859E-009  0.9118800E+02  0.7815553E-02  0.1125453E+00
         25   -1    0    0    0    0  0.00000000000E+00  0.00000000000E+00  0.99999998245E-14  0.12509000000E+03  0.12509000000E+03 0.  0.
        -13    1    3    3    0    0 -0.20311137286E+02  0.29369321789E+02  0.19368917692E+02  0.40623459932E+02  0.10566000000E+00 0. -1.
         23    2    1    0    0    0  0.17193543869E+02  0.15618627012E+02 -0.18292105824E+02  0.95523793007E+02  0.90833003002E+02 0.  0.
         13    1    3    3    0    0  0.37504681155E+02 -0.13750694778E+02 -0.37661023516E+02  0.54900333075E+02  0.10566000000E+00 0.  1.
         22    1    1    0    0    0 -0.17193543869E+02 -0.15618627012E+02  0.18292105824E+02  0.29566206993E+02  0.00000000000E+00 0.  1.
</event>
<event>
 5    1  0.1264859E-009  0.9118800E+02  0.7815553E-02  0.1125453E+00
         25   -1    0    0    0    0  0.00000000000E+00  0.00000000000E+00  0.99999998245E-14  0.12509000000E+03  0.12509000000E+03 0.  0.
        -13    1    3    3    0    0 -0.63435640565E+01  0.30017585751E+01 -0.32306807986E+02  0.33060435051E+02  0.10566000000E+00 0. -1.
         23    2    1    0    0    0  0.10871929773E+02  0.44132954329E+01  0.27435975610E+02  0.95250281649E+02  0.90455554628E+02 0.  0.
         13    1    3    3    0    0  0.17215493829E+02  0.14115368579E+01  0.59742783596E+02  0.62189846598E+02  0.10566000000E+00 0.  1.
         22    1    1    0    0    0 -0.10871929773E+02 -0.44132954329E+01 -0.27435975610E+02  0.29839718351E+02  0.00000000000E+00 0.  1.
</event>
<event>
 5    1  0.1264859E-009  0.9118800E+02  0.7815553E-02  0.1125453E+00
         25   -1    0    0    0    0  0.00000000000E+00  0.00000000000E+00  0.99999998245E-14  0.12509000000E+03  0.12509000000E+03 0.  0.
        -13    1    3    3    0    0 -0.15420710293E+02 -0.19427622927E+02  0.46200132898E+02  0.52437527424E+02  0.10566000000E+00 0. -1.
         23    2    1    0    0    0 -0.25826958630E+02  0.57574023974E+01  0.12362710485E+02  0.95883560899E+02  0.91327110793E+02 0.  0.
         13    1    3    3    0    0 -0.10406248337E+02  0.25185025324E+02 -0.33837422414E+02  0.43446033475E+02  0.10566000000E+00 0.  1.
         22    1    1    0    0    0  0.25826958630E+02 -0.57574023974E+01 -0.12362710485E+02  0.29206439101E+02  0.00000000000E+00 0. -1.
</event>
<event>
 5    1  0.1264859E-009  0.9118800E+02  0.7815553E-02  0.1125453E+00
         25   -1    0    0    0    0  0.00000000000E+00  0.00000000000E+00  0.99999998245E-14  0.12509000000E+03  0.12509000000E+03 0.  0.
        -13    1    3    3    0    0  0.80461754881E+01  0.32586993373E+02 -0.33994704420E+02  0.47773467215E+02  0.10566000000E+00 0. -1.
         23    2    1    0    0    0  0.11125417124E+02  0.24600567683E+02  0.12704668659E+02  0.95250907483E+02  0.90456420082E+02 0.  0.
         13    1    3    3    0    0  0.30792416362E+01 -0.79864256900E+01  0.46699373079E+02  0.47477440268E+02  0.10566000000E+00 0.  1.
         22    1    1    0    0    0 -0.11125417124E+02 -0.24600567683E+02 -0.12704668659E+02  0.29839092517E+02  0.00000000000E+00 0.  1.
</event>
<event>
 5    1  0.1264859E-009  0.9118800E+02  0.7815553E-02  0.1125453E+00
         25   -1    0    0    0    0  0.00000000000E+00  0.00000000000E+00  0.99999998245E-14  0.12509000000E+03  0.12509000000E+03 0.  0.
        -13    1    3    3    0    0  0.41520975539E+02  0.38215297676E+02 -0.16608889810E+02  0.58824032257E+02  0.10566000000E+00 0. -1.
         23    2    1    0    0    0  0.21806059958E+02  0.82185646440E+01 -0.19316508805E+02  0.94821591253E+02  0.89860767855E+02 0.  0.
         13    1    3    3    0    0 -0.19714915581E+02 -0.29996733032E+02 -0.27076189953E+01  0.35997558996E+02  0.10566000000E+00 0.  1.
         22    1    1    0    0    0 -0.21806059958E+02 -0.82185646440E+01  0.19316508805E+02  0.30268408747E+02  0.00000000000E+00 0. -1.
</event>
<event>
 5    1  0.1264859E-009  0.9118800E+02  0.7815553E-02  0.1125453E+00
         25   -1    0    0    0    0  0.00000000000E+00  0.00000000000E+00  0.99999998245E-14  0.12509000000E+03  0.12509000000E+03 0.  0.
        -13    1    3    3    0    0 -0.27398844801E+02  0.27283799279E+02  0.31378032982E+02  0.49796531179E+02  0.10566000000E+00 0. -1.
         23    2    1    0    0    0  0.13280154966E+02  0.66999507119E+01  0.25232835226E+02  0.95799253526E+02  0.91211562574E+02 0.  0.
         13    1    3    3    0    0  0.40678999767E+02 -0.20583848568E+02 -0.61451977563E+01  0.46002722347E+02  0.10566000000E+00 0.  1.
         22    1    1    0    0    0 -0.13280154966E+02 -0.66999507119E+01 -0.25232835226E+02  0.29290746474E+02  0.00000000000E+00 0. -1.
</event>
<event>
 5    1  0.1264859E-009  0.9118800E+02  0.7815553E-02  0.1125453E+00
         25   -1    0    0    0    0  0.00000000000E+00  0.00000000000E+00  0.99999998245E-14  0.12509000000E+03  0.12509000000E+03 0.  0.
        -13    1    3    3    0    0 -0.13032319687E+02 -0.34233058321E+02  0.46526686934E+02  0.59215600981E+02  0.10566000000E+00 0. -1.
         23    2    1    0    0    0 -0.15157591519E+02 -0.22270802792E+02  0.12413436546E+02  0.95427993248E+02  0.90700977122E+02 0.  0.
         13    1    3    3    0    0 -0.21252718322E+01  0.11962255529E+02 -0.34113250388E+02  0.36212392268E+02  0.10566000000E+00 0.  1.
         22    1    1    0    0    0  0.15157591519E+02  0.22270802792E+02 -0.12413436546E+02  0.29662006752E+02  0.00000000000E+00 0. -1.
</event>
<event>
 5    1  0.1264859E-009  0.9118800E+02  0.7815553E-02  0.1125453E+00
         25   -1    0    0    0    0  0.00000000000E+00  0.00000000000E+00  0.99999998245E-14  0.12509000000E+03  0.12509000000E+03 0.  0.
        -13    1    3    3    0    0  0.16790332167E+02  0.32646872451E+02 -0.43115492531E+02  0.56627646917E+02  0.10566000000E+00 0.  1.
         23    2    1    0    0    0  0.11363135119E+00  0.63382589129E+00 -0.30075920300E+02  0.95007187146E+02  0.90118754875E+02 0.  0.
         13    1    3    3    0    0 -0.16676700816E+02 -0.32013046560E+02  0.13039572232E+02  0.38379540229E+02  0.10566000000E+00 0. -1.
         22    1    1    0    0    0 -0.11363135119E+00 -0.63382589129E+00  0.30075920300E+02  0.30082812854E+02  0.00000000000E+00 0.  1.
</event>
<event>
 5    1  0.1264859E-009  0.9118800E+02  0.7815553E-02  0.1125453E+00
         25   -1    0    0    0    0  0.00000000000E+00  0.00000000000E+00  0.99999998245E-14  0.12509000000E+03  0.12509000000E+03 0.  0.
        -13    1    3    3    0    0 -0.28753385128E+02  0.45264751767E+02 -0.28391337093E+02  0.60677294722E+02  0.10566000000E+00 0. -1.
         23    2    1    0    0    0 -0.28294424585E+02  0.25637745652E+02 -0.18420617292E+02  0.82696750465E+02  0.71003978278E+02 0.  0.
         13    1    3    3    0    0  0.45896054288E+00 -0.19627006115E+02  0.99707198012E+01  0.22019455742E+02  0.10566000000E+00 0.  1.
         22    1    1    0    0    0  0.28294424585E+02 -0.25637745652E+02  0.18420617292E+02  0.42393249535E+02  0.00000000000E+00 0. -1.
</event>
<event>
 5    1  0.1264859E-009  0.9118800E+02  0.7815553E-02  0.1125453E+00
         25   -1    0    0    0    0  0.00000000000E+00  0.00000000000E+00  0.99999998245E-14  0.12509000000E+03  0.12509000000E+03 0.  0.
        -13    1    3    3    0    0 -0.20758521992E+02  0.40176383292E+02  0.22189537110E+02  0.50373055604E+02  0.10566000000E+00 0.  1.
         23    2    1    0    0    0 -0.29692495597E+02  0.52299806891E+01 -0.36165441481E+01  0.94724289332E+02  0.89725217220E+02 0.  0.
         13    1    3    3    0    0 -0.89339736047E+01 -0.34946402603E+02 -0.25806081258E+02  0.44351233728E+02  0.10566000000E+00 0. -1.
         22    1    1    0    0    0  0.29692495597E+02 -0.52299806891E+01  0.36165441481E+01  0.30365710668E+02  0.00000000000E+00 0.  1.
</event>
<event>
 5    1  0.1264859E-009  0.9118800E+02  0.7815553E-02  0.1125453E+00
         25   -1    0    0    0    0  0.00000000000E+00  0.00000000000E+00  0.99999998245E-14  0.12509000000E+03  0.12509000000E+03 0.  0.
        -13    1    3    3    0    0  0.52823720350E+02 -0.37970528345E+01  0.33233721745E+02  0.62524031116E+02  0.10566000000E+00 0.  1.
         23    2    1    0    0    0  0.24301401324E+02 -0.15782262765E+01  0.16615287274E+02  0.95609215145E+02  0.90950565391E+02 0.  0.
         13    1    3    3    0    0 -0.28522319026E+02  0.22188265580E+01 -0.16618434471E+02  0.33085184029E+02  0.10566000000E+00 0. -1.
         22    1    1    0    0    0 -0.24301401324E+02  0.15782262765E+01 -0.16615287274E+02  0.29480784855E+02  0.00000000000E+00 0.  1.
</event>
<event>
 5    1  0.1264859E-009  0.9118800E+02  0.7815553E-02  0.1125453E+00
         25   -1    0    0    0    0  0.00000000000E+00  0.00000000000E+00  0.99999998245E-14  0.12509000000E+03  0.12509000000E+03 0.  0.
        -13    1    3    3    0    0 -0.92240848589E+00  0.41764171894E+02  0.33366338916E+02  0.53464199499E+02  0.10566000000E+00 0.  1.
         23    2    1    0    0    0 -0.65544748378E+01  0.32130960826E+02 -0.36207326815E+01  0.92098039023E+02  0.85985925027E+02 0.  0.
         13    1    3    3    0    0 -0.56320663519E+01 -0.96332110683E+01 -0.36987071598E+02  0.38633839523E+02  0.10566000000E+00 0. -1.
         22    1    1    0    0    0  0.65544748378E+01 -0.32130960826E+02  0.36207326815E+01  0.32991960977E+02  0.00000000000E+00 0.  1.
</event>
<event>
 5    1  0.1264859E-009  0.9118800E+02  0.7815553E-02  0.1125453E+00
         25   -1    0    0    0    0  0.00000000000E+00  0.00000000000E+00  0.99999998245E-14  0.12509000000E+03  0.12509000000E+03 0.  0.
        -13    1    3    3    0    0  0.26552810673E+02 -0.30573379852E+02 -0.28640222741E+01  0.40595530515E+02  0.10566000000E+00 0. -1.
         23    2    1    0    0    0  0.23702773959E+01  0.13601396698E+02  0.23796789199E+02  0.97578122869E+02  0.93619371283E+02 0.  0.
         13    1    3    3    0    0 -0.24182533277E+02  0.44174776550E+02  0.26660811473E+02  0.56982592354E+02  0.10566000000E+00 0.  1.
         22    1    1    0    0    0 -0.23702773959E+01 -0.13601396698E+02 -0.23796789199E+02  0.27511877131E+02  0.00000000000E+00 0. -1.
</event>
<event>
 4    1  0.1264859E-009  0.9118800E+02  0.7815553E-02  0.1125453E+00
         25   -1    0    0    0    0  0.00000000000E+00  0.00000000000E+00  0.99999998245E-14  0.12509000000E+03  0.12509000000E+03 0.  0.
        -13    1    1    0    0    0 -0.18780324858E+02 -0.37801831063E+02 -0.18590342536E+02  0.46122565336E+02  0.10566000000E+00 0.  1.
         13    1    1    0    0    0 -0.17661303987E+02  0.15259940727E+02 -0.12070825537E+02  0.26277432194E+02  0.10566000000E+00 0. -1.
         22    1    1    0    0    0  0.36441628845E+02  0.22541890336E+02  0.30661168073E+02  0.52690002471E+02  0.00000000000E+00 0.  1.
</event>
<event>
 5    1  0.1264859E-009  0.9118800E+02  0.7815553E-02  0.1125453E+00
         25   -1    0    0    0    0  0.00000000000E+00  0.00000000000E+00  0.99999998245E-14  0.12509000000E+03  0.12509000000E+03 0.  0.
        -13    1    3    3    0    0  0.38237308011E+02 -0.12893870801E+02 -0.43284563809E+02  0.59176923343E+02  0.10566000000E+00 0. -1.
         23    2    1    0    0    0  0.85130339753E+01  0.22367288466E+01 -0.27762321962E+02  0.95965762257E+02  0.91439632006E+02 0.  0.
         13    1    3    3    0    0 -0.29724274035E+02  0.15130599648E+02  0.15522241847E+02  0.36788838914E+02  0.10566000000E+00 0.  1.
         22    1    1    0    0    0 -0.85130339753E+01 -0.22367288466E+01  0.27762321962E+02  0.29124237743E+02  0.00000000000E+00 0. -1.
</event>
<event>
 5    1  0.1264859E-009  0.9118800E+02  0.7815553E-02  0.1125453E+00
         25   -1    0    0    0    0  0.00000000000E+00  0.00000000000E+00  0.99999998245E-14  0.12509000000E+03  0.12509000000E+03 0.  0.
        -13    1    3    3    0    0  0.34518142682E+02 -0.34895892421E+02  0.25671130117E+02  0.55391728332E+02  0.10566000000E+00 0. -1.
         23    2    1    0    0    0  0.29153126294E+02 -0.22423584834E+01  0.25926588067E+01  0.95736042448E+02  0.91124831959E+02 0.  0.
         13    1    3    3    0    0 -0.53650163874E+01  0.32653533938E+02 -0.23078471310E+02  0.40344314116E+02  0.10566000000E+00 0.  1.
         22    1    1    0    0    0 -0.29153126294E+02  0.22423584834E+01 -0.25926588067E+01  0.29353957552E+02  0.00000000000E+00 0. -1.
</event>
<event>
 5    1  0.1264859E-009  0.9118800E+02  0.7815553E-02  0.1125453E+00
         25   -1    0    0    0    0  0.00000000000E+00  0.00000000000E+00  0.99999998245E-14  0.12509000000E+03  0.12509000000E+03 0.  0.
        -13    1    3    3    0    0  0.48532649540E+02  0.19622521694E+02  0.25014501907E+02  0.58018944309E+02  0.10566000000E+00 0.  1.
         23    2    1    0    0    0  0.20378585384E+02 -0.40433491199E+01  0.21857861165E+02  0.94933715264E+02  0.90016713919E+02 0.  0.
         13    1    3    3    0    0 -0.28154064156E+02 -0.23665870814E+02 -0.31566407425E+01  0.36914770955E+02  0.10566000000E+00 0. -1.
         22    1    1    0    0    0 -0.20378585384E+02  0.40433491199E+01 -0.21857861165E+02  0.30156284736E+02  0.00000000000E+00 0.  1.
</event>
<event>
 5    1  0.1264859E-009  0.9118800E+02  0.7815553E-02  0.1125453E+00
         25   -1    0    0    0    0  0.00000000000E+00  0.00000000000E+00  0.99999998245E-14  0.12509000000E+03  0.12509000000E+03 0.  0.
        -13    1    3    3    0    0 -0.35227447459E+02  0.11991001581E+02 -0.33109913441E+02  0.49809986002E+02  0.10566000000E+00 0.  1.
         23    2    1    0    0    0 -0.15989759931E+02 -0.22518494782E+02 -0.92553029377E+01  0.95962424365E+02  0.91435065635E+02 0.  0.
         13    1    3    3    0    0  0.19237687528E+02 -0.34509496362E+02  0.23854610503E+02  0.46152438364E+02  0.10566000000E+00 0. -1.
         22    1    1    0    0    0  0.15989759931E+02  0.22518494782E+02  0.92553029377E+01  0.29127575635E+02  0.00000000000E+00 0. -1.
</event>
<event>
 5    1  0.1264859E-009  0.9118800E+02  0.7815553E-02  0.1125453E+00
         25   -1    0    0    0    0  0.00000000000E+00  0.00000000000E+00  0.99999998245E-14  0.12509000000E+03  0.12509000000E+03 0.  0.
        -13    1    3    3    0    0 -0.33675398063E+02 -0.24713599771E+01  0.51166078192E+02  0.61303497261E+02  0.10566000000E+00 0.  1.
         23    2    1    0    0    0 -0.18227873688E+02 -0.91559357754E+01  0.21221052267E+02  0.95654993657E+02  0.91013505663E+02 0.  0.
         13    1    3    3    0    0  0.15447524375E+02 -0.66845757982E+01 -0.29945025925E+02  0.34351496396E+02  0.10566000000E+00 0. -1.
         22    1    1    0    0    0  0.18227873688E+02  0.91559357754E+01 -0.21221052267E+02  0.29435006343E+02  0.00000000000E+00 0.  1.
</event>
<event>
 5    1  0.1264859E-009  0.9118800E+02  0.7815553E-02  0.1125453E+00
         25   -1    0    0    0    0  0.00000000000E+00  0.00000000000E+00  0.99999998245E-14  0.12509000000E+03  0.12509000000E+03 0.  0.
        -13    1    3    3    0    0 -0.77861132163E+01  0.42112380065E+01  0.36423106993E+02  0.37483489320E+02  0.10566000000E+00 0. -1.
         23    2    1    0    0    0 -0.18962889801E+02 -0.58874588018E+01 -0.20609400454E+02  0.96471810891E+02  0.92129308848E+02 0.  0.
         13    1    3    3    0    0 -0.11176776585E+02 -0.10098696808E+02 -0.57032507447E+02  0.58988321571E+02  0.10566000000E+00 0.  1.
         22    1    1    0    0    0  0.18962889801E+02  0.58874588018E+01  0.20609400454E+02  0.28618189109E+02  0.00000000000E+00 0.  1.
</event>
<event>
 5    1  0.1264859E-009  0.9118800E+02  0.7815553E-02  0.1125453E+00
         25   -1    0    0    0    0  0.00000000000E+00  0.00000000000E+00  0.99999998245E-14  0.12509000000E+03  0.12509000000E+03 0.  0.
        -13    1    3    3    0    0  0.52715908002E+00 -0.40800390684E+02 -0.74904641791E+01  0.41485756523E+02  0.10566000000E+00 0.  1.
         23    2    1    0    0    0  0.27041342649E+02  0.74361078771E+01 -0.51286336082E+01  0.96579777354E+02  0.92275785548E+02 0.  0.
         13    1    3    3    0    0  0.26514183569E+02  0.48236498561E+02  0.23618305709E+01  0.55094020832E+02  0.10566000000E+00 0. -1.
         22    1    1    0    0    0 -0.27041342649E+02 -0.74361078771E+01  0.51286336082E+01  0.28510222646E+02  0.00000000000E+00 0. -1.
</event>
<event>
 5    1  0.1264859E-009  0.9118800E+02  0.7815553E-02  0.1125453E+00
         25   -1    0    0    0    0  0.00000000000E+00  0.00000000000E+00  0.99999998245E-14  0.12509000000E+03  0.12509000000E+03 0.  0.
        -13    1    3    3    0    0 -0.38306443751E+02  0.16621147099E+02  0.38491125869E+02  0.56791056500E+02  0.10566000000E+00 0. -1.
         23    2    1    0    0    0 -0.25123053461E+02  0.17810628381E+02  0.36298716875E+01  0.94080932504E+02  0.88823755797E+02 0.  0.
         13    1    3    3    0    0  0.13183390290E+02  0.11894812824E+01 -0.34861254181E+02  0.37289876004E+02  0.10566000000E+00 0.  1.
         22    1    1    0    0    0  0.25123053461E+02 -0.17810628381E+02 -0.36298716875E+01  0.31009067496E+02  0.00000000000E+00 0. -1.
</event>
<event>
 5    1  0.1264859E-009  0.9118800E+02  0.7815553E-02  0.1125453E+00
         25   -1    0    0    0    0  0.00000000000E+00  0.00000000000E+00  0.99999998245E-14  0.12509000000E+03  0.12509000000E+03 0.  0.
        -13    1    3    3    0    0 -0.35193183889E+02 -0.16148202436E+02  0.16065982778E+02  0.41921970383E+02  0.10566000000E+00 0.  1.
         23    2    1    0    0    0 -0.20650896548E+00  0.26081803766E+02  0.10234123603E+02  0.97071427239E+02  0.92939881465E+02 0.  0.
         13    1    3    3    0    0  0.34986674923E+02  0.42230006202E+02 -0.58318591741E+01  0.55149456856E+02  0.10566000000E+00 0. -1.
         22    1    1    0    0    0  0.20650896548E+00 -0.26081803766E+02 -0.10234123603E+02  0.28018572761E+02  0.00000000000E+00 0. -1.
</event>
<event>
 5    1  0.1264859E-009  0.9118800E+02  0.7815553E-02  0.1125453E+00
         25   -1    0    0    0    0  0.00000000000E+00  0.00000000000E+00  0.99999998245E-14  0.12509000000E+03  0.12509000000E+03 0.  0.
        -13    1    3    3    0    0 -0.10932639615E+02 -0.95683083105E+01  0.44934381545E+02  0.47224833952E+02  0.10566000000E+00 0. -1.
         23    2    1    0    0    0  0.24379930877E+02  0.54680043689E+01  0.14550972955E+02  0.96176146655E+02  0.91726987687E+02 0.  0.
         13    1    3    3    0    0  0.35312570492E+02  0.15036312679E+02 -0.30383408591E+02  0.48951312703E+02  0.10566000000E+00 0.  1.
         22    1    1    0    0    0 -0.24379930877E+02 -0.54680043689E+01 -0.14550972955E+02  0.28913853345E+02  0.00000000000E+00 0.  1.
</event>
<event>
 5    1  0.1264859E-009  0.9118800E+02  0.7815553E-02  0.1125453E+00
         25   -1    0    0    0    0  0.00000000000E+00  0.00000000000E+00  0.99999998245E-14  0.12509000000E+03  0.12509000000E+03 0.  0.
        -13    1    3    3    0    0  0.45195626498E+01 -0.33432378845E+02 -0.18061567648E+02  0.38267241757E+02  0.10566000000E+00 0.  1.
         23    2    1    0    0    0 -0.14986656631E+02 -0.14891267570E+01  0.25360970009E+02  0.95594302428E+02  0.90930052685E+02 0.  0.
         13    1    3    3    0    0 -0.19506219281E+02  0.31943252088E+02  0.43422537657E+02  0.57327060671E+02  0.10566000000E+00 0. -1.
         22    1    1    0    0    0  0.14986656631E+02  0.14891267570E+01 -0.25360970009E+02  0.29495697572E+02  0.00000000000E+00 0. -1.
</event>
<event>
 5    1  0.1264859E-009  0.9118800E+02  0.7815553E-02  0.1125453E+00
         25   -1    0    0    0    0  0.00000000000E+00  0.00000000000E+00  0.99999998245E-14  0.12509000000E+03  0.12509000000E+03 0.  0.
        -13    1    3    3    0    0  0.49928784210E+02  0.30955170470E+01 -0.22203099406E+02  0.54730745525E+02  0.10566000000E+00 0. -1.
         23    2    1    0    0    0  0.17896642241E+02 -0.20296173879E+02 -0.10208193999E+02  0.96168871005E+02  0.91717065195E+02 0.  0.
         13    1    3    3    0    0 -0.32032141969E+02 -0.23391690926E+02  0.11994905407E+02  0.41438125480E+02  0.10566000000E+00 0.  1.
         22    1    1    0    0    0 -0.17896642241E+02  0.20296173879E+02  0.10208193999E+02  0.28921128995E+02  0.00000000000E+00 0. -1.
</event>
<event>
 5    1  0.1264859E-009  0.9118800E+02  0.7815553E-02  0.1125453E+00
         25   -1    0    0    0    0  0.00000000000E+00  0.00000000000E+00  0.99999998245E-14  0.12509000000E+03  0.12509000000E+03 0.  0.
        -13    1    3    3    0    0  0.13361206386E+02  0.32840042334E+02 -0.15823394604E+02  0.38825007372E+02  0.10566000000E+00 0.  1.
         23    2    1    0    0    0 -0.18836408581E+02  0.39464653916E+01  0.21694992227E+02  0.96089007516E+02  0.91608077157E+02 0.  0.
         13    1    3    3    0    0 -0.32197614967E+02 -0.28893576943E+02  0.37518386831E+02  0.57264000144E+02  0.10566000000E+00 0. -1.
         22    1    1    0    0    0  0.18836408581E+02 -0.39464653916E+01 -0.21694992227E+02  0.29000992484E+02  0.00000000000E+00 0. -1.
</event>
<event>
 5    1  0.1264859E-009  0.9118800E+02  0.7815553E-02  0.1125453E+00
         25   -1    0    0    0    0  0.00000000000E+00  0.00000000000E+00  0.99999998245E-14  0.12509000000E+03  0.12509000000E+03 0.  0.
        -13    1    3    3    0    0 -0.39593886329E+02 -0.24620182788E+02  0.62822328508E+01  0.47045795229E+02  0.10566000000E+00 0.  1.
         23    2    1    0    0    0 -0.22435695475E+02  0.18221677045E+02 -0.75365452730E+01  0.95220459320E+02  0.90414304248E+02 0.  0.
         13    1    3    3    0    0  0.17158190854E+02  0.42841859833E+02 -0.13818778124E+02  0.48174664091E+02  0.10566000000E+00 0. -1.
         22    1    1    0    0    0  0.22435695475E+02 -0.18221677045E+02  0.75365452730E+01  0.29869540680E+02  0.00000000000E+00 0.  1.
</event>
<event>
 5    1  0.1264859E-009  0.9118800E+02  0.7815553E-02  0.1125453E+00
         25   -1    0    0    0    0  0.00000000000E+00  0.00000000000E+00  0.99999998245E-14  0.12509000000E+03  0.12509000000E+03 0.  0.
        -13    1    3    3    0    0  0.23201648844E+02 -0.33062621524E+02  0.41662164209E+02  0.58027584318E+02  0.10566000000E+00 0. -1.
         23    2    1    0    0    0  0.66174064164E+00 -0.64965653006E+01  0.29417357756E+02  0.94956560125E+02  0.90048454246E+02 0.  0.
         13    1    3    3    0    0 -0.22539908202E+02  0.26566056224E+02 -0.12244806453E+02  0.36928975807E+02  0.10566000000E+00 0.  1.
         22    1    1    0    0    0 -0.66174064164E+00  0.64965653006E+01 -0.29417357756E+02  0.30133439875E+02  0.00000000000E+00 0. -1.
</event>
<event>
 5    1  0.1264859E-009  0.9118800E+02  0.7815553E-02  0.1125453E+00
         25   -1    0    0    0    0  0.00000000000E+00  0.00000000000E+00  0.99999998245E-14  0.12509000000E+03  0.12509000000E+03 0.  0.
        -13    1    3    3    0    0 -0.11861417646E+02 -0.24818307839E+02  0.11107251528E+02  0.29665195653E+02  0.10566000000E+00 0. -1.
         23    2    1    0    0    0  0.18157798249E+02  0.24243386740E+02 -0.13125930559E+02  0.92078827786E+02  0.85957972495E+02 0.  0.
         13    1    3    3    0    0  0.30019215895E+02  0.49061694579E+02 -0.24233182087E+02  0.62413632133E+02  0.10566000000E+00 0.  1.
         22    1    1    0    0    0 -0.18157798249E+02 -0.24243386740E+02  0.13125930559E+02  0.33011172214E+02  0.00000000000E+00 0.  1.
</event>
<event>
 5    1  0.1264859E-009  0.9118800E+02  0.7815553E-02  0.1125453E+00
         25   -1    0    0    0    0  0.00000000000E+00  0.00000000000E+00  0.99999998245E-14  0.12509000000E+03  0.12509000000E+03 0.  0.
        -13    1    3    3    0    0  0.12342036057E+02 -0.50561781910E+01 -0.56653016612E+02  0.58201943672E+02  0.10566000000E+00 0. -1.
         23    2    1    0    0    0  0.19682414883E+02 -0.10792377005E+02 -0.23698208056E+02  0.92448340696E+02  0.86494033178E+02 0.  0.
         13    1    3    3    0    0  0.73403788262E+01 -0.57361988142E+01  0.32954808556E+02  0.34246397025E+02  0.10566000000E+00 0.  1.
         22    1    1    0    0    0 -0.19682414883E+02  0.10792377005E+02  0.23698208056E+02  0.32641659304E+02  0.00000000000E+00 0. -1.
</event>
<event>
 5    1  0.1264859E-009  0.9118800E+02  0.7815553E-02  0.1125453E+00
         25   -1    0    0    0    0  0.00000000000E+00  0.00000000000E+00  0.99999998245E-14  0.12509000000E+03  0.12509000000E+03 0.  0.
        -13    1    3    3    0    0  0.33172877675E+02  0.29854986669E+02 -0.20102342672E+02  0.48947680100E+02  0.10566000000E+00 0.  1.
         23    2    1    0    0    0  0.15874180081E+02  0.12286945753E+02  0.20467290015E+02  0.96421749448E+02  0.92061312053E+02 0.  0.
         13    1    3    3    0    0 -0.17298697594E+02 -0.17568040916E+02  0.40569632687E+02  0.47474069348E+02  0.10566000000E+00 0. -1.
         22    1    1    0    0    0 -0.15874180081E+02 -0.12286945753E+02 -0.20467290015E+02  0.28668250552E+02  0.00000000000E+00 0. -1.
</event>
<event>
 5    1  0.1264859E-009  0.9118800E+02  0.7815553E-02  0.1125453E+00
         25   -1    0    0    0    0  0.00000000000E+00  0.00000000000E+00  0.99999998245E-14  0.12509000000E+03  0.12509000000E+03 0.  0.
        -13    1    3    3    0    0 -0.51407323071E+02 -0.37103068123E+01 -0.13947773825E+02  0.53395044720E+02  0.10566000000E+00 0. -1.
         23    2    1    0    0    0 -0.20211923147E+02 -0.24969452160E+02 -0.23847678454E+01  0.92876920418E+02  0.87111651633E+02 0.  0.
         13    1    3    3    0    0  0.31195399924E+02 -0.21259145348E+02  0.11563005979E+02  0.39481875698E+02  0.10566000000E+00 0.  1.
         22    1    1    0    0    0  0.20211923147E+02  0.24969452160E+02  0.23847678454E+01  0.32213079582E+02  0.00000000000E+00 0. -1.
</event>
<event>
 5    1  0.1264859E-009  0.9118800E+02  0.7815553E-02  0.1125453E+00
         25   -1    0    0    0    0  0.00000000000E+00  0.00000000000E+00  0.99999998245E-14  0.12509000000E+03  0.12509000000E+03 0.  0.
        -13    1    3    3    0    0  0.36032305614E+02  0.25135808529E+02 -0.13952343731E+02  0.46095715396E+02  0.10566000000E+00 0.  1.
         23    2    1    0    0    0 -0.10292041512E+02  0.41486936223E+01 -0.24642801066E+02  0.98063986205E+02  0.94266324680E+02 0.  0.
         13    1    3    3    0    0 -0.46324347126E+02 -0.20987114906E+02 -0.10690457336E+02  0.51968270809E+02  0.10566000000E+00 0. -1.
         22    1    1    0    0    0  0.10292041512E+02 -0.41486936223E+01  0.24642801066E+02  0.27026013795E+02  0.00000000000E+00 0. -1.
</event>
<event>
 5    1  0.1264859E-009  0.9118800E+02  0.7815553E-02  0.1125453E+00
         25   -1    0    0    0    0  0.00000000000E+00  0.00000000000E+00  0.99999998245E-14  0.12509000000E+03  0.12509000000E+03 0.  0.
        -13    1    3    3    0    0  0.78645360324E+01  0.60633310833E+02 -0.12182129663E+02  0.62343121166E+02  0.10566000000E+00 0.  1.
         23    2    1    0    0    0  0.64552057017E+01  0.26777360314E+02 -0.74372493268E+01  0.96559150318E+02  0.92247819088E+02 0.  0.
         13    1    3    3    0    0 -0.14093303307E+01 -0.33855950519E+02  0.47448803363E+01  0.34216029152E+02  0.10566000000E+00 0. -1.
         22    1    1    0    0    0 -0.64552057017E+01 -0.26777360314E+02  0.74372493268E+01  0.28530849682E+02  0.00000000000E+00 0.  1.
</event>
<event>
 5    1  0.1264859E-009  0.9118800E+02  0.7815553E-02  0.1125453E+00
         25   -1    0    0    0    0  0.00000000000E+00  0.00000000000E+00  0.99999998245E-14  0.12509000000E+03  0.12509000000E+03 0.  0.
        -13    1    3    3    0    0  0.97004504585E+01 -0.36397420573E+02  0.13501141835E+02  0.40014534339E+02  0.10566000000E+00 0.  1.
         23    2    1    0    0    0 -0.36528092181E+01  0.17643189528E+02 -0.14159890500E+02  0.10217433612E+03  0.99571418145E+02 0.  0.
         13    1    3    3    0    0 -0.13353259677E+02  0.54040610101E+02 -0.27661032335E+02  0.62159801785E+02  0.10566000000E+00 0. -1.
         22    1    1    0    0    0  0.36528092181E+01 -0.17643189528E+02  0.14159890500E+02  0.22915663876E+02  0.00000000000E+00 0. -1.
</event>
<event>
 5    1  0.1264859E-009  0.9118800E+02  0.7815553E-02  0.1125453E+00
         25   -1    0    0    0    0  0.00000000000E+00  0.00000000000E+00  0.99999998245E-14  0.12509000000E+03  0.12509000000E+03 0.  0.
        -13    1    3    3    0    0  0.39717746602E+01  0.35866140202E+02  0.19462484128E+02  0.40999444623E+02  0.10566000000E+00 0. -1.
         23    2    1    0    0    0 -0.29156389679E+02 -0.45614412888E+01  0.59518961539E+01  0.94984736779E+02  0.90087587088E+02 0.  0.
         13    1    3    3    0    0 -0.33128164340E+02 -0.40427581491E+02 -0.13510587975E+02  0.53985292156E+02  0.10566000000E+00 0.  1.
         22    1    1    0    0    0  0.29156389679E+02  0.45614412888E+01 -0.59518961539E+01  0.30105263221E+02  0.00000000000E+00 0.  1.
</event>
<event>
 5    1  0.1264859E-009  0.9118800E+02  0.7815553E-02  0.1125453E+00
         25   -1    0    0    0    0  0.00000000000E+00  0.00000000000E+00  0.99999998245E-14  0.12509000000E+03  0.12509000000E+03 0.  0.
        -13    1    3    3    0    0  0.19816879003E+02 -0.32248675984E+02  0.67216964517E+01  0.38443180974E+02  0.10566000000E+00 0. -1.
         23    2    1    0    0    0  0.14129165591E+02  0.24516482485E+02 -0.40636228401E+01  0.96503215216E+02  0.92171938694E+02 0.  0.
         13    1    3    3    0    0 -0.56877134124E+01  0.56765158469E+02 -0.10785319292E+02  0.58060034242E+02  0.10566000000E+00 0.  1.
         22    1    1    0    0    0 -0.14129165591E+02 -0.24516482485E+02  0.40636228401E+01  0.28586784784E+02  0.00000000000E+00 0.  1.
</event>
<event>
 5    1  0.1264859E-009  0.9118800E+02  0.7815553E-02  0.1125453E+00
         25   -1    0    0    0    0  0.00000000000E+00  0.00000000000E+00  0.99999998245E-14  0.12509000000E+03  0.12509000000E+03 0.  0.
        -13    1    3    3    0    0  0.27164111548E+02 -0.21626694858E+01 -0.27627042713E+02  0.38805035093E+02  0.10566000000E+00 0. -1.
         23    2    1    0    0    0  0.31820658462E+01 -0.38251927086E+02 -0.14092327680E+02  0.84200769532E+02  0.73605980881E+02 0.  0.
         13    1    3    3    0    0 -0.23982045701E+02 -0.36089257600E+02  0.13534715033E+02  0.45395734439E+02  0.10566000000E+00 0.  1.
         22    1    1    0    0    0 -0.31820658462E+01  0.38251927086E+02  0.14092327680E+02  0.40889230468E+02  0.00000000000E+00 0.  1.
</event>
<event>
 5    1  0.1264859E-009  0.9118800E+02  0.7815553E-02  0.1125453E+00
         25   -1    0    0    0    0  0.00000000000E+00  0.00000000000E+00  0.99999998245E-14  0.12509000000E+03  0.12509000000E+03 0.  0.
        -13    1    3    3    0    0 -0.42608146705E+02 -0.25323898706E+02 -0.33360273281E+02  0.59746740570E+02  0.10566000000E+00 0.  1.
         23    2    1    0    0    0 -0.94274407776E+01 -0.17822553255E+02 -0.21096656402E+02  0.95908002887E+02  0.91360582651E+02 0.  0.
         13    1    3    3    0    0  0.33180705927E+02  0.75013454508E+01  0.12263616879E+02  0.36161262317E+02  0.10566000000E+00 0. -1.
         22    1    1    0    0    0  0.94274407776E+01  0.17822553255E+02  0.21096656402E+02  0.29181997113E+02  0.00000000000E+00 0.  1.
</event>
<event>
 5    1  0.1264859E-009  0.9118800E+02  0.7815553E-02  0.1125453E+00
         25   -1    0    0    0    0  0.00000000000E+00  0.00000000000E+00  0.99999998245E-14  0.12509000000E+03  0.12509000000E+03 0.  0.
        -13    1    3    3    0    0  0.11821407229E+02  0.58033088901E+02 -0.11217173701E+01  0.59235584661E+02  0.10566000000E+00 0. -1.
         23    2    1    0    0    0 -0.43401477675E+01  0.30086799310E+02  0.95337907864E+01  0.93231790036E+02  0.87619753088E+02 0.  0.
         13    1    3    3    0    0 -0.16161554996E+02 -0.27946289590E+02  0.10655508157E+02  0.33996205375E+02  0.10566000000E+00 0.  1.
         22    1    1    0    0    0  0.43401477675E+01 -0.30086799310E+02 -0.95337907864E+01  0.31858209964E+02  0.00000000000E+00 0. -1.
</event>
<event>
 5    1  0.1264859E-009  0.9118800E+02  0.7815553E-02  0.1125453E+00
         25   -1    0    0    0    0  0.00000000000E+00  0.00000000000E+00  0.99999998245E-14  0.12509000000E+03  0.12509000000E+03 0.  0.
        -13    1    3    3    0    0  0.47703270819E+02  0.25825733745E+02 -0.46491988461E+01  0.54444437588E+02  0.10566000000E+00 0. -1.
         23    2    1    0    0    0  0.67921043830E+01  0.25600534826E+02 -0.12001160340E+02  0.96011693398E+02  0.91502444526E+02 0.  0.
         13    1    3    3    0    0 -0.40911166436E+02 -0.22519891897E+00 -0.73519614944E+01  0.41567255810E+02  0.10566000000E+00 0.  1.
         22    1    1    0    0    0 -0.67921043830E+01 -0.25600534826E+02  0.12001160340E+02  0.29078306602E+02  0.00000000000E+00 0. -1.
</event>
<event>
 5    1  0.1264859E-009  0.9118800E+02  0.7815553E-02  0.1125453E+00
         25   -1    0    0    0    0  0.00000000000E+00  0.00000000000E+00  0.99999998245E-14  0.12509000000E+03  0.12509000000E+03 0.  0.
        -13    1    3    3    0    0 -0.19663507638E+02  0.39958089971E+02 -0.38228097037E+02  0.58691575663E+02  0.10566000000E+00 0. -1.
         23    2    1    0    0    0 -0.13825328595E+02  0.58017268560E+01 -0.25308694981E+02  0.95673511649E+02  0.91038953445E+02 0.  0.
         13    1    3    3    0    0  0.58381790437E+01 -0.34156363115E+02  0.12919402056E+02  0.36981935986E+02  0.10566000000E+00 0.  1.
         22    1    1    0    0    0  0.13825328595E+02 -0.58017268560E+01  0.25308694981E+02  0.29416488351E+02  0.00000000000E+00 0.  1.
</event>
<event>
 5    1  0.1264859E-009  0.9118800E+02  0.7815553E-02  0.1125453E+00
         25   -1    0    0    0    0  0.00000000000E+00  0.00000000000E+00  0.99999998245E-14  0.12509000000E+03  0.12509000000E+03 0.  0.
        -13    1    3    3    0    0 -0.26861386950E+02 -0.21731619327E+02  0.43641759520E+02  0.55663378675E+02  0.10566000000E+00 0. -1.
         23    2    1    0    0    0 -0.26369970761E+02 -0.10939693811E+02  0.45996167158E+01  0.96172726053E+02  0.91722322822E+02 0.  0.
         13    1    3    3    0    0  0.49141618866E+00  0.10791925516E+02 -0.39042142804E+02  0.40509347378E+02  0.10566000000E+00 0.  1.
         22    1    1    0    0    0  0.26369970761E+02  0.10939693811E+02 -0.45996167158E+01  0.28917273947E+02  0.00000000000E+00 0. -1.
</event>
<event>
 5    1  0.1264859E-009  0.9118800E+02  0.7815553E-02  0.1125453E+00
         25   -1    0    0    0    0  0.00000000000E+00  0.00000000000E+00  0.99999998245E-14  0.12509000000E+03  0.12509000000E+03 0.  0.
        -13    1    3    3    0    0 -0.44726248387E+01 -0.53720439099E+02  0.28418502337E+02  0.60938595233E+02  0.10566000000E+00 0. -1.
         23    2    1    0    0    0  0.65846169995E+01 -0.23675781193E+02  0.18079257484E+02  0.94581651187E+02  0.89526138049E+02 0.  0.
         13    1    3    3    0    0  0.11057241838E+02  0.30044657906E+02 -0.10339244853E+02  0.33643055954E+02  0.10566000000E+00 0.  1.
         22    1    1    0    0    0 -0.65846169995E+01  0.23675781193E+02 -0.18079257484E+02  0.30508348813E+02  0.00000000000E+00 0. -1.
</event>
<event>
 5    1  0.1264859E-009  0.9118800E+02  0.7815553E-02  0.1125453E+00
         25   -1    0    0    0    0  0.00000000000E+00  0.00000000000E+00  0.99999998245E-14  0.12509000000E+03  0.12509000000E+03 0.  0.
        -13    1    3    3    0    0  0.24826175877E+02  0.20659551243E+02 -0.15896326858E+02  0.35998061584E+02  0.10566000000E+00 0. -1.
         23    2    1    0    0    0 -0.25077160740E+02 -0.11779248090E+02 -0.92149210061E+01  0.95891893118E+02  0.91338522652E+02 0.  0.
         13    1    3    3    0    0 -0.49903336617E+02 -0.32438799332E+02  0.66814058519E+01  0.59893831534E+02  0.10566000000E+00 0.  1.
         22    1    1    0    0    0  0.25077160740E+02  0.11779248090E+02  0.92149210061E+01  0.29198106882E+02  0.00000000000E+00 0.  1.
</event>
<event>
 5    1  0.1264859E-009  0.9118800E+02  0.7815553E-02  0.1125453E+00
         25   -1    0    0    0    0  0.00000000000E+00  0.00000000000E+00  0.99999998245E-14  0.12509000000E+03  0.12509000000E+03 0.  0.
        -13    1    3    3    0    0 -0.49650085751E+02  0.15426345096E+02  0.33097390008E+02  0.61632390247E+02  0.10566000000E+00 0.  1.
         23    2    1    0    0    0 -0.35105375266E+02  0.14627985168E+02  0.30297209727E+02  0.76466073380E+02  0.59015033155E+02 0.  0.
         13    1    3    3    0    0  0.14544710485E+02 -0.79835992745E+00 -0.28001802813E+01  0.14833683134E+02  0.10566000000E+00 0. -1.
         22    1    1    0    0    0  0.35105375266E+02 -0.14627985168E+02 -0.30297209727E+02  0.48623926620E+02  0.00000000000E+00 0.  1.
</event>
<event>
 5    1  0.1264859E-009  0.9118800E+02  0.7815553E-02  0.1125453E+00
         25   -1    0    0    0    0  0.00000000000E+00  0.00000000000E+00  0.99999998245E-14  0.12509000000E+03  0.12509000000E+03 0.  0.
        -13    1    3    3    0    0  0.24996381394E+02 -0.91523944751E+01  0.24178680967E+02  0.35961162172E+02  0.10566000000E+00 0.  1.
         23    2    1    0    0    0  0.30470994930E+01 -0.78586096467E+01 -0.29733624755E+02  0.94184806230E+02  0.88969920325E+02 0.  0.
         13    1    3    3    0    0 -0.21949281901E+02  0.12937848284E+01 -0.53912305721E+02  0.58223644058E+02  0.10566000000E+00 0. -1.
         22    1    1    0    0    0 -0.30470994930E+01  0.78586096467E+01  0.29733624755E+02  0.30905193770E+02  0.00000000000E+00 0. -1.
</event>
<event>
 5    1  0.1264859E-009  0.9118800E+02  0.7815553E-02  0.1125453E+00
         25   -1    0    0    0    0  0.00000000000E+00  0.00000000000E+00  0.99999998245E-14  0.12509000000E+03  0.12509000000E+03 0.  0.
        -13    1    3    3    0    0 -0.17430081392E+02  0.17254965937E+02  0.34236399200E+02  0.42115125324E+02  0.10566000000E+00 0.  1.
         23    2    1    0    0    0  0.27231862986E+02  0.14901772989E+01  0.63136129917E+01  0.97096131045E+02  0.92973124960E+02 0.  0.
         13    1    3    3    0    0  0.44661944378E+02 -0.15764788638E+02 -0.27922786208E+02  0.54981005721E+02  0.10566000000E+00 0. -1.
         22    1    1    0    0    0 -0.27231862986E+02 -0.14901772989E+01 -0.63136129917E+01  0.27993868955E+02  0.00000000000E+00 0. -1.
</event>
<event>
 5    1  0.1264859E-009  0.9118800E+02  0.7815553E-02  0.1125453E+00
         25   -1    0    0    0    0  0.00000000000E+00  0.00000000000E+00  0.99999998245E-14  0.12509000000E+03  0.12509000000E+03 0.  0.
        -13    1    3    3    0    0  0.36756592952E+02  0.66496427351E+01 -0.10461361448E+02  0.38790670545E+02  0.10566000000E+00 0.  1.
         23    2    1    0    0    0 -0.61670003315E+01  0.10117721410E+02  0.26832152652E+02  0.95758027759E+02  0.91155006910E+02 0.  0.
         13    1    3    3    0    0 -0.42923593284E+02  0.34680786747E+01  0.37293514099E+02  0.56967357214E+02  0.10566000000E+00 0. -1.
         22    1    1    0    0    0  0.61670003315E+01 -0.10117721410E+02 -0.26832152652E+02  0.29331972241E+02  0.00000000000E+00 0. -1.
</event>
<event>
 5    1  0.1264859E-009  0.9118800E+02  0.7815553E-02  0.1125453E+00
         25   -1    0    0    0    0  0.00000000000E+00  0.00000000000E+00  0.99999998245E-14  0.12509000000E+03  0.12509000000E+03 0.  0.
        -13    1    3    3    0    0 -0.13054617037E+02 -0.35701576756E+02 -0.26874845393E+02  0.46554205909E+02  0.10566000000E+00 0. -1.
         23    2    1    0    0    0  0.54077822425E+01 -0.20211503812E+02  0.17999423573E+02  0.97490575294E+02  0.93502320972E+02 0.  0.
         13    1    3    3    0    0  0.18462399280E+02  0.15490072944E+02  0.44874268966E+02  0.50936369386E+02  0.10566000000E+00 0.  1.
         22    1    1    0    0    0 -0.54077822425E+01  0.20211503812E+02 -0.17999423573E+02  0.27599424706E+02  0.00000000000E+00 0.  1.
</event>
<event>
 5    1  0.1264859E-009  0.9118800E+02  0.7815553E-02  0.1125453E+00
         25   -1    0    0    0    0  0.00000000000E+00  0.00000000000E+00  0.99999998245E-14  0.12509000000E+03  0.12509000000E+03 0.  0.
        -13    1    3    3    0    0  0.46518312213E+02  0.94519909214E+01 -0.34197988664E+02  0.58504761312E+02  0.10566000000E+00 0.  1.
         23    2    1    0    0    0  0.31145636385E+02 -0.16347822877E+01 -0.47258905249E+01  0.93545472421E+02  0.88066441908E+02 0.  0.
         13    1    3    3    0    0 -0.15372675828E+02 -0.11086773209E+02  0.29472098139E+02  0.35040711109E+02  0.10566000000E+00 0. -1.
         22    1    1    0    0    0 -0.31145636385E+02  0.16347822877E+01  0.47258905249E+01  0.31544527579E+02  0.00000000000E+00 0.  1.
</event>
<event>
 5    1  0.1264859E-009  0.9118800E+02  0.7815553E-02  0.1125453E+00
         25   -1    0    0    0    0  0.00000000000E+00  0.00000000000E+00  0.99999998245E-14  0.12509000000E+03  0.12509000000E+03 0.  0.
        -13    1    3    3    0    0  0.63793401427E+01 -0.73422652113E+01 -0.44414002315E+02  0.45466686759E+02  0.10566000000E+00 0. -1.
         23    2    1    0    0    0  0.30798549393E+01 -0.36501188001E+02 -0.26925234758E+02  0.79628032393E+02  0.65374559609E+02 0.  0.
         13    1    3    3    0    0 -0.32994852034E+01 -0.29158922790E+02  0.17488767557E+02  0.34161345635E+02  0.10566000000E+00 0.  1.
         22    1    1    0    0    0 -0.30798549393E+01  0.36501188001E+02  0.26925234758E+02  0.45461967607E+02  0.00000000000E+00 0. -1.
</event>
<event>
 5    1  0.1264859E-009  0.9118800E+02  0.7815553E-02  0.1125453E+00
         25   -1    0    0    0    0  0.00000000000E+00  0.00000000000E+00  0.99999998245E-14  0.12509000000E+03  0.12509000000E+03 0.  0.
        -13    1    3    3    0    0  0.45775691805E+01 -0.49561351240E+02 -0.21067412562E+02  0.54047467216E+02  0.10566000000E+00 0.  1.
         23    2    1    0    0    0 -0.18273027749E+02 -0.21015454337E+02  0.18143854780E+01  0.97182207921E+02  0.93088864412E+02 0.  0.
         13    1    3    3    0    0 -0.22850596929E+02  0.28545896904E+02  0.22881798040E+02  0.43134740705E+02  0.10566000000E+00 0. -1.
         22    1    1    0    0    0  0.18273027749E+02  0.21015454337E+02 -0.18143854780E+01  0.27907792079E+02  0.00000000000E+00 0.  1.
</event>
<event>
 5    1  0.1264859E-009  0.9118800E+02  0.7815553E-02  0.1125453E+00
         25   -1    0    0    0    0  0.00000000000E+00  0.00000000000E+00  0.99999998245E-14  0.12509000000E+03  0.12509000000E+03 0.  0.
        -13    1    3    3    0    0  0.31748456730E+02 -0.11341192727E+02  0.24696198505E+02  0.41791153871E+02  0.10566000000E+00 0.  1.
         23    2    1    0    0    0 -0.16655055960E+02 -0.24107850521E+02  0.63332403357E+01  0.95111853310E+02  0.90263920595E+02 0.  0.
         13    1    3    3    0    0 -0.48403512690E+02 -0.12766657794E+02 -0.18362958170E+02  0.53320699440E+02  0.10566000000E+00 0. -1.
         22    1    1    0    0    0  0.16655055960E+02  0.24107850521E+02 -0.63332403357E+01  0.29978146690E+02  0.00000000000E+00 0. -1.
</event>
<event>
 5    1  0.1264859E-009  0.9118800E+02  0.7815553E-02  0.1125453E+00
         25   -1    0    0    0    0  0.00000000000E+00  0.00000000000E+00  0.99999998245E-14  0.12509000000E+03  0.12509000000E+03 0.  0.
        -13    1    3    3    0    0 -0.70303550674E+01  0.27452551935E+02 -0.22364657101E+02  0.36100658600E+02  0.10566000000E+00 0. -1.
         23    2    1    0    0    0 -0.15633738214E+02 -0.26051992732E+02 -0.16244474131E+02  0.90637089591E+02  0.83833638678E+02 0.  0.
         13    1    3    3    0    0 -0.86033831465E+01 -0.53504544667E+02  0.61201829700E+01  0.54536430991E+02  0.10566000000E+00 0.  1.
         22    1    1    0    0    0  0.15633738214E+02  0.26051992732E+02  0.16244474131E+02  0.34452910409E+02  0.00000000000E+00 0. -1.
</event>
<event>
 5    1  0.1264859E-009  0.9118800E+02  0.7815553E-02  0.1125453E+00
         25   -1    0    0    0    0  0.00000000000E+00  0.00000000000E+00  0.99999998245E-14  0.12509000000E+03  0.12509000000E+03 0.  0.
        -13    1    3    3    0    0  0.26892189067E+02  0.24290323535E+00 -0.34562520633E+02  0.43793011216E+02  0.10566000000E+00 0.  1.
         23    2    1    0    0    0 -0.18335577663E+02  0.16280266320E+02 -0.18417787492E+02  0.94423155106E+02  0.89304405515E+02 0.  0.
         13    1    3    3    0    0 -0.45227766730E+02  0.16037363085E+02  0.16144733141E+02  0.50630143890E+02  0.10566000000E+00 0. -1.
         22    1    1    0    0    0  0.18335577663E+02 -0.16280266320E+02  0.18417787492E+02  0.30666844894E+02  0.00000000000E+00 0. -1.
</event>
<event>
 5    1  0.1264859E-009  0.9118800E+02  0.7815553E-02  0.1125453E+00
         25   -1    0    0    0    0  0.00000000000E+00  0.00000000000E+00  0.99999998245E-14  0.12509000000E+03  0.12509000000E+03 0.  0.
        -13    1    3    3    0    0  0.15453082477E+02 -0.52449243318E+02  0.27139036285E+02  0.61043094099E+02  0.10566000000E+00 0.  1.
         23    2    1    0    0    0  0.40115229887E+00 -0.17553317660E+02  0.17607991244E+02  0.10022393397E+03  0.97090245139E+02 0.  0.
         13    1    3    3    0    0 -0.15051930178E+02  0.34895925658E+02 -0.95310450411E+01  0.39180839873E+02  0.10566000000E+00 0. -1.
         22    1    1    0    0    0 -0.40115229887E+00  0.17553317660E+02 -0.17607991244E+02  0.24866066028E+02  0.00000000000E+00 0.  1.
</event>
<event>
 5    1  0.1264859E-009  0.9118800E+02  0.7815553E-02  0.1125453E+00
         25   -1    0    0    0    0  0.00000000000E+00  0.00000000000E+00  0.99999998245E-14  0.12509000000E+03  0.12509000000E+03 0.  0.
        -13    1    3    3    0    0 -0.20174330007E+02 -0.13060790932E+02  0.21694695744E+02  0.32376825639E+02  0.10566000000E+00 0. -1.
         23    2    1    0    0    0  0.83482421043E+01  0.18665336975E+02 -0.23102421705E+02  0.94238584486E+02  0.89045499418E+02 0.  0.
         13    1    3    3    0    0  0.28522572112E+02  0.31726127907E+02 -0.44797117448E+02  0.61861758846E+02  0.10566000000E+00 0.  1.
         22    1    1    0    0    0 -0.83482421043E+01 -0.18665336975E+02  0.23102421705E+02  0.30851415514E+02  0.00000000000E+00 0.  1.
</event>
<event>
 5    1  0.1264859E-009  0.9118800E+02  0.7815553E-02  0.1125453E+00
         25   -1    0    0    0    0  0.00000000000E+00  0.00000000000E+00  0.99999998245E-14  0.12509000000E+03  0.12509000000E+03 0.  0.
        -13    1    3    3    0    0  0.15545272718E+02 -0.43018238811E+02  0.30604273445E+02  0.55035053297E+02  0.10566000000E+00 0.  1.
         23    2    1    0    0    0  0.16142475843E+02 -0.26154729570E+01  0.24104629842E+02  0.95961776489E+02  0.91434179287E+02 0.  0.
         13    1    3    3    0    0  0.59720312503E+00  0.40402765854E+02 -0.64996436034E+01  0.40926723192E+02  0.10566000000E+00 0. -1.
         22    1    1    0    0    0 -0.16142475843E+02  0.26154729570E+01 -0.24104629842E+02  0.29128223511E+02  0.00000000000E+00 0.  1.
</event>
<event>
 5    1  0.1264859E-009  0.9118800E+02  0.7815553E-02  0.1125453E+00
         25   -1    0    0    0    0  0.00000000000E+00  0.00000000000E+00  0.99999998245E-14  0.12509000000E+03  0.12509000000E+03 0.  0.
        -13    1    3    3    0    0 -0.30327505744E+02 -0.46464732990E+02 -0.98901947528E+01  0.56360945102E+02  0.10566000000E+00 0.  1.
         23    2    1    0    0    0  0.19761574037E+01 -0.28309574124E+02 -0.13635334380E+02  0.93605725690E+02  0.88151984397E+02 0.  0.
         13    1    3    3    0    0  0.32303663148E+02  0.18155158865E+02 -0.37451396274E+01  0.37244780588E+02  0.10566000000E+00 0. -1.
         22    1    1    0    0    0 -0.19761574037E+01  0.28309574124E+02  0.13635334380E+02  0.31484274310E+02  0.00000000000E+00 0.  1.
</event>
<event>
 5    1  0.1264859E-009  0.9118800E+02  0.7815553E-02  0.1125453E+00
         25   -1    0    0    0    0  0.00000000000E+00  0.00000000000E+00  0.99999998245E-14  0.12509000000E+03  0.12509000000E+03 0.  0.
        -13    1    3    3    0    0  0.40053687946E+02  0.37421124702E+02 -0.18298165359E+02  0.57788169304E+02  0.10566000000E+00 0.  1.
         23    2    1    0    0    0  0.26829801512E+02  0.20513178120E+01 -0.58001119064E+01  0.97563876915E+02  0.93600334543E+02 0.  0.
         13    1    3    3    0    0 -0.13223886433E+02 -0.35369806890E+02  0.12498053453E+02  0.39775707611E+02  0.10566000000E+00 0. -1.
         22    1    1    0    0    0 -0.26829801512E+02 -0.20513178120E+01  0.58001119064E+01  0.27526123085E+02  0.00000000000E+00 0.  1.
</event>
<event>
 5    1  0.1264859E-009  0.9118800E+02  0.7815553E-02  0.1125453E+00
         25   -1    0    0    0    0  0.00000000000E+00  0.00000000000E+00  0.99999998245E-14  0.12509000000E+03  0.12509000000E+03 0.  0.
        -13    1    3    3    0    0 -0.28921304800E+02 -0.34326575761E+02 -0.35799975753E+02  0.57414328375E+02  0.10566000000E+00 0.  1.
         23    2    1    0    0    0  0.18663466743E+01 -0.22218550202E+02 -0.23461722736E+02  0.92723355801E+02  0.86890857139E+02 0.  0.
         13    1    3    3    0    0  0.30787651474E+02  0.12108025559E+02  0.12338253017E+02  0.35309027426E+02  0.10566000000E+00 0. -1.
         22    1    1    0    0    0 -0.18663466743E+01  0.22218550202E+02  0.23461722736E+02  0.32366644199E+02  0.00000000000E+00 0.  1.
</event>
<event>
 5    1  0.1264859E-009  0.9118800E+02  0.7815553E-02  0.1125453E+00
         25   -1    0    0    0    0  0.00000000000E+00  0.00000000000E+00  0.99999998245E-14  0.12509000000E+03  0.12509000000E+03 0.  0.
        -13    1    3    3    0    0 -0.35120516963E+02 -0.23438926956E+02  0.16823400892E+02  0.45451864541E+02  0.10566000000E+00 0. -1.
         23    2    1    0    0    0  0.93964980970E+01 -0.27077061412E+02 -0.62949517612E+01  0.95745701595E+02  0.91138090418E+02 0.  0.
         13    1    3    3    0    0  0.44517015060E+02 -0.36381344560E+01 -0.23118352653E+02  0.50293837054E+02  0.10566000000E+00 0.  1.
         22    1    1    0    0    0 -0.93964980970E+01  0.27077061412E+02  0.62949517612E+01  0.29344298405E+02  0.00000000000E+00 0.  1.
</event>
<event>
 5    1  0.1264859E-009  0.9118800E+02  0.7815553E-02  0.1125453E+00
         25   -1    0    0    0    0  0.00000000000E+00  0.00000000000E+00  0.99999998245E-14  0.12509000000E+03  0.12509000000E+03 0.  0.
        -13    1    3    3    0    0 -0.33566534307E+02 -0.39607115926E+02 -0.83972559277E+01  0.52592403715E+02  0.10566000000E+00 0.  1.
         23    2    1    0    0    0 -0.27158218180E+02  0.12735777682E-01  0.92002762623E+01  0.96415724765E+02  0.92053125541E+02 0.  0.
         13    1    3    3    0    0  0.64083161267E+01  0.39619851704E+02  0.17597532190E+02  0.43823321050E+02  0.10566000000E+00 0. -1.
         22    1    1    0    0    0  0.27158218180E+02 -0.12735777682E-01 -0.92002762623E+01  0.28674275235E+02  0.00000000000E+00 0.  1.
</event>
<event>
 5    1  0.1264859E-009  0.9118800E+02  0.7815553E-02  0.1125453E+00
         25   -1    0    0    0    0  0.00000000000E+00  0.00000000000E+00  0.99999998245E-14  0.12509000000E+03  0.12509000000E+03 0.  0.
        -13    1    3    3    0    0  0.67036687896E+01 -0.18892481041E+02 -0.32640341580E+02  0.38304935421E+02  0.10566000000E+00 0.  1.
         23    2    1    0    0    0 -0.22842134469E+02 -0.88334637005E+01  0.15811020080E+02  0.95938987256E+02  0.91402996295E+02 0.  0.
         13    1    3    3    0    0 -0.29545803258E+02  0.10059017341E+02  0.48451361661E+02  0.57634051834E+02  0.10566000000E+00 0. -1.
         22    1    1    0    0    0  0.22842134469E+02  0.88334637005E+01 -0.15811020080E+02  0.29151012744E+02  0.00000000000E+00 0. -1.
</event>
<event>
 5    1  0.1264859E-009  0.9118800E+02  0.7815553E-02  0.1125453E+00
         25   -1    0    0    0    0  0.00000000000E+00  0.00000000000E+00  0.99999998245E-14  0.12509000000E+03  0.12509000000E+03 0.  0.
        -13    1    3    3    0    0 -0.43104459117E+02  0.27037657918E+01  0.42032698796E+02  0.60266604993E+02  0.10566000000E+00 0.  1.
         23    2    1    0    0    0 -0.22451030152E+02 -0.10056305636E+02  0.16684410584E+02  0.95365471501E+02  0.90614709402E+02 0.  0.
         13    1    3    3    0    0  0.20653428965E+02 -0.12760071428E+02 -0.25348288211E+02  0.35098866508E+02  0.10566000000E+00 0. -1.
         22    1    1    0    0    0  0.22451030152E+02  0.10056305636E+02 -0.16684410584E+02  0.29724528499E+02  0.00000000000E+00 0.  1.
</event>
<event>
 5    1  0.1264859E-009  0.9118800E+02  0.7815553E-02  0.1125453E+00
         25   -1    0    0    0    0  0.00000000000E+00  0.00000000000E+00  0.99999998245E-14  0.12509000000E+03  0.12509000000E+03 0.  0.
        -13    1    3    3    0    0  0.41559196141E+02  0.35066793869E+01  0.13965559663E+02  0.43983083168E+02  0.10566000000E+00 0. -1.
         23    2    1    0    0    0  0.57432255330E+01  0.17799555442E+02 -0.21652511244E+02  0.96478113368E+02  0.92137865736E+02 0.  0.
         13    1    3    3    0    0 -0.35815970608E+02  0.14292876055E+02 -0.35618070907E+02  0.52495030200E+02  0.10566000000E+00 0.  1.
         22    1    1    0    0    0 -0.57432255330E+01 -0.17799555442E+02  0.21652511244E+02  0.28611886632E+02  0.00000000000E+00 0.  1.
</event>
<event>
 5    1  0.1264859E-009  0.9118800E+02  0.7815553E-02  0.1125453E+00
         25   -1    0    0    0    0  0.00000000000E+00  0.00000000000E+00  0.99999998245E-14  0.12509000000E+03  0.12509000000E+03 0.  0.
        -13    1    3    3    0    0  0.24045336212E+02  0.92461429780E+01  0.25389890979E+02  0.36170804269E+02  0.10566000000E+00 0. -1.
         23    2    1    0    0    0  0.15752232969E+02 -0.15441181889E+02 -0.24299746637E+02  0.92271702844E+02  0.86238196395E+02 0.  0.
         13    1    3    3    0    0 -0.82931032437E+01 -0.24687324867E+02 -0.49689637615E+02  0.56100898575E+02  0.10566000000E+00 0.  1.
         22    1    1    0    0    0 -0.15752232969E+02  0.15441181889E+02  0.24299746637E+02  0.32818297156E+02  0.00000000000E+00 0.  1.
</event>
<event>
 5    1  0.1264859E-009  0.9118800E+02  0.7815553E-02  0.1125453E+00
         25   -1    0    0    0    0  0.00000000000E+00  0.00000000000E+00  0.99999998245E-14  0.12509000000E+03  0.12509000000E+03 0.  0.
        -13    1    3    3    0    0 -0.62636636979E+01 -0.38198157512E+02 -0.30915761797E+02  0.49539158367E+02  0.10566000000E+00 0.  1.
         23    2    1    0    0    0 -0.26778896615E+02 -0.50523768869E+01 -0.26086079016E+01  0.97714086292E+02  0.93800863582E+02 0.  0.
         13    1    3    3    0    0 -0.20515232917E+02  0.33145780625E+02  0.28307153895E+02  0.48174927925E+02  0.10566000000E+00 0. -1.
         22    1    1    0    0    0  0.26778896615E+02  0.50523768869E+01  0.26086079016E+01  0.27375913708E+02  0.00000000000E+00 0. -1.
</event>
<event>
 5    1  0.1264859E-009  0.9118800E+02  0.7815553E-02  0.1125453E+00
         25   -1    0    0    0    0  0.00000000000E+00  0.00000000000E+00  0.99999998245E-14  0.12509000000E+03  0.12509000000E+03 0.  0.
        -13    1    3    3    0    0 -0.23459618929E+02  0.32484882675E+02  0.60941871397E+01  0.40531118954E+02  0.10566000000E+00 0.  1.
         23    2    1    0    0    0 -0.34493215616E-01 -0.43720709748E+01 -0.28507729806E+02  0.96248938073E+02  0.91826201202E+02 0.  0.
         13    1    3    3    0    0  0.23425125714E+02 -0.36856953650E+02 -0.34601916945E+02  0.55717819119E+02  0.10566000000E+00 0. -1.
         22    1    1    0    0    0  0.34493215616E-01  0.43720709748E+01  0.28507729806E+02  0.28841061927E+02  0.00000000000E+00 0. -1.
</event>
<event>
 5    1  0.1264859E-009  0.9118800E+02  0.7815553E-02  0.1125453E+00
         25   -1    0    0    0    0  0.00000000000E+00  0.00000000000E+00  0.99999998245E-14  0.12509000000E+03  0.12509000000E+03 0.  0.
        -13    1    3    3    0    0 -0.26551621265E+02  0.23531695100E+02 -0.21314303275E+01  0.35542698622E+02  0.10566000000E+00 0. -1.
         23    2    1    0    0    0 -0.10112888650E+02 -0.30551887872E+02 -0.65722417710E+01  0.92243649650E+02  0.86197495146E+02 0.  0.
         13    1    3    3    0    0  0.16438732615E+02 -0.54083582972E+02 -0.44408114435E+01  0.56700951028E+02  0.10566000000E+00 0.  1.
         22    1    1    0    0    0  0.10112888650E+02  0.30551887872E+02  0.65722417710E+01  0.32846350350E+02  0.00000000000E+00 0. -1.
</event>
<event>
 5    1  0.1264859E-009  0.9118800E+02  0.7815553E-02  0.1125453E+00
         25   -1    0    0    0    0  0.00000000000E+00  0.00000000000E+00  0.99999998245E-14  0.12509000000E+03  0.12509000000E+03 0.  0.
        -13    1    3    3    0    0 -0.54073110536E+02 -0.14115345069E+02  0.21897134563E+02  0.60021995265E+02  0.10566000000E+00 0.  1.
         23    2    1    0    0    0 -0.18212647955E+02 -0.12624972876E+02  0.18768301862E+02  0.96049689388E+02  0.91554372867E+02 0.  0.
         13    1    3    3    0    0  0.35860462580E+02  0.14903721928E+01 -0.31288327014E+01  0.36027694124E+02  0.10566000000E+00 0. -1.
         22    1    1    0    0    0  0.18212647955E+02  0.12624972876E+02 -0.18768301862E+02  0.29040310612E+02  0.00000000000E+00 0.  1.
</event>
<event>
 5    1  0.1264859E-009  0.9118800E+02  0.7815553E-02  0.1125453E+00
         25   -1    0    0    0    0  0.00000000000E+00  0.00000000000E+00  0.99999998245E-14  0.12509000000E+03  0.12509000000E+03 0.  0.
        -13    1    3    3    0    0  0.46591406284E+02 -0.20636777548E+02 -0.34032650120E+02  0.61276979081E+02  0.10566000000E+00 0.  1.
         23    2    1    0    0    0  0.26054247552E+02 -0.30188328113E+01 -0.11662300894E+02  0.96385532941E+02  0.92012089049E+02 0.  0.
         13    1    3    3    0    0 -0.20537158733E+02  0.17617944737E+02  0.22370349226E+02  0.35108553859E+02  0.10566000000E+00 0. -1.
         22    1    1    0    0    0 -0.26054247552E+02  0.30188328113E+01  0.11662300894E+02  0.28704467059E+02  0.00000000000E+00 0.  1.
</event>
<event>
 5    1  0.1264859E-009  0.9118800E+02  0.7815553E-02  0.1125453E+00
         25   -1    0    0    0    0  0.00000000000E+00  0.00000000000E+00  0.99999998245E-14  0.12509000000E+03  0.12509000000E+03 0.  0.
        -13    1    3    3    0    0  0.61107315642E+01 -0.22694511138E+02 -0.41222089112E+02  0.47451592922E+02  0.10566000000E+00 0. -1.
         23    2    1    0    0    0 -0.14638781408E+02 -0.17819324430E+02  0.76690468925E+01  0.10078698528E+03  0.97812984196E+02 0.  0.
         13    1    3    3    0    0 -0.20749512973E+02  0.48751867087E+01  0.48891136005E+02  0.53335392357E+02  0.10566000000E+00 0.  1.
         22    1    1    0    0    0  0.14638781408E+02  0.17819324430E+02 -0.76690468925E+01  0.24303014720E+02  0.00000000000E+00 0.  1.
</event>
<event>
 5    1  0.1264859E-009  0.9118800E+02  0.7815553E-02  0.1125453E+00
         25   -1    0    0    0    0  0.00000000000E+00  0.00000000000E+00  0.99999998245E-14  0.12509000000E+03  0.12509000000E+03 0.  0.
        -13    1    3    3    0    0  0.78963664674E+01  0.28194499798E+02  0.51285941047E+02  0.59055409027E+02  0.10566000000E+00 0.  1.
         23    2    1    0    0    0  0.17312152542E+00  0.26354903682E+02  0.18248685582E+02  0.93033402479E+02  0.87336066617E+02 0.  0.
         13    1    3    3    0    0 -0.77232449420E+01 -0.18395961162E+01 -0.33037255465E+02  0.33977993452E+02  0.10566000000E+00 0. -1.
         22    1    1    0    0    0 -0.17312152542E+00 -0.26354903682E+02 -0.18248685582E+02  0.32056597521E+02  0.00000000000E+00 0.  1.
</event>
<event>
 5    1  0.1264859E-009  0.9118800E+02  0.7815553E-02  0.1125453E+00
         25   -1    0    0    0    0  0.00000000000E+00  0.00000000000E+00  0.99999998245E-14  0.12509000000E+03  0.12509000000E+03 0.  0.
        -13    1    3    3    0    0 -0.83771025492E+01 -0.10214196102E+02  0.50143061778E+02  0.51854059220E+02  0.10566000000E+00 0.  1.
         23    2    1    0    0    0 -0.15503963877E+02 -0.23197422143E+02  0.87009953501E+01  0.95863289441E+02  0.91299340920E+02 0.  0.
         13    1    3    3    0    0 -0.71268613274E+01 -0.12983226042E+02 -0.41442066428E+02  0.44009230221E+02  0.10566000000E+00 0. -1.
         22    1    1    0    0    0  0.15503963877E+02  0.23197422143E+02 -0.87009953501E+01  0.29226710559E+02  0.00000000000E+00 0. -1.
</event>
<event>
 5    1  0.1264859E-009  0.9118800E+02  0.7815553E-02  0.1125453E+00
         25   -1    0    0    0    0  0.00000000000E+00  0.00000000000E+00  0.99999998245E-14  0.12509000000E+03  0.12509000000E+03 0.  0.
        -13    1    3    3    0    0  0.34735835668E+02 -0.12131273859E+02  0.22393290460E+02  0.43072226627E+02  0.10566000000E+00 0.  1.
         23    2    1    0    0    0 -0.18100565956E+01  0.21071930271E+02  0.24786137066E+02  0.92506950099E+02  0.86578754182E+02 0.  0.
         13    1    3    3    0    0 -0.36545892264E+02  0.33203204129E+02  0.23928466061E+01  0.49434723472E+02  0.10566000000E+00 0. -1.
         22    1    1    0    0    0  0.18100565956E+01 -0.21071930271E+02 -0.24786137066E+02  0.32583049901E+02  0.00000000000E+00 0. -1.
</event>
<event>
 5    1  0.1264859E-009  0.9118800E+02  0.7815553E-02  0.1125453E+00
         25   -1    0    0    0    0  0.00000000000E+00  0.00000000000E+00  0.99999998245E-14  0.12509000000E+03  0.12509000000E+03 0.  0.
        -13    1    3    3    0    0 -0.41351666080E+02 -0.18566016931E+02 -0.21745253896E+02  0.50274491577E+02  0.10566000000E+00 0. -1.
         23    2    1    0    0    0 -0.26597807683E+01 -0.29079962683E+02  0.41252339885E-02  0.95888652764E+02  0.91334084812E+02 0.  0.
         13    1    3    3    0    0  0.38691885312E+02 -0.10513945752E+02  0.21749379130E+02  0.45614161187E+02  0.10566000000E+00 0.  1.
         22    1    1    0    0    0  0.26597807683E+01  0.29079962683E+02 -0.41252339886E-02  0.29201347236E+02  0.00000000000E+00 0. -1.
</event>
<event>
 5    1  0.1264859E-009  0.9118800E+02  0.7815553E-02  0.1125453E+00
         25   -1    0    0    0    0  0.00000000000E+00  0.00000000000E+00  0.99999998245E-14  0.12509000000E+03  0.12509000000E+03 0.  0.
        -13    1    3    3    0    0 -0.31667512170E+02  0.73876237612E+01  0.19843464411E+02  0.38094390082E+02  0.10566000000E+00 0.  1.
         23    2    1    0    0    0  0.14939007372E+01  0.95501132817E+01 -0.27502039729E+02  0.95938694843E+02  0.91402596111E+02 0.  0.
         13    1    3    3    0    0  0.33161412907E+02  0.21624895204E+01 -0.47345504140E+02  0.57844304761E+02  0.10566000000E+00 0. -1.
         22    1    1    0    0    0 -0.14939007372E+01 -0.95501132817E+01  0.27502039729E+02  0.29151305157E+02  0.00000000000E+00 0. -1.
</event>
<event>
 5    1  0.1264859E-009  0.9118800E+02  0.7815553E-02  0.1125453E+00
         25   -1    0    0    0    0  0.00000000000E+00  0.00000000000E+00  0.99999998245E-14  0.12509000000E+03  0.12509000000E+03 0.  0.
        -13    1    3    3    0    0 -0.42171324068E+02  0.54908058389E+01  0.40167492714E+02  0.58497932932E+02  0.10566000000E+00 0.  1.
         23    2    1    0    0    0 -0.25689592958E+02 -0.11596432910E+02  0.14751024602E+02  0.93277656965E+02  0.87685210380E+02 0.  0.
         13    1    3    3    0    0  0.16481731110E+02 -0.17087238749E+02 -0.25416468112E+02  0.34779724032E+02  0.10566000000E+00 0. -1.
         22    1    1    0    0    0  0.25689592958E+02  0.11596432910E+02 -0.14751024602E+02  0.31812343035E+02  0.00000000000E+00 0.  1.
</event>
<event>
 5    1  0.1264859E-009  0.9118800E+02  0.7815553E-02  0.1125453E+00
         25   -1    0    0    0    0  0.00000000000E+00  0.00000000000E+00  0.99999998245E-14  0.12509000000E+03  0.12509000000E+03 0.  0.
        -13    1    3    3    0    0 -0.56384271369E+02 -0.95343304756E+01  0.10864265841E+02  0.58207670901E+02  0.10566000000E+00 0. -1.
         23    2    1    0    0    0 -0.33882677363E+02  0.79698193938E+01 -0.34575457796E+01  0.90111314072E+02  0.83045412002E+02 0.  0.
         13    1    3    3    0    0  0.22501594006E+02  0.17504149869E+02 -0.14321811621E+02  0.31903643171E+02  0.10566000000E+00 0.  1.
         22    1    1    0    0    0  0.33882677363E+02 -0.79698193938E+01  0.34575457796E+01  0.34978685928E+02  0.00000000000E+00 0. -1.
</event>
<event>
 5    1  0.1264859E-009  0.9118800E+02  0.7815553E-02  0.1125453E+00
         25   -1    0    0    0    0  0.00000000000E+00  0.00000000000E+00  0.99999998245E-14  0.12509000000E+03  0.12509000000E+03 0.  0.
        -13    1    3    3    0    0  0.16731602632E+02 -0.30765665274E+01  0.29320755429E+02  0.33898814894E+02  0.10566000000E+00 0.  1.
         23    2    1    0    0    0 -0.14244840268E+02 -0.77623784745E+01 -0.24224135489E+02  0.95935605236E+02  0.91398367698E+02 0.  0.
         13    1    3    3    0    0 -0.30976442901E+02 -0.46858119471E+01 -0.53544890919E+02  0.62036790342E+02  0.10566000000E+00 0. -1.
         22    1    1    0    0    0  0.14244840268E+02  0.77623784745E+01  0.24224135489E+02  0.29154394764E+02  0.00000000000E+00 0. -1.
</event>
<event>
 5    1  0.1264859E-009  0.9118800E+02  0.7815553E-02  0.1125453E+00
         25   -1    0    0    0    0  0.00000000000E+00  0.00000000000E+00  0.99999998245E-14  0.12509000000E+03  0.12509000000E+03 0.  0.
        -13    1    3    3    0    0  0.30152122196E+01  0.41350368255E+02  0.80543802770E+01  0.42235395882E+02  0.10566000000E+00 0. -1.
         23    2    1    0    0    0 -0.30147048375E+02  0.24729739460E+01  0.95885429746E+01  0.93358307920E+02  0.87800190065E+02 0.  0.
         13    1    3    3    0    0 -0.33162260595E+02 -0.38877394309E+02  0.15341626976E+01  0.51122912038E+02  0.10566000000E+00 0.  1.
         22    1    1    0    0    0  0.30147048375E+02 -0.24729739460E+01 -0.95885429746E+01  0.31731692080E+02  0.00000000000E+00 0.  1.
</event>
<event>
 5    1  0.1264859E-009  0.9118800E+02  0.7815553E-02  0.1125453E+00
         25   -1    0    0    0    0  0.00000000000E+00  0.00000000000E+00  0.99999998245E-14  0.12509000000E+03  0.12509000000E+03 0.  0.
        -13    1    3    3    0    0 -0.12936775923E+02 -0.21282181297E+02 -0.35673795187E+02  0.43507726201E+02  0.10566000000E+00 0. -1.
         23    2    1    0    0    0  0.87423791334E+01 -0.24706427639E+02  0.12206765190E+02  0.96179069957E+02  0.91730974168E+02 0.  0.
         13    1    3    3    0    0  0.21679155057E+02 -0.34242463413E+01  0.47880560377E+02  0.52671343756E+02  0.10566000000E+00 0.  1.
         22    1    1    0    0    0 -0.87423791334E+01  0.24706427639E+02 -0.12206765190E+02  0.28910930043E+02  0.00000000000E+00 0. -1.
</event>
<event>
 5    1  0.1264859E-009  0.9118800E+02  0.7815553E-02  0.1125453E+00
         25   -1    0    0    0    0  0.00000000000E+00  0.00000000000E+00  0.99999998245E-14  0.12509000000E+03  0.12509000000E+03 0.  0.
        -13    1    3    3    0    0 -0.34884411847E+02 -0.19944188851E+01 -0.16382763655E+00  0.34941921815E+02  0.10566000000E+00 0. -1.
         23    2    1    0    0    0  0.21809593348E+02  0.32910322397E+00  0.20331437623E+02  0.95271649496E+02  0.90485099166E+02 0.  0.
         13    1    3    3    0    0  0.56694005195E+02  0.23235221090E+01  0.20495265260E+02  0.60329727681E+02  0.10566000000E+00 0.  1.
         22    1    1    0    0    0 -0.21809593348E+02 -0.32910322397E+00 -0.20331437623E+02  0.29818350504E+02  0.00000000000E+00 0.  1.
</event>
<event>
 5    1  0.1264859E-009  0.9118800E+02  0.7815553E-02  0.1125453E+00
         25   -1    0    0    0    0  0.00000000000E+00  0.00000000000E+00  0.99999998245E-14  0.12509000000E+03  0.12509000000E+03 0.  0.
        -13    1    3    3    0    0 -0.16108505362E+02  0.34445496317E+02 -0.55885815281E+01  0.38434614204E+02  0.10566000000E+00 0. -1.
         23    2    1    0    0    0  0.37254023035E+00 -0.27320236847E+01 -0.35855460307E+02  0.89128676700E+02  0.81551849990E+02 0.  0.
         13    1    3    3    0    0  0.16481045592E+02 -0.37177520001E+02 -0.30266878779E+02  0.50694062496E+02  0.10566000000E+00 0.  1.
         22    1    1    0    0    0 -0.37254023035E+00  0.27320236847E+01  0.35855460307E+02  0.35961323300E+02  0.00000000000E+00 0.  1.
</event>
<event>
 5    1  0.1264859E-009  0.9118800E+02  0.7815553E-02  0.1125453E+00
         25   -1    0    0    0    0  0.00000000000E+00  0.00000000000E+00  0.99999998245E-14  0.12509000000E+03  0.12509000000E+03 0.  0.
        -13    1    3    3    0    0 -0.22188132309E+02  0.29141164257E+02  0.81874700448E+00  0.36636077578E+02  0.10566000000E+00 0. -1.
         23    2    1    0    0    0 -0.76751449997E+00 -0.24167045576E+02 -0.15511565663E+02  0.96362942377E+02  0.91981372157E+02 0.  0.
         13    1    3    3    0    0  0.21420617809E+02 -0.53308209832E+02 -0.16330312667E+02  0.59726864799E+02  0.10566000000E+00 0.  1.
         22    1    1    0    0    0  0.76751449997E+00  0.24167045576E+02  0.15511565663E+02  0.28727057623E+02  0.00000000000E+00 0.  1.
</event>
<event>
 5    1  0.1264859E-009  0.9118800E+02  0.7815553E-02  0.1125453E+00
         25   -1    0    0    0    0  0.00000000000E+00  0.00000000000E+00  0.99999998245E-14  0.12509000000E+03  0.12509000000E+03 0.  0.
        -13    1    3    3    0    0  0.12286052249E+02  0.38245600076E+02  0.22996184474E+02  0.46287240892E+02  0.10566000000E+00 0.  1.
         23    2    1    0    0    0  0.11791964681E+02  0.16779179196E+02 -0.21305156432E+02  0.95518037330E+02  0.90825076269E+02 0.  0.
         13    1    3    3    0    0 -0.49408756748E+00 -0.21466420879E+02 -0.44301340906E+02  0.49230796439E+02  0.10566000000E+00 0. -1.
         22    1    1    0    0    0 -0.11791964681E+02 -0.16779179196E+02  0.21305156432E+02  0.29571962670E+02  0.00000000000E+00 0.  1.
</event>
<event>
 5    1  0.1264859E-009  0.9118800E+02  0.7815553E-02  0.1125453E+00
         25   -1    0    0    0    0  0.00000000000E+00  0.00000000000E+00  0.99999998245E-14  0.12509000000E+03  0.12509000000E+03 0.  0.
        -13    1    3    3    0    0  0.24800805437E+02  0.39393173120E+02  0.33756638116E+02  0.57501511456E+02  0.10566000000E+00 0. -1.
         23    2    1    0    0    0  0.19143195003E+02  0.36710513832E+01  0.22370205693E+02  0.95419060751E+02  0.90688657056E+02 0.  0.
         13    1    3    3    0    0 -0.56576104341E+01 -0.35722121737E+02 -0.11386432423E+02  0.37917549295E+02  0.10566000000E+00 0.  1.
         22    1    1    0    0    0 -0.19143195003E+02 -0.36710513832E+01 -0.22370205693E+02  0.29670939249E+02  0.00000000000E+00 0. -1.
</event>
<event>
 5    1  0.1264859E-009  0.9118800E+02  0.7815553E-02  0.1125453E+00
         25   -1    0    0    0    0  0.00000000000E+00  0.00000000000E+00  0.99999998245E-14  0.12509000000E+03  0.12509000000E+03 0.  0.
        -13    1    3    3    0    0  0.16930925385E+02 -0.22780747785E+02 -0.19937035778E+02  0.34685951965E+02  0.10566000000E+00 0.  1.
         23    2    1    0    0    0 -0.26425628541E+02  0.15069499946E+01  0.14272834830E+02  0.95018442738E+02  0.90134376928E+02 0.  0.
         13    1    3    3    0    0 -0.43356553927E+02  0.24287697779E+02  0.34209870608E+02  0.60332490773E+02  0.10566000000E+00 0. -1.
         22    1    1    0    0    0  0.26425628541E+02 -0.15069499946E+01 -0.14272834830E+02  0.30071557262E+02  0.00000000000E+00 0. -1.
</event>
<event>
 5    1  0.1264859E-009  0.9118800E+02  0.7815553E-02  0.1125453E+00
         25   -1    0    0    0    0  0.00000000000E+00  0.00000000000E+00  0.99999998245E-14  0.12509000000E+03  0.12509000000E+03 0.  0.
        -13    1    3    3    0    0  0.23559087458E+02 -0.58283568784E+01 -0.25105441782E+02  0.34918400835E+02  0.10566000000E+00 0.  1.
         23    2    1    0    0    0 -0.15551179583E+01 -0.92246170524E+01  0.28974912592E+02  0.94642380860E+02  0.89610952140E+02 0.  0.
         13    1    3    3    0    0 -0.25114205416E+02 -0.33962601740E+01  0.54080354373E+02  0.59723980025E+02  0.10566000000E+00 0. -1.
         22    1    1    0    0    0  0.15551179583E+01  0.92246170524E+01 -0.28974912592E+02  0.30447619140E+02  0.00000000000E+00 0. -1.
</event>
<event>
 5    1  0.1264859E-009  0.9118800E+02  0.7815553E-02  0.1125453E+00
         25   -1    0    0    0    0  0.00000000000E+00  0.00000000000E+00  0.99999998245E-14  0.12509000000E+03  0.12509000000E+03 0.  0.
        -13    1    3    3    0    0 -0.30692869573E+02  0.15387666628E+02 -0.46396473817E+02  0.57718943801E+02  0.10566000000E+00 0. -1.
         23    2    1    0    0    0  0.53571327345E+00  0.11259135788E+02 -0.29597239988E+02  0.93419007873E+02  0.87886627479E+02 0.  0.
         13    1    3    3    0    0  0.31228582846E+02 -0.41285308398E+01  0.16799233829E+02  0.35700064072E+02  0.10566000000E+00 0.  1.
         22    1    1    0    0    0 -0.53571327345E+00 -0.11259135788E+02  0.29597239988E+02  0.31670992127E+02  0.00000000000E+00 0. -1.
</event>
<event>
 5    1  0.1264859E-009  0.9118800E+02  0.7815553E-02  0.1125453E+00
         25   -1    0    0    0    0  0.00000000000E+00  0.00000000000E+00  0.99999998245E-14  0.12509000000E+03  0.12509000000E+03 0.  0.
        -13    1    3    3    0    0 -0.11827043683E+02  0.24730994704E+02  0.20832156849E+02  0.34430959678E+02  0.10566000000E+00 0. -1.
         23    2    1    0    0    0 -0.11458443898E+02 -0.42135045358E+01 -0.29873802609E+02  0.92817819421E+02  0.87026742801E+02 0.  0.
         13    1    3    3    0    0  0.36859978520E+00 -0.28944499240E+02 -0.50705959458E+02  0.58386859743E+02  0.10566000000E+00 0.  1.
         22    1    1    0    0    0  0.11458443898E+02  0.42135045358E+01  0.29873802609E+02  0.32272180579E+02  0.00000000000E+00 0.  1.
</event>
<event>
 5    1  0.1264859E-009  0.9118800E+02  0.7815553E-02  0.1125453E+00
         25   -1    0    0    0    0  0.00000000000E+00  0.00000000000E+00  0.99999998245E-14  0.12509000000E+03  0.12509000000E+03 0.  0.
        -13    1    3    3    0    0  0.16902970345E+02 -0.86308967990E+00 -0.29665098133E+02  0.34153836411E+02  0.10566000000E+00 0. -1.
         23    2    1    0    0    0  0.21484430683E+01  0.65329355668E+01  0.29097774464E+02  0.95190576368E+02  0.90372951129E+02 0.  0.
         13    1    3    3    0    0 -0.14754527277E+02  0.73960252467E+01  0.58762872598E+02  0.61036739957E+02  0.10566000000E+00 0.  1.
         22    1    1    0    0    0 -0.21484430683E+01 -0.65329355668E+01 -0.29097774464E+02  0.29899423632E+02  0.00000000000E+00 0.  1.
</event>
<event>
 5    1  0.1264859E-009  0.9118800E+02  0.7815553E-02  0.1125453E+00
         25   -1    0    0    0    0  0.00000000000E+00  0.00000000000E+00  0.99999998245E-14  0.12509000000E+03  0.12509000000E+03 0.  0.
        -13    1    3    3    0    0  0.34415594275E+02 -0.12378168310E+02  0.47350605042E+02  0.59830954714E+02  0.10566000000E+00 0. -1.
         23    2    1    0    0    0  0.48170268890E+01 -0.57838050897E+01  0.28672051520E+02  0.95446405621E+02  0.90726366941E+02 0.  0.
         13    1    3    3    0    0 -0.29598567386E+02  0.65943632201E+01 -0.18678553523E+02  0.35615450907E+02  0.10566000000E+00 0.  1.
         22    1    1    0    0    0 -0.48170268890E+01  0.57838050897E+01 -0.28672051520E+02  0.29643594379E+02  0.00000000000E+00 0. -1.
</event>
<event>
 5    1  0.1264859E-009  0.9118800E+02  0.7815553E-02  0.1125453E+00
         25   -1    0    0    0    0  0.00000000000E+00  0.00000000000E+00  0.99999998245E-14  0.12509000000E+03  0.12509000000E+03 0.  0.
        -13    1    3    3    0    0  0.20170700608E+02 -0.22284958354E+02 -0.65213277893E+01  0.30757363541E+02  0.10566000000E+00 0.  1.
         23    2    1    0    0    0 -0.28337298080E+02  0.15492638718E+02  0.14868638080E+01  0.92759904409E+02  0.86943457402E+02 0.  0.
         13    1    3    3    0    0 -0.48507998689E+02  0.37777597072E+02  0.80081915973E+01  0.62002540867E+02  0.10566000000E+00 0. -1.
         22    1    1    0    0    0  0.28337298080E+02 -0.15492638718E+02 -0.14868638080E+01  0.32330095591E+02  0.00000000000E+00 0. -1.
</event>
<event>
 5    1  0.1264859E-009  0.9118800E+02  0.7815553E-02  0.1125453E+00
         25   -1    0    0    0    0  0.00000000000E+00  0.00000000000E+00  0.99999998245E-14  0.12509000000E+03  0.12509000000E+03 0.  0.
        -13    1    3    3    0    0  0.36220077787E+02 -0.14595225806E+02 -0.15095495694E+01  0.39079464622E+02  0.10566000000E+00 0.  1.
         23    2    1    0    0    0 -0.14611050329E+02 -0.40948961483E+01 -0.24836627951E+02  0.95984862066E+02  0.91465756935E+02 0.  0.
         13    1    3    3    0    0 -0.50831128116E+02  0.10500329658E+02 -0.23327078381E+02  0.56905397444E+02  0.10566000000E+00 0. -1.
         22    1    1    0    0    0  0.14611050329E+02  0.40948961483E+01  0.24836627951E+02  0.29105137934E+02  0.00000000000E+00 0. -1.
</event>
<event>
 5    1  0.1264859E-009  0.9118800E+02  0.7815553E-02  0.1125453E+00
         25   -1    0    0    0    0  0.00000000000E+00  0.00000000000E+00  0.99999998245E-14  0.12509000000E+03  0.12509000000E+03 0.  0.
        -13    1    3    3    0    0  0.93043204950E+01 -0.20649954734E+02 -0.24843402867E+02  0.33618400325E+02  0.10566000000E+00 0. -1.
         23    2    1    0    0    0 -0.16850384359E+02  0.15547050373E+02  0.18332424789E+02  0.95734863703E+02  0.91123213844E+02 0.  0.
         13    1    3    3    0    0 -0.26154704854E+02  0.36197005107E+02  0.43175827656E+02  0.62116463378E+02  0.10566000000E+00 0.  1.
         22    1    1    0    0    0  0.16850384359E+02 -0.15547050373E+02 -0.18332424789E+02  0.29355136297E+02  0.00000000000E+00 0.  1.
</event>
<event>
 5    1  0.1264859E-009  0.9118800E+02  0.7815553E-02  0.1125453E+00
         25   -1    0    0    0    0  0.00000000000E+00  0.00000000000E+00  0.99999998245E-14  0.12509000000E+03  0.12509000000E+03 0.  0.
        -13    1    3    3    0    0  0.34497458551E+02 -0.40445040222E+02 -0.11274093875E+02  0.54341441661E+02  0.10566000000E+00 0. -1.
         23    2    1    0    0    0  0.22599348267E+02 -0.41868145569E+01  0.12124187966E+02  0.99104313708E+02  0.95636860589E+02 0.  0.
         13    1    3    3    0    0 -0.11898110284E+02  0.36258225665E+02  0.23398281841E+02  0.44762872047E+02  0.10566000000E+00 0.  1.
         22    1    1    0    0    0 -0.22599348267E+02  0.41868145569E+01 -0.12124187966E+02  0.25985686292E+02  0.00000000000E+00 0. -1.
</event>
<event>
 5    1  0.1264859E-009  0.9118800E+02  0.7815553E-02  0.1125453E+00
         25   -1    0    0    0    0  0.00000000000E+00  0.00000000000E+00  0.99999998245E-14  0.12509000000E+03  0.12509000000E+03 0.  0.
        -13    1    3    3    0    0 -0.30569300141E+02  0.28630753354E+02  0.35899841021E+02  0.55163501503E+02  0.10566000000E+00 0.  1.
         23    2    1    0    0    0 -0.69332516528E+01  0.33036503794E+02  0.11475140394E+02  0.89436677455E+02  0.82022922806E+02 0.  0.
         13    1    3    3    0    0  0.23636048489E+02  0.44057504404E+01 -0.24424700626E+02  0.34273175952E+02  0.10566000000E+00 0. -1.
         22    1    1    0    0    0  0.69332516528E+01 -0.33036503794E+02 -0.11475140394E+02  0.35653322545E+02  0.00000000000E+00 0.  1.
</event>
<event>
 5    1  0.1264859E-009  0.9118800E+02  0.7815553E-02  0.1125453E+00
         25   -1    0    0    0    0  0.00000000000E+00  0.00000000000E+00  0.99999998245E-14  0.12509000000E+03  0.12509000000E+03 0.  0.
        -13    1    3    3    0    0  0.47361070942E+02 -0.44835507329E+01  0.38192518073E+02  0.61006990327E+02  0.10566000000E+00 0.  1.
         23    2    1    0    0    0  0.19616171444E+02 -0.10851054262E+02  0.21618266725E+02  0.93946958772E+02  0.88634880525E+02 0.  0.
         13    1    3    3    0    0 -0.27744899499E+02 -0.63675035294E+01 -0.16574251348E+02  0.32939968445E+02  0.10566000000E+00 0. -1.
         22    1    1    0    0    0 -0.19616171444E+02  0.10851054262E+02 -0.21618266725E+02  0.31143041228E+02  0.00000000000E+00 0.  1.
</event>
<event>
 5    1  0.1264859E-009  0.9118800E+02  0.7815553E-02  0.1125453E+00
         25   -1    0    0    0    0  0.00000000000E+00  0.00000000000E+00  0.99999998245E-14  0.12509000000E+03  0.12509000000E+03 0.  0.
        -13    1    3    3    0    0 -0.24456109744E+02 -0.98903612124E+00  0.36048135129E+02  0.43572453529E+02  0.10566000000E+00 0.  1.
         23    2    1    0    0    0  0.75630594331E+01  0.27806567164E+02  0.72571222486E+01  0.95373491646E+02  0.90625780218E+02 0.  0.
         13    1    3    3    0    0  0.32019169177E+02  0.28795603285E+02 -0.28791012880E+02  0.51801038117E+02  0.10566000000E+00 0. -1.
         22    1    1    0    0    0 -0.75630594331E+01 -0.27806567164E+02 -0.72571222486E+01  0.29716508354E+02  0.00000000000E+00 0.  1.
</event>
<event>
 5    1  0.1264859E-009  0.9118800E+02  0.7815553E-02  0.1125453E+00
         25   -1    0    0    0    0  0.00000000000E+00  0.00000000000E+00  0.99999998245E-14  0.12509000000E+03  0.12509000000E+03 0.  0.
        -13    1    3    3    0    0  0.25318757476E+02  0.28209126355E+02 -0.22663126443E+02  0.44163590819E+02  0.10566000000E+00 0.  1.
         23    2    1    0    0    0  0.10153882170E+02 -0.22537577747E+02 -0.67970511505E+01  0.99453236590E+02  0.96092156964E+02 0.  0.
         13    1    3    3    0    0 -0.15164875306E+02 -0.50746704101E+02  0.15866075293E+02  0.55289645771E+02  0.10566000000E+00 0. -1.
         22    1    1    0    0    0 -0.10153882170E+02  0.22537577747E+02  0.67970511505E+01  0.25636763410E+02  0.00000000000E+00 0. -1.
</event>
<event>
 5    1  0.1264859E-009  0.9118800E+02  0.7815553E-02  0.1125453E+00
         25   -1    0    0    0    0  0.00000000000E+00  0.00000000000E+00  0.99999998245E-14  0.12509000000E+03  0.12509000000E+03 0.  0.
        -13    1    3    3    0    0 -0.32638605061E+02 -0.42275505198E+02  0.25675416471E+02  0.59259894153E+02  0.10566000000E+00 0.  1.
         23    2    1    0    0    0 -0.45619416770E+01 -0.28092464270E+02  0.72277807589E+01  0.95726099112E+02  0.91111181399E+02 0.  0.
         13    1    3    3    0    0  0.28076663384E+02  0.14183040928E+02 -0.18447635712E+02  0.36466204959E+02  0.10566000000E+00 0. -1.
         22    1    1    0    0    0  0.45619416770E+01  0.28092464270E+02 -0.72277807589E+01  0.29363900888E+02  0.00000000000E+00 0.  1.
</event>
<event>
 5    1  0.1264859E-009  0.9118800E+02  0.7815553E-02  0.1125453E+00
         25   -1    0    0    0    0  0.00000000000E+00  0.00000000000E+00  0.99999998245E-14  0.12509000000E+03  0.12509000000E+03 0.  0.
        -13    1    3    3    0    0  0.13797065911E+02 -0.27198932783E+02 -0.24162584736E+02  0.38909929805E+02  0.10566000000E+00 0. -1.
         23    2    1    0    0    0  0.20584755580E+02  0.20253669293E+02  0.60670639204E+01  0.95581483488E+02  0.90912416308E+02 0.  0.
         13    1    3    3    0    0  0.67876896689E+01  0.47452602076E+02  0.30229648657E+02  0.56671553682E+02  0.10566000000E+00 0.  1.
         22    1    1    0    0    0 -0.20584755580E+02 -0.20253669293E+02 -0.60670639204E+01  0.29508516512E+02  0.00000000000E+00 0.  1.
</event>
<event>
 5    1  0.1264859E-009  0.9118800E+02  0.7815553E-02  0.1125453E+00
         25   -1    0    0    0    0  0.00000000000E+00  0.00000000000E+00  0.99999998245E-14  0.12509000000E+03  0.12509000000E+03 0.  0.
        -13    1    3    3    0    0  0.64219590555E+01  0.11732668875E+02  0.41989231787E+02  0.44068172496E+02  0.10566000000E+00 0.  1.
         23    2    1    0    0    0  0.33016906310E+02  0.52924339646E+01  0.32543062322E+01  0.91493624175E+02  0.85102096309E+02 0.  0.
         13    1    3    3    0    0  0.26594947254E+02 -0.64402349103E+01 -0.38734925555E+02  0.47425451679E+02  0.10566000000E+00 0. -1.
         22    1    1    0    0    0 -0.33016906310E+02 -0.52924339646E+01 -0.32543062322E+01  0.33596375825E+02  0.00000000000E+00 0.  1.
</event>
<event>
 5    1  0.1264859E-009  0.9118800E+02  0.7815553E-02  0.1125453E+00
         25   -1    0    0    0    0  0.00000000000E+00  0.00000000000E+00  0.99999998245E-14  0.12509000000E+03  0.12509000000E+03 0.  0.
        -13    1    3    3    0    0 -0.47029582450E+02  0.25082104017E+02 -0.17991622336E+02  0.56254806067E+02  0.10566000000E+00 0. -1.
         23    2    1    0    0    0 -0.93064912364E+01  0.27042015512E+02 -0.61949365302E+01  0.95828102920E+02  0.91251118834E+02 0.  0.
         13    1    3    3    0    0  0.37723091213E+02  0.19599114954E+01  0.11796685806E+02  0.39573296853E+02  0.10566000000E+00 0.  1.
         22    1    1    0    0    0  0.93064912364E+01 -0.27042015512E+02  0.61949365302E+01  0.29261897080E+02  0.00000000000E+00 0. -1.
</event>
<event>
 5    1  0.1264859E-009  0.9118800E+02  0.7815553E-02  0.1125453E+00
         25   -1    0    0    0    0  0.00000000000E+00  0.00000000000E+00  0.99999998245E-14  0.12509000000E+03  0.12509000000E+03 0.  0.
        -13    1    3    3    0    0  0.36928571163E+02 -0.11580480737E+02  0.29270039918E+02  0.48523945667E+02  0.10566000000E+00 0. -1.
         23    2    1    0    0    0  0.55590793528E+01  0.22029256375E+02  0.18617226897E+02  0.95716667928E+02  0.91098232048E+02 0.  0.
         13    1    3    3    0    0 -0.31369491810E+02  0.33609737111E+02 -0.10652813021E+02  0.47192722261E+02  0.10566000000E+00 0.  1.
         22    1    1    0    0    0 -0.55590793528E+01 -0.22029256375E+02 -0.18617226897E+02  0.29373332072E+02  0.00000000000E+00 0. -1.
</event>
<event>
 5    1  0.1264859E-009  0.9118800E+02  0.7815553E-02  0.1125453E+00
         25   -1    0    0    0    0  0.00000000000E+00  0.00000000000E+00  0.99999998245E-14  0.12509000000E+03  0.12509000000E+03 0.  0.
        -13    1    3    3    0    0  0.36079845527E+02  0.24045315165E+02 -0.34019258139E+02  0.55111283083E+02  0.10566000000E+00 0.  1.
         23    2    1    0    0    0  0.10421424400E+02 -0.75374813355E+01 -0.25272914039E+02  0.96732639484E+02  0.92482774861E+02 0.  0.
         13    1    3    3    0    0 -0.25658421127E+02 -0.31582796501E+02  0.87463440995E+01  0.41621356401E+02  0.10566000000E+00 0. -1.
         22    1    1    0    0    0 -0.10421424400E+02  0.75374813355E+01  0.25272914039E+02  0.28357360516E+02  0.00000000000E+00 0.  1.
</event>
<event>
 5    1  0.1264859E-009  0.9118800E+02  0.7815553E-02  0.1125453E+00
         25   -1    0    0    0    0  0.00000000000E+00  0.00000000000E+00  0.99999998245E-14  0.12509000000E+03  0.12509000000E+03 0.  0.
        -13    1    3    3    0    0  0.35123450702E+02  0.43522216351E+02  0.26396761787E+02  0.61843676331E+02  0.10566000000E+00 0. -1.
         23    2    1    0    0    0  0.17779533857E+02  0.22213283170E+02  0.61309790479E+01  0.95984490599E+02  0.91465248910E+02 0.  0.
         13    1    3    3    0    0 -0.17343916845E+02 -0.21308933181E+02 -0.20265782739E+02  0.34140814268E+02  0.10566000000E+00 0.  1.
         22    1    1    0    0    0 -0.17779533857E+02 -0.22213283170E+02 -0.61309790479E+01  0.29105509401E+02  0.00000000000E+00 0. -1.
</event>
<event>
 5    1  0.1264859E-009  0.9118800E+02  0.7815553E-02  0.1125453E+00
         25   -1    0    0    0    0  0.00000000000E+00  0.00000000000E+00  0.99999998245E-14  0.12509000000E+03  0.12509000000E+03 0.  0.
        -13    1    3    3    0    0  0.54620755703E+02 -0.24023259493E+02 -0.13250985202E+02  0.61124002840E+02  0.10566000000E+00 0. -1.
         23    2    1    0    0    0  0.21956827988E+02 -0.11664893366E+02 -0.14930928876E+02  0.96088195407E+02  0.91606968223E+02 0.  0.
         13    1    3    3    0    0 -0.32663927715E+02  0.12358366127E+02 -0.16799436736E+01  0.34964192567E+02  0.10566000000E+00 0.  1.
         22    1    1    0    0    0 -0.21956827988E+02  0.11664893366E+02  0.14930928876E+02  0.29001804593E+02  0.00000000000E+00 0. -1.
</event>
<event>
 5    1  0.1264859E-009  0.9118800E+02  0.7815553E-02  0.1125453E+00
         25   -1    0    0    0    0  0.00000000000E+00  0.00000000000E+00  0.99999998245E-14  0.12509000000E+03  0.12509000000E+03 0.  0.
        -13    1    3    3    0    0 -0.32681964888E+02  0.18288367755E+02 -0.43790428663E+02  0.57621072800E+02  0.10566000000E+00 0. -1.
         23    2    1    0    0    0 -0.10176169413E+02  0.23901790244E+02 -0.13377388970E+02  0.95870066112E+02  0.91308625222E+02 0.  0.
         13    1    3    3    0    0  0.22505795475E+02  0.56134224884E+01  0.30413039693E+02  0.38248993312E+02  0.10566000000E+00 0.  1.
         22    1    1    0    0    0  0.10176169413E+02 -0.23901790244E+02  0.13377388970E+02  0.29219933888E+02  0.00000000000E+00 0. -1.
</event>
<event>
 5    1  0.1264859E-009  0.9118800E+02  0.7815553E-02  0.1125453E+00
         25   -1    0    0    0    0  0.00000000000E+00  0.00000000000E+00  0.99999998245E-14  0.12509000000E+03  0.12509000000E+03 0.  0.
        -13    1    3    3    0    0 -0.35391420706E+02  0.41341763118E+02  0.11175529463E+02  0.55557156695E+02  0.10566000000E+00 0. -1.
         23    2    1    0    0    0 -0.27986973083E+02  0.86012850096E+01 -0.86726772275E+01  0.94553659413E+02  0.89487018120E+02 0.  0.
         13    1    3    3    0    0  0.74044476230E+01 -0.32740478108E+02 -0.19848206690E+02  0.38996502718E+02  0.10566000000E+00 0.  1.
         22    1    1    0    0    0  0.27986973083E+02 -0.86012850096E+01  0.86726772275E+01  0.30536340587E+02  0.00000000000E+00 0. -1.
</event>
<event>
 5    1  0.1264859E-009  0.9118800E+02  0.7815553E-02  0.1125453E+00
         25   -1    0    0    0    0  0.00000000000E+00  0.00000000000E+00  0.99999998245E-14  0.12509000000E+03  0.12509000000E+03 0.  0.
        -13    1    3    3    0    0  0.26342980912E+02 -0.41174679742E+02 -0.14565519580E+02  0.51004631357E+02  0.10566000000E+00 0.  1.
         23    2    1    0    0    0 -0.80231697624E+01 -0.26313452936E+02  0.10037547190E+02  0.95806533469E+02  0.91221545938E+02 0.  0.
         13    1    3    3    0    0 -0.34366150674E+02  0.14861226806E+02  0.24603066770E+02  0.44801902112E+02  0.10566000000E+00 0. -1.
         22    1    1    0    0    0  0.80231697624E+01  0.26313452936E+02 -0.10037547190E+02  0.29283466531E+02  0.00000000000E+00 0.  1.
</event>
<event>
 5    1  0.1264859E-009  0.9118800E+02  0.7815553E-02  0.1125453E+00
         25   -1    0    0    0    0  0.00000000000E+00  0.00000000000E+00  0.99999998245E-14  0.12509000000E+03  0.12509000000E+03 0.  0.
        -13    1    3    3    0    0 -0.15952198433E+02  0.14055772182E+02  0.26994267414E+02  0.34361883006E+02  0.10566000000E+00 0.  1.
         23    2    1    0    0    0  0.10248301074E+02  0.29151720972E+01 -0.27363987591E+02  0.95724821299E+02  0.91109427024E+02 0.  0.
         13    1    3    3    0    0  0.26200499507E+02 -0.11140600084E+02 -0.54358255005E+02  0.61362938293E+02  0.10566000000E+00 0. -1.
         22    1    1    0    0    0 -0.10248301074E+02 -0.29151720972E+01  0.27363987591E+02  0.29365178701E+02  0.00000000000E+00 0. -1.
</event>
<event>
 5    1  0.1264859E-009  0.9118800E+02  0.7815553E-02  0.1125453E+00
         25   -1    0    0    0    0  0.00000000000E+00  0.00000000000E+00  0.99999998245E-14  0.12509000000E+03  0.12509000000E+03 0.  0.
        -13    1    3    3    0    0  0.25171636522E+02 -0.45404010431E+01  0.35429663285E+02  0.43697811516E+02  0.10566000000E+00 0.  1.
         23    2    1    0    0    0  0.30895436566E+02  0.27649890897E+01 -0.11853586319E+02  0.91883364009E+02  0.85673052401E+02 0.  0.
         13    1    3    3    0    0  0.57238000439E+01  0.73053901328E+01 -0.47283249603E+02  0.48185552493E+02  0.10566000000E+00 0. -1.
         22    1    1    0    0    0 -0.30895436566E+02 -0.27649890897E+01  0.11853586319E+02  0.33206635991E+02  0.00000000000E+00 0. -1.
</event>
<event>
 5    1  0.1264859E-009  0.9118800E+02  0.7815553E-02  0.1125453E+00
         25   -1    0    0    0    0  0.00000000000E+00  0.00000000000E+00  0.99999998245E-14  0.12509000000E+03  0.12509000000E+03 0.  0.
        -13    1    3    3    0    0 -0.38325738910E+02  0.35430639225E+02 -0.19219193366E+02  0.55619969585E+02  0.10566000000E+00 0.  1.
         23    2    1    0    0    0 -0.36357882183E+02  0.70948031649E+01 -0.17620228873E+02  0.84069221189E+02  0.73382079944E+02 0.  0.
         13    1    3    3    0    0  0.19678567273E+01 -0.28335836060E+02  0.15989644934E+01  0.28449251604E+02  0.10566000000E+00 0. -1.
         22    1    1    0    0    0  0.36357882183E+02 -0.70948031649E+01  0.17620228873E+02  0.41020778811E+02  0.00000000000E+00 0.  1.
</event>
<event>
 5    1  0.1264859E-009  0.9118800E+02  0.7815553E-02  0.1125453E+00
         25   -1    0    0    0    0  0.00000000000E+00  0.00000000000E+00  0.99999998245E-14  0.12509000000E+03  0.12509000000E+03 0.  0.
        -13    1    3    3    0    0  0.41034282921E+02  0.43091573831E+02 -0.13466048570E+02  0.61008538240E+02  0.10566000000E+00 0.  1.
         23    2    1    0    0    0  0.74272032828E+01  0.20409331867E+02 -0.13331912158E+01  0.10333036823E+03  0.10101328340E+03 0.  0.
         13    1    3    3    0    0 -0.33607079638E+02 -0.22682241963E+02  0.12132857354E+02  0.42321829992E+02  0.10566000000E+00 0. -1.
         22    1    1    0    0    0 -0.74272032828E+01 -0.20409331867E+02  0.13331912158E+01  0.21759631768E+02  0.00000000000E+00 0.  1.
</event>
<event>
 5    1  0.1264859E-009  0.9118800E+02  0.7815553E-02  0.1125453E+00
         25   -1    0    0    0    0  0.00000000000E+00  0.00000000000E+00  0.99999998245E-14  0.12509000000E+03  0.12509000000E+03 0.  0.
        -13    1    3    3    0    0  0.24219099509E+02  0.80666838181E+01 -0.15843102023E+02  0.30044154417E+02  0.10566000000E+00 0.  1.
         23    2    1    0    0    0 -0.23060414015E+02  0.12800310361E+02  0.21964993318E+02  0.90766661419E+02  0.84026753203E+02 0.  0.
         13    1    3    3    0    0 -0.47279513524E+02  0.47336265430E+01  0.37808095341E+02  0.60722507003E+02  0.10566000000E+00 0. -1.
         22    1    1    0    0    0  0.23060414015E+02 -0.12800310361E+02 -0.21964993318E+02  0.34323338581E+02  0.00000000000E+00 0. -1.
</event>
<event>
 5    1  0.1264859E-009  0.9118800E+02  0.7815553E-02  0.1125453E+00
         25   -1    0    0    0    0  0.00000000000E+00  0.00000000000E+00  0.99999998245E-14  0.12509000000E+03  0.12509000000E+03 0.  0.
        -13    1    3    3    0    0 -0.98181382429E+01 -0.29831597279E+02  0.17693688540E+02  0.36047160956E+02  0.10566000000E+00 0.  1.
         23    2    1    0    0    0  0.84134089650E+01  0.10932404101E+02 -0.24171981261E+02  0.97258586311E+02  0.93191442866E+02 0.  0.
         13    1    3    3    0    0  0.18231547208E+02  0.40764001380E+02 -0.41865669801E+02  0.61211425355E+02  0.10566000000E+00 0. -1.
         22    1    1    0    0    0 -0.84134089650E+01 -0.10932404101E+02  0.24171981261E+02  0.27831413689E+02  0.00000000000E+00 0. -1.
</event>
<event>
 5    1  0.1264859E-009  0.9118800E+02  0.7815553E-02  0.1125453E+00
         25   -1    0    0    0    0  0.00000000000E+00  0.00000000000E+00  0.99999998245E-14  0.12509000000E+03  0.12509000000E+03 0.  0.
        -13    1    3    3    0    0  0.40889781861E+02 -0.33767966369E+00 -0.27264918095E+02  0.49147484279E+02  0.10566000000E+00 0. -1.
         23    2    1    0    0    0 -0.44442015911E+01  0.20140475267E+02 -0.12216330392E+02  0.10111859203E+03  0.98236150445E+02 0.  0.
         13    1    3    3    0    0 -0.45333983452E+02  0.20478154931E+02  0.15048587703E+02  0.51971107752E+02  0.10566000000E+00 0.  1.
         22    1    1    0    0    0  0.44442015911E+01 -0.20140475267E+02  0.12216330392E+02  0.23971407969E+02  0.00000000000E+00 0.  1.
</event>
<event>
 5    1  0.1264859E-009  0.9118800E+02  0.7815553E-02  0.1125453E+00
         25   -1    0    0    0    0  0.00000000000E+00  0.00000000000E+00  0.99999998245E-14  0.12509000000E+03  0.12509000000E+03 0.  0.
        -13    1    3    3    0    0 -0.31582140037E+02 -0.35087246149E+02 -0.31516140280E+02  0.56761119385E+02  0.10566000000E+00 0. -1.
         23    2    1    0    0    0 -0.24525046585E+02 -0.16718452323E+02  0.16905843703E+01  0.95360509026E+02  0.90607858644E+02 0.  0.
         13    1    3    3    0    0  0.70570934513E+01  0.18368793826E+02  0.33206724651E+02  0.38599389641E+02  0.10566000000E+00 0.  1.
         22    1    1    0    0    0  0.24525046585E+02  0.16718452323E+02 -0.16905843703E+01  0.29729490974E+02  0.00000000000E+00 0. -1.
</event>
<event>
 5    1  0.1264859E-009  0.9118800E+02  0.7815553E-02  0.1125453E+00
         25   -1    0    0    0    0  0.00000000000E+00  0.00000000000E+00  0.99999998245E-14  0.12509000000E+03  0.12509000000E+03 0.  0.
        -13    1    3    3    0    0  0.11581088142E+02 -0.45364831357E+02  0.19899317257E+02  0.50873210218E+02  0.10566000000E+00 0. -1.
         23    2    1    0    0    0 -0.12294041633E+02 -0.26135757197E+02 -0.10796199870E+02  0.94255292355E+02  0.89068967330E+02 0.  0.
         13    1    3    3    0    0 -0.23875129775E+02  0.19229074159E+02 -0.30695517127E+02  0.43382082137E+02  0.10566000000E+00 0.  1.
         22    1    1    0    0    0  0.12294041633E+02  0.26135757197E+02  0.10796199870E+02  0.30834707645E+02  0.00000000000E+00 0. -1.
</event>
<event>
 5    1  0.1264859E-009  0.9118800E+02  0.7815553E-02  0.1125453E+00
         25   -1    0    0    0    0  0.00000000000E+00  0.00000000000E+00  0.99999998245E-14  0.12509000000E+03  0.12509000000E+03 0.  0.
        -13    1    3    3    0    0 -0.95783911018E+01 -0.42073784645E+02 -0.35351784656E+01  0.43295006425E+02  0.10566000000E+00 0. -1.
         23    2    1    0    0    0  0.97108059320E+00 -0.43366281648E+01  0.29934351822E+02  0.94827568499E+02  0.89869088051E+02 0.  0.
         13    1    3    3    0    0  0.10549471695E+02  0.37737156481E+02  0.33469530287E+02  0.51532562075E+02  0.10566000000E+00 0.  1.
         22    1    1    0    0    0 -0.97108059320E+00  0.43366281648E+01 -0.29934351822E+02  0.30262431501E+02  0.00000000000E+00 0.  1.
</event>
<event>
 5    1  0.1264859E-009  0.9118800E+02  0.7815553E-02  0.1125453E+00
         25   -1    0    0    0    0  0.00000000000E+00  0.00000000000E+00  0.99999998245E-14  0.12509000000E+03  0.12509000000E+03 0.  0.
        -13    1    3    3    0    0  0.52425260397E+02 -0.16324977917E+02 -0.12574995398E+02  0.56329872226E+02  0.10566000000E+00 0.  1.
         23    2    1    0    0    0  0.21153693071E+02 -0.92815349687E+01  0.14095012026E+02  0.98029050535E+02  0.94219954165E+02 0.  0.
         13    1    3    3    0    0 -0.31271567326E+02  0.70434429482E+01  0.26670007425E+02  0.41699178309E+02  0.10566000000E+00 0. -1.
         22    1    1    0    0    0 -0.21153693071E+02  0.92815349687E+01 -0.14095012026E+02  0.27060949465E+02  0.00000000000E+00 0.  1.
</event>
<event>
 5    1  0.1264859E-009  0.9118800E+02  0.7815553E-02  0.1125453E+00
         25   -1    0    0    0    0  0.00000000000E+00  0.00000000000E+00  0.99999998245E-14  0.12509000000E+03  0.12509000000E+03 0.  0.
        -13    1    3    3    0    0 -0.28316084428E+02 -0.45071721138E+02 -0.14060676674E+02  0.55054286629E+02  0.10566000000E+00 0. -1.
         23    2    1    0    0    0 -0.26878887616E+02 -0.45057368068E+01 -0.10791619609E+02  0.95777284032E+02  0.91181428039E+02 0.  0.
         13    1    3    3    0    0  0.14371968124E+01  0.40565984331E+02  0.32690570644E+01  0.40722997404E+02  0.10566000000E+00 0.  1.
         22    1    1    0    0    0  0.26878887616E+02  0.45057368068E+01  0.10791619609E+02  0.29312715968E+02  0.00000000000E+00 0. -1.
</event>
<event>
 5    1  0.1264859E-009  0.9118800E+02  0.7815553E-02  0.1125453E+00
         25   -1    0    0    0    0  0.00000000000E+00  0.00000000000E+00  0.99999998245E-14  0.12509000000E+03  0.12509000000E+03 0.  0.
        -13    1    3    3    0    0  0.34043994228E+02 -0.16764733183E+02 -0.25637965347E+02  0.45797011397E+02  0.10566000000E+00 0.  1.
         23    2    1    0    0    0 -0.16228980474E+02 -0.12940778445E+02 -0.19540257750E+02  0.96582716248E+02  0.92279769457E+02 0.  0.
         13    1    3    3    0    0 -0.50272974703E+02  0.38239547379E+01  0.60977075973E+01  0.50785704852E+02  0.10566000000E+00 0. -1.
         22    1    1    0    0    0  0.16228980474E+02  0.12940778445E+02  0.19540257750E+02  0.28507283752E+02  0.00000000000E+00 0. -1.
</event>
<event>
 5    1  0.1264859E-009  0.9118800E+02  0.7815553E-02  0.1125453E+00
         25   -1    0    0    0    0  0.00000000000E+00  0.00000000000E+00  0.99999998245E-14  0.12509000000E+03  0.12509000000E+03 0.  0.
        -13    1    3    3    0    0  0.55745932377E+01  0.39793619614E+02  0.12039285506E+02  0.41947154985E+02  0.10566000000E+00 0.  1.
         23    2    1    0    0    0  0.20851675096E+02  0.11025650375E+01 -0.21304112208E+02  0.95259257452E+02  0.90467966316E+02 0.  0.
         13    1    3    3    0    0  0.15277081859E+02 -0.38691054577E+02 -0.33343397714E+02  0.53312102468E+02  0.10566000000E+00 0. -1.
         22    1    1    0    0    0 -0.20851675096E+02 -0.11025650375E+01  0.21304112208E+02  0.29830742548E+02  0.00000000000E+00 0. -1.
</event>
<event>
 5    1  0.1264859E-009  0.9118800E+02  0.7815553E-02  0.1125453E+00
         25   -1    0    0    0    0  0.00000000000E+00  0.00000000000E+00  0.99999998245E-14  0.12509000000E+03  0.12509000000E+03 0.  0.
        -13    1    3    3    0    0  0.28257599921E+02 -0.28938748688E+02 -0.10131043426E+02  0.41696430709E+02  0.10566000000E+00 0.  1.
         23    2    1    0    0    0 -0.13167765958E+02 -0.14525630661E+02  0.21665513312E+02  0.95870512094E+02  0.91309236201E+02 0.  0.
         13    1    3    3    0    0 -0.41425365879E+02  0.14413118027E+02  0.31796556738E+02  0.54174081385E+02  0.10566000000E+00 0. -1.
         22    1    1    0    0    0  0.13167765958E+02  0.14525630661E+02 -0.21665513312E+02  0.29219487906E+02  0.00000000000E+00 0. -1.
</event>
<event>
 5    1  0.1264859E-009  0.9118800E+02  0.7815553E-02  0.1125453E+00
         25   -1    0    0    0    0  0.00000000000E+00  0.00000000000E+00  0.99999998245E-14  0.12509000000E+03  0.12509000000E+03 0.  0.
        -13    1    3    3    0    0 -0.35660063289E+02 -0.40877063087E+02  0.26680233052E+01  0.54311176683E+02  0.10566000000E+00 0. -1.
         23    2    1    0    0    0 -0.14131948057E+02 -0.19451021587E+02  0.23758403511E+02  0.91288876734E+02  0.84800607788E+02 0.  0.
         13    1    3    3    0    0  0.21528115231E+02  0.21426041500E+02  0.21090380206E+02  0.36977700050E+02  0.10566000000E+00 0.  1.
         22    1    1    0    0    0  0.14131948057E+02  0.19451021587E+02 -0.23758403511E+02  0.33801123266E+02  0.00000000000E+00 0. -1.
</event>
<event>
 5    1  0.1264859E-009  0.9118800E+02  0.7815553E-02  0.1125453E+00
         25   -1    0    0    0    0  0.00000000000E+00  0.00000000000E+00  0.99999998245E-14  0.12509000000E+03  0.12509000000E+03 0.  0.
        -13    1    3    3    0    0 -0.22362958353E+02  0.15432613754E+02 -0.29226299182E+02  0.39905578576E+02  0.10566000000E+00 0.  1.
         23    2    1    0    0    0 -0.19016403919E+02 -0.14703613422E+02  0.17323704019E+02  0.95460106537E+02  0.90745255267E+02 0.  0.
         13    1    3    3    0    0  0.33465544338E+01 -0.30136227176E+02  0.46550003200E+02  0.55554527961E+02  0.10566000000E+00 0. -1.
         22    1    1    0    0    0  0.19016403919E+02  0.14703613422E+02 -0.17323704019E+02  0.29629893463E+02  0.00000000000E+00 0. -1.
</event>
<event>
 5    1  0.1264859E-009  0.9118800E+02  0.7815553E-02  0.1125453E+00
         25   -1    0    0    0    0  0.00000000000E+00  0.00000000000E+00  0.99999998245E-14  0.12509000000E+03  0.12509000000E+03 0.  0.
        -13    1    3    3    0    0  0.12224078099E+02 -0.27098336022E+02 -0.50658130137E+02  0.58736745003E+02  0.10566000000E+00 0.  1.
         23    2    1    0    0    0  0.41952678453E+01 -0.25063682696E+02 -0.14499302897E+02  0.95832210489E+02  0.91256749450E+02 0.  0.
         13    1    3    3    0    0 -0.80288102542E+01  0.20346533265E+01  0.36158827239E+02  0.37095465486E+02  0.10566000000E+00 0. -1.
         22    1    1    0    0    0 -0.41952678453E+01  0.25063682696E+02  0.14499302897E+02  0.29257789511E+02  0.00000000000E+00 0.  1.
</event>
<event>
 5    1  0.1264859E-009  0.9118800E+02  0.7815553E-02  0.1125453E+00
         25   -1    0    0    0    0  0.00000000000E+00  0.00000000000E+00  0.99999998245E-14  0.12509000000E+03  0.12509000000E+03 0.  0.
        -13    1    3    3    0    0  0.66599952314E+01  0.44362114921E+02  0.21298433944E+02  0.49658707487E+02  0.10566000000E+00 0. -1.
         23    2    1    0    0    0 -0.15163211535E+02  0.52042422301E+01  0.25802259070E+02  0.94712974234E+02  0.89709440941E+02 0.  0.
         13    1    3    3    0    0 -0.21823206767E+02 -0.39157872691E+02  0.45038251263E+01  0.45054266747E+02  0.10566000000E+00 0.  1.
         22    1    1    0    0    0  0.15163211535E+02 -0.52042422301E+01 -0.25802259070E+02  0.30377025766E+02  0.00000000000E+00 0. -1.
</event>
<event>
 5    1  0.1264859E-009  0.9118800E+02  0.7815553E-02  0.1125453E+00
         25   -1    0    0    0    0  0.00000000000E+00  0.00000000000E+00  0.99999998245E-14  0.12509000000E+03  0.12509000000E+03 0.  0.
        -13    1    3    3    0    0 -0.40593744749E+02 -0.23198607244E+01 -0.90109846291E+01  0.41646643017E+02  0.10566000000E+00 0.  1.
         23    2    1    0    0    0 -0.29494684481E+02  0.24485314847E+02  0.19290035585E+02  0.82176452854E+02  0.70081358970E+02 0.  0.
         13    1    3    3    0    0  0.11099060268E+02  0.26805175571E+02  0.28301020214E+02  0.40529809837E+02  0.10566000000E+00 0. -1.
         22    1    1    0    0    0  0.29494684481E+02 -0.24485314847E+02 -0.19290035585E+02  0.42913547146E+02  0.00000000000E+00 0. -1.
</event>
<event>
 5    1  0.1264859E-009  0.9118800E+02  0.7815553E-02  0.1125453E+00
         25   -1    0    0    0    0  0.00000000000E+00  0.00000000000E+00  0.99999998245E-14  0.12509000000E+03  0.12509000000E+03 0.  0.
        -13    1    3    3    0    0  0.16919891586E+02 -0.24914774316E+02 -0.16511884344E+02  0.34346501993E+02  0.10566000000E+00 0.  1.
         23    2    1    0    0    0  0.95328932840E+00  0.17559376668E+02  0.24109349925E+02  0.95248732880E+02  0.90453412827E+02 0.  0.
         13    1    3    3    0    0 -0.15966602258E+02  0.42474150985E+02  0.40621234269E+02  0.60902230887E+02  0.10566000000E+00 0. -1.
         22    1    1    0    0    0 -0.95328932840E+00 -0.17559376668E+02 -0.24109349925E+02  0.29841267120E+02  0.00000000000E+00 0. -1.
</event>
<event>
 5    1  0.1264859E-009  0.9118800E+02  0.7815553E-02  0.1125453E+00
         25   -1    0    0    0    0  0.00000000000E+00  0.00000000000E+00  0.99999998245E-14  0.12509000000E+03  0.12509000000E+03 0.  0.
        -13    1    3    3    0    0  0.36409666326E+02 -0.14728137694E+02  0.17513013912E+02  0.43003472676E+02  0.10566000000E+00 0.  1.
         23    2    1    0    0    0  0.87469757516E+01  0.27841952128E+02  0.33232731090E+01  0.95717767752E+02  0.91099742240E+02 0.  0.
         13    1    3    3    0    0 -0.27662690574E+02  0.42570089822E+02 -0.14189740803E+02  0.52714295076E+02  0.10566000000E+00 0. -1.
         22    1    1    0    0    0 -0.87469757516E+01 -0.27841952128E+02 -0.33232731090E+01  0.29372232248E+02  0.00000000000E+00 0.  1.
</event>
<event>
 5    1  0.1264859E-009  0.9118800E+02  0.7815553E-02  0.1125453E+00
         25   -1    0    0    0    0  0.00000000000E+00  0.00000000000E+00  0.99999998245E-14  0.12509000000E+03  0.12509000000E+03 0.  0.
        -13    1    3    3    0    0 -0.18300439636E+02 -0.70485613881E+01  0.27080038678E+02  0.33435429822E+02  0.10566000000E+00 0. -1.
         23    2    1    0    0    0  0.22321873162E+02  0.13858040603E+02 -0.14387438680E+02  0.95134871848E+02  0.90295814626E+02 0.  0.
         13    1    3    3    0    0  0.40622312798E+02  0.20906601991E+02 -0.41467477358E+02  0.61699442026E+02  0.10566000000E+00 0.  1.
         22    1    1    0    0    0 -0.22321873162E+02 -0.13858040603E+02  0.14387438680E+02  0.29955128152E+02  0.00000000000E+00 0.  1.
</event>
<event>
 5    1  0.1264859E-009  0.9118800E+02  0.7815553E-02  0.1125453E+00
         25   -1    0    0    0    0  0.00000000000E+00  0.00000000000E+00  0.99999998245E-14  0.12509000000E+03  0.12509000000E+03 0.  0.
        -13    1    3    3    0    0  0.40314400271E+02 -0.52100651761E+01  0.14119011341E+01  0.40674319628E+02  0.10566000000E+00 0. -1.
         23    2    1    0    0    0  0.19218300437E+02  0.12769788542E+02 -0.32976043309E+02  0.84842888260E+02  0.74689260840E+02 0.  0.
         13    1    3    3    0    0 -0.21096099834E+02  0.17979853718E+02 -0.34387944443E+02  0.44168568632E+02  0.10566000000E+00 0.  1.
         22    1    1    0    0    0 -0.19218300437E+02 -0.12769788542E+02  0.32976043309E+02  0.40247111740E+02  0.00000000000E+00 0. -1.
</event>
<event>
 5    1  0.1264859E-009  0.9118800E+02  0.7815553E-02  0.1125453E+00
         25   -1    0    0    0    0  0.00000000000E+00  0.00000000000E+00  0.99999998245E-14  0.12509000000E+03  0.12509000000E+03 0.  0.
        -13    1    3    3    0    0  0.30289659026E+02  0.29748020455E+02 -0.19155989540E+02  0.46576509790E+02  0.10566000000E+00 0.  1.
         23    2    1    0    0    0 -0.23795727937E+01 -0.71026262775E+01 -0.27555423210E+02  0.96534597446E+02  0.92214518863E+02 0.  0.
         13    1    3    3    0    0 -0.32669231820E+02 -0.36850646733E+02 -0.83994336699E+01  0.49958087657E+02  0.10566000000E+00 0. -1.
         22    1    1    0    0    0  0.23795727937E+01  0.71026262775E+01  0.27555423210E+02  0.28555402554E+02  0.00000000000E+00 0.  1.
</event>
<event>
 5    1  0.1264859E-009  0.9118800E+02  0.7815553E-02  0.1125453E+00
         25   -1    0    0    0    0  0.00000000000E+00  0.00000000000E+00  0.99999998245E-14  0.12509000000E+03  0.12509000000E+03 0.  0.
        -13    1    3    3    0    0 -0.22526030816E+02  0.45976420928E+02 -0.31476125782E+02  0.60100008353E+02  0.10566000000E+00 0. -1.
         23    2    1    0    0    0 -0.18504604673E+02  0.12910588792E+02 -0.18732146670E+02  0.95764294281E+02  0.91163605913E+02 0.  0.
         13    1    3    3    0    0  0.40214261432E+01 -0.33065832137E+02  0.12743979111E+02  0.35664285928E+02  0.10566000000E+00 0.  1.
         22    1    1    0    0    0  0.18504604673E+02 -0.12910588792E+02  0.18732146670E+02  0.29325705719E+02  0.00000000000E+00 0. -1.
</event>
<event>
 5    1  0.1264859E-009  0.9118800E+02  0.7815553E-02  0.1125453E+00
         25   -1    0    0    0    0  0.00000000000E+00  0.00000000000E+00  0.99999998245E-14  0.12509000000E+03  0.12509000000E+03 0.  0.
        -13    1    3    3    0    0  0.48473652639E+02 -0.15563504309E+02  0.35814074454E+02  0.62246098348E+02  0.10566000000E+00 0.  1.
         23    2    1    0    0    0  0.18389579804E+02 -0.10020204601E+02  0.16555785680E+02  0.98394023055E+02  0.94703265983E+02 0.  0.
         13    1    3    3    0    0 -0.30084072835E+02  0.55432997089E+01 -0.19258288774E+02  0.36147924706E+02  0.10566000000E+00 0. -1.
         22    1    1    0    0    0 -0.18389579804E+02  0.10020204601E+02 -0.16555785680E+02  0.26695976945E+02  0.00000000000E+00 0.  1.
</event>
<event>
 5    1  0.1264859E-009  0.9118800E+02  0.7815553E-02  0.1125453E+00
         25   -1    0    0    0    0  0.00000000000E+00  0.00000000000E+00  0.99999998245E-14  0.12509000000E+03  0.12509000000E+03 0.  0.
        -13    1    3    3    0    0 -0.15188688574E+02  0.36612118536E+02  0.16077622123E+02  0.42774344898E+02  0.10566000000E+00 0.  1.
         23    2    1    0    0    0  0.10522163927E+02 -0.98200633824E+01  0.24657959684E+02  0.96538913255E+02  0.92220373119E+02 0.  0.
         13    1    3    3    0    0  0.25710852501E+02 -0.46432181918E+02  0.85803375611E+01  0.53764568358E+02  0.10566000000E+00 0. -1.
         22    1    1    0    0    0 -0.10522163927E+02  0.98200633824E+01 -0.24657959684E+02  0.28551086745E+02  0.00000000000E+00 0. -1.
</event>
<event>
 5    1  0.1264859E-009  0.9118800E+02  0.7815553E-02  0.1125453E+00
         25   -1    0    0    0    0  0.00000000000E+00  0.00000000000E+00  0.99999998245E-14  0.12509000000E+03  0.12509000000E+03 0.  0.
        -13    1    3    3    0    0  0.13742258756E+02  0.40481736779E+02 -0.39242858764E+02  0.58031317548E+02  0.10566000000E+00 0. -1.
         23    2    1    0    0    0  0.19537344778E+02  0.14684995645E+02 -0.71256599714E+01  0.99631563911E+02  0.96324018600E+02 0.  0.
         13    1    3    3    0    0  0.57950860224E+01 -0.25796741134E+02  0.32117198793E+02  0.41600246363E+02  0.10566000000E+00 0.  1.
         22    1    1    0    0    0 -0.19537344778E+02 -0.14684995645E+02  0.71256599714E+01  0.25458436089E+02  0.00000000000E+00 0. -1.
</event>
<event>
 5    1  0.1264859E-009  0.9118800E+02  0.7815553E-02  0.1125453E+00
         25   -1    0    0    0    0  0.00000000000E+00  0.00000000000E+00  0.99999998245E-14  0.12509000000E+03  0.12509000000E+03 0.  0.
        -13    1    3    3    0    0  0.32910529419E+02  0.15765204851E+02  0.14709218432E+02  0.39344845934E+02  0.10566000000E+00 0.  1.
         23    2    1    0    0    0 -0.23036016319E+02  0.16554937668E+02  0.74047437747E+01  0.95771844543E+02  0.91173965405E+02 0.  0.
         13    1    3    3    0    0 -0.55946545738E+02  0.78973281657E+00 -0.73044746570E+01  0.56426998609E+02  0.10566000000E+00 0. -1.
         22    1    1    0    0    0  0.23036016319E+02 -0.16554937668E+02 -0.74047437747E+01  0.29318155457E+02  0.00000000000E+00 0. -1.
</event>
<event>
 5    1  0.1264859E-009  0.9118800E+02  0.7815553E-02  0.1125453E+00
         25   -1    0    0    0    0  0.00000000000E+00  0.00000000000E+00  0.99999998245E-14  0.12509000000E+03  0.12509000000E+03 0.  0.
        -13    1    3    3    0    0 -0.38672832880E+02  0.10964406608E+02  0.53383488818E+01  0.40550158422E+02  0.10566000000E+00 0.  1.
         23    2    1    0    0    0 -0.33726744452E+01 -0.26217953138E+02 -0.13793377935E+02  0.95273674363E+02  0.90487898373E+02 0.  0.
         13    1    3    3    0    0  0.35300158435E+02 -0.37182359746E+02 -0.19131726817E+02  0.54723515940E+02  0.10566000000E+00 0. -1.
         22    1    1    0    0    0  0.33726744452E+01  0.26217953138E+02  0.13793377935E+02  0.29816325637E+02  0.00000000000E+00 0. -1.
</event>
<event>
 5    1  0.1264859E-009  0.9118800E+02  0.7815553E-02  0.1125453E+00
         25   -1    0    0    0    0  0.00000000000E+00  0.00000000000E+00  0.99999998245E-14  0.12509000000E+03  0.12509000000E+03 0.  0.
        -13    1    3    3    0    0 -0.30452273488E+02 -0.35376263517E+02  0.20909563614E+02  0.51147257948E+02  0.10566000000E+00 0.  1.
         23    2    1    0    0    0 -0.21434512470E+02 -0.91112229567E+01 -0.15629251913E+02  0.97041359677E+02  0.92899404003E+02 0.  0.
         13    1    3    3    0    0  0.90177610185E+01  0.26265040560E+02 -0.36538815527E+02  0.45894101730E+02  0.10566000000E+00 0. -1.
         22    1    1    0    0    0  0.21434512470E+02  0.91112229567E+01  0.15629251913E+02  0.28048640323E+02  0.00000000000E+00 0.  1.
</event>
<event>
 5    1  0.1264859E-009  0.9118800E+02  0.7815553E-02  0.1125453E+00
         25   -1    0    0    0    0  0.00000000000E+00  0.00000000000E+00  0.99999998245E-14  0.12509000000E+03  0.12509000000E+03 0.  0.
        -13    1    3    3    0    0 -0.37274044184E+01  0.56725127674E+01  0.38554907968E+02  0.39147963386E+02  0.10566000000E+00 0.  1.
         23    2    1    0    0    0  0.22285254126E+02 -0.94617160260E+01 -0.12065926680E+02  0.98039247547E+02  0.94233491134E+02 0.  0.
         13    1    3    3    0    0  0.26012658544E+02 -0.15134228793E+02 -0.50620834648E+02  0.58891284162E+02  0.10566000000E+00 0. -1.
         22    1    1    0    0    0 -0.22285254126E+02  0.94617160260E+01  0.12065926680E+02  0.27050752453E+02  0.00000000000E+00 0.  1.
</event>
<event>
 5    1  0.1264859E-009  0.9118800E+02  0.7815553E-02  0.1125453E+00
         25   -1    0    0    0    0  0.00000000000E+00  0.00000000000E+00  0.99999998245E-14  0.12509000000E+03  0.12509000000E+03 0.  0.
        -13    1    3    3    0    0  0.41521870519E+02 -0.13564941626E+02  0.26625961701E+02  0.51156880018E+02  0.10566000000E+00 0. -1.
         23    2    1    0    0    0  0.23184304086E+02  0.70235878396E+01 -0.11553756578E+02  0.98250997911E+02  0.94514160618E+02 0.  0.
         13    1    3    3    0    0 -0.18337566433E+02  0.20588529465E+02 -0.38179718279E+02  0.47094117893E+02  0.10566000000E+00 0.  1.
         22    1    1    0    0    0 -0.23184304086E+02 -0.70235878396E+01  0.11553756578E+02  0.26839002089E+02  0.00000000000E+00 0.  1.
</event>
<event>
 5    1  0.1264859E-009  0.9118800E+02  0.7815553E-02  0.1125453E+00
         25   -1    0    0    0    0  0.00000000000E+00  0.00000000000E+00  0.99999998245E-14  0.12509000000E+03  0.12509000000E+03 0.  0.
        -13    1    3    3    0    0 -0.68129385943E+01  0.28714973869E+02 -0.27857163945E+02  0.40583230572E+02  0.10566000000E+00 0. -1.
         23    2    1    0    0    0 -0.18916018781E+02 -0.21148893112E+02 -0.79304234209E+01  0.95628447732E+02  0.90977013326E+02 0.  0.
         13    1    3    3    0    0 -0.12103080187E+02 -0.49863866980E+02  0.19926740525E+02  0.55045217160E+02  0.10566000000E+00 0.  1.
         22    1    1    0    0    0  0.18916018781E+02  0.21148893112E+02  0.79304234209E+01  0.29461552268E+02  0.00000000000E+00 0.  1.
</event>
<event>
 5    1  0.1264859E-009  0.9118800E+02  0.7815553E-02  0.1125453E+00
         25   -1    0    0    0    0  0.00000000000E+00  0.00000000000E+00  0.99999998245E-14  0.12509000000E+03  0.12509000000E+03 0.  0.
        -13    1    3    3    0    0 -0.55703550236E+02 -0.22420145987E+02 -0.10582730767E+02  0.60971745993E+02  0.10566000000E+00 0. -1.
         23    2    1    0    0    0 -0.22270793171E+02 -0.12040363433E+02 -0.14024883321E+02  0.96147713770E+02  0.91688204972E+02 0.  0.
         13    1    3    3    0    0  0.33432757064E+02  0.10379782554E+02 -0.34421525533E+01  0.35175967777E+02  0.10566000000E+00 0.  1.
         22    1    1    0    0    0  0.22270793171E+02  0.12040363433E+02  0.14024883321E+02  0.28942286230E+02  0.00000000000E+00 0. -1.
</event>
<event>
 5    1  0.1264859E-009  0.9118800E+02  0.7815553E-02  0.1125453E+00
         25   -1    0    0    0    0  0.00000000000E+00  0.00000000000E+00  0.99999998245E-14  0.12509000000E+03  0.12509000000E+03 0.  0.
        -13    1    3    3    0    0  0.20272372587E+02 -0.84759363945E+01  0.39666930293E+02  0.45346302064E+02  0.10566000000E+00 0.  1.
         23    2    1    0    0    0  0.34227310763E+01 -0.27287031139E+02 -0.54536456838E+01  0.97053605659E+02  0.92915891879E+02 0.  0.
         13    1    3    3    0    0 -0.16849641510E+02 -0.18811094745E+02 -0.45120575976E+02  0.51707303594E+02  0.10566000000E+00 0. -1.
         22    1    1    0    0    0 -0.34227310763E+01  0.27287031139E+02  0.54536456838E+01  0.28036394341E+02  0.00000000000E+00 0. -1.
</event>
<event>
 5    1  0.1264859E-009  0.9118800E+02  0.7815553E-02  0.1125453E+00
         25   -1    0    0    0    0  0.00000000000E+00  0.00000000000E+00  0.99999998245E-14  0.12509000000E+03  0.12509000000E+03 0.  0.
        -13    1    3    3    0    0 -0.38529061265E+02 -0.25887725534E+02 -0.83044547051E+01  0.47155466569E+02  0.10566000000E+00 0.  1.
         23    2    1    0    0    0 -0.75999312365E+01 -0.41948617055E+02 -0.39925451247E+01  0.82271944881E+02  0.70251598347E+02 0.  0.
         13    1    3    3    0    0  0.30929130029E+02 -0.16060891521E+02  0.43119095804E+01  0.35116478312E+02  0.10566000000E+00 0. -1.
         22    1    1    0    0    0  0.75999312365E+01  0.41948617055E+02  0.39925451247E+01  0.42818055119E+02  0.00000000000E+00 0.  1.
</event>
<event>
 5    1  0.1264859E-009  0.9118800E+02  0.7815553E-02  0.1125453E+00
         25   -1    0    0    0    0  0.00000000000E+00  0.00000000000E+00  0.99999998245E-14  0.12509000000E+03  0.12509000000E+03 0.  0.
        -13    1    3    3    0    0 -0.19128222599E+01 -0.97481316651E+01 -0.58717907059E+02  0.59552403254E+02  0.10566000000E+00 0.  1.
         23    2    1    0    0    0  0.33598580055E+01  0.86201736036E+01 -0.26614386288E+02  0.96913385650E+02  0.92726925549E+02 0.  0.
         13    1    3    3    0    0  0.52726802654E+01  0.18368305269E+02  0.32103520771E+02  0.37360982395E+02  0.10566000000E+00 0. -1.
         22    1    1    0    0    0 -0.33598580055E+01 -0.86201736036E+01  0.26614386288E+02  0.28176614350E+02  0.00000000000E+00 0.  1.
</event>
<event>
 5    1  0.1264859E-009  0.9118800E+02  0.7815553E-02  0.1125453E+00
         25   -1    0    0    0    0  0.00000000000E+00  0.00000000000E+00  0.99999998245E-14  0.12509000000E+03  0.12509000000E+03 0.  0.
        -13    1    3    3    0    0 -0.99300127248E+01  0.29120163877E+02  0.43684121456E+01  0.31075445059E+02  0.10566000000E+00 0. -1.
         23    2    1    0    0    0  0.27284677999E+02 -0.18869908764E+02  0.21985908656E+01  0.91843031536E+02  0.85614143280E+02 0.  0.
         13    1    3    3    0    0  0.37214690724E+02 -0.47990072641E+02 -0.21698212800E+01  0.60767586476E+02  0.10566000000E+00 0.  1.
         22    1    1    0    0    0 -0.27284677999E+02  0.18869908764E+02 -0.21985908656E+01  0.33246968464E+02  0.00000000000E+00 0.  1.
</event>
<event>
 5    1  0.1264859E-009  0.9118800E+02  0.7815553E-02  0.1125453E+00
         25   -1    0    0    0    0  0.00000000000E+00  0.00000000000E+00  0.99999998245E-14  0.12509000000E+03  0.12509000000E+03 0.  0.
        -13    1    3    3    0    0  0.34070462690E+02  0.41525332212E+01  0.28023607887E+02  0.44309973179E+02  0.10566000000E+00 0.  1.
         23    2    1    0    0    0  0.41037567163E+01 -0.15530337382E+02 -0.16891556749E+02  0.10177998310E+03  0.99074760017E+02 0.  0.
         13    1    3    3    0    0 -0.29966705974E+02 -0.19682870604E+02 -0.44915164636E+02  0.57470009922E+02  0.10566000000E+00 0. -1.
         22    1    1    0    0    0 -0.41037567163E+01  0.15530337382E+02  0.16891556749E+02  0.23310016899E+02  0.00000000000E+00 0. -1.
</event>
<event>
 5    1  0.1264859E-009  0.9118800E+02  0.7815553E-02  0.1125453E+00
         25   -1    0    0    0    0  0.00000000000E+00  0.00000000000E+00  0.99999998245E-14  0.12509000000E+03  0.12509000000E+03 0.  0.
        -13    1    3    3    0    0  0.35279412545E+02 -0.10115820772E+02 -0.18566367530E+02  0.41130134290E+02  0.10566000000E+00 0.  1.
         23    2    1    0    0    0  0.10365950640E+02  0.70637784381E+01  0.26705399884E+02  0.95585283743E+02  0.90917645079E+02 0.  0.
         13    1    3    3    0    0 -0.24913461906E+02  0.17179599210E+02  0.45271767413E+02  0.54455149453E+02  0.10566000000E+00 0. -1.
         22    1    1    0    0    0 -0.10365950640E+02 -0.70637784381E+01 -0.26705399884E+02  0.29504716257E+02  0.00000000000E+00 0. -1.
</event>
<event>
 5    1  0.1264859E-009  0.9118800E+02  0.7815553E-02  0.1125453E+00
         25   -1    0    0    0    0  0.00000000000E+00  0.00000000000E+00  0.99999998245E-14  0.12509000000E+03  0.12509000000E+03 0.  0.
        -13    1    3    3    0    0  0.48844613385E+02 -0.37421486871E+02  0.84135023835E+01  0.62104445274E+02  0.10566000000E+00 0.  1.
         23    2    1    0    0    0  0.22206117827E+02 -0.17363968350E+02 -0.14067044496E+01  0.96865934325E+02  0.92662890898E+02 0.  0.
         13    1    3    3    0    0 -0.26638495558E+02  0.20057518521E+02 -0.98202068331E+01  0.34761489052E+02  0.10566000000E+00 0. -1.
         22    1    1    0    0    0 -0.22206117827E+02  0.17363968350E+02  0.14067044496E+01  0.28224065675E+02  0.00000000000E+00 0.  1.
</event>
<event>
 5    1  0.1264859E-009  0.9118800E+02  0.7815553E-02  0.1125453E+00
         25   -1    0    0    0    0  0.00000000000E+00  0.00000000000E+00  0.99999998245E-14  0.12509000000E+03  0.12509000000E+03 0.  0.
        -13    1    3    3    0    0 -0.29736515165E+02  0.10457677340E+02  0.52456043521E+02  0.61198619391E+02  0.10566000000E+00 0.  1.
         23    2    1    0    0    0 -0.63544436892E+01  0.89571932730E+01  0.27738636733E+02  0.95256424389E+02  0.90464048957E+02 0.  0.
         13    1    3    3    0    0  0.23382071476E+02 -0.15004840673E+01 -0.24717406788E+02  0.34057804998E+02  0.10566000000E+00 0. -1.
         22    1    1    0    0    0  0.63544436892E+01 -0.89571932730E+01 -0.27738636733E+02  0.29833575611E+02  0.00000000000E+00 0.  1.
</event>
<event>
 5    1  0.1264859E-009  0.9118800E+02  0.7815553E-02  0.1125453E+00
         25   -1    0    0    0    0  0.00000000000E+00  0.00000000000E+00  0.99999998245E-14  0.12509000000E+03  0.12509000000E+03 0.  0.
        -13    1    3    3    0    0  0.34427056387E+02 -0.52254947028E+01  0.40062415220E+02  0.53080469889E+02  0.10566000000E+00 0. -1.
         23    2    1    0    0    0 -0.12768952103E+01 -0.20589900104E+02  0.17594476853E+02  0.97976533541E+02  0.94150204786E+02 0.  0.
         13    1    3    3    0    0 -0.35703951597E+02 -0.15364405402E+02 -0.22467938366E+02  0.44896063652E+02  0.10566000000E+00 0.  1.
         22    1    1    0    0    0  0.12768952103E+01  0.20589900104E+02 -0.17594476853E+02  0.27113466459E+02  0.00000000000E+00 0. -1.
</event>
<event>
 5    1  0.1264859E-009  0.9118800E+02  0.7815553E-02  0.1125453E+00
         25   -1    0    0    0    0  0.00000000000E+00  0.00000000000E+00  0.99999998245E-14  0.12509000000E+03  0.12509000000E+03 0.  0.
        -13    1    3    3    0    0  0.41476994317E+02  0.13551226569E+02  0.34234865134E+02  0.55461824292E+02  0.10566000000E+00 0.  1.
         23    2    1    0    0    0  0.23249951820E+01 -0.48502393099E+01  0.24765742656E+02  0.99746905610E+02  0.96473689395E+02 0.  0.
         13    1    3    3    0    0 -0.39151999135E+02 -0.18401465879E+02 -0.94691224773E+01  0.44285081317E+02  0.10566000000E+00 0. -1.
         22    1    1    0    0    0 -0.23249951820E+01  0.48502393099E+01 -0.24765742656E+02  0.25343094390E+02  0.00000000000E+00 0. -1.
</event>
<event>
 5    1  0.1264859E-009  0.9118800E+02  0.7815553E-02  0.1125453E+00
         25   -1    0    0    0    0  0.00000000000E+00  0.00000000000E+00  0.99999998245E-14  0.12509000000E+03  0.12509000000E+03 0.  0.
        -13    1    3    3    0    0  0.24795667118E+02  0.17214637635E+02  0.20772069095E+02  0.36642309906E+02  0.10566000000E+00 0.  1.
         23    2    1    0    0    0 -0.71790958373E+01 -0.27239295159E+02 -0.38066619533E+01  0.96664495729E+02  0.92390559266E+02 0.  0.
         13    1    3    3    0    0 -0.31974762956E+02 -0.44453932794E+02 -0.24578731049E+02  0.60022185823E+02  0.10566000000E+00 0. -1.
         22    1    1    0    0    0  0.71790958373E+01  0.27239295159E+02  0.38066619533E+01  0.28425504271E+02  0.00000000000E+00 0. -1.
</event>
<event>
 5    1  0.1264859E-009  0.9118800E+02  0.7815553E-02  0.1125453E+00
         25   -1    0    0    0    0  0.00000000000E+00  0.00000000000E+00  0.99999998245E-14  0.12509000000E+03  0.12509000000E+03 0.  0.
        -13    1    3    3    0    0  0.21204818328E+02  0.50914449919E+01 -0.55908259887E+02  0.60010930838E+02  0.10566000000E+00 0.  1.
         23    2    1    0    0    0  0.66127164420E+01  0.14456095271E+02 -0.24576619485E+02  0.95820272728E+02  0.91240384322E+02 0.  0.
         13    1    3    3    0    0 -0.14592101886E+02  0.93646502794E+01  0.31331640402E+02  0.35809341890E+02  0.10566000000E+00 0. -1.
         22    1    1    0    0    0 -0.66127164420E+01 -0.14456095271E+02  0.24576619485E+02  0.29269727272E+02  0.00000000000E+00 0.  1.
</event>
<event>
 5    1  0.1264859E-009  0.9118800E+02  0.7815553E-02  0.1125453E+00
         25   -1    0    0    0    0  0.00000000000E+00  0.00000000000E+00  0.99999998245E-14  0.12509000000E+03  0.12509000000E+03 0.  0.
        -13    1    3    3    0    0  0.30597283060E+01 -0.31525136610E+02 -0.22884702897E+02  0.39075784910E+02  0.10566000000E+00 0.  1.
         23    2    1    0    0    0  0.20208210803E+02  0.19790299784E+02 -0.33132233191E+01  0.96611847002E+02  0.92319249255E+02 0.  0.
         13    1    3    3    0    0  0.17148482497E+02  0.51315436394E+02  0.19571479578E+02  0.57536062093E+02  0.10566000000E+00 0. -1.
         22    1    1    0    0    0 -0.20208210803E+02 -0.19790299784E+02  0.33132233191E+01  0.28478152998E+02  0.00000000000E+00 0. -1.
</event>
<event>
 5    1  0.1264859E-009  0.9118800E+02  0.7815553E-02  0.1125453E+00
         25   -1    0    0    0    0  0.00000000000E+00  0.00000000000E+00  0.99999998245E-14  0.12509000000E+03  0.12509000000E+03 0.  0.
        -13    1    3    3    0    0  0.31189893294E+02 -0.24861617058E+02  0.44520399645E+02  0.59774464406E+02  0.10566000000E+00 0. -1.
         23    2    1    0    0    0  0.23483431188E+02 -0.15457623730E+02  0.11947930734E+02  0.94542287802E+02  0.89471120828E+02 0.  0.
         13    1    3    3    0    0 -0.77064621063E+01  0.94039933280E+01 -0.32572468911E+02  0.34767823396E+02  0.10566000000E+00 0.  1.
         22    1    1    0    0    0 -0.23483431188E+02  0.15457623730E+02 -0.11947930734E+02  0.30547712198E+02  0.00000000000E+00 0. -1.
</event>
<event>
 4    1  0.1264859E-009  0.9118800E+02  0.7815553E-02  0.1125453E+00
         25   -1    0    0    0    0  0.00000000000E+00  0.00000000000E+00  0.99999998245E-14  0.12509000000E+03  0.12509000000E+03 0.  0.
        -13    1    1    0    0    0  0.27244254488E+02 -0.22287146862E+02  0.71599166332E+01  0.35919937195E+02  0.10566000000E+00 0.  1.
         13    1    1    0    0    0 -0.15856373893E+02 -0.27732894191E+02 -0.18098911784E+02  0.36716750742E+02  0.10566000000E+00 0. -1.
         22    1    1    0    0    0 -0.11387880595E+02  0.50020041053E+02  0.10938995151E+02  0.52453312063E+02  0.00000000000E+00 0.  1.
</event>
<event>
 5    1  0.1264859E-009  0.9118800E+02  0.7815553E-02  0.1125453E+00
         25   -1    0    0    0    0  0.00000000000E+00  0.00000000000E+00  0.99999998245E-14  0.12509000000E+03  0.12509000000E+03 0.  0.
        -13    1    3    3    0    0 -0.14223518420E+02 -0.99334274669E+01  0.32391303492E+02  0.36744920240E+02  0.10566000000E+00 0.  1.
         23    2    1    0    0    0  0.23160657629E+02 -0.89698675048E+01 -0.14193772582E+02  0.96483396480E+02  0.92145038018E+02 0.  0.
         13    1    3    3    0    0  0.37384176049E+02  0.96355996212E+00 -0.46585076074E+02  0.59738476240E+02  0.10566000000E+00 0. -1.
         22    1    1    0    0    0 -0.23160657629E+02  0.89698675048E+01  0.14193772582E+02  0.28606603520E+02  0.00000000000E+00 0. -1.
</event>
<event>
 5    1  0.1264859E-009  0.9118800E+02  0.7815553E-02  0.1125453E+00
         25   -1    0    0    0    0  0.00000000000E+00  0.00000000000E+00  0.99999998245E-14  0.12509000000E+03  0.12509000000E+03 0.  0.
        -13    1    3    3    0    0 -0.29510108574E+02  0.13558288167E+02  0.19512811257E+02  0.37887130444E+02  0.10566000000E+00 0.  1.
         23    2    1    0    0    0  0.24679896035E+02 -0.48676157918E+00  0.19115593127E+02  0.93869171924E+02  0.88525032233E+02 0.  0.
         13    1    3    3    0    0  0.54190004610E+02 -0.14045049746E+02 -0.39721813012E+00  0.55982041480E+02  0.10566000000E+00 0. -1.
         22    1    1    0    0    0 -0.24679896035E+02  0.48676157918E+00 -0.19115593127E+02  0.31220828076E+02  0.00000000000E+00 0. -1.
</event>
<event>
 5    1  0.1264859E-009  0.9118800E+02  0.7815553E-02  0.1125453E+00
         25   -1    0    0    0    0  0.00000000000E+00  0.00000000000E+00  0.99999998245E-14  0.12509000000E+03  0.12509000000E+03 0.  0.
        -13    1    3    3    0    0  0.28608612722E+02  0.22733553628E+02 -0.41676572213E+02  0.55427565505E+02  0.10566000000E+00 0. -1.
         23    2    1    0    0    0 -0.38781302255E+01  0.23007781962E+02 -0.17414538457E+02  0.95975328878E+02  0.91452718268E+02 0.  0.
         13    1    3    3    0    0 -0.32486742947E+02  0.27422833437E+00  0.24262033756E+02  0.40547763372E+02  0.10566000000E+00 0.  1.
         22    1    1    0    0    0  0.38781302255E+01 -0.23007781962E+02  0.17414538457E+02  0.29114671122E+02  0.00000000000E+00 0. -1.
</event>
<event>
 5    1  0.1264859E-009  0.9118800E+02  0.7815553E-02  0.1125453E+00
         25   -1    0    0    0    0  0.00000000000E+00  0.00000000000E+00  0.99999998245E-14  0.12509000000E+03  0.12509000000E+03 0.  0.
        -13    1    3    3    0    0 -0.26171110879E+02  0.26224951929E+02  0.12479559100E+01  0.37070793171E+02  0.10566000000E+00 0. -1.
         23    2    1    0    0    0  0.14020721578E+02 -0.12320639349E+02 -0.20960272228E+02  0.97023796135E+02  0.92875751502E+02 0.  0.
         13    1    3    3    0    0  0.40191832457E+02 -0.38545591278E+02 -0.22208228138E+02  0.59953002964E+02  0.10566000000E+00 0.  1.
         22    1    1    0    0    0 -0.14020721578E+02  0.12320639349E+02  0.20960272228E+02  0.28066203865E+02  0.00000000000E+00 0.  1.
</event>
<event>
 5    1  0.1264859E-009  0.9118800E+02  0.7815553E-02  0.1125453E+00
         25   -1    0    0    0    0  0.00000000000E+00  0.00000000000E+00  0.99999998245E-14  0.12509000000E+03  0.12509000000E+03 0.  0.
        -13    1    3    3    0    0  0.19675851319E+02  0.50887782074E+01  0.57034422435E+02  0.60547264970E+02  0.10566000000E+00 0.  1.
         23    2    1    0    0    0  0.11456318512E+02  0.13574959695E+02  0.27558580659E+02  0.92302774858E+02  0.86283255119E+02 0.  0.
         13    1    3    3    0    0 -0.82195328071E+01  0.84861814876E+01 -0.29475841776E+02  0.31755509888E+02  0.10566000000E+00 0. -1.
         22    1    1    0    0    0 -0.11456318512E+02 -0.13574959695E+02 -0.27558580659E+02  0.32787225142E+02  0.00000000000E+00 0.  1.
</event>
<event>
 5    1  0.1264859E-009  0.9118800E+02  0.7815553E-02  0.1125453E+00
         25   -1    0    0    0    0  0.00000000000E+00  0.00000000000E+00  0.99999998245E-14  0.12509000000E+03  0.12509000000E+03 0.  0.
        -13    1    3    3    0    0  0.18657025058E+02 -0.55693655310E+02  0.31046752668E+01  0.58817667400E+02  0.10566000000E+00 0.  1.
         23    2    1    0    0    0  0.48426960923E+01 -0.27751054865E+02 -0.13182910597E+02  0.93987558241E+02  0.88692159860E+02 0.  0.
         13    1    3    3    0    0 -0.13814328966E+02  0.27942600445E+02 -0.16287585864E+02  0.35169890840E+02  0.10566000000E+00 0. -1.
         22    1    1    0    0    0 -0.48426960923E+01  0.27751054865E+02  0.13182910597E+02  0.31102441759E+02  0.00000000000E+00 0.  1.
</event>
<event>
 5    1  0.1264859E-009  0.9118800E+02  0.7815553E-02  0.1125453E+00
         25   -1    0    0    0    0  0.00000000000E+00  0.00000000000E+00  0.99999998245E-14  0.12509000000E+03  0.12509000000E+03 0.  0.
        -13    1    3    3    0    0  0.14641490328E+02  0.18933586009E+02 -0.38420384965E+02  0.45265782475E+02  0.10566000000E+00 0.  1.
         23    2    1    0    0    0 -0.93759707454E+01  0.29026628561E+02  0.32543509136E+01  0.94413546605E+02  0.89290945732E+02 0.  0.
         13    1    3    3    0    0 -0.24017461074E+02  0.10093042551E+02  0.41674735879E+02  0.49147764130E+02  0.10566000000E+00 0. -1.
         22    1    1    0    0    0  0.93759707454E+01 -0.29026628561E+02 -0.32543509136E+01  0.30676453395E+02  0.00000000000E+00 0. -1.
</event>
<event>
 5    1  0.1264859E-009  0.9118800E+02  0.7815553E-02  0.1125453E+00
         25   -1    0    0    0    0  0.00000000000E+00  0.00000000000E+00  0.99999998245E-14  0.12509000000E+03  0.12509000000E+03 0.  0.
        -13    1    3    3    0    0 -0.26836411059E+02 -0.35971943741E+02  0.35629992203E+01  0.45020882071E+02  0.10566000000E+00 0. -1.
         23    2    1    0    0    0 -0.74043247098E+01  0.17466533411E+00 -0.27576302096E+02  0.96536419320E+02  0.92216990221E+02 0.  0.
         13    1    3    3    0    0  0.19432086349E+02  0.36146609075E+02 -0.31139301316E+02  0.51515537248E+02  0.10566000000E+00 0.  1.
         22    1    1    0    0    0  0.74043247098E+01 -0.17466533411E+00  0.27576302096E+02  0.28553580680E+02  0.00000000000E+00 0.  1.
</event>
<event>
 5    1  0.1264859E-009  0.9118800E+02  0.7815553E-02  0.1125453E+00
         25   -1    0    0    0    0  0.00000000000E+00  0.00000000000E+00  0.99999998245E-14  0.12509000000E+03  0.12509000000E+03 0.  0.
        -13    1    3    3    0    0  0.13486537946E+01  0.29653183456E+02  0.26727476539E+02  0.39943701911E+02  0.10566000000E+00 0.  1.
         23    2    1    0    0    0 -0.23628647528E+02 -0.11921859958E+01 -0.14636456246E+02  0.97269860839E+02  0.93206575330E+02 0.  0.
         13    1    3    3    0    0 -0.24977301323E+02 -0.30845369452E+02 -0.41363932786E+02  0.57326158929E+02  0.10566000000E+00 0. -1.
         22    1    1    0    0    0  0.23628647528E+02  0.11921859958E+01  0.14636456246E+02  0.27820139161E+02  0.00000000000E+00 0. -1.
</event>
<event>
 5    1  0.1264859E-009  0.9118800E+02  0.7815553E-02  0.1125453E+00
         25   -1    0    0    0    0  0.00000000000E+00  0.00000000000E+00  0.99999998245E-14  0.12509000000E+03  0.12509000000E+03 0.  0.
        -13    1    3    3    0    0 -0.13550866468E+02 -0.51168905513E+02 -0.14006338913E+02  0.54754648819E+02  0.10566000000E+00 0. -1.
         23    2    1    0    0    0 -0.73014498473E+01 -0.15109550775E+02 -0.26754227454E+02  0.93508385394E+02  0.88013747550E+02 0.  0.
         13    1    3    3    0    0  0.62494166211E+01  0.36059354739E+02 -0.12747888541E+02  0.38753736575E+02  0.10566000000E+00 0.  1.
         22    1    1    0    0    0  0.73014498473E+01  0.15109550775E+02  0.26754227454E+02  0.31581614606E+02  0.00000000000E+00 0. -1.
</event>
<event>
 5    1  0.1264859E-009  0.9118800E+02  0.7815553E-02  0.1125453E+00
         25   -1    0    0    0    0  0.00000000000E+00  0.00000000000E+00  0.99999998245E-14  0.12509000000E+03  0.12509000000E+03 0.  0.
        -13    1    3    3    0    0  0.24678532609E+01  0.20127518428E+02 -0.53616091176E+02  0.57322802573E+02  0.10566000000E+00 0.  1.
         23    2    1    0    0    0 -0.69167745374E+00 -0.82902237009E+01 -0.28567476839E+02  0.95335891718E+02  0.90573866485E+02 0.  0.
         13    1    3    3    0    0 -0.31595307146E+01 -0.28417742129E+02  0.25048614338E+02  0.38013089145E+02  0.10566000000E+00 0. -1.
         22    1    1    0    0    0  0.69167745374E+00  0.82902237009E+01  0.28567476839E+02  0.29754108282E+02  0.00000000000E+00 0.  1.
</event>
<event>
 5    1  0.1264859E-009  0.9118800E+02  0.7815553E-02  0.1125453E+00
         25   -1    0    0    0    0  0.00000000000E+00  0.00000000000E+00  0.99999998245E-14  0.12509000000E+03  0.12509000000E+03 0.  0.
        -13    1    3    3    0    0 -0.29696487369E+02 -0.20155293185E+02 -0.17878254338E+02  0.40096887007E+02  0.10566000000E+00 0.  1.
         23    2    1    0    0    0 -0.69034595216E+01 -0.65726290073E+01  0.29329581769E+02  0.94250389558E+02  0.89062081492E+02 0.  0.
         13    1    3    3    0    0  0.22793027848E+02  0.13582664178E+02  0.47207836107E+02  0.54153502551E+02  0.10566000000E+00 0. -1.
         22    1    1    0    0    0  0.69034595216E+01  0.65726290073E+01 -0.29329581769E+02  0.30839610442E+02  0.00000000000E+00 0.  1.
</event>
<event>
 5    1  0.1264859E-009  0.9118800E+02  0.7815553E-02  0.1125453E+00
         25   -1    0    0    0    0  0.00000000000E+00  0.00000000000E+00  0.99999998245E-14  0.12509000000E+03  0.12509000000E+03 0.  0.
        -13    1    3    3    0    0  0.35624521394E+02 -0.31308726900E+02 -0.27825829526E+02  0.54987551841E+02  0.10566000000E+00 0.  1.
         23    2    1    0    0    0  0.29423268549E+02 -0.17137859987E+02  0.44220922116E+01  0.90753577988E+02  0.84007273739E+02 0.  0.
         13    1    3    3    0    0 -0.62012528449E+01  0.14170866913E+02  0.32247921738E+02  0.35766026147E+02  0.10566000000E+00 0. -1.
         22    1    1    0    0    0 -0.29423268549E+02  0.17137859987E+02 -0.44220922116E+01  0.34336422012E+02  0.00000000000E+00 0.  1.
</event>
<event>
 5    1  0.1264859E-009  0.9118800E+02  0.7815553E-02  0.1125453E+00
         25   -1    0    0    0    0  0.00000000000E+00  0.00000000000E+00  0.99999998245E-14  0.12509000000E+03  0.12509000000E+03 0.  0.
        -13    1    3    3    0    0 -0.22223922116E+01 -0.24233909541E+01  0.47708788346E+02  0.47822081723E+02  0.10566000000E+00 0. -1.
         23    2    1    0    0    0 -0.13381380700E+02 -0.24234367655E+02  0.51462219272E+01  0.96932416205E+02  0.92752594498E+02 0.  0.
         13    1    3    3    0    0 -0.11158988488E+02 -0.21810976701E+02 -0.42562566419E+02  0.49110334482E+02  0.10566000000E+00 0.  1.
         22    1    1    0    0    0  0.13381380700E+02  0.24234367655E+02 -0.51462219272E+01  0.28157583795E+02  0.00000000000E+00 0. -1.
</event>
<event>
 5    1  0.1264859E-009  0.9118800E+02  0.7815553E-02  0.1125453E+00
         25   -1    0    0    0    0  0.00000000000E+00  0.00000000000E+00  0.99999998245E-14  0.12509000000E+03  0.12509000000E+03 0.  0.
        -13    1    3    3    0    0 -0.14441726596E+02 -0.16525230581E+02 -0.25570961629E+02  0.33697655045E+02  0.10566000000E+00 0. -1.
         23    2    1    0    0    0  0.43563237601E+01  0.15828786526E+02  0.24126854298E+02  0.95907245882E+02  0.91359546161E+02 0.  0.
         13    1    3    3    0    0  0.18798050356E+02  0.32354017107E+02  0.49697815927E+02  0.62209590837E+02  0.10566000000E+00 0.  1.
         22    1    1    0    0    0 -0.43563237601E+01 -0.15828786526E+02 -0.24126854298E+02  0.29182754118E+02  0.00000000000E+00 0.  1.
</event>
<event>
 5    1  0.1264859E-009  0.9118800E+02  0.7815553E-02  0.1125453E+00
         25   -1    0    0    0    0  0.00000000000E+00  0.00000000000E+00  0.99999998245E-14  0.12509000000E+03  0.12509000000E+03 0.  0.
        -13    1    3    3    0    0 -0.29126624122E+02  0.26715176053E+02 -0.22735779218E+02  0.45595917415E+02  0.10566000000E+00 0.  1.
         23    2    1    0    0    0  0.17366329677E+02  0.23825392711E+02 -0.67597219539E+01  0.94842147429E+02  0.89889378370E+02 0.  0.
         13    1    3    3    0    0  0.46492953799E+02 -0.28897833417E+01  0.15976057264E+02  0.49246230013E+02  0.10566000000E+00 0. -1.
         22    1    1    0    0    0 -0.17366329677E+02 -0.23825392711E+02  0.67597219539E+01  0.30247852571E+02  0.00000000000E+00 0. -1.
</event>
<event>
 5    1  0.1264859E-009  0.9118800E+02  0.7815553E-02  0.1125453E+00
         25   -1    0    0    0    0  0.00000000000E+00  0.00000000000E+00  0.99999998245E-14  0.12509000000E+03  0.12509000000E+03 0.  0.
        -13    1    3    3    0    0 -0.31809562870E+02  0.23643118332E+02  0.51455536001E+01  0.39966651352E+02  0.10566000000E+00 0.  1.
         23    2    1    0    0    0  0.19285732057E+02  0.27177612215E+02 -0.21230070063E+01  0.91697347733E+02  0.85401020812E+02 0.  0.
         13    1    3    3    0    0  0.51095294927E+02  0.35344938830E+01 -0.72685606063E+01  0.51730696380E+02  0.10566000000E+00 0. -1.
         22    1    1    0    0    0 -0.19285732057E+02 -0.27177612215E+02  0.21230070063E+01  0.33392652267E+02  0.00000000000E+00 0. -1.
</event>
<event>
 5    1  0.1264859E-009  0.9118800E+02  0.7815553E-02  0.1125453E+00
         25   -1    0    0    0    0  0.00000000000E+00  0.00000000000E+00  0.99999998245E-14  0.12509000000E+03  0.12509000000E+03 0.  0.
        -13    1    3    3    0    0 -0.33053979967E+02 -0.29492026280E+02 -0.13617271729E+02  0.46344217106E+02  0.10566000000E+00 0.  1.
         23    2    1    0    0    0  0.14533275988E+02 -0.18667276657E+02 -0.18028132208E+02  0.95346145515E+02  0.90588026720E+02 0.  0.
         13    1    3    3    0    0  0.47587255954E+02  0.10824749623E+02 -0.44108604783E+01  0.49001928410E+02  0.10566000000E+00 0. -1.
         22    1    1    0    0    0 -0.14533275988E+02  0.18667276657E+02  0.18028132208E+02  0.29743854485E+02  0.00000000000E+00 0. -1.
</event>
<event>
 5    1  0.1264859E-009  0.9118800E+02  0.7815553E-02  0.1125453E+00
         25   -1    0    0    0    0  0.00000000000E+00  0.00000000000E+00  0.99999998245E-14  0.12509000000E+03  0.12509000000E+03 0.  0.
        -13    1    3    3    0    0 -0.13376379302E+02  0.30889807864E+02 -0.24700164912E+02  0.41751851023E+02  0.10566000000E+00 0. -1.
         23    2    1    0    0    0  0.10318269545E+02  0.92922412200E+01  0.22404085888E+02  0.98731785004E+02  0.95148357171E+02 0.  0.
         13    1    3    3    0    0  0.23694648847E+02 -0.21597566644E+02  0.47104250800E+02  0.56979933981E+02  0.10566000000E+00 0.  1.
         22    1    1    0    0    0 -0.10318269545E+02 -0.92922412200E+01 -0.22404085888E+02  0.26358214996E+02  0.00000000000E+00 0.  1.
</event>
<event>
 5    1  0.1264859E-009  0.9118800E+02  0.7815553E-02  0.1125453E+00
         25   -1    0    0    0    0  0.00000000000E+00  0.00000000000E+00  0.99999998245E-14  0.12509000000E+03  0.12509000000E+03 0.  0.
        -13    1    3    3    0    0 -0.20635320266E+01 -0.41869948360E+01  0.37488680340E+02  0.37778319283E+02  0.10566000000E+00 0.  1.
         23    2    1    0    0    0 -0.19607368398E+02 -0.58314082542E+01 -0.19134264217E+02  0.97079746790E+02  0.92951078273E+02 0.  0.
         13    1    3    3    0    0 -0.17543836371E+02 -0.16444134182E+01 -0.56622944557E+02  0.59301427508E+02  0.10566000000E+00 0. -1.
         22    1    1    0    0    0  0.19607368398E+02  0.58314082542E+01  0.19134264217E+02  0.28010253210E+02  0.00000000000E+00 0. -1.
</event>
<event>
 5    1  0.1264859E-009  0.9118800E+02  0.7815553E-02  0.1125453E+00
         25   -1    0    0    0    0  0.00000000000E+00  0.00000000000E+00  0.99999998245E-14  0.12509000000E+03  0.12509000000E+03 0.  0.
        -13    1    3    3    0    0  0.63041416688E+01 -0.38657167366E+02  0.10064578594E+02  0.40440396848E+02  0.10566000000E+00 0. -1.
         23    2    1    0    0    0  0.11456118536E+02  0.21071125371E+02  0.88206972689E+00  0.10108972868E+03  0.98199390130E+02 0.  0.
         13    1    3    3    0    0  0.51519768674E+01  0.59728292737E+02 -0.91825088667E+01  0.60649331835E+02  0.10566000000E+00 0.  1.
         22    1    1    0    0    0 -0.11456118536E+02 -0.21071125371E+02 -0.88206972689E+00  0.24000271317E+02  0.00000000000E+00 0.  1.
</event>
<event>
 5    1  0.1264859E-009  0.9118800E+02  0.7815553E-02  0.1125453E+00
         25   -1    0    0    0    0  0.00000000000E+00  0.00000000000E+00  0.99999998245E-14  0.12509000000E+03  0.12509000000E+03 0.  0.
        -13    1    3    3    0    0  0.34007513876E+02 -0.16170226992E+02 -0.21187956505E+01  0.37715881271E+02  0.10566000000E+00 0.  1.
         23    2    1    0    0    0 -0.24471096469E+01  0.28951294846E+02  0.26239520213E+01  0.95917222568E+02  0.91373205274E+02 0.  0.
         13    1    3    3    0    0 -0.36454623523E+02  0.45121521838E+02  0.47427476718E+01  0.58201341297E+02  0.10566000000E+00 0. -1.
         22    1    1    0    0    0  0.24471096469E+01 -0.28951294846E+02 -0.26239520213E+01  0.29172777432E+02  0.00000000000E+00 0. -1.
</event>
<event>
 5    1  0.1264859E-009  0.9118800E+02  0.7815553E-02  0.1125453E+00
         25   -1    0    0    0    0  0.00000000000E+00  0.00000000000E+00  0.99999998245E-14  0.12509000000E+03  0.12509000000E+03 0.  0.
        -13    1    3    3    0    0 -0.49031755433E+02 -0.35946741045E+02  0.15134189280E+01  0.60815975151E+02  0.10566000000E+00 0.  1.
         23    2    1    0    0    0 -0.14403190712E+02 -0.23291318796E+02  0.92086504071E+00  0.97689536019E+02  0.93768118362E+02 0.  0.
         13    1    3    3    0    0  0.34628564722E+02  0.12655422248E+02 -0.59255388725E+00  0.36873560868E+02  0.10566000000E+00 0. -1.
         22    1    1    0    0    0  0.14403190712E+02  0.23291318796E+02 -0.92086504071E+00  0.27400463981E+02  0.00000000000E+00 0.  1.
</event>
<event>
 5    1  0.1264859E-009  0.9118800E+02  0.7815553E-02  0.1125453E+00
         25   -1    0    0    0    0  0.00000000000E+00  0.00000000000E+00  0.99999998245E-14  0.12509000000E+03  0.12509000000E+03 0.  0.
        -13    1    3    3    0    0 -0.17839028639E+02 -0.55127392729E+01 -0.25285828380E+02  0.31432555066E+02  0.10566000000E+00 0. -1.
         23    2    1    0    0    0  0.19141751749E+02 -0.23845931445E+02  0.16648796838E+02  0.90273085395E+02  0.83288729154E+02 0.  0.
         13    1    3    3    0    0  0.36980780387E+02 -0.18333192172E+02  0.41934625218E+02  0.58840530329E+02  0.10566000000E+00 0.  1.
         22    1    1    0    0    0 -0.19141751749E+02  0.23845931445E+02 -0.16648796838E+02  0.34816914605E+02  0.00000000000E+00 0.  1.
</event>
<event>
 5    1  0.1264859E-009  0.9118800E+02  0.7815553E-02  0.1125453E+00
         25   -1    0    0    0    0  0.00000000000E+00  0.00000000000E+00  0.99999998245E-14  0.12509000000E+03  0.12509000000E+03 0.  0.
        -13    1    3    3    0    0  0.53937707114E+02  0.24254685234E+02 -0.45442762344E+01  0.59314649245E+02  0.10566000000E+00 0. -1.
         23    2    1    0    0    0  0.20319877567E+02  0.24678832603E+02 -0.32037358937E+01  0.92962035130E+02  0.87233788459E+02 0.  0.
         13    1    3    3    0    0 -0.33617829547E+02  0.42414736881E+00  0.13405403408E+01  0.33647385885E+02  0.10566000000E+00 0.  1.
         22    1    1    0    0    0 -0.20319877567E+02 -0.24678832603E+02  0.32037358937E+01  0.32127964870E+02  0.00000000000E+00 0. -1.
</event>
<event>
 5    1  0.1264859E-009  0.9118800E+02  0.7815553E-02  0.1125453E+00
         25   -1    0    0    0    0  0.00000000000E+00  0.00000000000E+00  0.99999998245E-14  0.12509000000E+03  0.12509000000E+03 0.  0.
        -13    1    3    3    0    0  0.33362843897E+02 -0.19602815943E+01  0.12776807953E+02  0.35779603719E+02  0.10566000000E+00 0. -1.
         23    2    1    0    0    0 -0.27176949922E+02 -0.33254338315E+01  0.82056946811E+01  0.96507163499E+02  0.92177296903E+02 0.  0.
         13    1    3    3    0    0 -0.60539793819E+02 -0.13651522373E+01 -0.45711132720E+01  0.60727559780E+02  0.10566000000E+00 0.  1.
         22    1    1    0    0    0  0.27176949922E+02  0.33254338315E+01 -0.82056946811E+01  0.28582836501E+02  0.00000000000E+00 0.  1.
</event>
<event>
 5    1  0.1264859E-009  0.9118800E+02  0.7815553E-02  0.1125453E+00
         25   -1    0    0    0    0  0.00000000000E+00  0.00000000000E+00  0.99999998245E-14  0.12509000000E+03  0.12509000000E+03 0.  0.
        -13    1    3    3    0    0  0.18793189451E+01 -0.28425042435E+02 -0.25613781615E+02  0.38309161434E+02  0.10566000000E+00 0. -1.
         23    2    1    0    0    0  0.29771640061E+02  0.92682839996E+01  0.38248589760E+01  0.93675334851E+02  0.88250706360E+02 0.  0.
         13    1    3    3    0    0  0.27892321116E+02  0.37693326434E+02  0.29438640591E+02  0.55366173417E+02  0.10566000000E+00 0.  1.
         22    1    1    0    0    0 -0.29771640061E+02 -0.92682839996E+01 -0.38248589760E+01  0.31414665149E+02  0.00000000000E+00 0.  1.
</event>
<event>
 5    1  0.1264859E-009  0.9118800E+02  0.7815553E-02  0.1125453E+00
         25   -1    0    0    0    0  0.00000000000E+00  0.00000000000E+00  0.99999998245E-14  0.12509000000E+03  0.12509000000E+03 0.  0.
        -13    1    3    3    0    0 -0.24649389836E+02 -0.33910822786E+02 -0.69134283728E+00  0.41928813962E+02  0.10566000000E+00 0. -1.
         23    2    1    0    0    0  0.18333836831E+02 -0.87752647075E+01 -0.21145715825E+02  0.95759535609E+02  0.91157076076E+02 0.  0.
         13    1    3    3    0    0  0.42983226667E+02  0.25135558079E+02 -0.20454372988E+02  0.53830721647E+02  0.10566000000E+00 0.  1.
         22    1    1    0    0    0 -0.18333836831E+02  0.87752647075E+01  0.21145715825E+02  0.29330464391E+02  0.00000000000E+00 0.  1.
</event>
<event>
 5    1  0.1264859E-009  0.9118800E+02  0.7815553E-02  0.1125453E+00
         25   -1    0    0    0    0  0.00000000000E+00  0.00000000000E+00  0.99999998245E-14  0.12509000000E+03  0.12509000000E+03 0.  0.
        -13    1    3    3    0    0  0.11187223552E+01  0.55210528737E+02  0.18699091630E+02  0.58301982942E+02  0.10566000000E+00 0. -1.
         23    2    1    0    0    0 -0.78082174560E+01  0.27249728518E+02 -0.53446684850E+01  0.96244178026E+02  0.91819716611E+02 0.  0.
         13    1    3    3    0    0 -0.89269398113E+01 -0.27960800219E+02 -0.24043760115E+02  0.37942195084E+02  0.10566000000E+00 0.  1.
         22    1    1    0    0    0  0.78082174560E+01 -0.27249728518E+02  0.53446684850E+01  0.28845821974E+02  0.00000000000E+00 0. -1.
</event>
<event>
 5    1  0.1264859E-009  0.9118800E+02  0.7815553E-02  0.1125453E+00
         25   -1    0    0    0    0  0.00000000000E+00  0.00000000000E+00  0.99999998245E-14  0.12509000000E+03  0.12509000000E+03 0.  0.
        -13    1    3    3    0    0 -0.19080841715E+02  0.20210173644E+02 -0.23493078431E+02  0.36393207299E+02  0.10566000000E+00 0.  1.
         23    2    1    0    0    0 -0.59340846140E+01  0.22261775020E+02  0.27569601955E+02  0.89161140580E+02  0.81601630194E+02 0.  0.
         13    1    3    3    0    0  0.13146757101E+02  0.20516013757E+01  0.51062680387E+02  0.52767933281E+02  0.10566000000E+00 0. -1.
         22    1    1    0    0    0  0.59340846140E+01 -0.22261775020E+02 -0.27569601955E+02  0.35928859420E+02  0.00000000000E+00 0. -1.
</event>
<event>
 5    1  0.1264859E-009  0.9118800E+02  0.7815553E-02  0.1125453E+00
         25   -1    0    0    0    0  0.00000000000E+00  0.00000000000E+00  0.99999998245E-14  0.12509000000E+03  0.12509000000E+03 0.  0.
        -13    1    3    3    0    0 -0.62874529422E+01  0.31422598454E+02  0.38205923699E+02  0.49865975653E+02  0.10566000000E+00 0. -1.
         23    2    1    0    0    0 -0.28294231374E+02  0.53712872431E+01  0.85807616939E+01  0.95039314036E+02  0.90163337812E+02 0.  0.
         13    1    3    3    0    0 -0.22006778432E+02 -0.26051311211E+02 -0.29625162005E+02  0.45173338382E+02  0.10566000000E+00 0.  1.
         22    1    1    0    0    0  0.28294231374E+02 -0.53712872431E+01 -0.85807616939E+01  0.30050685964E+02  0.00000000000E+00 0. -1.
</event>
<event>
 5    1  0.1264859E-009  0.9118800E+02  0.7815553E-02  0.1125453E+00
         25   -1    0    0    0    0  0.00000000000E+00  0.00000000000E+00  0.99999998245E-14  0.12509000000E+03  0.12509000000E+03 0.  0.
        -13    1    3    3    0    0 -0.34735951268E+00  0.30075126066E+02 -0.18820337580E+02  0.35480278144E+02  0.10566000000E+00 0.  1.
         23    2    1    0    0    0  0.12994437405E+02 -0.21985764760E+02  0.11383059548E+02  0.97129254298E+02  0.93017679718E+02 0.  0.
         13    1    3    3    0    0  0.13341796918E+02 -0.52060890826E+02  0.30203397128E+02  0.61648976153E+02  0.10566000000E+00 0. -1.
         22    1    1    0    0    0 -0.12994437405E+02  0.21985764760E+02 -0.11383059548E+02  0.27960745702E+02  0.00000000000E+00 0. -1.
</event>
<event>
 5    1  0.1264859E-009  0.9118800E+02  0.7815553E-02  0.1125453E+00
         25   -1    0    0    0    0  0.00000000000E+00  0.00000000000E+00  0.99999998245E-14  0.12509000000E+03  0.12509000000E+03 0.  0.
        -13    1    3    3    0    0  0.15026469657E+02  0.26131193222E+02  0.49974068512E+02  0.58361397663E+02  0.10566000000E+00 0.  1.
         23    2    1    0    0    0  0.11944460015E+02 -0.45199955896E+01  0.20115014810E+02  0.10126324391E+03  0.98420172019E+02 0.  0.
         13    1    3    3    0    0 -0.30820096419E+01 -0.30651188812E+02 -0.29859053702E+02  0.42901846242E+02  0.10566000000E+00 0. -1.
         22    1    1    0    0    0 -0.11944460015E+02  0.45199955896E+01 -0.20115014810E+02  0.23826756094E+02  0.00000000000E+00 0.  1.
</event>
<event>
 5    1  0.1264859E-009  0.9118800E+02  0.7815553E-02  0.1125453E+00
         25   -1    0    0    0    0  0.00000000000E+00  0.00000000000E+00  0.99999998245E-14  0.12509000000E+03  0.12509000000E+03 0.  0.
        -13    1    3    3    0    0 -0.38898450006E+02 -0.13872388838E+02 -0.46892626511E+02  0.62485695724E+02  0.10566000000E+00 0. -1.
         23    2    1    0    0    0 -0.18095598523E+02 -0.83472172300E+01 -0.21456738492E+02  0.95806585785E+02  0.91221617677E+02 0.  0.
         13    1    3    3    0    0  0.20802851483E+02  0.55251716081E+01  0.25435888019E+02  0.33320890061E+02  0.10566000000E+00 0.  1.
         22    1    1    0    0    0  0.18095598523E+02  0.83472172300E+01  0.21456738492E+02  0.29283414215E+02  0.00000000000E+00 0. -1.
</event>
<event>
 5    1  0.1264859E-009  0.9118800E+02  0.7815553E-02  0.1125453E+00
         25   -1    0    0    0    0  0.00000000000E+00  0.00000000000E+00  0.99999998245E-14  0.12509000000E+03  0.12509000000E+03 0.  0.
        -13    1    3    3    0    0  0.17275334355E+02  0.42424919815E+02 -0.25205417039E+02  0.52284177440E+02  0.10566000000E+00 0.  1.
         23    2    1    0    0    0 -0.16754923218E+02  0.21606861885E+02 -0.16627492146E+02  0.93089102705E+02  0.87415808724E+02 0.  0.
         13    1    3    3    0    0 -0.34030257573E+02 -0.20818057930E+02  0.85779248924E+01  0.40804925266E+02  0.10566000000E+00 0. -1.
         22    1    1    0    0    0  0.16754923218E+02 -0.21606861885E+02  0.16627492146E+02  0.32000897295E+02  0.00000000000E+00 0.  1.
</event>
<event>
 5    1  0.1264859E-009  0.9118800E+02  0.7815553E-02  0.1125453E+00
         25   -1    0    0    0    0  0.00000000000E+00  0.00000000000E+00  0.99999998245E-14  0.12509000000E+03  0.12509000000E+03 0.  0.
        -13    1    3    3    0    0 -0.80959738010E+01  0.15663163660E+02 -0.29610907576E+02  0.34462972872E+02  0.10566000000E+00 0. -1.
         23    2    1    0    0    0  0.28922874263E+02 -0.87213372873E+01  0.93367670300E+01  0.93470866579E+02  0.87960407575E+02 0.  0.
         13    1    3    3    0    0  0.37018848064E+02 -0.24384500948E+02  0.38947674606E+02  0.59007893707E+02  0.10566000000E+00 0.  1.
         22    1    1    0    0    0 -0.28922874263E+02  0.87213372873E+01 -0.93367670300E+01  0.31619133421E+02  0.00000000000E+00 0.  1.
</event>
<event>
 5    1  0.1264859E-009  0.9118800E+02  0.7815553E-02  0.1125453E+00
         25   -1    0    0    0    0  0.00000000000E+00  0.00000000000E+00  0.99999998245E-14  0.12509000000E+03  0.12509000000E+03 0.  0.
        -13    1    3    3    0    0  0.11866087431E+02  0.30802632592E+02  0.32657711051E+02  0.46434291861E+02  0.10566000000E+00 0. -1.
         23    2    1    0    0    0 -0.18547015949E+01 -0.15461019115E+02  0.25490904945E+02  0.95219123464E+02  0.90412456046E+02 0.  0.
         13    1    3    3    0    0 -0.13720789026E+02 -0.46263651707E+02 -0.71668061059E+01  0.48784831603E+02  0.10566000000E+00 0.  1.
         22    1    1    0    0    0  0.18547015949E+01  0.15461019115E+02 -0.25490904945E+02  0.29870876536E+02  0.00000000000E+00 0.  1.
</event>
<event>
 5    1  0.1264859E-009  0.9118800E+02  0.7815553E-02  0.1125453E+00
         25   -1    0    0    0    0  0.00000000000E+00  0.00000000000E+00  0.99999998245E-14  0.12509000000E+03  0.12509000000E+03 0.  0.
        -13    1    3    3    0    0 -0.68408135789E+01 -0.32050836040E+02 -0.42421655894E+02  0.53606537606E+02  0.10566000000E+00 0. -1.
         23    2    1    0    0    0 -0.55537326144E+01 -0.29696006205E+02 -0.12629837445E+01  0.94852740560E+02  0.89904118556E+02 0.  0.
         13    1    3    3    0    0  0.12870809645E+01  0.23548298352E+01  0.41158672150E+02  0.41246202954E+02  0.10566000000E+00 0.  1.
         22    1    1    0    0    0  0.55537326144E+01  0.29696006205E+02  0.12629837445E+01  0.30237259440E+02  0.00000000000E+00 0.  1.
</event>
<event>
 5    1  0.1264859E-009  0.9118800E+02  0.7815553E-02  0.1125453E+00
         25   -1    0    0    0    0  0.00000000000E+00  0.00000000000E+00  0.99999998245E-14  0.12509000000E+03  0.12509000000E+03 0.  0.
        -13    1    3    3    0    0  0.36409018385E+02 -0.25643008973E+02 -0.32191414037E+01  0.44649239236E+02  0.10566000000E+00 0.  1.
         23    2    1    0    0    0 -0.11314334247E+02 -0.19994264969E+02 -0.19049369781E+02  0.95246017689E+02  0.90449657852E+02 0.  0.
         13    1    3    3    0    0 -0.47723352632E+02  0.56487440042E+01 -0.15830228378E+02  0.50596778453E+02  0.10566000000E+00 0. -1.
         22    1    1    0    0    0  0.11314334247E+02  0.19994264969E+02  0.19049369781E+02  0.29843982311E+02  0.00000000000E+00 0. -1.
</event>
<event>
 5    1  0.1264859E-009  0.9118800E+02  0.7815553E-02  0.1125453E+00
         25   -1    0    0    0    0  0.00000000000E+00  0.00000000000E+00  0.99999998245E-14  0.12509000000E+03  0.12509000000E+03 0.  0.
        -13    1    3    3    0    0  0.33442273106E+02 -0.17512539077E+02  0.10351548289E+02  0.39143842063E+02  0.10566000000E+00 0.  1.
         23    2    1    0    0    0 -0.38999695536E+01 -0.39648811218E+00 -0.28879280421E+02  0.95945878758E+02  0.91412427206E+02 0.  0.
         13    1    3    3    0    0 -0.37342242660E+02  0.17116050964E+02 -0.39230828710E+02  0.56802036696E+02  0.10566000000E+00 0. -1.
         22    1    1    0    0    0  0.38999695536E+01  0.39648811218E+00  0.28879280421E+02  0.29144121242E+02  0.00000000000E+00 0. -1.
</event>
<event>
 5    1  0.1264859E-009  0.9118800E+02  0.7815553E-02  0.1125453E+00
         25   -1    0    0    0    0  0.00000000000E+00  0.00000000000E+00  0.99999998245E-14  0.12509000000E+03  0.12509000000E+03 0.  0.
        -13    1    3    3    0    0  0.63516590729E+00 -0.33421861965E+02 -0.35039181354E+02  0.48427055320E+02  0.10566000000E+00 0. -1.
         23    2    1    0    0    0 -0.29023380922E+01  0.12989884532E+02 -0.26054233988E+02  0.95832799599E+02  0.91257556968E+02 0.  0.
         13    1    3    3    0    0 -0.35375039995E+01  0.46411746498E+02  0.89849473659E+01  0.47405744280E+02  0.10566000000E+00 0.  1.
         22    1    1    0    0    0  0.29023380922E+01 -0.12989884532E+02  0.26054233988E+02  0.29257200401E+02  0.00000000000E+00 0. -1.
</event>
<event>
 5    1  0.1264859E-009  0.9118800E+02  0.7815553E-02  0.1125453E+00
         25   -1    0    0    0    0  0.00000000000E+00  0.00000000000E+00  0.99999998245E-14  0.12509000000E+03  0.12509000000E+03 0.  0.
        -13    1    3    3    0    0 -0.27161080911E+02  0.53720235354E+02 -0.16351380421E+02  0.62377614642E+02  0.10566000000E+00 0.  1.
         23    2    1    0    0    0 -0.10723445200E+02  0.28014546974E+02 -0.70513502465E+01  0.94275577088E+02  0.89097451006E+02 0.  0.
         13    1    3    3    0    0  0.16437635711E+02 -0.25705688380E+02  0.93000301746E+01  0.31897962445E+02  0.10566000000E+00 0. -1.
         22    1    1    0    0    0  0.10723445200E+02 -0.28014546974E+02  0.70513502465E+01  0.30814422912E+02  0.00000000000E+00 0.  1.
</event>
<event>
 5    1  0.1264859E-009  0.9118800E+02  0.7815553E-02  0.1125453E+00
         25   -1    0    0    0    0  0.00000000000E+00  0.00000000000E+00  0.99999998245E-14  0.12509000000E+03  0.12509000000E+03 0.  0.
        -13    1    3    3    0    0  0.25010498752E+02  0.46388802362E+02  0.32888275822E+02  0.62121621703E+02  0.10566000000E+00 0.  1.
         23    2    1    0    0    0  0.16031911385E+02  0.19048522347E+02  0.14339192013E+02  0.96358818091E+02  0.91975763167E+02 0.  0.
         13    1    3    3    0    0 -0.89785873663E+01 -0.27340280015E+02 -0.18549083808E+02  0.34237196389E+02  0.10566000000E+00 0. -1.
         22    1    1    0    0    0 -0.16031911385E+02 -0.19048522347E+02 -0.14339192013E+02  0.28731181909E+02  0.00000000000E+00 0.  1.
</event>
<event>
 5    1  0.1264859E-009  0.9118800E+02  0.7815553E-02  0.1125453E+00
         25   -1    0    0    0    0  0.00000000000E+00  0.00000000000E+00  0.99999998245E-14  0.12509000000E+03  0.12509000000E+03 0.  0.
        -13    1    3    3    0    0 -0.26987680746E+02 -0.29193307129E+02  0.44873996656E+01  0.40009149115E+02  0.10566000000E+00 0. -1.
         23    2    1    0    0    0  0.18780443037E+01  0.14048204752E+02  0.25363699832E+02  0.96034942328E+02  0.91534221860E+02 0.  0.
         13    1    3    3    0    0  0.28865725049E+02  0.43241511881E+02  0.20876300166E+02  0.56025793212E+02  0.10566000000E+00 0.  1.
         22    1    1    0    0    0 -0.18780443037E+01 -0.14048204752E+02 -0.25363699832E+02  0.29055057672E+02  0.00000000000E+00 0.  1.
</event>
<event>
 5    1  0.1264859E-009  0.9118800E+02  0.7815553E-02  0.1125453E+00
         25   -1    0    0    0    0  0.00000000000E+00  0.00000000000E+00  0.99999998245E-14  0.12509000000E+03  0.12509000000E+03 0.  0.
        -13    1    3    3    0    0 -0.23897518753E+02  0.31118471250E+02 -0.13936869622E+02  0.41637701118E+02  0.10566000000E+00 0. -1.
         23    2    1    0    0    0 -0.36333691074E+02 -0.63362011453E+01  0.87841589224E+01  0.87176334918E+02  0.78500110635E+02 0.  0.
         13    1    3    3    0    0 -0.12436172321E+02 -0.37454672395E+02  0.22721028544E+02  0.45538633800E+02  0.10566000000E+00 0.  1.
         22    1    1    0    0    0  0.36333691074E+02  0.63362011453E+01 -0.87841589224E+01  0.37913665082E+02  0.00000000000E+00 0.  1.
</event>
<event>
 4    1  0.1264859E-009  0.9118800E+02  0.7815553E-02  0.1125453E+00
         25   -1    0    0    0    0  0.00000000000E+00  0.00000000000E+00  0.99999998245E-14  0.12509000000E+03  0.12509000000E+03 0.  0.
        -13    1    1    0    0    0  0.30709736901E+02  0.49176747630E+01  0.87935579586E+01  0.32320416012E+02  0.10566000000E+00 0.  1.
         13    1    1    0    0    0  0.14848738545E+02 -0.19191118908E+02  0.24564302345E+02  0.34528252129E+02  0.10566000000E+00 0. -1.
         22    1    1    0    0    0 -0.45558475446E+02  0.14273444145E+02 -0.33357860304E+02  0.58241331859E+02  0.00000000000E+00 0.  1.
</event>
<event>
 5    1  0.1264859E-009  0.9118800E+02  0.7815553E-02  0.1125453E+00
         25   -1    0    0    0    0  0.00000000000E+00  0.00000000000E+00  0.99999998245E-14  0.12509000000E+03  0.12509000000E+03 0.  0.
        -13    1    3    3    0    0  0.51348573606E+01  0.22875713335E+02 -0.44967277603E+02  0.50712249406E+02  0.10566000000E+00 0. -1.
         23    2    1    0    0    0  0.21787602396E+02 -0.87218252065E+01 -0.19468170858E+02  0.94597713604E+02  0.89548578378E+02 0.  0.
         13    1    3    3    0    0  0.16652745035E+02 -0.31597538541E+02  0.25499106745E+02  0.43885464198E+02  0.10566000000E+00 0.  1.
         22    1    1    0    0    0 -0.21787602396E+02  0.87218252065E+01  0.19468170858E+02  0.30492286396E+02  0.00000000000E+00 0. -1.
</event>
<event>
 5    1  0.1264859E-009  0.9118800E+02  0.7815553E-02  0.1125453E+00
         25   -1    0    0    0    0  0.00000000000E+00  0.00000000000E+00  0.99999998245E-14  0.12509000000E+03  0.12509000000E+03 0.  0.
        -13    1    3    3    0    0  0.41595365693E+02  0.31244776304E+02 -0.14341649663E+02  0.53963919173E+02  0.10566000000E+00 0. -1.
         23    2    1    0    0    0  0.62553345179E+01  0.29405473416E+02  0.54890910679E+01  0.94529548474E+02  0.89453308140E+02 0.  0.
         13    1    3    3    0    0 -0.35340031175E+02 -0.18393028881E+01  0.19830740731E+02  0.40565629301E+02  0.10566000000E+00 0.  1.
         22    1    1    0    0    0 -0.62553345179E+01 -0.29405473416E+02 -0.54890910679E+01  0.30560451526E+02  0.00000000000E+00 0. -1.
</event>
<event>
 5    1  0.1264859E-009  0.9118800E+02  0.7815553E-02  0.1125453E+00
         25   -1    0    0    0    0  0.00000000000E+00  0.00000000000E+00  0.99999998245E-14  0.12509000000E+03  0.12509000000E+03 0.  0.
        -13    1    3    3    0    0  0.20774978646E+02 -0.36681879614E+01 -0.37599698619E+02  0.43113847438E+02  0.10566000000E+00 0.  1.
         23    2    1    0    0    0  0.24513471745E+02 -0.38934974185E+01  0.15159541579E+02  0.96005961078E+02  0.91494607723E+02 0.  0.
         13    1    3    3    0    0  0.37384930987E+01 -0.22530945718E+00  0.52759240198E+02  0.52892113640E+02  0.10566000000E+00 0. -1.
         22    1    1    0    0    0 -0.24513471745E+02  0.38934974185E+01 -0.15159541579E+02  0.29084038922E+02  0.00000000000E+00 0. -1.
</event>
<event>
 5    1  0.1264859E-009  0.9118800E+02  0.7815553E-02  0.1125453E+00
         25   -1    0    0    0    0  0.00000000000E+00  0.00000000000E+00  0.99999998245E-14  0.12509000000E+03  0.12509000000E+03 0.  0.
        -13    1    3    3    0    0  0.53164488275E+02  0.85647491451E+01  0.20595897178E+02  0.57654313681E+02  0.10566000000E+00 0. -1.
         23    2    1    0    0    0  0.26749718961E+02  0.50512505458E+01 -0.79750320051E+01  0.96723404645E+02  0.92470283195E+02 0.  0.
         13    1    3    3    0    0 -0.26414769315E+02 -0.35134985993E+01 -0.28570929183E+02  0.39069090964E+02  0.10566000000E+00 0.  1.
         22    1    1    0    0    0 -0.26749718961E+02 -0.50512505458E+01  0.79750320051E+01  0.28366595355E+02  0.00000000000E+00 0. -1.
</event>
<event>
 5    1  0.1264859E-009  0.9118800E+02  0.7815553E-02  0.1125453E+00
         25   -1    0    0    0    0  0.00000000000E+00  0.00000000000E+00  0.99999998245E-14  0.12509000000E+03  0.12509000000E+03 0.  0.
        -13    1    3    3    0    0 -0.19956151002E+02  0.29941905542E+02 -0.44431469964E+02  0.57174577895E+02  0.10566000000E+00 0.  1.
         23    2    1    0    0    0 -0.92748047014E+01  0.28253382998E+02 -0.93000058082E+01  0.93932885867E+02  0.88615017273E+02 0.  0.
         13    1    3    3    0    0  0.10681346300E+02 -0.16885225440E+01  0.35131464156E+02  0.36758307972E+02  0.10566000000E+00 0. -1.
         22    1    1    0    0    0  0.92748047014E+01 -0.28253382998E+02  0.93000058082E+01  0.31157114133E+02  0.00000000000E+00 0.  1.
</event>
<event>
 5    1  0.1264859E-009  0.9118800E+02  0.7815553E-02  0.1125453E+00
         25   -1    0    0    0    0  0.00000000000E+00  0.00000000000E+00  0.99999998245E-14  0.12509000000E+03  0.12509000000E+03 0.  0.
        -13    1    3    3    0    0  0.32408171941E+02 -0.30950401529E+02 -0.67431946556E+01  0.45317753713E+02  0.10566000000E+00 0.  1.
         23    2    1    0    0    0 -0.81039580798E+01 -0.17098517856E+02  0.21377160683E+02  0.96541507075E+02  0.92223891373E+02 0.  0.
         13    1    3    3    0    0 -0.40512130021E+02  0.13851883673E+02  0.28120355338E+02  0.51223753362E+02  0.10566000000E+00 0. -1.
         22    1    1    0    0    0  0.81039580798E+01  0.17098517856E+02 -0.21377160683E+02  0.28548492925E+02  0.00000000000E+00 0.  1.
</event>
<event>
 5    1  0.1264859E-009  0.9118800E+02  0.7815553E-02  0.1125453E+00
         25   -1    0    0    0    0  0.00000000000E+00  0.00000000000E+00  0.99999998245E-14  0.12509000000E+03  0.12509000000E+03 0.  0.
        -13    1    3    3    0    0  0.12183952338E+02  0.26179247577E+02 -0.17611149971E+02  0.33822558532E+02  0.10566000000E+00 0. -1.
         23    2    1    0    0    0 -0.29601962336E+02 -0.12591180573E+02 -0.23302354879E+01  0.92837186173E+02  0.87054575622E+02 0.  0.
         13    1    3    3    0    0 -0.41785914674E+02 -0.38770428150E+02  0.15280914483E+02  0.59014627641E+02  0.10566000000E+00 0.  1.
         22    1    1    0    0    0  0.29601962336E+02  0.12591180573E+02  0.23302354879E+01  0.32252813827E+02  0.00000000000E+00 0.  1.
</event>
<event>
 5    1  0.1264859E-009  0.9118800E+02  0.7815553E-02  0.1125453E+00
         25   -1    0    0    0    0  0.00000000000E+00  0.00000000000E+00  0.99999998245E-14  0.12509000000E+03  0.12509000000E+03 0.  0.
        -13    1    3    3    0    0 -0.19748922295E+02 -0.29627953327E+02  0.41331696268E+02  0.54554155025E+02  0.10566000000E+00 0. -1.
         23    2    1    0    0    0 -0.98219873953E+01  0.83543399566E+01  0.24773852208E+02  0.97161337560E+02  0.93060815227E+02 0.  0.
         13    1    3    3    0    0  0.99269348996E+01  0.37982293283E+02 -0.16557844060E+02  0.42607182534E+02  0.10566000000E+00 0.  1.
         22    1    1    0    0    0  0.98219873953E+01 -0.83543399566E+01 -0.24773852208E+02  0.27928662440E+02  0.00000000000E+00 0. -1.
</event>
<event>
 5    1  0.1264859E-009  0.9118800E+02  0.7815553E-02  0.1125453E+00
         25   -1    0    0    0    0  0.00000000000E+00  0.00000000000E+00  0.99999998245E-14  0.12509000000E+03  0.12509000000E+03 0.  0.
        -13    1    3    3    0    0 -0.26154203000E+02  0.10081684918E+02  0.32172433174E+02  0.42670356522E+02  0.10566000000E+00 0.  1.
         23    2    1    0    0    0 -0.11645026090E+02  0.19387164868E+02 -0.18295390275E+02  0.96000653160E+02  0.91487350533E+02 0.  0.
         13    1    3    3    0    0  0.14509176911E+02  0.93054799506E+01 -0.50467823449E+02  0.53330296638E+02  0.10566000000E+00 0. -1.
         22    1    1    0    0    0  0.11645026090E+02 -0.19387164868E+02  0.18295390275E+02  0.29089346840E+02  0.00000000000E+00 0. -1.
</event>
<event>
 5    1  0.1264859E-009  0.9118800E+02  0.7815553E-02  0.1125453E+00
         25   -1    0    0    0    0  0.00000000000E+00  0.00000000000E+00  0.99999998245E-14  0.12509000000E+03  0.12509000000E+03 0.  0.
        -13    1    3    3    0    0 -0.28800776729E+02  0.43517031368E+02 -0.39131485240E+01  0.52331067777E+02  0.10566000000E+00 0.  1.
         23    2    1    0    0    0  0.10854431283E+02  0.27942698422E+02 -0.14748706815E-01  0.95113120724E+02  0.90265676992E+02 0.  0.
         13    1    3    3    0    0  0.39655208012E+02 -0.15574332946E+02  0.38983998172E+01  0.42782052947E+02  0.10566000000E+00 0. -1.
         22    1    1    0    0    0 -0.10854431283E+02 -0.27942698422E+02  0.14748706815E-01  0.29976879276E+02  0.00000000000E+00 0.  1.
</event>
<event>
 5    1  0.1264859E-009  0.9118800E+02  0.7815553E-02  0.1125453E+00
         25   -1    0    0    0    0  0.00000000000E+00  0.00000000000E+00  0.99999998245E-14  0.12509000000E+03  0.12509000000E+03 0.  0.
        -13    1    3    3    0    0 -0.46607883933E+02 -0.16022710369E+01  0.19459911775E+02  0.50532775972E+02  0.10566000000E+00 0.  1.
         23    2    1    0    0    0 -0.16690413893E+02 -0.20427972999E+02 -0.10330613389E+02  0.96759917583E+02  0.92519663212E+02 0.  0.
         13    1    3    3    0    0  0.29917470040E+02 -0.18825701962E+02 -0.29790525164E+02  0.46227141611E+02  0.10566000000E+00 0. -1.
         22    1    1    0    0    0  0.16690413893E+02  0.20427972999E+02  0.10330613389E+02  0.28330082417E+02  0.00000000000E+00 0.  1.
</event>
<event>
 5    1  0.1264859E-009  0.9118800E+02  0.7815553E-02  0.1125453E+00
         25   -1    0    0    0    0  0.00000000000E+00  0.00000000000E+00  0.99999998245E-14  0.12509000000E+03  0.12509000000E+03 0.  0.
        -13    1    3    3    0    0 -0.50003334569E+02 -0.36109101088E+02 -0.92239590298E+01  0.62364198332E+02  0.10566000000E+00 0.  1.
         23    2    1    0    0    0 -0.28385351164E+02 -0.24359362908E+02 -0.45428295063E+01  0.87410509267E+02  0.78872384955E+02 0.  0.
         13    1    3    3    0    0  0.21617983405E+02  0.11749738180E+02  0.46811295235E+01  0.25046310935E+02  0.10566000000E+00 0. -1.
         22    1    1    0    0    0  0.28385351164E+02  0.24359362908E+02  0.45428295063E+01  0.37679490733E+02  0.00000000000E+00 0.  1.
</event>
<event>
 5    1  0.1264859E-009  0.9118800E+02  0.7815553E-02  0.1125453E+00
         25   -1    0    0    0    0  0.00000000000E+00  0.00000000000E+00  0.99999998245E-14  0.12509000000E+03  0.12509000000E+03 0.  0.
        -13    1    3    3    0    0 -0.66030170519E+01 -0.29670080508E+02  0.31413319644E+02  0.43711798483E+02  0.10566000000E+00 0. -1.
         23    2    1    0    0    0  0.24642848258E+02  0.65266295465E+01  0.19509617538E+02  0.92988722145E+02  0.87272048252E+02 0.  0.
         13    1    3    3    0    0  0.31245865309E+02  0.36196710054E+02 -0.11903702106E+02  0.49276923662E+02  0.10566000000E+00 0.  1.
         22    1    1    0    0    0 -0.24642848258E+02 -0.65266295465E+01 -0.19509617538E+02  0.32101277855E+02  0.00000000000E+00 0.  1.
</event>
<event>
 5    1  0.1264859E-009  0.9118800E+02  0.7815553E-02  0.1125453E+00
         25   -1    0    0    0    0  0.00000000000E+00  0.00000000000E+00  0.99999998245E-14  0.12509000000E+03  0.12509000000E+03 0.  0.
        -13    1    3    3    0    0  0.14279008155E+02 -0.54611070058E+02 -0.24255869665E+02  0.61437915199E+02  0.10566000000E+00 0.  1.
         23    2    1    0    0    0  0.24666574138E+01 -0.22051682963E+02 -0.17738875585E+02  0.96681747197E+02  0.92413913529E+02 0.  0.
         13    1    3    3    0    0 -0.11812350741E+02  0.32559387095E+02  0.65169940796E+01  0.35243831998E+02  0.10566000000E+00 0. -1.
         22    1    1    0    0    0 -0.24666574138E+01  0.22051682963E+02  0.17738875585E+02  0.28408252803E+02  0.00000000000E+00 0.  1.
</event>
<event>
 5    1  0.1264859E-009  0.9118800E+02  0.7815553E-02  0.1125453E+00
         25   -1    0    0    0    0  0.00000000000E+00  0.00000000000E+00  0.99999998245E-14  0.12509000000E+03  0.12509000000E+03 0.  0.
        -13    1    3    3    0    0  0.18786337743E+02 -0.28713240223E+02  0.19775972786E+02  0.39604001232E+02  0.10566000000E+00 0.  1.
         23    2    1    0    0    0 -0.28249861671E+02 -0.96343103376E+01 -0.27091520117E+01  0.95119779368E+02  0.90274904056E+02 0.  0.
         13    1    3    3    0    0 -0.47036199414E+02  0.19078929885E+02 -0.22485124798E+02  0.55515778136E+02  0.10566000000E+00 0. -1.
         22    1    1    0    0    0  0.28249861671E+02  0.96343103376E+01  0.27091520117E+01  0.29970220632E+02  0.00000000000E+00 0. -1.
</event>
<event>
 5    1  0.1264859E-009  0.9118800E+02  0.7815553E-02  0.1125453E+00
         25   -1    0    0    0    0  0.00000000000E+00  0.00000000000E+00  0.99999998245E-14  0.12509000000E+03  0.12509000000E+03 0.  0.
        -13    1    3    3    0    0  0.13570293561E+01 -0.31140748471E+02  0.15355680725E+02  0.34747601911E+02  0.10566000000E+00 0.  1.
         23    2    1    0    0    0  0.13043382491E+02  0.26498641824E+02  0.10437345936E+02  0.93765153065E+02  0.88377926508E+02 0.  0.
         13    1    3    3    0    0  0.11686353135E+02  0.57639390295E+02 -0.49183347889E+01  0.59017551154E+02  0.10566000000E+00 0. -1.
         22    1    1    0    0    0 -0.13043382491E+02 -0.26498641824E+02 -0.10437345936E+02  0.31324846935E+02  0.00000000000E+00 0. -1.
</event>
<event>
 5    1  0.1264859E-009  0.9118800E+02  0.7815553E-02  0.1125453E+00
         25   -1    0    0    0    0  0.00000000000E+00  0.00000000000E+00  0.99999998245E-14  0.12509000000E+03  0.12509000000E+03 0.  0.
        -13    1    3    3    0    0  0.16425680248E+02 -0.30419268971E+02 -0.62818589094E+01  0.35136986378E+02  0.10566000000E+00 0.  1.
         23    2    1    0    0    0 -0.24940206624E+02 -0.34556501298E+01  0.21663726737E+02  0.91874454236E+02  0.85660042381E+02 0.  0.
         13    1    3    3    0    0 -0.41365886873E+02  0.26963618841E+02  0.27945585646E+02  0.56737467858E+02  0.10566000000E+00 0. -1.
         22    1    1    0    0    0  0.24940206624E+02  0.34556501298E+01 -0.21663726737E+02  0.33215545764E+02  0.00000000000E+00 0. -1.
</event>
<event>
 5    1  0.1264859E-009  0.9118800E+02  0.7815553E-02  0.1125453E+00
         25   -1    0    0    0    0  0.00000000000E+00  0.00000000000E+00  0.99999998245E-14  0.12509000000E+03  0.12509000000E+03 0.  0.
        -13    1    3    3    0    0  0.24489426117E+02  0.26834865291E+02  0.30386722174E+02  0.47362496084E+02  0.10566000000E+00 0. -1.
         23    2    1    0    0    0  0.26772012376E+02  0.37455613969E+01 -0.11866832672E+02  0.95567269867E+02  0.90892857120E+02 0.  0.
         13    1    3    3    0    0  0.22825862590E+01 -0.23089303895E+02 -0.42253554846E+02  0.48204773783E+02  0.10566000000E+00 0.  1.
         22    1    1    0    0    0 -0.26772012376E+02 -0.37455613969E+01  0.11866832672E+02  0.29522730133E+02  0.00000000000E+00 0. -1.
</event>
<event>
 5    1  0.1264859E-009  0.9118800E+02  0.7815553E-02  0.1125453E+00
         25   -1    0    0    0    0  0.00000000000E+00  0.00000000000E+00  0.99999998245E-14  0.12509000000E+03  0.12509000000E+03 0.  0.
        -13    1    3    3    0    0  0.41298343849E+02  0.25086006626E+02  0.29113747085E+02  0.56413494542E+02  0.10566000000E+00 0. -1.
         23    2    1    0    0    0  0.82527431540E+01  0.26523980344E+02  0.62675340092E+01  0.96613495906E+02  0.92321483446E+02 0.  0.
         13    1    3    3    0    0 -0.33045600695E+02  0.14379737183E+01 -0.22846213076E+02  0.40200001364E+02  0.10566000000E+00 0.  1.
         22    1    1    0    0    0 -0.82527431540E+01 -0.26523980344E+02 -0.62675340092E+01  0.28476504094E+02  0.00000000000E+00 0.  1.
</event>
<event>
 5    1  0.1264859E-009  0.9118800E+02  0.7815553E-02  0.1125453E+00
         25   -1    0    0    0    0  0.00000000000E+00  0.00000000000E+00  0.99999998245E-14  0.12509000000E+03  0.12509000000E+03 0.  0.
        -13    1    3    3    0    0 -0.25711651240E+02 -0.13089395484E+02  0.26755483368E+02  0.39348295235E+02  0.10566000000E+00 0. -1.
         23    2    1    0    0    0  0.53516723965E+01  0.28654169748E+02  0.62401252880E+01  0.95279917729E+02  0.90496528759E+02 0.  0.
         13    1    3    3    0    0  0.31063323636E+02  0.41743565232E+02 -0.20515358080E+02  0.55931622494E+02  0.10566000000E+00 0.  1.
         22    1    1    0    0    0 -0.53516723965E+01 -0.28654169748E+02 -0.62401252880E+01  0.29810082271E+02  0.00000000000E+00 0.  1.
</event>
<event>
 5    1  0.1264859E-009  0.9118800E+02  0.7815553E-02  0.1125453E+00
         25   -1    0    0    0    0  0.00000000000E+00  0.00000000000E+00  0.99999998245E-14  0.12509000000E+03  0.12509000000E+03 0.  0.
        -13    1    3    3    0    0  0.62370449618E+00  0.44615012502E+02 -0.30082417633E+00  0.44620511058E+02  0.10566000000E+00 0. -1.
         23    2    1    0    0    0 -0.23554787317E+02  0.23579134119E+01  0.16623485545E+02  0.96163748379E+02  0.91710078341E+02 0.  0.
         13    1    3    3    0    0 -0.24178491813E+02 -0.42257099090E+02  0.16924309721E+02  0.51543237320E+02  0.10566000000E+00 0.  1.
         22    1    1    0    0    0  0.23554787317E+02 -0.23579134119E+01 -0.16623485545E+02  0.28926251621E+02  0.00000000000E+00 0.  1.
</event>
<event>
 5    1  0.1264859E-009  0.9118800E+02  0.7815553E-02  0.1125453E+00
         25   -1    0    0    0    0  0.00000000000E+00  0.00000000000E+00  0.99999998245E-14  0.12509000000E+03  0.12509000000E+03 0.  0.
        -13    1    3    3    0    0 -0.31059327156E+02 -0.97320551128E+01  0.11996788812E+02  0.34689030052E+02  0.10566000000E+00 0.  1.
         23    2    1    0    0    0  0.24269466735E+02 -0.96288244623E+01 -0.13598269418E+02  0.95651348412E+02  0.91008495459E+02 0.  0.
         13    1    3    3    0    0  0.55328793891E+02  0.10323065050E+00 -0.25595058230E+02  0.60962318360E+02  0.10566000000E+00 0. -1.
         22    1    1    0    0    0 -0.24269466735E+02  0.96288244623E+01  0.13598269418E+02  0.29438651588E+02  0.00000000000E+00 0. -1.
</event>
<event>
 5    1  0.1264859E-009  0.9118800E+02  0.7815553E-02  0.1125453E+00
         25   -1    0    0    0    0  0.00000000000E+00  0.00000000000E+00  0.99999998245E-14  0.12509000000E+03  0.12509000000E+03 0.  0.
        -13    1    3    3    0    0 -0.21184712692E+02 -0.31877534744E+02  0.16351235634E+02  0.41621428903E+02  0.10566000000E+00 0. -1.
         23    2    1    0    0    0  0.22505194407E+02 -0.83639563780E+00 -0.89098100347E+01  0.10087083305E+03  0.97920155802E+02 0.  0.
         13    1    3    3    0    0  0.43689907099E+02  0.31041139106E+02 -0.25261045668E+02  0.59249404146E+02  0.10566000000E+00 0.  1.
         22    1    1    0    0    0 -0.22505194407E+02  0.83639563780E+00  0.89098100347E+01  0.24219166951E+02  0.00000000000E+00 0.  1.
</event>
<event>
 5    1  0.1264859E-009  0.9118800E+02  0.7815553E-02  0.1125453E+00
         25   -1    0    0    0    0  0.00000000000E+00  0.00000000000E+00  0.99999998245E-14  0.12509000000E+03  0.12509000000E+03 0.  0.
        -13    1    3    3    0    0 -0.50544192911E+02  0.22349865079E+02 -0.28396737487E+01  0.55338113602E+02  0.10566000000E+00 0.  1.
         23    2    1    0    0    0 -0.12017321635E+02  0.28171624597E+02  0.62202713772E+00  0.94455976930E+02  0.89350367701E+02 0.  0.
         13    1    3    3    0    0  0.38526871276E+02  0.58217595184E+01  0.34617008864E+01  0.39117863327E+02  0.10566000000E+00 0. -1.
         22    1    1    0    0    0  0.12017321635E+02 -0.28171624597E+02 -0.62202713772E+00  0.30634023070E+02  0.00000000000E+00 0.  1.
</event>
<event>
 5    1  0.1264859E-009  0.9118800E+02  0.7815553E-02  0.1125453E+00
         25   -1    0    0    0    0  0.00000000000E+00  0.00000000000E+00  0.99999998245E-14  0.12509000000E+03  0.12509000000E+03 0.  0.
        -13    1    3    3    0    0 -0.33890452171E+02  0.39519236458E+02  0.11187787598E+02  0.53249512242E+02  0.10566000000E+00 0.  1.
         23    2    1    0    0    0  0.53999078393E+01  0.24986428875E+02 -0.64853069898E+01  0.98716910697E+02  0.95128800152E+02 0.  0.
         13    1    3    3    0    0  0.39290360011E+02 -0.14532807583E+02 -0.17673094587E+02  0.45467398456E+02  0.10566000000E+00 0. -1.
         22    1    1    0    0    0 -0.53999078393E+01 -0.24986428875E+02  0.64853069898E+01  0.26373089303E+02  0.00000000000E+00 0.  1.
</event>
<event>
 5    1  0.1264859E-009  0.9118800E+02  0.7815553E-02  0.1125453E+00
         25   -1    0    0    0    0  0.00000000000E+00  0.00000000000E+00  0.99999998245E-14  0.12509000000E+03  0.12509000000E+03 0.  0.
        -13    1    3    3    0    0  0.27999926546E+02  0.22348849160E+02  0.19302942907E+02  0.40694983896E+02  0.10566000000E+00 0. -1.
         23    2    1    0    0    0 -0.24412746084E+02  0.20584051752E+01  0.13287722517E+02  0.97219177032E+02  0.93138529137E+02 0.  0.
         13    1    3    3    0    0 -0.52412672630E+02 -0.20290443984E+02 -0.60152203903E+01  0.56524193136E+02  0.10566000000E+00 0.  1.
         22    1    1    0    0    0  0.24412746084E+02 -0.20584051752E+01 -0.13287722517E+02  0.27870822968E+02  0.00000000000E+00 0.  1.
</event>
<event>
 5    1  0.1264859E-009  0.9118800E+02  0.7815553E-02  0.1125453E+00
         25   -1    0    0    0    0  0.00000000000E+00  0.00000000000E+00  0.99999998245E-14  0.12509000000E+03  0.12509000000E+03 0.  0.
        -13    1    3    3    0    0  0.50445471243E+02 -0.95187444747E+01 -0.31146602168E+01  0.51430188971E+02  0.10566000000E+00 0. -1.
         23    2    1    0    0    0  0.18889488621E+02  0.11787054503E+02  0.19309337001E+02  0.95618014495E+02  0.90962666882E+02 0.  0.
         13    1    3    3    0    0 -0.31555982621E+02  0.21305798977E+02  0.22423997218E+02  0.44187825524E+02  0.10566000000E+00 0.  1.
         22    1    1    0    0    0 -0.18889488621E+02 -0.11787054503E+02 -0.19309337001E+02  0.29471985505E+02  0.00000000000E+00 0. -1.
</event>
<event>
 5    1  0.1264859E-009  0.9118800E+02  0.7815553E-02  0.1125453E+00
         25   -1    0    0    0    0  0.00000000000E+00  0.00000000000E+00  0.99999998245E-14  0.12509000000E+03  0.12509000000E+03 0.  0.
        -13    1    3    3    0    0 -0.35930569144E+02  0.10282203400E+02  0.56076634336E+01  0.37791355612E+02  0.10566000000E+00 0.  1.
         23    2    1    0    0    0  0.18764996329E+02 -0.24031709541E+01  0.21798849963E+02  0.96226698430E+02  0.91795900307E+02 0.  0.
         13    1    3    3    0    0  0.54695565473E+02 -0.12685374354E+02  0.16191186529E+02  0.58435342817E+02  0.10566000000E+00 0. -1.
         22    1    1    0    0    0 -0.18764996329E+02  0.24031709541E+01 -0.21798849963E+02  0.28863301570E+02  0.00000000000E+00 0. -1.
</event>
<event>
 5    1  0.1264859E-009  0.9118800E+02  0.7815553E-02  0.1125453E+00
         25   -1    0    0    0    0  0.00000000000E+00  0.00000000000E+00  0.99999998245E-14  0.12509000000E+03  0.12509000000E+03 0.  0.
        -13    1    3    3    0    0 -0.39196775069E+02 -0.34943741996E+02  0.18821877763E+02  0.55782851550E+02  0.10566000000E+00 0.  1.
         23    2    1    0    0    0 -0.26770573187E+02  0.25981302091E+01  0.10640438817E+02  0.96165394427E+02  0.91712323478E+02 0.  0.
         13    1    3    3    0    0  0.12426201882E+02  0.37541872205E+02 -0.81814389455E+01  0.40382542876E+02  0.10566000000E+00 0. -1.
         22    1    1    0    0    0  0.26770573187E+02 -0.25981302091E+01 -0.10640438817E+02  0.28924605573E+02  0.00000000000E+00 0.  1.
</event>
<event>
 5    1  0.1264859E-009  0.9118800E+02  0.7815553E-02  0.1125453E+00
         25   -1    0    0    0    0  0.00000000000E+00  0.00000000000E+00  0.99999998245E-14  0.12509000000E+03  0.12509000000E+03 0.  0.
        -13    1    3    3    0    0  0.23042355393E+02  0.13079119502E+02 -0.50836470493E+02  0.57326882047E+02  0.10566000000E+00 0. -1.
         23    2    1    0    0    0 -0.56920137980E+01 -0.68379865967E+00 -0.27956599379E+02  0.96551638966E+02  0.92237632973E+02 0.  0.
         13    1    3    3    0    0 -0.28734369191E+02 -0.13762918162E+02  0.22879871115E+02  0.39224756919E+02  0.10566000000E+00 0.  1.
         22    1    1    0    0    0  0.56920137980E+01  0.68379865967E+00  0.27956599379E+02  0.28538361034E+02  0.00000000000E+00 0. -1.
</event>
<event>
 5    1  0.1264859E-009  0.9118800E+02  0.7815553E-02  0.1125453E+00
         25   -1    0    0    0    0  0.00000000000E+00  0.00000000000E+00  0.99999998245E-14  0.12509000000E+03  0.12509000000E+03 0.  0.
        -13    1    3    3    0    0  0.42488633089E+02  0.25664701413E+01  0.44713909759E+02  0.61735043539E+02  0.10566000000E+00 0.  1.
         23    2    1    0    0    0  0.17362647691E+02  0.80554553742E+01  0.18051470795E+02  0.98780163551E+02  0.95211938417E+02 0.  0.
         13    1    3    3    0    0 -0.25125985398E+02  0.54889852329E+01 -0.26662438964E+02  0.37045120012E+02  0.10566000000E+00 0. -1.
         22    1    1    0    0    0 -0.17362647691E+02 -0.80554553742E+01 -0.18051470795E+02  0.26309836449E+02  0.00000000000E+00 0.  1.
</event>
<event>
 5    1  0.1264859E-009  0.9118800E+02  0.7815553E-02  0.1125453E+00
         25   -1    0    0    0    0  0.00000000000E+00  0.00000000000E+00  0.99999998245E-14  0.12509000000E+03  0.12509000000E+03 0.  0.
        -13    1    3    3    0    0  0.28818542524E+02 -0.36667829174E+02 -0.28013558653E+02  0.54404124126E+02  0.10566000000E+00 0.  1.
         23    2    1    0    0    0  0.26077858135E+00 -0.64121478565E+01 -0.28362606298E+02  0.96010435326E+02  0.91500724642E+02 0.  0.
         13    1    3    3    0    0 -0.28557763943E+02  0.30255681317E+02 -0.34904764488E+00  0.41606311200E+02  0.10566000000E+00 0. -1.
         22    1    1    0    0    0 -0.26077858135E+00  0.64121478565E+01  0.28362606298E+02  0.29079564674E+02  0.00000000000E+00 0.  1.
</event>
<event>
 5    1  0.1264859E-009  0.9118800E+02  0.7815553E-02  0.1125453E+00
         25   -1    0    0    0    0  0.00000000000E+00  0.00000000000E+00  0.99999998245E-14  0.12509000000E+03  0.12509000000E+03 0.  0.
        -13    1    3    3    0    0  0.92022731553E+00 -0.17511254719E+02  0.50697424530E+02  0.53644485999E+02  0.10566000000E+00 0.  1.
         23    2    1    0    0    0  0.16862786314E+02  0.91997649239E+01  0.20452525872E+02  0.97031221490E+02  0.92885751827E+02 0.  0.
         13    1    3    3    0    0  0.15942558998E+02  0.26711019643E+02 -0.30244898658E+02  0.43386735491E+02  0.10566000000E+00 0. -1.
         22    1    1    0    0    0 -0.16862786314E+02 -0.91997649239E+01 -0.20452525872E+02  0.28058778510E+02  0.00000000000E+00 0.  1.
</event>
<event>
 5    1  0.1264859E-009  0.9118800E+02  0.7815553E-02  0.1125453E+00
         25   -1    0    0    0    0  0.00000000000E+00  0.00000000000E+00  0.99999998245E-14  0.12509000000E+03  0.12509000000E+03 0.  0.
        -13    1    3    3    0    0 -0.37135642328E+02 -0.14723649457E+02  0.11882737586E+02  0.41677960615E+02  0.10566000000E+00 0.  1.
         23    2    1    0    0    0 -0.42349566157E+01 -0.10589390279E+02 -0.28771480488E+02  0.94140555199E+02  0.88907682456E+02 0.  0.
         13    1    3    3    0    0  0.32900685712E+02  0.41342591781E+01 -0.40654218074E+02  0.52462594584E+02  0.10566000000E+00 0. -1.
         22    1    1    0    0    0  0.42349566157E+01  0.10589390279E+02  0.28771480488E+02  0.30949444801E+02  0.00000000000E+00 0. -1.
</event>
<event>
 5    1  0.1264859E-009  0.9118800E+02  0.7815553E-02  0.1125453E+00
         25   -1    0    0    0    0  0.00000000000E+00  0.00000000000E+00  0.99999998245E-14  0.12509000000E+03  0.12509000000E+03 0.  0.
        -13    1    3    3    0    0  0.21826480797E-01 -0.12569532855E+02  0.34030967866E+02  0.36278252033E+02  0.10566000000E+00 0. -1.
         23    2    1    0    0    0 -0.21623392972E+02  0.12184450244E+02 -0.15571065489E+02  0.95789999457E+02  0.91198870410E+02 0.  0.
         13    1    3    3    0    0 -0.21645219453E+02  0.24753983099E+02 -0.49602033356E+02  0.59511747424E+02  0.10566000000E+00 0.  1.
         22    1    1    0    0    0  0.21623392972E+02 -0.12184450244E+02  0.15571065489E+02  0.29300000543E+02  0.00000000000E+00 0. -1.
</event>
<event>
 5    1  0.1264859E-009  0.9118800E+02  0.7815553E-02  0.1125453E+00
         25   -1    0    0    0    0  0.00000000000E+00  0.00000000000E+00  0.99999998245E-14  0.12509000000E+03  0.12509000000E+03 0.  0.
        -13    1    3    3    0    0 -0.22322027924E+02  0.18515007507E+02 -0.51362875512E+02  0.58985036904E+02  0.10566000000E+00 0.  1.
         23    2    1    0    0    0  0.28416413984E+01  0.15188500288E+02 -0.25849464372E+02  0.94974218835E+02  0.90072981344E+02 0.  0.
         13    1    3    3    0    0  0.25163669322E+02 -0.33265072194E+01  0.25513411140E+02  0.35989181931E+02  0.10566000000E+00 0. -1.
         22    1    1    0    0    0 -0.28416413984E+01 -0.15188500288E+02  0.25849464372E+02  0.30115781165E+02  0.00000000000E+00 0.  1.
</event>
<event>
 5    1  0.1264859E-009  0.9118800E+02  0.7815553E-02  0.1125453E+00
         25   -1    0    0    0    0  0.00000000000E+00  0.00000000000E+00  0.99999998245E-14  0.12509000000E+03  0.12509000000E+03 0.  0.
        -13    1    3    3    0    0 -0.36625167707E+02  0.45856637340E+02  0.21303870776E+02  0.62434767332E+02  0.10566000000E+00 0. -1.
         23    2    1    0    0    0 -0.16019713036E+02  0.24204710025E+02  0.10961528587E+02  0.94063329181E+02  0.88798961674E+02 0.  0.
         13    1    3    3    0    0  0.20605454671E+02 -0.21651927315E+02 -0.10342342189E+02  0.31628561849E+02  0.10566000000E+00 0.  1.
         22    1    1    0    0    0  0.16019713036E+02 -0.24204710025E+02 -0.10961528587E+02  0.31026670819E+02  0.00000000000E+00 0. -1.
</event>
<event>
 5    1  0.1264859E-009  0.9118800E+02  0.7815553E-02  0.1125453E+00
         25   -1    0    0    0    0  0.00000000000E+00  0.00000000000E+00  0.99999998245E-14  0.12509000000E+03  0.12509000000E+03 0.  0.
        -13    1    3    3    0    0  0.19867581134E+02  0.20595152551E+02  0.19443829891E+02  0.34597034173E+02  0.10566000000E+00 0.  1.
         23    2    1    0    0    0  0.11220948147E+01 -0.19706868561E+02 -0.22114737527E+02  0.95447439700E+02  0.90727792678E+02 0.  0.
         13    1    3    3    0    0 -0.18745486319E+02 -0.40302021112E+02 -0.41558567417E+02  0.60850405527E+02  0.10566000000E+00 0. -1.
         22    1    1    0    0    0 -0.11220948147E+01  0.19706868561E+02  0.22114737527E+02  0.29642560300E+02  0.00000000000E+00 0. -1.
</event>
<event>
 5    1  0.1264859E-009  0.9118800E+02  0.7815553E-02  0.1125453E+00
         25   -1    0    0    0    0  0.00000000000E+00  0.00000000000E+00  0.99999998245E-14  0.12509000000E+03  0.12509000000E+03 0.  0.
        -13    1    3    3    0    0 -0.20594531671E+02 -0.88262362214E+01 -0.21594842141E+02  0.31118893806E+02  0.10566000000E+00 0. -1.
         23    2    1    0    0    0  0.29713743655E+02  0.91220604396E+00  0.12683763355E+02  0.92769471930E+02  0.86957221594E+02 0.  0.
         13    1    3    3    0    0  0.50308275327E+02  0.97384422654E+01  0.34278605497E+02  0.61650578123E+02  0.10566000000E+00 0.  1.
         22    1    1    0    0    0 -0.29713743655E+02 -0.91220604396E+00 -0.12683763355E+02  0.32320528070E+02  0.00000000000E+00 0.  1.
</event>
<event>
 5    1  0.1264859E-009  0.9118800E+02  0.7815553E-02  0.1125453E+00
         25   -1    0    0    0    0  0.00000000000E+00  0.00000000000E+00  0.99999998245E-14  0.12509000000E+03  0.12509000000E+03 0.  0.
        -13    1    3    3    0    0 -0.35472460131E+02  0.33203217090E+02 -0.33877544889E+02  0.59232155664E+02  0.10566000000E+00 0.  1.
         23    2    1    0    0    0 -0.12309521639E+02  0.25833280421E+02 -0.66884741666E+01  0.95702615173E+02  0.91078933700E+02 0.  0.
         13    1    3    3    0    0  0.23162938491E+02 -0.73699366692E+01  0.27189070722E+02  0.36470459509E+02  0.10566000000E+00 0. -1.
         22    1    1    0    0    0  0.12309521639E+02 -0.25833280421E+02  0.66884741666E+01  0.29387384827E+02  0.00000000000E+00 0.  1.
</event>
<event>
 5    1  0.1264859E-009  0.9118800E+02  0.7815553E-02  0.1125453E+00
         25   -1    0    0    0    0  0.00000000000E+00  0.00000000000E+00  0.99999998245E-14  0.12509000000E+03  0.12509000000E+03 0.  0.
        -13    1    3    3    0    0  0.38379829350E+02  0.44755732608E+02  0.78148201047E+01  0.59474107639E+02  0.10566000000E+00 0.  1.
         23    2    1    0    0    0  0.28760228446E+02  0.12294001587E+02  0.30742967616E+01  0.93661596988E+02  0.88231231628E+02 0.  0.
         13    1    3    3    0    0 -0.96196009035E+01 -0.32461731021E+02 -0.47405233431E+01  0.34187489349E+02  0.10566000000E+00 0. -1.
         22    1    1    0    0    0 -0.28760228446E+02 -0.12294001587E+02 -0.30742967616E+01  0.31428403012E+02  0.00000000000E+00 0.  1.
</event>
<event>
 5    1  0.1264859E-009  0.9118800E+02  0.7815553E-02  0.1125453E+00
         25   -1    0    0    0    0  0.00000000000E+00  0.00000000000E+00  0.99999998245E-14  0.12509000000E+03  0.12509000000E+03 0.  0.
        -13    1    3    3    0    0 -0.22116285287E+02 -0.28864596220E+02  0.36719533994E+02  0.51678141711E+02  0.10566000000E+00 0. -1.
         23    2    1    0    0    0  0.10453328652E+02 -0.25267074131E+02  0.49827047900E+01  0.97295675722E+02  0.93241214343E+02 0.  0.
         13    1    3    3    0    0  0.32569613939E+02  0.35975220895E+01 -0.31736829204E+02  0.45617534012E+02  0.10566000000E+00 0.  1.
         22    1    1    0    0    0 -0.10453328652E+02  0.25267074131E+02 -0.49827047900E+01  0.27794324278E+02  0.00000000000E+00 0.  1.
</event>
<event>
 5    1  0.1264859E-009  0.9118800E+02  0.7815553E-02  0.1125453E+00
         25   -1    0    0    0    0  0.00000000000E+00  0.00000000000E+00  0.99999998245E-14  0.12509000000E+03  0.12509000000E+03 0.  0.
        -13    1    3    3    0    0  0.43535925529E+02 -0.28351320209E+01 -0.16399480284E+02  0.46608678407E+02  0.10566000000E+00 0.  1.
         23    2    1    0    0    0 -0.31371026252E+01 -0.15498685885E+02 -0.24784324163E+02  0.95690792507E+02  0.91062694718E+02 0.  0.
         13    1    3    3    0    0 -0.46673028154E+02 -0.12663553864E+02 -0.83848438790E+01  0.49082114099E+02  0.10566000000E+00 0. -1.
         22    1    1    0    0    0  0.31371026252E+01  0.15498685885E+02  0.24784324163E+02  0.29399207493E+02  0.00000000000E+00 0. -1.
</event>
<event>
 5    1  0.1264859E-009  0.9118800E+02  0.7815553E-02  0.1125453E+00
         25   -1    0    0    0    0  0.00000000000E+00  0.00000000000E+00  0.99999998245E-14  0.12509000000E+03  0.12509000000E+03 0.  0.
        -13    1    3    3    0    0 -0.50756964273E+02 -0.58571098842E+01 -0.19659050991E+02  0.54745452855E+02  0.10566000000E+00 0. -1.
         23    2    1    0    0    0 -0.10221964923E+02 -0.12655110169E+02 -0.24022427081E+02  0.96077633962E+02  0.91592545355E+02 0.  0.
         13    1    3    3    0    0  0.40534999349E+02 -0.67980002845E+01 -0.43633760893E+01  0.41332181107E+02  0.10566000000E+00 0.  1.
         22    1    1    0    0    0  0.10221964923E+02  0.12655110169E+02  0.24022427081E+02  0.29012366038E+02  0.00000000000E+00 0. -1.
</event>
<event>
 5    1  0.1264859E-009  0.9118800E+02  0.7815553E-02  0.1125453E+00
         25   -1    0    0    0    0  0.00000000000E+00  0.00000000000E+00  0.99999998245E-14  0.12509000000E+03  0.12509000000E+03 0.  0.
        -13    1    3    3    0    0 -0.18023714275E+02 -0.55452638229E+02 -0.52122062463E+00  0.58310652524E+02  0.10566000000E+00 0.  1.
         23    2    1    0    0    0 -0.16180821682E+02 -0.20478878533E+02 -0.13555427190E+02  0.95679915632E+02  0.91047752266E+02 0.  0.
         13    1    3    3    0    0  0.18428925937E+01  0.34973759696E+02 -0.13034206565E+02  0.37369263108E+02  0.10566000000E+00 0. -1.
         22    1    1    0    0    0  0.16180821682E+02  0.20478878533E+02  0.13555427190E+02  0.29410084368E+02  0.00000000000E+00 0.  1.
</event>
<event>
 5    1  0.1264859E-009  0.9118800E+02  0.7815553E-02  0.1125453E+00
         25   -1    0    0    0    0  0.00000000000E+00  0.00000000000E+00  0.99999998245E-14  0.12509000000E+03  0.12509000000E+03 0.  0.
        -13    1    3    3    0    0 -0.39931620494E+02 -0.42795228064E+02 -0.89936286674E+01  0.59218767135E+02  0.10566000000E+00 0.  1.
         23    2    1    0    0    0 -0.25228468821E+02 -0.14826036942E+02  0.75264173547E+01  0.94875202819E+02  0.89935366466E+02 0.  0.
         13    1    3    3    0    0  0.14703151673E+02  0.27969191122E+02  0.16520046022E+02  0.35656435684E+02  0.10566000000E+00 0. -1.
         22    1    1    0    0    0  0.25228468821E+02  0.14826036942E+02 -0.75264173547E+01  0.30214797181E+02  0.00000000000E+00 0.  1.
</event>
<event>
 5    1  0.1264859E-009  0.9118800E+02  0.7815553E-02  0.1125453E+00
         25   -1    0    0    0    0  0.00000000000E+00  0.00000000000E+00  0.99999998245E-14  0.12509000000E+03  0.12509000000E+03 0.  0.
        -13    1    3    3    0    0 -0.44170067589E+02  0.14526429275E+02  0.84885781330E+01  0.47266046387E+02  0.10566000000E+00 0.  1.
         23    2    1    0    0    0  0.65657799260E+01  0.21167075524E+02  0.14225344590E+02  0.98755327399E+02  0.95179302943E+02 0.  0.
         13    1    3    3    0    0  0.50735847515E+02  0.66406462487E+01  0.57367664575E+01  0.51489281012E+02  0.10566000000E+00 0. -1.
         22    1    1    0    0    0 -0.65657799260E+01 -0.21167075524E+02 -0.14225344590E+02  0.26334672601E+02  0.00000000000E+00 0. -1.
</event>
<event>
 5    1  0.1264859E-009  0.9118800E+02  0.7815553E-02  0.1125453E+00
         25   -1    0    0    0    0  0.00000000000E+00  0.00000000000E+00  0.99999998245E-14  0.12509000000E+03  0.12509000000E+03 0.  0.
        -13    1    3    3    0    0 -0.43258369829E+02 -0.98135667046E+00  0.41620558559E+02  0.60037752124E+02  0.10566000000E+00 0. -1.
         23    2    1    0    0    0 -0.17847991521E+02 -0.12681420794E+02  0.20575751588E+02  0.95044521337E+02  0.90170561981E+02 0.  0.
         13    1    3    3    0    0  0.25410378308E+02 -0.11700064123E+02 -0.21044806971E+02  0.35006769213E+02  0.10566000000E+00 0.  1.
         22    1    1    0    0    0  0.17847991521E+02  0.12681420794E+02 -0.20575751588E+02  0.30045478663E+02  0.00000000000E+00 0. -1.
</event>
<event>
 5    1  0.1264859E-009  0.9118800E+02  0.7815553E-02  0.1125453E+00
         25   -1    0    0    0    0  0.00000000000E+00  0.00000000000E+00  0.99999998245E-14  0.12509000000E+03  0.12509000000E+03 0.  0.
        -13    1    3    3    0    0  0.19937957142E+00  0.24334850636E+02  0.25275128461E+02  0.35086578494E+02  0.10566000000E+00 0. -1.
         23    2    1    0    0    0  0.58236335371E+01 -0.40876251470E+01 -0.28253927080E+02  0.95953977925E+02  0.91423509544E+02 0.  0.
         13    1    3    3    0    0  0.56242539656E+01 -0.28422475783E+02 -0.53529055541E+02  0.60867399431E+02  0.10566000000E+00 0.  1.
         22    1    1    0    0    0 -0.58236335371E+01  0.40876251470E+01  0.28253927080E+02  0.29136022075E+02  0.00000000000E+00 0.  1.
</event>
<event>
 5    1  0.1264859E-009  0.9118800E+02  0.7815553E-02  0.1125453E+00
         25   -1    0    0    0    0  0.00000000000E+00  0.00000000000E+00  0.99999998245E-14  0.12509000000E+03  0.12509000000E+03 0.  0.
        -13    1    3    3    0    0  0.36846560911E+02 -0.33228679918E+02  0.29424030510E+02  0.57685344373E+02  0.10566000000E+00 0.  1.
         23    2    1    0    0    0  0.17906834838E+02 -0.22913456530E+02 -0.21588437395E+01  0.95929378772E+02  0.91389845613E+02 0.  0.
         13    1    3    3    0    0 -0.18939726072E+02  0.10315223387E+02 -0.31582874249E+02  0.38244034399E+02  0.10566000000E+00 0. -1.
         22    1    1    0    0    0 -0.17906834838E+02  0.22913456530E+02  0.21588437395E+01  0.29160621228E+02  0.00000000000E+00 0.  1.
</event>
<event>
 5    1  0.1264859E-009  0.9118800E+02  0.7815553E-02  0.1125453E+00
         25   -1    0    0    0    0  0.00000000000E+00  0.00000000000E+00  0.99999998245E-14  0.12509000000E+03  0.12509000000E+03 0.  0.
        -13    1    3    3    0    0  0.38794606637E+02  0.23939816303E+01  0.17381126472E+02  0.42577780280E+02  0.10566000000E+00 0.  1.
         23    2    1    0    0    0 -0.13027222795E+02 -0.59999834715E+01  0.25630592236E+02  0.95719341278E+02  0.91101902839E+02 0.  0.
         13    1    3    3    0    0 -0.51821829432E+02 -0.83939651019E+01  0.82494657643E+01  0.53141560997E+02  0.10566000000E+00 0. -1.
         22    1    1    0    0    0  0.13027222795E+02  0.59999834715E+01 -0.25630592236E+02  0.29370658722E+02  0.00000000000E+00 0. -1.
</event>
<event>
 5    1  0.1264859E-009  0.9118800E+02  0.7815553E-02  0.1125453E+00
         25   -1    0    0    0    0  0.00000000000E+00  0.00000000000E+00  0.99999998245E-14  0.12509000000E+03  0.12509000000E+03 0.  0.
        -13    1    3    3    0    0  0.64405852907E+01  0.16789197640E+02 -0.56294662008E+02  0.59097025567E+02  0.10566000000E+00 0. -1.
         23    2    1    0    0    0 -0.11761318080E+02  0.79797957106E+01 -0.22785114819E+02  0.98235443591E+02  0.94493572150E+02 0.  0.
         13    1    3    3    0    0 -0.18201903371E+02 -0.88094019291E+01  0.33509547188E+02  0.39138418025E+02  0.10566000000E+00 0.  1.
         22    1    1    0    0    0  0.11761318080E+02 -0.79797957106E+01  0.22785114819E+02  0.26854556409E+02  0.00000000000E+00 0. -1.
</event>
<event>
 5    1  0.1264859E-009  0.9118800E+02  0.7815553E-02  0.1125453E+00
         25   -1    0    0    0    0  0.00000000000E+00  0.00000000000E+00  0.99999998245E-14  0.12509000000E+03  0.12509000000E+03 0.  0.
        -13    1    3    3    0    0  0.13124071523E+02 -0.50913241867E+02 -0.28929650449E+02  0.60011126384E+02  0.10566000000E+00 0.  1.
         23    2    1    0    0    0  0.17259368571E+02 -0.19755912774E+02 -0.84323870466E+01  0.97534836341E+02  0.93561515890E+02 0.  0.
         13    1    3    3    0    0  0.41352970484E+01  0.31157329093E+02  0.20497263403E+02  0.37523709957E+02  0.10566000000E+00 0. -1.
         22    1    1    0    0    0 -0.17259368571E+02  0.19755912774E+02  0.84323870466E+01  0.27555163659E+02  0.00000000000E+00 0.  1.
</event>
<event>
 5    1  0.1264859E-009  0.9118800E+02  0.7815553E-02  0.1125453E+00
         25   -1    0    0    0    0  0.00000000000E+00  0.00000000000E+00  0.99999998245E-14  0.12509000000E+03  0.12509000000E+03 0.  0.
        -13    1    3    3    0    0 -0.25597376071E+02  0.28575082302E+02  0.36067389014E+01  0.38532852474E+02  0.10566000000E+00 0. -1.
         23    2    1    0    0    0 -0.59565373417E+01 -0.17005224043E+02 -0.23807503394E+02  0.95232752978E+02  0.90431311171E+02 0.  0.
         13    1    3    3    0    0  0.19640838730E+02 -0.45580306345E+02 -0.27414242295E+02  0.56699900504E+02  0.10566000000E+00 0.  1.
         22    1    1    0    0    0  0.59565373417E+01  0.17005224043E+02  0.23807503394E+02  0.29857247022E+02  0.00000000000E+00 0.  1.
</event>
<event>
 5    1  0.1264859E-009  0.9118800E+02  0.7815553E-02  0.1125453E+00
         25   -1    0    0    0    0  0.00000000000E+00  0.00000000000E+00  0.99999998245E-14  0.12509000000E+03  0.12509000000E+03 0.  0.
        -13    1    3    3    0    0  0.47327320846E+01 -0.59360256132E+01  0.29611251200E+02  0.30569143180E+02  0.10566000000E+00 0. -1.
         23    2    1    0    0    0 -0.12165275493E+02 -0.27358261674E+01 -0.29994707382E+02  0.92606755957E+02  0.86722834971E+02 0.  0.
         13    1    3    3    0    0 -0.16898007578E+02  0.32001994458E+01 -0.59605958582E+02  0.62037612777E+02  0.10566000000E+00 0.  1.
         22    1    1    0    0    0  0.12165275493E+02  0.27358261674E+01  0.29994707382E+02  0.32483244043E+02  0.00000000000E+00 0.  1.
</event>
<event>
 5    1  0.1264859E-009  0.9118800E+02  0.7815553E-02  0.1125453E+00
         25   -1    0    0    0    0  0.00000000000E+00  0.00000000000E+00  0.99999998245E-14  0.12509000000E+03  0.12509000000E+03 0.  0.
        -13    1    3    3    0    0 -0.49682394902E+02 -0.32830775250E+01  0.16294953253E+02  0.52389461028E+02  0.10566000000E+00 0. -1.
         23    2    1    0    0    0 -0.23555249645E+02 -0.40240368219E+01 -0.17758361001E+02  0.95317495174E+02  0.90548455772E+02 0.  0.
         13    1    3    3    0    0  0.26127145257E+02 -0.74095929692E+00 -0.34053314254E+02  0.42928034146E+02  0.10566000000E+00 0.  1.
         22    1    1    0    0    0  0.23555249645E+02  0.40240368219E+01  0.17758361001E+02  0.29772504826E+02  0.00000000000E+00 0. -1.
</event>
<event>
 5    1  0.1264859E-009  0.9118800E+02  0.7815553E-02  0.1125453E+00
         25   -1    0    0    0    0  0.00000000000E+00  0.00000000000E+00  0.99999998245E-14  0.12509000000E+03  0.12509000000E+03 0.  0.
        -13    1    3    3    0    0 -0.27169142247E+02 -0.12385824575E+02 -0.15084168487E+02  0.33453164930E+02  0.10566000000E+00 0. -1.
         23    2    1    0    0    0  0.13840213992E+02  0.22278173015E+02  0.14870689381E+02  0.94940274978E+02  0.90025829038E+02 0.  0.
         13    1    3    3    0    0  0.41009356239E+02  0.34663997590E+02  0.29954857869E+02  0.61487110048E+02  0.10566000000E+00 0.  1.
         22    1    1    0    0    0 -0.13840213992E+02 -0.22278173015E+02 -0.14870689381E+02  0.30149725022E+02  0.00000000000E+00 0.  1.
</event>
<event>
 5    1  0.1264859E-009  0.9118800E+02  0.7815553E-02  0.1125453E+00
         25   -1    0    0    0    0  0.00000000000E+00  0.00000000000E+00  0.99999998245E-14  0.12509000000E+03  0.12509000000E+03 0.  0.
        -13    1    3    3    0    0 -0.51285437385E+02 -0.19494673820E+01  0.50692460758E+01  0.51572327179E+02  0.10566000000E+00 0. -1.
         23    2    1    0    0    0 -0.43977155058E+01 -0.14514535353E+02  0.17749627189E+02  0.10174346057E+03  0.99028636588E+02 0.  0.
         13    1    3    3    0    0  0.46887721879E+02 -0.12565067971E+02  0.12680381113E+02  0.50171133387E+02  0.10566000000E+00 0.  1.
         22    1    1    0    0    0  0.43977155058E+01  0.14514535353E+02 -0.17749627189E+02  0.23346539434E+02  0.00000000000E+00 0.  1.
</event>
<event>
 5    1  0.1264859E-009  0.9118800E+02  0.7815553E-02  0.1125453E+00
         25   -1    0    0    0    0  0.00000000000E+00  0.00000000000E+00  0.99999998245E-14  0.12509000000E+03  0.12509000000E+03 0.  0.
        -13    1    3    3    0    0 -0.24124160084E+02  0.10568793330E+02 -0.36080840884E+02  0.44671162232E+02  0.10566000000E+00 0. -1.
         23    2    1    0    0    0  0.15259090750E+02  0.23219885613E+02 -0.40005445319E+01  0.97018532369E+02  0.92868661712E+02 0.  0.
         13    1    3    3    0    0  0.39383250834E+02  0.12651092283E+02  0.32080296352E+02  0.52347370137E+02  0.10566000000E+00 0.  1.
         22    1    1    0    0    0 -0.15259090750E+02 -0.23219885613E+02  0.40005445319E+01  0.28071467631E+02  0.00000000000E+00 0.  1.
</event>
<event>
 5    1  0.1264859E-009  0.9118800E+02  0.7815553E-02  0.1125453E+00
         25   -1    0    0    0    0  0.00000000000E+00  0.00000000000E+00  0.99999998245E-14  0.12509000000E+03  0.12509000000E+03 0.  0.
        -13    1    3    3    0    0  0.12931077166E+02  0.60719987915E+01 -0.60885004351E+02  0.62538602837E+02  0.10566000000E+00 0. -1.
         23    2    1    0    0    0  0.58711112157E+01  0.34521393224E+01 -0.28814518177E+02  0.95481493273E+02  0.90774731545E+02 0.  0.
         13    1    3    3    0    0 -0.70599659499E+01 -0.26198594691E+01  0.32070486173E+02  0.32942890436E+02  0.10566000000E+00 0.  1.
         22    1    1    0    0    0 -0.58711112157E+01 -0.34521393224E+01  0.28814518177E+02  0.29608506727E+02  0.00000000000E+00 0. -1.
</event>
<event>
 5    1  0.1264859E-009  0.9118800E+02  0.7815553E-02  0.1125453E+00
         25   -1    0    0    0    0  0.00000000000E+00  0.00000000000E+00  0.99999998245E-14  0.12509000000E+03  0.12509000000E+03 0.  0.
        -13    1    3    3    0    0 -0.28559299566E+01  0.79620949863E+01  0.39081460055E+02  0.39986534941E+02  0.10566000000E+00 0.  1.
         23    2    1    0    0    0 -0.10704578723E+02 -0.26055460556E+02 -0.52727134523E+01  0.96432077228E+02  0.92075344045E+02 0.  0.
         13    1    3    3    0    0 -0.78486487666E+01 -0.34017555542E+02 -0.44354173508E+02  0.56445542287E+02  0.10566000000E+00 0. -1.
         22    1    1    0    0    0  0.10704578723E+02  0.26055460556E+02  0.52727134523E+01  0.28657922772E+02  0.00000000000E+00 0. -1.
</event>
<event>
 5    1  0.1264859E-009  0.9118800E+02  0.7815553E-02  0.1125453E+00
         25   -1    0    0    0    0  0.00000000000E+00  0.00000000000E+00  0.99999998245E-14  0.12509000000E+03  0.12509000000E+03 0.  0.
        -13    1    3    3    0    0 -0.12584282379E+01  0.23183405949E+02 -0.28639220045E+02  0.36868279616E+02  0.10566000000E+00 0.  1.
         23    2    1    0    0    0  0.11101764638E+02  0.10146151406E+02  0.26367682978E+02  0.94734633554E+02  0.89739637411E+02 0.  0.
         13    1    3    3    0    0  0.12360192876E+02 -0.13037254542E+02  0.55006903023E+02  0.57866353938E+02  0.10566000000E+00 0. -1.
         22    1    1    0    0    0 -0.11101764638E+02 -0.10146151406E+02 -0.26367682978E+02  0.30355366446E+02  0.00000000000E+00 0. -1.
</event>
<event>
 5    1  0.1264859E-009  0.9118800E+02  0.7815553E-02  0.1125453E+00
         25   -1    0    0    0    0  0.00000000000E+00  0.00000000000E+00  0.99999998245E-14  0.12509000000E+03  0.12509000000E+03 0.  0.
        -13    1    3    3    0    0  0.43073752071E+02  0.16312676346E+02  0.30497999800E+02  0.55241204575E+02  0.10566000000E+00 0. -1.
         23    2    1    0    0    0  0.16327550354E+02  0.28297324470E+02  0.10302955829E+02  0.90833929421E+02  0.84126834973E+02 0.  0.
         13    1    3    3    0    0 -0.26746201718E+02  0.11984648124E+02 -0.20195043971E+02  0.35592724846E+02  0.10566000000E+00 0.  1.
         22    1    1    0    0    0 -0.16327550354E+02 -0.28297324470E+02 -0.10302955829E+02  0.34256070579E+02  0.00000000000E+00 0.  1.
</event>
<event>
 5    1  0.1264859E-009  0.9118800E+02  0.7815553E-02  0.1125453E+00
         25   -1    0    0    0    0  0.00000000000E+00  0.00000000000E+00  0.99999998245E-14  0.12509000000E+03  0.12509000000E+03 0.  0.
        -13    1    3    3    0    0 -0.54128896162E+02  0.16813761238E+02 -0.26365256684E+02  0.62512221930E+02  0.10566000000E+00 0. -1.
         23    2    1    0    0    0 -0.27853066371E+02  0.79128220852E+01 -0.12092046344E+02  0.93711286763E+02  0.88301651300E+02 0.  0.
         13    1    3    3    0    0  0.26275829790E+02 -0.89009391525E+01  0.14273210340E+02  0.31199064832E+02  0.10566000000E+00 0.  1.
         22    1    1    0    0    0  0.27853066371E+02 -0.79128220852E+01  0.12092046344E+02  0.31378713237E+02  0.00000000000E+00 0. -1.
</event>
<event>
 5    1  0.1264859E-009  0.9118800E+02  0.7815553E-02  0.1125453E+00
         25   -1    0    0    0    0  0.00000000000E+00  0.00000000000E+00  0.99999998245E-14  0.12509000000E+03  0.12509000000E+03 0.  0.
        -13    1    3    3    0    0 -0.70892377656E+01 -0.27964536349E+02 -0.22444238191E+02  0.36551711004E+02  0.10566000000E+00 0.  1.
         23    2    1    0    0    0  0.23899349134E+02  0.14162953231E+02  0.68257634834E+01  0.96483022173E+02  0.92144529882E+02 0.  0.
         13    1    3    3    0    0  0.30988586900E+02  0.42127489580E+02  0.29270001675E+02  0.59931311169E+02  0.10566000000E+00 0. -1.
         22    1    1    0    0    0 -0.23899349134E+02 -0.14162953231E+02 -0.68257634834E+01  0.28606977827E+02  0.00000000000E+00 0. -1.
</event>
<event>
 5    1  0.1264859E-009  0.9118800E+02  0.7815553E-02  0.1125453E+00
         25   -1    0    0    0    0  0.00000000000E+00  0.00000000000E+00  0.99999998245E-14  0.12509000000E+03  0.12509000000E+03 0.  0.
        -13    1    3    3    0    0 -0.24880606335E+02  0.47692242548E+02  0.14991694243E+02  0.55842247727E+02  0.10566000000E+00 0.  1.
         23    2    1    0    0    0  0.93344194382E+01  0.24636471001E+02  0.60774579548E+01  0.98052570669E+02  0.94251175218E+02 0.  0.
         13    1    3    3    0    0  0.34215025773E+02 -0.23055771547E+02 -0.89142362877E+01  0.42210322942E+02  0.10566000000E+00 0. -1.
         22    1    1    0    0    0 -0.93344194382E+01 -0.24636471001E+02 -0.60774579548E+01  0.27037429331E+02  0.00000000000E+00 0. -1.
</event>
<event>
 5    1  0.1264859E-009  0.9118800E+02  0.7815553E-02  0.1125453E+00
         25   -1    0    0    0    0  0.00000000000E+00  0.00000000000E+00  0.99999998245E-14  0.12509000000E+03  0.12509000000E+03 0.  0.
        -13    1    3    3    0    0 -0.31006255407E+02  0.26981369396E+02 -0.32985013612E+02  0.52701085908E+02  0.10566000000E+00 0.  1.
         23    2    1    0    0    0 -0.19960495622E+02 -0.10944603262E+02 -0.21349316057E+02  0.93881042598E+02  0.88541804460E+02 0.  0.
         13    1    3    3    0    0  0.11045759785E+02 -0.37925972659E+02  0.11635697554E+02  0.41179956690E+02  0.10566000000E+00 0. -1.
         22    1    1    0    0    0  0.19960495622E+02  0.10944603262E+02  0.21349316057E+02  0.31208957402E+02  0.00000000000E+00 0. -1.
</event>
<event>
 5    1  0.1264859E-009  0.9118800E+02  0.7815553E-02  0.1125453E+00
         25   -1    0    0    0    0  0.00000000000E+00  0.00000000000E+00  0.99999998245E-14  0.12509000000E+03  0.12509000000E+03 0.  0.
        -13    1    3    3    0    0 -0.20328004634E+02 -0.46048985333E+02  0.47637965386E+01  0.50561267232E+02  0.10566000000E+00 0. -1.
         23    2    1    0    0    0 -0.30359183175E+02 -0.60770332117E+01  0.10980538986E+02  0.92239085673E+02  0.86190871637E+02 0.  0.
         13    1    3    3    0    0 -0.10031178541E+02  0.39971952121E+02  0.62167424477E+01  0.41677818441E+02  0.10566000000E+00 0.  1.
         22    1    1    0    0    0  0.30359183175E+02  0.60770332117E+01 -0.10980538986E+02  0.32850914327E+02  0.00000000000E+00 0. -1.
</event>
<event>
 5    1  0.1264859E-009  0.9118800E+02  0.7815553E-02  0.1125453E+00
         25   -1    0    0    0    0  0.00000000000E+00  0.00000000000E+00  0.99999998245E-14  0.12509000000E+03  0.12509000000E+03 0.  0.
        -13    1    3    3    0    0  0.20183598259E+02 -0.14305063576E+02  0.22390357711E+02  0.33366926215E+02  0.10566000000E+00 0. -1.
         23    2    1    0    0    0 -0.15332057534E+02 -0.27983399156E+00 -0.25936840937E+02  0.94959118614E+02  0.90052008278E+02 0.  0.
         13    1    3    3    0    0 -0.35515655794E+02  0.14025229584E+02 -0.48327198648E+02  0.61592192399E+02  0.10566000000E+00 0.  1.
         22    1    1    0    0    0  0.15332057534E+02  0.27983399156E+00  0.25936840937E+02  0.30130881386E+02  0.00000000000E+00 0.  1.
</event>
<event>
 5    1  0.1264859E-009  0.9118800E+02  0.7815553E-02  0.1125453E+00
         25   -1    0    0    0    0  0.00000000000E+00  0.00000000000E+00  0.99999998245E-14  0.12509000000E+03  0.12509000000E+03 0.  0.
        -13    1    3    3    0    0  0.30351081875E+01 -0.72809928734E+01  0.35474507248E+02  0.36341114010E+02  0.10566000000E+00 0. -1.
         23    2    1    0    0    0 -0.22252287894E+02 -0.22442375713E+01 -0.18439458706E+02  0.96103545298E+02  0.91627926217E+02 0.  0.
         13    1    3    3    0    0 -0.25287396082E+02  0.50367553021E+01 -0.53913965954E+02  0.59762431288E+02  0.10566000000E+00 0.  1.
         22    1    1    0    0    0  0.22252287894E+02  0.22442375713E+01  0.18439458706E+02  0.28986454702E+02  0.00000000000E+00 0.  1.
</event>
<event>
 5    1  0.1264859E-009  0.9118800E+02  0.7815553E-02  0.1125453E+00
         25   -1    0    0    0    0  0.00000000000E+00  0.00000000000E+00  0.99999998245E-14  0.12509000000E+03  0.12509000000E+03 0.  0.
        -13    1    3    3    0    0  0.14289891134E+02  0.53485056079E+02  0.18331745062E+02  0.58317375228E+02  0.10566000000E+00 0. -1.
         23    2    1    0    0    0  0.13339219889E+02  0.24350676135E+02 -0.64590577190E+01  0.96583691187E+02  0.92281091028E+02 0.  0.
         13    1    3    3    0    0 -0.95067124533E+00 -0.29134379944E+02 -0.24790802781E+02  0.38266315959E+02  0.10566000000E+00 0.  1.
         22    1    1    0    0    0 -0.13339219889E+02 -0.24350676135E+02  0.64590577190E+01  0.28506308813E+02  0.00000000000E+00 0. -1.
</event>
<event>
 5    1  0.1264859E-009  0.9118800E+02  0.7815553E-02  0.1125453E+00
         25   -1    0    0    0    0  0.00000000000E+00  0.00000000000E+00  0.99999998245E-14  0.12509000000E+03  0.12509000000E+03 0.  0.
        -13    1    3    3    0    0  0.31288994190E+02 -0.53757288359E+01  0.45524663611E+02  0.55501403395E+02  0.10566000000E+00 0.  1.
         23    2    1    0    0    0  0.22490363257E+02 -0.17618890939E+02  0.88080405572E+01  0.95193121638E+02  0.90376474103E+02 0.  0.
         13    1    3    3    0    0 -0.87986309328E+01 -0.12243162103E+02 -0.36716623054E+02  0.39691718243E+02  0.10566000000E+00 0. -1.
         22    1    1    0    0    0 -0.22490363257E+02  0.17618890939E+02 -0.88080405572E+01  0.29896878362E+02  0.00000000000E+00 0.  1.
</event>
<event>
 5    1  0.1264859E-009  0.9118800E+02  0.7815553E-02  0.1125453E+00
         25   -1    0    0    0    0  0.00000000000E+00  0.00000000000E+00  0.99999998245E-14  0.12509000000E+03  0.12509000000E+03 0.  0.
        -13    1    3    3    0    0 -0.50529605540E+02 -0.28224570429E+02  0.44715169892E+01  0.58050607578E+02  0.10566000000E+00 0. -1.
         23    2    1    0    0    0 -0.26403044313E+02 -0.32866848924E+00  0.12623173912E+02  0.95822726612E+02  0.91243748519E+02 0.  0.
         13    1    3    3    0    0  0.24126561228E+02  0.27895901940E+02  0.81516569231E+01  0.37772119034E+02  0.10566000000E+00 0.  1.
         22    1    1    0    0    0  0.26403044313E+02  0.32866848924E+00 -0.12623173912E+02  0.29267273388E+02  0.00000000000E+00 0. -1.
</event>
<event>
 5    1  0.1264859E-009  0.9118800E+02  0.7815553E-02  0.1125453E+00
         25   -1    0    0    0    0  0.00000000000E+00  0.00000000000E+00  0.99999998245E-14  0.12509000000E+03  0.12509000000E+03 0.  0.
        -13    1    3    3    0    0  0.57403843389E+02 -0.10312970521E+02 -0.19964428261E+02  0.61645341727E+02  0.10566000000E+00 0.  1.
         23    2    1    0    0    0  0.28034592318E+02  0.15126031443E+01 -0.53800986333E+01  0.96503783111E+02  0.92172709403E+02 0.  0.
         13    1    3    3    0    0 -0.29369251071E+02  0.11825573665E+02  0.14584329628E+02  0.34858441384E+02  0.10566000000E+00 0. -1.
         22    1    1    0    0    0 -0.28034592318E+02 -0.15126031443E+01  0.53800986333E+01  0.28586216889E+02  0.00000000000E+00 0.  1.
</event>
<event>
 5    1  0.1264859E-009  0.9118800E+02  0.7815553E-02  0.1125453E+00
         25   -1    0    0    0    0  0.00000000000E+00  0.00000000000E+00  0.99999998245E-14  0.12509000000E+03  0.12509000000E+03 0.  0.
        -13    1    3    3    0    0  0.34146512453E+01 -0.12690265695E+02 -0.47814492399E+02  0.49587695389E+02  0.10566000000E+00 0. -1.
         23    2    1    0    0    0 -0.33786087767E+01 -0.27540550889E+02 -0.31249692263E+01  0.97167565056E+02  0.93069185694E+02 0.  0.
         13    1    3    3    0    0 -0.67932600221E+01 -0.14850285195E+02  0.44689523173E+02  0.47579869667E+02  0.10566000000E+00 0.  1.
         22    1    1    0    0    0  0.33786087767E+01  0.27540550889E+02  0.31249692263E+01  0.27922434944E+02  0.00000000000E+00 0.  1.
</event>
<event>
 5    1  0.1264859E-009  0.9118800E+02  0.7815553E-02  0.1125453E+00
         25   -1    0    0    0    0  0.00000000000E+00  0.00000000000E+00  0.99999998245E-14  0.12509000000E+03  0.12509000000E+03 0.  0.
        -13    1    3    3    0    0 -0.33914555190E+02  0.22733570739E+01 -0.94633073412E+01  0.35283573458E+02  0.10566000000E+00 0.  1.
         23    2    1    0    0    0  0.26467785546E+02  0.36815476516E+01  0.61521107882E+01  0.97668367445E+02  0.93739874480E+02 0.  0.
         13    1    3    3    0    0  0.60382340736E+02  0.14081905776E+01  0.15615418129E+02  0.62384793987E+02  0.10566000000E+00 0. -1.
         22    1    1    0    0    0 -0.26467785546E+02 -0.36815476516E+01 -0.61521107882E+01  0.27421632555E+02  0.00000000000E+00 0. -1.
</event>
<event>
 5    1  0.1264859E-009  0.9118800E+02  0.7815553E-02  0.1125453E+00
         25   -1    0    0    0    0  0.00000000000E+00  0.00000000000E+00  0.99999998245E-14  0.12509000000E+03  0.12509000000E+03 0.  0.
        -13    1    3    3    0    0  0.19288163430E+02  0.48317217755E+02  0.19267103398E+02  0.55478096736E+02  0.10566000000E+00 0. -1.
         23    2    1    0    0    0  0.10533740171E+02  0.20675641711E+02 -0.12701284204E+02  0.98636938502E+02  0.95023582202E+02 0.  0.
         13    1    3    3    0    0 -0.87544232585E+01 -0.27641576044E+02 -0.31968387601E+02  0.43158841766E+02  0.10566000000E+00 0.  1.
         22    1    1    0    0    0 -0.10533740171E+02 -0.20675641711E+02  0.12701284204E+02  0.26453061498E+02  0.00000000000E+00 0. -1.
</event>
<event>
 5    1  0.1264859E-009  0.9118800E+02  0.7815553E-02  0.1125453E+00
         25   -1    0    0    0    0  0.00000000000E+00  0.00000000000E+00  0.99999998245E-14  0.12509000000E+03  0.12509000000E+03 0.  0.
        -13    1    3    3    0    0 -0.23077217104E+02 -0.41987729858E+02 -0.31228539350E+02  0.57190560776E+02  0.10566000000E+00 0.  1.
         23    2    1    0    0    0 -0.22222002428E+02 -0.19240445273E+02 -0.17307781903E+00  0.95695407263E+02  0.91069033646E+02 0.  0.
         13    1    3    3    0    0  0.85521467610E+00  0.22747284585E+02  0.31055461531E+02  0.38504846488E+02  0.10566000000E+00 0. -1.
         22    1    1    0    0    0  0.22222002428E+02  0.19240445273E+02  0.17307781903E+00  0.29394592737E+02  0.00000000000E+00 0.  1.
</event>
<event>
 5    1  0.1264859E-009  0.9118800E+02  0.7815553E-02  0.1125453E+00
         25   -1    0    0    0    0  0.00000000000E+00  0.00000000000E+00  0.99999998245E-14  0.12509000000E+03  0.12509000000E+03 0.  0.
        -13    1    3    3    0    0 -0.28806659210E+02 -0.17725754580E+02  0.74990182078E+01  0.34644948093E+02  0.10566000000E+00 0. -1.
         23    2    1    0    0    0  0.29119877832E+02 -0.36847078936E+01  0.93707040248E+01  0.94278403950E+02  0.89101419743E+02 0.  0.
         13    1    3    3    0    0  0.57926537041E+02  0.14041046687E+02  0.18716858170E+01  0.59633455857E+02  0.10566000000E+00 0.  1.
         22    1    1    0    0    0 -0.29119877832E+02  0.36847078936E+01 -0.93707040248E+01  0.30811596050E+02  0.00000000000E+00 0.  1.
</event>
<event>
 5    1  0.1264859E-009  0.9118800E+02  0.7815553E-02  0.1125453E+00
         25   -1    0    0    0    0  0.00000000000E+00  0.00000000000E+00  0.99999998245E-14  0.12509000000E+03  0.12509000000E+03 0.  0.
        -13    1    3    3    0    0  0.81863704542E+01  0.32206152780E+02 -0.99769578422E+01  0.34695875690E+02  0.10566000000E+00 0.  1.
         23    2    1    0    0    0  0.35470587598E+01 -0.26474497975E+02 -0.16139773023E+02  0.93881460430E+02  0.88542394763E+02 0.  0.
         13    1    3    3    0    0 -0.46393116944E+01 -0.58680650755E+02 -0.61628151806E+01  0.59185584740E+02  0.10566000000E+00 0. -1.
         22    1    1    0    0    0 -0.35470587598E+01  0.26474497975E+02  0.16139773023E+02  0.31208539570E+02  0.00000000000E+00 0. -1.
</event>
<event>
 5    1  0.1264859E-009  0.9118800E+02  0.7815553E-02  0.1125453E+00
         25   -1    0    0    0    0  0.00000000000E+00  0.00000000000E+00  0.99999998245E-14  0.12509000000E+03  0.12509000000E+03 0.  0.
        -13    1    3    3    0    0  0.56957137414E+02  0.91561043097E+01  0.17289265464E+02  0.60223580206E+02  0.10566000000E+00 0.  1.
         23    2    1    0    0    0  0.21499462907E+02  0.11241540910E+02  0.16496879904E+02  0.95751523661E+02  0.91146081043E+02 0.  0.
         13    1    3    3    0    0 -0.35457674506E+02  0.20854366002E+01 -0.79238555977E+00  0.35527943455E+02  0.10566000000E+00 0. -1.
         22    1    1    0    0    0 -0.21499462907E+02 -0.11241540910E+02 -0.16496879904E+02  0.29338476339E+02  0.00000000000E+00 0.  1.
</event>
<event>
 5    1  0.1264859E-009  0.9118800E+02  0.7815553E-02  0.1125453E+00
         25   -1    0    0    0    0  0.00000000000E+00  0.00000000000E+00  0.99999998245E-14  0.12509000000E+03  0.12509000000E+03 0.  0.
        -13    1    3    3    0    0 -0.16844617161E+02  0.28839181289E+02 -0.68098912008E+01  0.34085558334E+02  0.10566000000E+00 0.  1.
         23    2    1    0    0    0  0.20068039272E+02 -0.18380963628E+02  0.96091699997E+01  0.96229608939E+02  0.91799866364E+02 0.  0.
         13    1    3    3    0    0  0.36912656432E+02 -0.47220144917E+02  0.16419061200E+02  0.62144050605E+02  0.10566000000E+00 0. -1.
         22    1    1    0    0    0 -0.20068039272E+02  0.18380963628E+02 -0.96091699997E+01  0.28860391061E+02  0.00000000000E+00 0. -1.
</event>
<event>
 5    1  0.1264859E-009  0.9118800E+02  0.7815553E-02  0.1125453E+00
         25   -1    0    0    0    0  0.00000000000E+00  0.00000000000E+00  0.99999998245E-14  0.12509000000E+03  0.12509000000E+03 0.  0.
        -13    1    3    3    0    0  0.41072424133E+02  0.91719815384E+01 -0.25335386942E+02  0.49121912270E+02  0.10566000000E+00 0.  1.
         23    2    1    0    0    0  0.23658318022E+02  0.29452017331E+01  0.17325185948E+02  0.95618788742E+02  0.90963731605E+02 0.  0.
         13    1    3    3    0    0 -0.17414106111E+02 -0.62267798053E+01  0.42660572890E+02  0.46496876473E+02  0.10566000000E+00 0. -1.
         22    1    1    0    0    0 -0.23658318022E+02 -0.29452017331E+01 -0.17325185948E+02  0.29471211258E+02  0.00000000000E+00 0.  1.
</event>
<event>
 5    1  0.1264859E-009  0.9118800E+02  0.7815553E-02  0.1125453E+00
         25   -1    0    0    0    0  0.00000000000E+00  0.00000000000E+00  0.99999998245E-14  0.12509000000E+03  0.12509000000E+03 0.  0.
        -13    1    3    3    0    0 -0.64349941223E+01 -0.35665315706E+02  0.27693586698E+02  0.45611071047E+02  0.10566000000E+00 0.  1.
         23    2    1    0    0    0 -0.28017457476E+02  0.47836406955E+01  0.75952577253E+01  0.95669784474E+02  0.91033832060E+02 0.  0.
         13    1    3    3    0    0 -0.21582463353E+02  0.40448956402E+02 -0.20098328973E+02  0.50058713427E+02  0.10566000000E+00 0. -1.
         22    1    1    0    0    0  0.28017457476E+02 -0.47836406955E+01 -0.75952577253E+01  0.29420215526E+02  0.00000000000E+00 0. -1.
</event>
<event>
 5    1  0.1264859E-009  0.9118800E+02  0.7815553E-02  0.1125453E+00
         25   -1    0    0    0    0  0.00000000000E+00  0.00000000000E+00  0.99999998245E-14  0.12509000000E+03  0.12509000000E+03 0.  0.
        -13    1    3    3    0    0 -0.73091064150E+00 -0.16764072221E+02 -0.33482040512E+02  0.37451656154E+02  0.10566000000E+00 0.  1.
         23    2    1    0    0    0  0.16467723192E+01 -0.13210472517E+02  0.25359562705E+02  0.96448494038E+02  0.92097644586E+02 0.  0.
         13    1    3    3    0    0  0.23776829607E+01  0.35535997046E+01  0.58841603217E+02  0.58996837884E+02  0.10566000000E+00 0. -1.
         22    1    1    0    0    0 -0.16467723192E+01  0.13210472517E+02 -0.25359562705E+02  0.28641505962E+02  0.00000000000E+00 0. -1.
</event>
<event>
 5    1  0.1264859E-009  0.9118800E+02  0.7815553E-02  0.1125453E+00
         25   -1    0    0    0    0  0.00000000000E+00  0.00000000000E+00  0.99999998245E-14  0.12509000000E+03  0.12509000000E+03 0.  0.
        -13    1    3    3    0    0  0.26264790273E+02 -0.96368609783E+01  0.37284783658E+02  0.46614102524E+02  0.10566000000E+00 0. -1.
         23    2    1    0    0    0  0.24393992551E+00 -0.28559918911E+02 -0.86008002606E+00  0.96516092102E+02  0.92189412744E+02 0.  0.
         13    1    3    3    0    0 -0.26020850348E+02 -0.18923057933E+02 -0.38144863684E+02  0.49901989578E+02  0.10566000000E+00 0.  1.
         22    1    1    0    0    0 -0.24393992551E+00  0.28559918911E+02  0.86008002606E+00  0.28573907898E+02  0.00000000000E+00 0.  1.
</event>
<event>
 5    1  0.1264859E-009  0.9118800E+02  0.7815553E-02  0.1125453E+00
         25   -1    0    0    0    0  0.00000000000E+00  0.00000000000E+00  0.99999998245E-14  0.12509000000E+03  0.12509000000E+03 0.  0.
        -13    1    3    3    0    0  0.42361747172E+02  0.23562573992E+02 -0.18598789238E+02  0.51919540077E+02  0.10566000000E+00 0. -1.
         23    2    1    0    0    0  0.54474020299E+01  0.13829532399E+01 -0.28444208181E+02  0.96095867359E+02  0.91617443732E+02 0.  0.
         13    1    3    3    0    0 -0.36914345142E+02 -0.22179620752E+02 -0.98454189426E+01  0.44176327283E+02  0.10566000000E+00 0.  1.
         22    1    1    0    0    0 -0.54474020299E+01 -0.13829532399E+01  0.28444208181E+02  0.28994132641E+02  0.00000000000E+00 0. -1.
</event>
<event>
 5    1  0.1264859E-009  0.9118800E+02  0.7815553E-02  0.1125453E+00
         25   -1    0    0    0    0  0.00000000000E+00  0.00000000000E+00  0.99999998245E-14  0.12509000000E+03  0.12509000000E+03 0.  0.
        -13    1    3    3    0    0 -0.55127334512E+02 -0.22723766207E+02  0.40195099098E+01  0.59762531615E+02  0.10566000000E+00 0.  1.
         23    2    1    0    0    0 -0.25624591998E+02 -0.50345465631E+01 -0.10292220079E+02  0.97020511790E+02  0.92871327867E+02 0.  0.
         13    1    3    3    0    0  0.29502742514E+02  0.17689219644E+02 -0.14311729989E+02  0.37257980176E+02  0.10566000000E+00 0. -1.
         22    1    1    0    0    0  0.25624591998E+02  0.50345465631E+01  0.10292220079E+02  0.28069488210E+02  0.00000000000E+00 0.  1.
</event>
<event>
 5    1  0.1264859E-009  0.9118800E+02  0.7815553E-02  0.1125453E+00
         25   -1    0    0    0    0  0.00000000000E+00  0.00000000000E+00  0.99999998245E-14  0.12509000000E+03  0.12509000000E+03 0.  0.
        -13    1    3    3    0    0 -0.62894348846E+01  0.38785257639E+02 -0.44134791702E+02  0.59090982425E+02  0.10566000000E+00 0.  1.
         23    2    1    0    0    0  0.11453325665E+02  0.19914300424E+02 -0.23696431350E+02  0.92085774682E+02  0.85968081343E+02 0.  0.
         13    1    3    3    0    0  0.17742760549E+02 -0.18870957215E+02  0.20438360353E+02  0.32994792257E+02  0.10566000000E+00 0. -1.
         22    1    1    0    0    0 -0.11453325665E+02 -0.19914300424E+02  0.23696431350E+02  0.33004225318E+02  0.00000000000E+00 0.  1.
</event>
<event>
 5    1  0.1264859E-009  0.9118800E+02  0.7815553E-02  0.1125453E+00
         25   -1    0    0    0    0  0.00000000000E+00  0.00000000000E+00  0.99999998245E-14  0.12509000000E+03  0.12509000000E+03 0.  0.
        -13    1    3    3    0    0  0.27742282427E+02 -0.23772978373E+02 -0.23629094681E+01  0.36611244724E+02  0.10566000000E+00 0.  1.
         23    2    1    0    0    0 -0.26760377263E+02 -0.85596525493E+01  0.11272342370E+02  0.94817055883E+02  0.89854454206E+02 0.  0.
         13    1    3    3    0    0 -0.54502659690E+02  0.15213325824E+02  0.13635251838E+02  0.58205811159E+02  0.10566000000E+00 0. -1.
         22    1    1    0    0    0  0.26760377263E+02  0.85596525493E+01 -0.11272342370E+02  0.30272944117E+02  0.00000000000E+00 0. -1.
</event>
<event>
 5    1  0.1264859E-009  0.9118800E+02  0.7815553E-02  0.1125453E+00
         25   -1    0    0    0    0  0.00000000000E+00  0.00000000000E+00  0.99999998245E-14  0.12509000000E+03  0.12509000000E+03 0.  0.
        -13    1    3    3    0    0  0.15981586095E+01  0.42299299817E+02  0.20876268474E+02  0.47197612496E+02  0.10566000000E+00 0. -1.
         23    2    1    0    0    0  0.24457211456E+02 -0.19905509384E+00  0.16360236839E+02  0.95664633994E+02  0.91026754488E+02 0.  0.
         13    1    3    3    0    0  0.22859052846E+02 -0.42498354910E+02 -0.45160316348E+01  0.48467021498E+02  0.10566000000E+00 0.  1.
         22    1    1    0    0    0 -0.24457211456E+02  0.19905509384E+00 -0.16360236839E+02  0.29425366006E+02  0.00000000000E+00 0.  1.
</event>
<event>
 5    1  0.1264859E-009  0.9118800E+02  0.7815553E-02  0.1125453E+00
         25   -1    0    0    0    0  0.00000000000E+00  0.00000000000E+00  0.99999998245E-14  0.12509000000E+03  0.12509000000E+03 0.  0.
        -13    1    3    3    0    0 -0.25045135518E+02 -0.48722753177E+01  0.37443634847E+02  0.45310427437E+02  0.10566000000E+00 0.  1.
         23    2    1    0    0    0 -0.48776762751E+01  0.28519201048E+02  0.57065481307E+01  0.95599302385E+02  0.90936930730E+02 0.  0.
         13    1    3    3    0    0  0.20167459243E+02  0.33391476366E+02 -0.31737086717E+02  0.50288874948E+02  0.10566000000E+00 0. -1.
         22    1    1    0    0    0  0.48776762751E+01 -0.28519201048E+02 -0.57065481307E+01  0.29490697615E+02  0.00000000000E+00 0. -1.
</event>
<event>
 5    1  0.1264859E-009  0.9118800E+02  0.7815553E-02  0.1125453E+00
         25   -1    0    0    0    0  0.00000000000E+00  0.00000000000E+00  0.99999998245E-14  0.12509000000E+03  0.12509000000E+03 0.  0.
        -13    1    3    3    0    0 -0.55092622052E+02  0.10159940621E+02 -0.22741575745E+02  0.60461655861E+02  0.10566000000E+00 0.  1.
         23    2    1    0    0    0 -0.24629341612E+02  0.14768958930E+02 -0.52332775731E+01  0.95899011488E+02  0.91348270888E+02 0.  0.
         13    1    3    3    0    0  0.30463280440E+02  0.46090183084E+01  0.17508298172E+02  0.35437355627E+02  0.10566000000E+00 0. -1.
         22    1    1    0    0    0  0.24629341612E+02 -0.14768958930E+02  0.52332775731E+01  0.29190988512E+02  0.00000000000E+00 0.  1.
</event>
<event>
 5    1  0.1264859E-009  0.9118800E+02  0.7815553E-02  0.1125453E+00
         25   -1    0    0    0    0  0.00000000000E+00  0.00000000000E+00  0.99999998245E-14  0.12509000000E+03  0.12509000000E+03 0.  0.
        -13    1    3    3    0    0 -0.24953832450E+02  0.39985840855E+01 -0.23500640662E+02  0.34510486873E+02  0.10566000000E+00 0.  1.
         23    2    1    0    0    0  0.19572655541E+02 -0.16538340659E+02  0.13675644455E+02  0.96044711089E+02  0.91547570805E+02 0.  0.
         13    1    3    3    0    0  0.44526487991E+02 -0.20536924744E+02  0.37176285117E+02  0.61534224216E+02  0.10566000000E+00 0. -1.
         22    1    1    0    0    0 -0.19572655541E+02  0.16538340659E+02 -0.13675644455E+02  0.29045288911E+02  0.00000000000E+00 0. -1.
</event>
<event>
 5    1  0.1264859E-009  0.9118800E+02  0.7815553E-02  0.1125453E+00
         25   -1    0    0    0    0  0.00000000000E+00  0.00000000000E+00  0.99999998245E-14  0.12509000000E+03  0.12509000000E+03 0.  0.
        -13    1    3    3    0    0  0.10402955662E+01  0.13076672347E+02 -0.34834551126E+02  0.37222824863E+02  0.10566000000E+00 0.  1.
         23    2    1    0    0    0  0.91810124854E+01 -0.22059667923E+02  0.13588872470E+02  0.97602231918E+02  0.93651579171E+02 0.  0.
         13    1    3    3    0    0  0.81407169192E+01 -0.35136340270E+02  0.48423423597E+02  0.60379407055E+02  0.10566000000E+00 0. -1.
         22    1    1    0    0    0 -0.91810124854E+01  0.22059667923E+02 -0.13588872470E+02  0.27487768082E+02  0.00000000000E+00 0. -1.
</event>
<event>
 5    1  0.1264859E-009  0.9118800E+02  0.7815553E-02  0.1125453E+00
         25   -1    0    0    0    0  0.00000000000E+00  0.00000000000E+00  0.99999998245E-14  0.12509000000E+03  0.12509000000E+03 0.  0.
        -13    1    3    3    0    0 -0.35292833135E+02  0.39533585912E+02 -0.83645764768E+01  0.53651335392E+02  0.10566000000E+00 0. -1.
         23    2    1    0    0    0  0.56758029734E+01  0.27314259095E+02 -0.65046244078E+01  0.96443994554E+02  0.92091533040E+02 0.  0.
         13    1    3    3    0    0  0.40968636108E+02 -0.12219326816E+02  0.18599520690E+01  0.42792659162E+02  0.10566000000E+00 0.  1.
         22    1    1    0    0    0 -0.56758029734E+01 -0.27314259095E+02  0.65046244078E+01  0.28646005446E+02  0.00000000000E+00 0. -1.
</event>
<event>
 5    1  0.1264859E-009  0.9118800E+02  0.7815553E-02  0.1125453E+00
         25   -1    0    0    0    0  0.00000000000E+00  0.00000000000E+00  0.99999998245E-14  0.12509000000E+03  0.12509000000E+03 0.  0.
        -13    1    3    3    0    0  0.43708445557E+02 -0.22124286305E+02  0.18215181741E+02  0.52265823129E+02  0.10566000000E+00 0. -1.
         23    2    1    0    0    0  0.21353728616E+01 -0.13661705174E+02  0.26226654801E+02  0.95441400917E+02  0.90719466387E+02 0.  0.
         13    1    3    3    0    0 -0.41573072695E+02  0.84625811310E+01  0.80114730595E+01  0.43175577788E+02  0.10566000000E+00 0.  1.
         22    1    1    0    0    0 -0.21353728616E+01  0.13661705174E+02 -0.26226654801E+02  0.29648599083E+02  0.00000000000E+00 0.  1.
</event>
<event>
 5    1  0.1264859E-009  0.9118800E+02  0.7815553E-02  0.1125453E+00
         25   -1    0    0    0    0  0.00000000000E+00  0.00000000000E+00  0.99999998245E-14  0.12509000000E+03  0.12509000000E+03 0.  0.
        -13    1    3    3    0    0 -0.24837096021E+02 -0.22017464187E+02  0.17400385352E+02  0.37475787416E+02  0.10566000000E+00 0.  1.
         23    2    1    0    0    0  0.18875405324E+01 -0.16332979631E+01 -0.29670208202E+02  0.95314981507E+02  0.90544983149E+02 0.  0.
         13    1    3    3    0    0  0.26724636553E+02  0.20384166224E+02 -0.47070593555E+02  0.57839194092E+02  0.10566000000E+00 0. -1.
         22    1    1    0    0    0 -0.18875405324E+01  0.16332979631E+01  0.29670208202E+02  0.29775018493E+02  0.00000000000E+00 0. -1.
</event>
<event>
 5    1  0.1264859E-009  0.9118800E+02  0.7815553E-02  0.1125453E+00
         25   -1    0    0    0    0  0.00000000000E+00  0.00000000000E+00  0.99999998245E-14  0.12509000000E+03  0.12509000000E+03 0.  0.
        -13    1    3    3    0    0  0.41035263845E+02 -0.42093828496E+02 -0.20153099831E+02  0.62144524080E+02  0.10566000000E+00 0.  1.
         23    2    1    0    0    0  0.17006117658E+02 -0.18392109751E+02 -0.34473029543E+01  0.99804398632E+02  0.96548207387E+02 0.  0.
         13    1    3    3    0    0 -0.24029146187E+02  0.23701718744E+02  0.16705796877E+02  0.37659874552E+02  0.10566000000E+00 0. -1.
         22    1    1    0    0    0 -0.17006117658E+02  0.18392109751E+02  0.34473029543E+01  0.25285601368E+02  0.00000000000E+00 0.  1.
</event>
<event>
 5    1  0.1264859E-009  0.9118800E+02  0.7815553E-02  0.1125453E+00
         25   -1    0    0    0    0  0.00000000000E+00  0.00000000000E+00  0.99999998245E-14  0.12509000000E+03  0.12509000000E+03 0.  0.
        -13    1    3    3    0    0  0.72908906202E+01 -0.25811847210E+02  0.50682840674E+02  0.57342567481E+02  0.10566000000E+00 0.  1.
         23    2    1    0    0    0  0.28480310384E+01 -0.26321778450E+02  0.12454980574E+02  0.95831260405E+02  0.91255447115E+02 0.  0.
         13    1    3    3    0    0 -0.44428595818E+01 -0.50993124020E+00 -0.38227860100E+02  0.38488692924E+02  0.10566000000E+00 0. -1.
         22    1    1    0    0    0 -0.28480310384E+01  0.26321778450E+02 -0.12454980574E+02  0.29258739595E+02  0.00000000000E+00 0.  1.
</event>
<event>
 5    1  0.1264859E-009  0.9118800E+02  0.7815553E-02  0.1125453E+00
         25   -1    0    0    0    0  0.00000000000E+00  0.00000000000E+00  0.99999998245E-14  0.12509000000E+03  0.12509000000E+03 0.  0.
        -13    1    3    3    0    0 -0.30380701636E+02  0.49299265272E+01 -0.21753072268E+02  0.37689501517E+02  0.10566000000E+00 0.  1.
         23    2    1    0    0    0 -0.32598287808E+01  0.20729319237E+01  0.29282175623E+02  0.95554100832E+02  0.90874731616E+02 0.  0.
         13    1    3    3    0    0  0.27120872856E+02 -0.28569946035E+01  0.51035247891E+02  0.57864599315E+02  0.10566000000E+00 0. -1.
         22    1    1    0    0    0  0.32598287808E+01 -0.20729319237E+01 -0.29282175623E+02  0.29535899168E+02  0.00000000000E+00 0.  1.
</event>
<event>
 5    1  0.1264859E-009  0.9118800E+02  0.7815553E-02  0.1125453E+00
         25   -1    0    0    0    0  0.00000000000E+00  0.00000000000E+00  0.99999998245E-14  0.12509000000E+03  0.12509000000E+03 0.  0.
        -13    1    3    3    0    0  0.23303404355E+02 -0.38801438078E+02  0.31096294649E+00  0.45262656942E+02  0.10566000000E+00 0.  1.
         23    2    1    0    0    0 -0.84812649514E+01 -0.11538051830E+02 -0.26487725165E+02  0.94979236482E+02  0.90079949396E+02 0.  0.
         13    1    3    3    0    0 -0.31784669306E+02  0.27263386249E+02 -0.26798688112E+02  0.49716579540E+02  0.10566000000E+00 0. -1.
         22    1    1    0    0    0  0.84812649514E+01  0.11538051830E+02  0.26487725165E+02  0.30110763518E+02  0.00000000000E+00 0. -1.
</event>
<event>
 5    1  0.1264859E-009  0.9118800E+02  0.7815553E-02  0.1125453E+00
         25   -1    0    0    0    0  0.00000000000E+00  0.00000000000E+00  0.99999998245E-14  0.12509000000E+03  0.12509000000E+03 0.  0.
        -13    1    3    3    0    0 -0.51717306720E+01  0.40277692922E+02 -0.28347699151E+02  0.49524161341E+02  0.10566000000E+00 0.  1.
         23    2    1    0    0    0  0.17580963414E+02  0.19694564388E+02  0.83900060730E+01  0.97388766401E+02  0.93366018863E+02 0.  0.
         13    1    3    3    0    0  0.22752694086E+02 -0.20583128534E+02  0.36737705224E+02  0.47864605061E+02  0.10566000000E+00 0. -1.
         22    1    1    0    0    0 -0.17580963414E+02 -0.19694564388E+02 -0.83900060730E+01  0.27701233599E+02  0.00000000000E+00 0.  1.
</event>
<event>
 5    1  0.1264859E-009  0.9118800E+02  0.7815553E-02  0.1125453E+00
         25   -1    0    0    0    0  0.00000000000E+00  0.00000000000E+00  0.99999998245E-14  0.12509000000E+03  0.12509000000E+03 0.  0.
        -13    1    3    3    0    0 -0.27599927979E+02 -0.24581757739E+02 -0.48018251428E+02  0.60595234732E+02  0.10566000000E+00 0.  1.
         23    2    1    0    0    0 -0.21653755903E+02 -0.80426251620E+01 -0.16430873235E+02  0.96743173732E+02  0.92497022137E+02 0.  0.
         13    1    3    3    0    0  0.59461720754E+01  0.16539132577E+02  0.31587378193E+02  0.36147938999E+02  0.10566000000E+00 0. -1.
         22    1    1    0    0    0  0.21653755903E+02  0.80426251620E+01  0.16430873235E+02  0.28346826268E+02  0.00000000000E+00 0.  1.
</event>
<event>
 5    1  0.1264859E-009  0.9118800E+02  0.7815553E-02  0.1125453E+00
         25   -1    0    0    0    0  0.00000000000E+00  0.00000000000E+00  0.99999998245E-14  0.12509000000E+03  0.12509000000E+03 0.  0.
        -13    1    3    3    0    0 -0.17368981231E+02  0.36982307325E+02  0.40639388433E+02  0.57627628967E+02  0.10566000000E+00 0. -1.
         23    2    1    0    0    0 -0.22759303370E+02  0.81892165954E+01  0.14493707874E+02  0.96892185789E+02  0.92698322211E+02 0.  0.
         13    1    3    3    0    0 -0.53903221391E+01 -0.28793090730E+02 -0.26145680559E+02  0.39264556823E+02  0.10566000000E+00 0.  1.
         22    1    1    0    0    0  0.22759303370E+02 -0.81892165954E+01 -0.14493707874E+02  0.28197814211E+02  0.00000000000E+00 0. -1.
</event>
<event>
 5    1  0.1264859E-009  0.9118800E+02  0.7815553E-02  0.1125453E+00
         25   -1    0    0    0    0  0.00000000000E+00  0.00000000000E+00  0.99999998245E-14  0.12509000000E+03  0.12509000000E+03 0.  0.
        -13    1    3    3    0    0  0.58919766741E+02  0.73660859199E+01 -0.10072155659E+02  0.60226718475E+02  0.10566000000E+00 0.  1.
         23    2    1    0    0    0  0.23752006717E+02  0.53455505248E+01 -0.16012662411E+02  0.95950025893E+02  0.91418102025E+02 0.  0.
         13    1    3    3    0    0 -0.35167760024E+02 -0.20205353951E+01 -0.59405067517E+01  0.35723307418E+02  0.10566000000E+00 0. -1.
         22    1    1    0    0    0 -0.23752006717E+02 -0.53455505248E+01  0.16012662411E+02  0.29139974107E+02  0.00000000000E+00 0.  1.
</event>
<event>
 5    1  0.1264859E-009  0.9118800E+02  0.7815553E-02  0.1125453E+00
         25   -1    0    0    0    0  0.00000000000E+00  0.00000000000E+00  0.99999998245E-14  0.12509000000E+03  0.12509000000E+03 0.  0.
        -13    1    3    3    0    0 -0.42140861271E+01  0.52745693332E+02 -0.21366705545E+02  0.57064997650E+02  0.10566000000E+00 0.  1.
         23    2    1    0    0    0 -0.17249190416E+02  0.23326665346E+02  0.67932802920E+00  0.96070534589E+02  0.91582849068E+02 0.  0.
         13    1    3    3    0    0 -0.13035104289E+02 -0.29419027986E+02  0.22046033574E+02  0.39005536938E+02  0.10566000000E+00 0. -1.
         22    1    1    0    0    0  0.17249190416E+02 -0.23326665346E+02 -0.67932802920E+00  0.29019465411E+02  0.00000000000E+00 0.  1.
</event>
<event>
 5    1  0.1264859E-009  0.9118800E+02  0.7815553E-02  0.1125453E+00
         25   -1    0    0    0    0  0.00000000000E+00  0.00000000000E+00  0.99999998245E-14  0.12509000000E+03  0.12509000000E+03 0.  0.
        -13    1    3    3    0    0 -0.17208366060E+02  0.22144515816E+02  0.46604774772E+01  0.28429538469E+02  0.10566000000E+00 0.  1.
         23    2    1    0    0    0  0.13693663359E+02 -0.29135713734E+02  0.15638651214E+02  0.89299307875E+02  0.81813157525E+02 0.  0.
         13    1    3    3    0    0  0.30902029418E+02 -0.51280229551E+02  0.10978173737E+02  0.60869769406E+02  0.10566000000E+00 0. -1.
         22    1    1    0    0    0 -0.13693663359E+02  0.29135713734E+02 -0.15638651214E+02  0.35790692125E+02  0.00000000000E+00 0. -1.
</event>
<event>
 5    1  0.1264859E-009  0.9118800E+02  0.7815553E-02  0.1125453E+00
         25   -1    0    0    0    0  0.00000000000E+00  0.00000000000E+00  0.99999998245E-14  0.12509000000E+03  0.12509000000E+03 0.  0.
        -13    1    3    3    0    0  0.18307640936E+01 -0.59350392895E+02  0.14448369393E+02  0.61111270451E+02  0.10566000000E+00 0.  1.
         23    2    1    0    0    0 -0.19565992217E+01 -0.29027485991E+02 -0.22051583978E+01  0.95913195051E+02  0.91367691434E+02 0.  0.
         13    1    3    3    0    0 -0.37873633153E+01  0.30322906904E+02 -0.16653527791E+02  0.34801924601E+02  0.10566000000E+00 0. -1.
         22    1    1    0    0    0  0.19565992217E+01  0.29027485991E+02  0.22051583978E+01  0.29176804949E+02  0.00000000000E+00 0.  1.
</event>
<event>
 5    1  0.1264859E-009  0.9118800E+02  0.7815553E-02  0.1125453E+00
         25   -1    0    0    0    0  0.00000000000E+00  0.00000000000E+00  0.99999998245E-14  0.12509000000E+03  0.12509000000E+03 0.  0.
        -13    1    3    3    0    0  0.41381529474E+01  0.66546154045E+00  0.38948263184E+02  0.39173275559E+02  0.10566000000E+00 0.  1.
         23    2    1    0    0    0  0.72568317211E+01 -0.27030733037E+02 -0.98910172378E+01  0.95405755742E+02  0.90670303140E+02 0.  0.
         13    1    3    3    0    0  0.31186787737E+01 -0.27696194578E+02 -0.48839280422E+02  0.56232480183E+02  0.10566000000E+00 0. -1.
         22    1    1    0    0    0 -0.72568317211E+01  0.27030733037E+02  0.98910172378E+01  0.29684244258E+02  0.00000000000E+00 0. -1.
</event>
<event>
 5    1  0.1264859E-009  0.9118800E+02  0.7815553E-02  0.1125453E+00
         25   -1    0    0    0    0  0.00000000000E+00  0.00000000000E+00  0.99999998245E-14  0.12509000000E+03  0.12509000000E+03 0.  0.
        -13    1    3    3    0    0  0.16379317326E+02  0.45605978519E+02 -0.22912531182E+02  0.53602076098E+02  0.10566000000E+00 0.  1.
         23    2    1    0    0    0  0.56894686340E+00  0.14383760509E+02 -0.32206959012E+02  0.89812464999E+02  0.82594033643E+02 0.  0.
         13    1    3    3    0    0 -0.15810370463E+02 -0.31222218010E+02 -0.92944278302E+01  0.36210388901E+02  0.10566000000E+00 0. -1.
         22    1    1    0    0    0 -0.56894686340E+00 -0.14383760509E+02  0.32206959012E+02  0.35277535001E+02  0.00000000000E+00 0.  1.
</event>
<event>
 5    1  0.1264859E-009  0.9118800E+02  0.7815553E-02  0.1125453E+00
         25   -1    0    0    0    0  0.00000000000E+00  0.00000000000E+00  0.99999998245E-14  0.12509000000E+03  0.12509000000E+03 0.  0.
        -13    1    3    3    0    0  0.71125476430E+00  0.25132520915E+02 -0.25032663333E+02  0.35479499552E+02  0.10566000000E+00 0. -1.
         23    2    1    0    0    0  0.11825190853E+02 -0.25665683196E+01  0.27021475476E+02  0.95482863216E+02  0.90776619343E+02 0.  0.
         13    1    3    3    0    0  0.11113936089E+02 -0.27699089234E+02  0.52054138809E+02  0.60003363664E+02  0.10566000000E+00 0.  1.
         22    1    1    0    0    0 -0.11825190853E+02  0.25665683196E+01 -0.27021475476E+02  0.29607136784E+02  0.00000000000E+00 0.  1.
</event>
<event>
 5    1  0.1264859E-009  0.9118800E+02  0.7815553E-02  0.1125453E+00
         25   -1    0    0    0    0  0.00000000000E+00  0.00000000000E+00  0.99999998245E-14  0.12509000000E+03  0.12509000000E+03 0.  0.
        -13    1    3    3    0    0  0.31178542419E+02 -0.43799411680E+01 -0.21020649576E+02  0.37857156056E+02  0.10566000000E+00 0.  1.
         23    2    1    0    0    0  0.14816225810E+01  0.20240592583E+02  0.21673880851E+02  0.95397679364E+02  0.90659160173E+02 0.  0.
         13    1    3    3    0    0 -0.29696919838E+02  0.24620533751E+02  0.42694530428E+02  0.57540523308E+02  0.10566000000E+00 0. -1.
         22    1    1    0    0    0 -0.14816225810E+01 -0.20240592583E+02 -0.21673880851E+02  0.29692320636E+02  0.00000000000E+00 0. -1.
</event>
<event>
 5    1  0.1264859E-009  0.9118800E+02  0.7815553E-02  0.1125453E+00
         25   -1    0    0    0    0  0.00000000000E+00  0.00000000000E+00  0.99999998245E-14  0.12509000000E+03  0.12509000000E+03 0.  0.
        -13    1    3    3    0    0  0.31686603639E+02 -0.39972071146E+02  0.12080462168E+02  0.52419042838E+02  0.10566000000E+00 0. -1.
         23    2    1    0    0    0  0.30287694349E+02  0.58855211989E+00  0.10478480330E+02  0.93035524921E+02  0.87339106503E+02 0.  0.
         13    1    3    3    0    0 -0.13989092896E+01  0.40560623266E+02 -0.16019818384E+01  0.40616482083E+02  0.10566000000E+00 0.  1.
         22    1    1    0    0    0 -0.30287694349E+02 -0.58855211989E+00 -0.10478480330E+02  0.32054475079E+02  0.00000000000E+00 0. -1.
</event>
<event>
 5    1  0.1264859E-009  0.9118800E+02  0.7815553E-02  0.1125453E+00
         25   -1    0    0    0    0  0.00000000000E+00  0.00000000000E+00  0.99999998245E-14  0.12509000000E+03  0.12509000000E+03 0.  0.
        -13    1    3    3    0    0  0.30956333490E+02  0.19383520095E+02 -0.18819848125E+02  0.41087872687E+02  0.10566000000E+00 0.  1.
         23    2    1    0    0    0 -0.12084864751E+01 -0.24924936239E+02 -0.15002524119E+02  0.95973190147E+02  0.91449792843E+02 0.  0.
         13    1    3    3    0    0 -0.32164819966E+02 -0.44308456334E+02  0.38173240065E+01  0.54885317460E+02  0.10566000000E+00 0. -1.
         22    1    1    0    0    0  0.12084864751E+01  0.24924936239E+02  0.15002524119E+02  0.29116809853E+02  0.00000000000E+00 0. -1.
</event>
<event>
 5    1  0.1264859E-009  0.9118800E+02  0.7815553E-02  0.1125453E+00
         25   -1    0    0    0    0  0.00000000000E+00  0.00000000000E+00  0.99999998245E-14  0.12509000000E+03  0.12509000000E+03 0.  0.
        -13    1    3    3    0    0  0.24170522465E+02 -0.93310495009E+01  0.54798452734E+02  0.60614884534E+02  0.10566000000E+00 0.  1.
         23    2    1    0    0    0  0.31958080015E+01  0.19527088980E+01  0.29470916005E+02  0.95382069224E+02  0.90637619003E+02 0.  0.
         13    1    3    3    0    0 -0.20974714464E+02  0.11283758399E+02 -0.25327536729E+02  0.34767184690E+02  0.10566000000E+00 0. -1.
         22    1    1    0    0    0 -0.31958080015E+01 -0.19527088980E+01 -0.29470916005E+02  0.29707930776E+02  0.00000000000E+00 0.  1.
</event>
<event>
 5    1  0.1264859E-009  0.9118800E+02  0.7815553E-02  0.1125453E+00
         25   -1    0    0    0    0  0.00000000000E+00  0.00000000000E+00  0.99999998245E-14  0.12509000000E+03  0.12509000000E+03 0.  0.
        -13    1    3    3    0    0 -0.59362958153E+02 -0.23484227222E+00 -0.16756956739E+02  0.61683245008E+02  0.10566000000E+00 0.  1.
         23    2    1    0    0    0 -0.28158786229E+02 -0.40487474068E+01 -0.15638560993E+01  0.96598681264E+02  0.92301408324E+02 0.  0.
         13    1    3    3    0    0  0.31204171924E+02 -0.38139051346E+01  0.15193100640E+02  0.34915436256E+02  0.10566000000E+00 0. -1.
         22    1    1    0    0    0  0.28158786229E+02  0.40487474068E+01  0.15638560993E+01  0.28491318736E+02  0.00000000000E+00 0.  1.
</event>
<event>
 5    1  0.1264859E-009  0.9118800E+02  0.7815553E-02  0.1125453E+00
         25   -1    0    0    0    0  0.00000000000E+00  0.00000000000E+00  0.99999998245E-14  0.12509000000E+03  0.12509000000E+03 0.  0.
        -13    1    3    3    0    0  0.28524901341E+02 -0.48607011002E+01  0.22046049431E+02  0.36377683698E+02  0.10566000000E+00 0. -1.
         23    2    1    0    0    0 -0.28257142607E+02  0.31853879294E+01  0.97358562104E+01  0.95033391730E+02  0.90155121002E+02 0.  0.
         13    1    3    3    0    0 -0.56782043947E+02  0.80460890295E+01 -0.12310193221E+02  0.58655708032E+02  0.10566000000E+00 0.  1.
         22    1    1    0    0    0  0.28257142607E+02 -0.31853879294E+01 -0.97358562104E+01  0.30056608270E+02  0.00000000000E+00 0.  1.
</event>
<event>
 5    1  0.1264859E-009  0.9118800E+02  0.7815553E-02  0.1125453E+00
         25   -1    0    0    0    0  0.00000000000E+00  0.00000000000E+00  0.99999998245E-14  0.12509000000E+03  0.12509000000E+03 0.  0.
        -13    1    3    3    0    0 -0.33722090505E+02 -0.55688754101E+01  0.47118098944E+02  0.58209261922E+02  0.10566000000E+00 0.  1.
         23    2    1    0    0    0 -0.18075815711E+02 -0.17572616688E+02  0.15429256787E+02  0.95533377462E+02  0.90846201205E+02 0.  0.
         13    1    3    3    0    0  0.15646274794E+02 -0.12003741277E+02 -0.31688842157E+02  0.37324115540E+02  0.10566000000E+00 0. -1.
         22    1    1    0    0    0  0.18075815711E+02  0.17572616688E+02 -0.15429256787E+02  0.29556622538E+02  0.00000000000E+00 0.  1.
</event>
<event>
 5    1  0.1264859E-009  0.9118800E+02  0.7815553E-02  0.1125453E+00
         25   -1    0    0    0    0  0.00000000000E+00  0.00000000000E+00  0.99999998245E-14  0.12509000000E+03  0.12509000000E+03 0.  0.
        -13    1    3    3    0    0 -0.40292086479E+02  0.44404232790E+02  0.98394877739E+01  0.60761951962E+02  0.10566000000E+00 0.  1.
         23    2    1    0    0    0 -0.15949176188E+02  0.18011989359E+02  0.14549642169E+02  0.96974166934E+02  0.92808884184E+02 0.  0.
         13    1    3    3    0    0  0.24342910291E+02 -0.26392243431E+02  0.47101543947E+01  0.36212214972E+02  0.10566000000E+00 0. -1.
         22    1    1    0    0    0  0.15949176188E+02 -0.18011989359E+02 -0.14549642169E+02  0.28115833066E+02  0.00000000000E+00 0.  1.
</event>
<event>
 5    1  0.1264859E-009  0.9118800E+02  0.7815553E-02  0.1125453E+00
         25   -1    0    0    0    0  0.00000000000E+00  0.00000000000E+00  0.99999998245E-14  0.12509000000E+03  0.12509000000E+03 0.  0.
        -13    1    3    3    0    0  0.19830639108E+02  0.40003630676E+02  0.86116048653E+01  0.45472141110E+02  0.10566000000E+00 0. -1.
         23    2    1    0    0    0  0.28037242279E+02 -0.89350798671E+01  0.51626536402E+01  0.95213996260E+02  0.90405362034E+02 0.  0.
         13    1    3    3    0    0  0.82066031710E+01 -0.48938710543E+02 -0.34489512251E+01  0.49741855151E+02  0.10566000000E+00 0.  1.
         22    1    1    0    0    0 -0.28037242279E+02  0.89350798671E+01 -0.51626536402E+01  0.29876003740E+02  0.00000000000E+00 0.  1.
</event>
<event>
 5    1  0.1264859E-009  0.9118800E+02  0.7815553E-02  0.1125453E+00
         25   -1    0    0    0    0  0.00000000000E+00  0.00000000000E+00  0.99999998245E-14  0.12509000000E+03  0.12509000000E+03 0.  0.
        -13    1    3    3    0    0 -0.29776017214E+02  0.32605749282E+02 -0.41776233991E+02  0.60786601960E+02  0.10566000000E+00 0.  1.
         23    2    1    0    0    0 -0.43520487009E+01  0.14631692964E+02 -0.24019587532E+02  0.96630074630E+02  0.92343943878E+02 0.  0.
         13    1    3    3    0    0  0.25423968513E+02 -0.17974056318E+02  0.17756646459E+02  0.35843472669E+02  0.10566000000E+00 0. -1.
         22    1    1    0    0    0  0.43520487009E+01 -0.14631692964E+02  0.24019587532E+02  0.28459925370E+02  0.00000000000E+00 0.  1.
</event>
<event>
 5    1  0.1264859E-009  0.9118800E+02  0.7815553E-02  0.1125453E+00
         25   -1    0    0    0    0  0.00000000000E+00  0.00000000000E+00  0.99999998245E-14  0.12509000000E+03  0.12509000000E+03 0.  0.
        -13    1    3    3    0    0  0.53150461962E+02  0.27504824862E+02  0.34826794939E+01  0.59946869960E+02  0.10566000000E+00 0.  1.
         23    2    1    0    0    0  0.18435978402E+02  0.19881149071E+02  0.10206173195E+02  0.96119129124E+02  0.91649198711E+02 0.  0.
         13    1    3    3    0    0 -0.34714483561E+02 -0.76236757912E+01  0.67234937011E+01  0.36172259164E+02  0.10566000000E+00 0. -1.
         22    1    1    0    0    0 -0.18435978402E+02 -0.19881149071E+02 -0.10206173195E+02  0.28970870876E+02  0.00000000000E+00 0.  1.
</event>
<event>
 5    1  0.1264859E-009  0.9118800E+02  0.7815553E-02  0.1125453E+00
         25   -1    0    0    0    0  0.00000000000E+00  0.00000000000E+00  0.99999998245E-14  0.12509000000E+03  0.12509000000E+03 0.  0.
        -13    1    3    3    0    0  0.57727146737E+02  0.17640701804E+02  0.84369608182E+01  0.60949251861E+02  0.10566000000E+00 0.  1.
         23    2    1    0    0    0  0.30430324644E+02  0.95855915311E+01 -0.56237319576E+01  0.92693787504E+02  0.86848279533E+02 0.  0.
         13    1    3    3    0    0 -0.27296822093E+02 -0.80551102724E+01 -0.14060692776E+02  0.31744535644E+02  0.10566000000E+00 0. -1.
         22    1    1    0    0    0 -0.30430324644E+02 -0.95855915311E+01  0.56237319576E+01  0.32396212496E+02  0.00000000000E+00 0.  1.
</event>
<event>
 5    1  0.1264859E-009  0.9118800E+02  0.7815553E-02  0.1125453E+00
         25   -1    0    0    0    0  0.00000000000E+00  0.00000000000E+00  0.99999998245E-14  0.12509000000E+03  0.12509000000E+03 0.  0.
        -13    1    3    3    0    0  0.26117651455E+02 -0.27977245978E+02  0.69689809358E+01  0.38902903097E+02  0.10566000000E+00 0. -1.
         23    2    1    0    0    0  0.45309910209E+01  0.26345773017E+02  0.73731148075E+01  0.97359286748E+02  0.93326514232E+02 0.  0.
         13    1    3    3    0    0 -0.21586660434E+02  0.54323018995E+02  0.40413387167E+00  0.58456383652E+02  0.10566000000E+00 0.  1.
         22    1    1    0    0    0 -0.45309910209E+01 -0.26345773017E+02 -0.73731148075E+01  0.27730713252E+02  0.00000000000E+00 0.  1.
</event>
<event>
 5    1  0.1264859E-009  0.9118800E+02  0.7815553E-02  0.1125453E+00
         25   -1    0    0    0    0  0.00000000000E+00  0.00000000000E+00  0.99999998245E-14  0.12509000000E+03  0.12509000000E+03 0.  0.
        -13    1    3    3    0    0  0.24660954140E+02  0.44965369548E+02  0.25084383989E+02  0.57090144524E+02  0.10566000000E+00 0. -1.
         23    2    1    0    0    0 -0.46223517037E+01  0.27979354690E+02  0.54910574602E+01  0.96204672649E+02  0.91765880932E+02 0.  0.
         13    1    3    3    0    0 -0.29283305844E+02 -0.16986014858E+02 -0.19593326529E+02  0.39114528124E+02  0.10566000000E+00 0.  1.
         22    1    1    0    0    0  0.46223517037E+01 -0.27979354690E+02 -0.54910574602E+01  0.28885327351E+02  0.00000000000E+00 0. -1.
</event>
<event>
 5    1  0.1264859E-009  0.9118800E+02  0.7815553E-02  0.1125453E+00
         25   -1    0    0    0    0  0.00000000000E+00  0.00000000000E+00  0.99999998245E-14  0.12509000000E+03  0.12509000000E+03 0.  0.
        -13    1    3    3    0    0 -0.19194508521E+02  0.29862881792E+02 -0.93391700689E+01  0.36707657619E+02  0.10566000000E+00 0. -1.
         23    2    1    0    0    0  0.15420228722E+02 -0.17003943427E+02 -0.18398766073E+02  0.95671771996E+02  0.91036563083E+02 0.  0.
         13    1    3    3    0    0  0.34614737242E+02 -0.46866825219E+02 -0.90595960043E+01  0.58964114377E+02  0.10566000000E+00 0.  1.
         22    1    1    0    0    0 -0.15420228722E+02  0.17003943427E+02  0.18398766073E+02  0.29418228004E+02  0.00000000000E+00 0.  1.
</event>
<event>
 5    1  0.1264859E-009  0.9118800E+02  0.7815553E-02  0.1125453E+00
         25   -1    0    0    0    0  0.00000000000E+00  0.00000000000E+00  0.99999998245E-14  0.12509000000E+03  0.12509000000E+03 0.  0.
        -13    1    3    3    0    0  0.46518284974E+02  0.35353300115E+02 -0.66724351112E+01  0.58807645934E+02  0.10566000000E+00 0. -1.
         23    2    1    0    0    0  0.14033903957E+02  0.24302937432E+02  0.76694575651E+01  0.95996980091E+02  0.91482328235E+02 0.  0.
         13    1    3    3    0    0 -0.32484381017E+02 -0.11050362683E+02  0.14341892676E+02  0.37189334157E+02  0.10566000000E+00 0.  1.
         22    1    1    0    0    0 -0.14033903957E+02 -0.24302937432E+02 -0.76694575651E+01  0.29093019909E+02  0.00000000000E+00 0. -1.
</event>
<event>
 5    1  0.1264859E-009  0.9118800E+02  0.7815553E-02  0.1125453E+00
         25   -1    0    0    0    0  0.00000000000E+00  0.00000000000E+00  0.99999998245E-14  0.12509000000E+03  0.12509000000E+03 0.  0.
        -13    1    3    3    0    0  0.10533960302E+02 -0.20996769152E+02  0.25701942625E+02  0.34819960557E+02  0.10566000000E+00 0. -1.
         23    2    1    0    0    0  0.80222094939E+01  0.19691780244E+02 -0.19886157141E+02  0.95976750436E+02  0.91454662670E+02 0.  0.
         13    1    3    3    0    0 -0.25117508085E+01  0.40688549395E+02 -0.45588099766E+02  0.61156789879E+02  0.10566000000E+00 0.  1.
         22    1    1    0    0    0 -0.80222094939E+01 -0.19691780244E+02  0.19886157141E+02  0.29113249564E+02  0.00000000000E+00 0.  1.
</event>
<event>
 5    1  0.1264859E-009  0.9118800E+02  0.7815553E-02  0.1125453E+00
         25   -1    0    0    0    0  0.00000000000E+00  0.00000000000E+00  0.99999998245E-14  0.12509000000E+03  0.12509000000E+03 0.  0.
        -13    1    3    3    0    0  0.21867171063E+02  0.22579404249E+02 -0.69047285192E+01  0.32182124021E+02  0.10566000000E+00 0.  1.
         23    2    1    0    0    0 -0.24485126415E+02 -0.13420574921E+02  0.13179736546E+02  0.94213816587E+02  0.89010698985E+02 0.  0.
         13    1    3    3    0    0 -0.46352297477E+02 -0.35999979170E+02  0.20084465065E+02  0.62031692566E+02  0.10566000000E+00 0. -1.
         22    1    1    0    0    0  0.24485126415E+02  0.13420574921E+02 -0.13179736546E+02  0.30876183413E+02  0.00000000000E+00 0. -1.
</event>
<event>
 5    1  0.1264859E-009  0.9118800E+02  0.7815553E-02  0.1125453E+00
         25   -1    0    0    0    0  0.00000000000E+00  0.00000000000E+00  0.99999998245E-14  0.12509000000E+03  0.12509000000E+03 0.  0.
        -13    1    3    3    0    0 -0.20332796253E+02 -0.48263509523E+02  0.20845488849E+02  0.56367850095E+02  0.10566000000E+00 0. -1.
         23    2    1    0    0    0 -0.25091511537E+02 -0.10464147869E+02  0.11339875162E+02  0.95633674524E+02  0.90984199686E+02 0.  0.
         13    1    3    3    0    0 -0.47587152839E+01  0.37799361653E+02 -0.95056136870E+01  0.39265824430E+02  0.10566000000E+00 0.  1.
         22    1    1    0    0    0  0.25091511537E+02  0.10464147869E+02 -0.11339875162E+02  0.29456325476E+02  0.00000000000E+00 0. -1.
</event>
<event>
 5    1  0.1264859E-009  0.9118800E+02  0.7815553E-02  0.1125453E+00
         25   -1    0    0    0    0  0.00000000000E+00  0.00000000000E+00  0.99999998245E-14  0.12509000000E+03  0.12509000000E+03 0.  0.
        -13    1    3    3    0    0  0.16507495078E+02 -0.43661206466E+02  0.17805403331E+01  0.46711666976E+02  0.10566000000E+00 0. -1.
         23    2    1    0    0    0  0.78056160187E+01 -0.41865631273E+01 -0.27222582266E+02  0.96462671492E+02  0.92116898851E+02 0.  0.
         13    1    3    3    0    0 -0.87018790589E+01  0.39474643338E+02 -0.29003122599E+02  0.49751004516E+02  0.10566000000E+00 0.  1.
         22    1    1    0    0    0 -0.78056160187E+01  0.41865631273E+01  0.27222582266E+02  0.28627328508E+02  0.00000000000E+00 0.  1.
</event>
<event>
 5    1  0.1264859E-009  0.9118800E+02  0.7815553E-02  0.1125453E+00
         25   -1    0    0    0    0  0.00000000000E+00  0.00000000000E+00  0.99999998245E-14  0.12509000000E+03  0.12509000000E+03 0.  0.
        -13    1    3    3    0    0  0.56497316238E+01  0.24755070633E+01 -0.58799116730E+02  0.59121864779E+02  0.10566000000E+00 0.  1.
         23    2    1    0    0    0 -0.11986992179E+02  0.12561808117E+01 -0.27407737684E+02  0.95149224181E+02  0.90315695233E+02 0.  0.
         13    1    3    3    0    0 -0.17636723802E+02 -0.12193262516E+01  0.31391379046E+02  0.36027359402E+02  0.10566000000E+00 0. -1.
         22    1    1    0    0    0  0.11986992179E+02 -0.12561808117E+01  0.27407737684E+02  0.29940775819E+02  0.00000000000E+00 0.  1.
</event>
<event>
 5    1  0.1264859E-009  0.9118800E+02  0.7815553E-02  0.1125453E+00
         25   -1    0    0    0    0  0.00000000000E+00  0.00000000000E+00  0.99999998245E-14  0.12509000000E+03  0.12509000000E+03 0.  0.
        -13    1    3    3    0    0  0.48144619880E+02  0.23987278245E+02  0.52304516958E+01  0.54043156181E+02  0.10566000000E+00 0.  1.
         23    2    1    0    0    0  0.19705287626E+02 -0.87084854763E+00  0.22149134560E+02  0.95431259309E+02  0.90705481389E+02 0.  0.
         13    1    3    3    0    0 -0.28439332254E+02 -0.24858126793E+02  0.16918682864E+02  0.41388103129E+02  0.10566000000E+00 0. -1.
         22    1    1    0    0    0 -0.19705287626E+02  0.87084854763E+00 -0.22149134560E+02  0.29658740691E+02  0.00000000000E+00 0.  1.
</event>
<event>
 5    1  0.1264859E-009  0.9118800E+02  0.7815553E-02  0.1125453E+00
         25   -1    0    0    0    0  0.00000000000E+00  0.00000000000E+00  0.99999998245E-14  0.12509000000E+03  0.12509000000E+03 0.  0.
        -13    1    3    3    0    0  0.49073223044E+02  0.28047375764E+02 -0.16596671825E+02  0.58909228367E+02  0.10566000000E+00 0. -1.
         23    2    1    0    0    0  0.29492404580E+02  0.94935014854E+01  0.53052970105E+01  0.93656344871E+02  0.88223785114E+02 0.  0.
         13    1    3    3    0    0 -0.19580818463E+02 -0.18553874278E+02  0.21901968836E+02  0.34747116504E+02  0.10566000000E+00 0.  1.
         22    1    1    0    0    0 -0.29492404580E+02 -0.94935014854E+01 -0.53052970105E+01  0.31433655129E+02  0.00000000000E+00 0. -1.
</event>
<event>
 5    1  0.1264859E-009  0.9118800E+02  0.7815553E-02  0.1125453E+00
         25   -1    0    0    0    0  0.00000000000E+00  0.00000000000E+00  0.99999998245E-14  0.12509000000E+03  0.12509000000E+03 0.  0.
        -13    1    3    3    0    0  0.98819619931E+01 -0.26137405381E+02  0.18070376851E+02  0.33277121517E+02  0.10566000000E+00 0. -1.
         23    2    1    0    0    0  0.28425512122E+01  0.29489728085E+02 -0.69219459811E+01  0.94665708782E+02  0.89643510212E+02 0.  0.
         13    1    3    3    0    0 -0.70394107809E+01  0.55627133466E+02 -0.24992322833E+02  0.61388587265E+02  0.10566000000E+00 0.  1.
         22    1    1    0    0    0 -0.28425512122E+01 -0.29489728085E+02  0.69219459811E+01  0.30424291218E+02  0.00000000000E+00 0.  1.
</event>
<event>
 5    1  0.1264859E-009  0.9118800E+02  0.7815553E-02  0.1125453E+00
         25   -1    0    0    0    0  0.00000000000E+00  0.00000000000E+00  0.99999998245E-14  0.12509000000E+03  0.12509000000E+03 0.  0.
        -13    1    3    3    0    0  0.28033151214E+02 -0.10667306347E+02  0.47417862762E+01  0.30366835410E+02  0.10566000000E+00 0.  1.
         23    2    1    0    0    0 -0.26065738376E+02 -0.22582651628E+02 -0.12536358378E+02  0.88394507729E+02  0.80417845305E+02 0.  0.
         13    1    3    3    0    0 -0.54098889590E+02 -0.11915345281E+02 -0.17278144654E+02  0.58027672319E+02  0.10566000000E+00 0. -1.
         22    1    1    0    0    0  0.26065738376E+02  0.22582651628E+02  0.12536358378E+02  0.36695492271E+02  0.00000000000E+00 0. -1.
</event>
<event>
 5    1  0.1264859E-009  0.9118800E+02  0.7815553E-02  0.1125453E+00
         25   -1    0    0    0    0  0.00000000000E+00  0.00000000000E+00  0.99999998245E-14  0.12509000000E+03  0.12509000000E+03 0.  0.
        -13    1    3    3    0    0 -0.61017450310E+02 -0.36176966485E+01 -0.34363751053E+01  0.61221212086E+02  0.10566000000E+00 0.  1.
         23    2    1    0    0    0 -0.26729618832E+02  0.32275068009E+01  0.61430016184E+01  0.97474319818E+02  0.93480571415E+02 0.  0.
         13    1    3    3    0    0  0.34287831478E+02  0.68452034494E+01  0.95793767237E+01  0.36253107732E+02  0.10566000000E+00 0. -1.
         22    1    1    0    0    0  0.26729618832E+02 -0.32275068009E+01 -0.61430016184E+01  0.27615680182E+02  0.00000000000E+00 0.  1.
</event>
<event>
 5    1  0.1264859E-009  0.9118800E+02  0.7815553E-02  0.1125453E+00
         25   -1    0    0    0    0  0.00000000000E+00  0.00000000000E+00  0.99999998245E-14  0.12509000000E+03  0.12509000000E+03 0.  0.
        -13    1    3    3    0    0 -0.13075241838E+02  0.48654344879E+01  0.31761220221E+02  0.34690354219E+02  0.10566000000E+00 0.  1.
         23    2    1    0    0    0 -0.85642351584E+00  0.25128556302E+02 -0.20881423000E+02  0.92406493004E+02  0.86433490729E+02 0.  0.
         13    1    3    3    0    0  0.12218818322E+02  0.20263121815E+02 -0.52642643221E+02  0.57716138784E+02  0.10566000000E+00 0. -1.
         22    1    1    0    0    0  0.85642351584E+00 -0.25128556302E+02  0.20881423000E+02  0.32683506996E+02  0.00000000000E+00 0.  1.
</event>
<event>
 5    1  0.1264859E-009  0.9118800E+02  0.7815553E-02  0.1125453E+00
         25   -1    0    0    0    0  0.00000000000E+00  0.00000000000E+00  0.99999998245E-14  0.12509000000E+03  0.12509000000E+03 0.  0.
        -13    1    3    3    0    0  0.41167879196E+02 -0.34071522825E+02 -0.26840233938E+02  0.59800269791E+02  0.10566000000E+00 0.  1.
         23    2    1    0    0    0  0.20001150899E+02 -0.66399331524E+01 -0.21721760077E+02  0.94825010154E+02  0.89865526985E+02 0.  0.
         13    1    3    3    0    0 -0.21166728297E+02  0.27431589673E+02  0.51184738612E+01  0.35024740363E+02  0.10566000000E+00 0. -1.
         22    1    1    0    0    0 -0.20001150899E+02  0.66399331524E+01  0.21721760077E+02  0.30264989846E+02  0.00000000000E+00 0.  1.
</event>
<event>
 5    1  0.1264859E-009  0.9118800E+02  0.7815553E-02  0.1125453E+00
         25   -1    0    0    0    0  0.00000000000E+00  0.00000000000E+00  0.99999998245E-14  0.12509000000E+03  0.12509000000E+03 0.  0.
        -13    1    3    3    0    0  0.14755380485E+02  0.30207119992E+02  0.10504521294E+02  0.35221406603E+02  0.10566000000E+00 0. -1.
         23    2    1    0    0    0  0.85778561897E+01 -0.23838340410E+02 -0.15368385182E+02  0.95458372414E+02  0.90742864791E+02 0.  0.
         13    1    3    3    0    0 -0.61775242956E+01 -0.54045460402E+02 -0.25872906476E+02  0.60236965810E+02  0.10566000000E+00 0.  1.
         22    1    1    0    0    0 -0.85778561897E+01  0.23838340410E+02  0.15368385182E+02  0.29631627586E+02  0.00000000000E+00 0.  1.
</event>
<event>
 5    1  0.1264859E-009  0.9118800E+02  0.7815553E-02  0.1125453E+00
         25   -1    0    0    0    0  0.00000000000E+00  0.00000000000E+00  0.99999998245E-14  0.12509000000E+03  0.12509000000E+03 0.  0.
        -13    1    3    3    0    0  0.16960154155E+02  0.43945817161E+01 -0.53492105616E+02  0.56288326541E+02  0.10566000000E+00 0.  1.
         23    2    1    0    0    0  0.23568223227E+02 -0.70116998768E+01 -0.16712613387E+02  0.95358929931E+02  0.90605678576E+02 0.  0.
         13    1    3    3    0    0  0.66080690712E+01 -0.11406281593E+02  0.36779492229E+02  0.39070603390E+02  0.10566000000E+00 0. -1.
         22    1    1    0    0    0 -0.23568223227E+02  0.70116998768E+01  0.16712613387E+02  0.29731070069E+02  0.00000000000E+00 0.  1.
</event>
<event>
 5    1  0.1264859E-009  0.9118800E+02  0.7815553E-02  0.1125453E+00
         25   -1    0    0    0    0  0.00000000000E+00  0.00000000000E+00  0.99999998245E-14  0.12509000000E+03  0.12509000000E+03 0.  0.
        -13    1    3    3    0    0  0.37977475181E+02  0.22827808094E+01  0.70312166241E+01  0.38690423629E+02  0.10566000000E+00 0. -1.
         23    2    1    0    0    0 -0.19387650294E+02 -0.44708703772E+01 -0.14644657982E+02  0.10038502736E+03  0.97297574709E+02 0.  0.
         13    1    3    3    0    0 -0.57365125475E+02 -0.67536511866E+01 -0.21675874606E+02  0.61694603728E+02  0.10566000000E+00 0.  1.
         22    1    1    0    0    0  0.19387650294E+02  0.44708703772E+01  0.14644657982E+02  0.24704972643E+02  0.00000000000E+00 0.  1.
</event>
<event>
 5    1  0.1264859E-009  0.9118800E+02  0.7815553E-02  0.1125453E+00
         25   -1    0    0    0    0  0.00000000000E+00  0.00000000000E+00  0.99999998245E-14  0.12509000000E+03  0.12509000000E+03 0.  0.
        -13    1    3    3    0    0 -0.31485912805E+02 -0.90805913148E+01  0.21969704585E+02  0.39452489495E+02  0.10566000000E+00 0. -1.
         23    2    1    0    0    0  0.13512168548E+01 -0.15552714500E+02 -0.24087395553E+02  0.96386074487E+02  0.92012825275E+02 0.  0.
         13    1    3    3    0    0  0.32837129660E+02 -0.64721231852E+01 -0.46057100138E+02  0.56933584992E+02  0.10566000000E+00 0.  1.
         22    1    1    0    0    0 -0.13512168548E+01  0.15552714500E+02  0.24087395553E+02  0.28703925513E+02  0.00000000000E+00 0.  1.
</event>
<event>
 5    1  0.1264859E-009  0.9118800E+02  0.7815553E-02  0.1125453E+00
         25   -1    0    0    0    0  0.00000000000E+00  0.00000000000E+00  0.99999998245E-14  0.12509000000E+03  0.12509000000E+03 0.  0.
        -13    1    3    3    0    0  0.74266182765E+01  0.40169314832E+02 -0.15212396035E+02  0.43590786530E+02  0.10566000000E+00 0.  1.
         23    2    1    0    0    0  0.25209470593E+02  0.49771595266E+01  0.16808127943E+02  0.94384907759E+02  0.89250815813E+02 0.  0.
         13    1    3    3    0    0  0.17782852317E+02 -0.35192155306E+02  0.32020523979E+02  0.50794121230E+02  0.10566000000E+00 0. -1.
         22    1    1    0    0    0 -0.25209470593E+02 -0.49771595266E+01 -0.16808127943E+02  0.30705092241E+02  0.00000000000E+00 0.  1.
</event>
<event>
 5    1  0.1264859E-009  0.9118800E+02  0.7815553E-02  0.1125453E+00
         25   -1    0    0    0    0  0.00000000000E+00  0.00000000000E+00  0.99999998245E-14  0.12509000000E+03  0.12509000000E+03 0.  0.
        -13    1    3    3    0    0 -0.95583045564E+01  0.58146593174E+02  0.23499776664E+01  0.58973901370E+02  0.10566000000E+00 0. -1.
         23    2    1    0    0    0 -0.14091536231E+02  0.35090073975E+02  0.13441481466E+02  0.84958240646E+02  0.74882204460E+02 0.  0.
         13    1    3    3    0    0 -0.45332316743E+01 -0.23056519200E+02  0.11091503799E+02  0.25984339275E+02  0.10566000000E+00 0.  1.
         22    1    1    0    0    0  0.14091536231E+02 -0.35090073975E+02 -0.13441481466E+02  0.40131759354E+02  0.00000000000E+00 0. -1.
</event>
<event>
 5    1  0.1264859E-009  0.9118800E+02  0.7815553E-02  0.1125453E+00
         25   -1    0    0    0    0  0.00000000000E+00  0.00000000000E+00  0.99999998245E-14  0.12509000000E+03  0.12509000000E+03 0.  0.
        -13    1    3    3    0    0 -0.47976905808E+00  0.33951980384E+02  0.20960707689E+02  0.39904004576E+02  0.10566000000E+00 0.  1.
         23    2    1    0    0    0 -0.22417950963E+02 -0.16122068363E+02  0.37186823403E+01  0.97227584239E+02  0.93149819780E+02 0.  0.
         13    1    3    3    0    0 -0.21938181904E+02 -0.50074048748E+02 -0.17242025348E+02  0.57323579663E+02  0.10566000000E+00 0. -1.
         22    1    1    0    0    0  0.22417950963E+02  0.16122068363E+02 -0.37186823403E+01  0.27862415761E+02  0.00000000000E+00 0. -1.
</event>
<event>
 5    1  0.1264859E-009  0.9118800E+02  0.7815553E-02  0.1125453E+00
         25   -1    0    0    0    0  0.00000000000E+00  0.00000000000E+00  0.99999998245E-14  0.12509000000E+03  0.12509000000E+03 0.  0.
        -13    1    3    3    0    0  0.35479684224E+01 -0.34234606134E+02  0.12009432390E+02  0.36453174998E+02  0.10566000000E+00 0.  1.
         23    2    1    0    0    0  0.11641313265E+02  0.16014216662E+02  0.28882110477E+02  0.90073552216E+02  0.82988512418E+02 0.  0.
         13    1    3    3    0    0  0.80933448422E+01  0.50248822796E+02  0.16872678086E+02  0.53620377218E+02  0.10566000000E+00 0. -1.
         22    1    1    0    0    0 -0.11641313265E+02 -0.16014216662E+02 -0.28882110477E+02  0.35016447784E+02  0.00000000000E+00 0. -1.
</event>
<event>
 5    1  0.1264859E-009  0.9118800E+02  0.7815553E-02  0.1125453E+00
         25   -1    0    0    0    0  0.00000000000E+00  0.00000000000E+00  0.99999998245E-14  0.12509000000E+03  0.12509000000E+03 0.  0.
        -13    1    3    3    0    0 -0.51439109743E+01  0.36637176694E+02 -0.36216876813E+02  0.51772732846E+02  0.10566000000E+00 0. -1.
         23    2    1    0    0    0 -0.24170196295E+02  0.25514058477E+01 -0.17972225870E+02  0.94862380784E+02  0.89917530685E+02 0.  0.
         13    1    3    3    0    0 -0.19026285321E+02 -0.34085770847E+02  0.18244650942E+02  0.43089647938E+02  0.10566000000E+00 0.  1.
         22    1    1    0    0    0  0.24170196295E+02 -0.25514058477E+01  0.17972225870E+02  0.30227619216E+02  0.00000000000E+00 0.  1.
</event>
<event>
 5    1  0.1264859E-009  0.9118800E+02  0.7815553E-02  0.1125453E+00
         25   -1    0    0    0    0  0.00000000000E+00  0.00000000000E+00  0.99999998245E-14  0.12509000000E+03  0.12509000000E+03 0.  0.
        -13    1    3    3    0    0 -0.22986850959E+02 -0.13451991090E+02  0.49753579510E+02  0.56433865891E+02  0.10566000000E+00 0. -1.
         23    2    1    0    0    0  0.81326334295E+01 -0.27170907042E+01  0.27789440502E+02  0.96007783581E+02  0.91497099388E+02 0.  0.
         13    1    3    3    0    0  0.31119484389E+02  0.10734900386E+02 -0.21964139008E+02  0.39573917690E+02  0.10566000000E+00 0.  1.
         22    1    1    0    0    0 -0.81326334295E+01  0.27170907042E+01 -0.27789440502E+02  0.29082216419E+02  0.00000000000E+00 0. -1.
</event>
<event>
 5    1  0.1264859E-009  0.9118800E+02  0.7815553E-02  0.1125453E+00
         25   -1    0    0    0    0  0.00000000000E+00  0.00000000000E+00  0.99999998245E-14  0.12509000000E+03  0.12509000000E+03 0.  0.
        -13    1    3    3    0    0 -0.14653700566E+02 -0.27584460870E+02 -0.14087512884E+02  0.34265180651E+02  0.10566000000E+00 0. -1.
         23    2    1    0    0    0  0.58481105938E+01  0.28966015493E+02 -0.56069764590E+01  0.95012290046E+02  0.90125837714E+02 0.  0.
         13    1    3    3    0    0  0.20501811160E+02  0.56550476363E+02  0.84805364251E+01  0.60747109395E+02  0.10566000000E+00 0.  1.
         22    1    1    0    0    0 -0.58481105938E+01 -0.28966015493E+02  0.56069764590E+01  0.30077709954E+02  0.00000000000E+00 0.  1.
</event>
<event>
 5    1  0.1264859E-009  0.9118800E+02  0.7815553E-02  0.1125453E+00
         25   -1    0    0    0    0  0.00000000000E+00  0.00000000000E+00  0.99999998245E-14  0.12509000000E+03  0.12509000000E+03 0.  0.
        -13    1    3    3    0    0 -0.43921743263E+02  0.12694054177E+01  0.37551534922E+02  0.57800171802E+02  0.10566000000E+00 0. -1.
         23    2    1    0    0    0 -0.83953921475E+01 -0.40694753665E+01  0.28856380194E+02  0.94762884790E+02  0.89779008776E+02 0.  0.
         13    1    3    3    0    0  0.35526351116E+02 -0.53388807842E+01 -0.86951547279E+01  0.36962712987E+02  0.10566000000E+00 0.  1.
         22    1    1    0    0    0  0.83953921475E+01  0.40694753665E+01 -0.28856380194E+02  0.30327115210E+02  0.00000000000E+00 0. -1.
</event>
<event>
 5    1  0.1264859E-009  0.9118800E+02  0.7815553E-02  0.1125453E+00
         25   -1    0    0    0    0  0.00000000000E+00  0.00000000000E+00  0.99999998245E-14  0.12509000000E+03  0.12509000000E+03 0.  0.
        -13    1    3    3    0    0 -0.27539160807E+02 -0.55612574156E+01 -0.36609637619E+02  0.46147694337E+02  0.10566000000E+00 0. -1.
         23    2    1    0    0    0  0.17267725458E+02 -0.12924343978E+02 -0.23016984491E+02  0.93546465245E+02  0.88067852109E+02 0.  0.
         13    1    3    3    0    0  0.44806886265E+02 -0.73630865626E+01  0.13592653128E+02  0.47398770908E+02  0.10566000000E+00 0.  1.
         22    1    1    0    0    0 -0.17267725458E+02  0.12924343978E+02  0.23016984491E+02  0.31543534755E+02  0.00000000000E+00 0.  1.
</event>
<event>
 5    1  0.1264859E-009  0.9118800E+02  0.7815553E-02  0.1125453E+00
         25   -1    0    0    0    0  0.00000000000E+00  0.00000000000E+00  0.99999998245E-14  0.12509000000E+03  0.12509000000E+03 0.  0.
        -13    1    3    3    0    0 -0.39064952255E+02  0.45671197019E+02  0.41664105504E+00  0.60100860940E+02  0.10566000000E+00 0.  1.
         23    2    1    0    0    0 -0.18690681201E+02  0.26162945569E+02  0.12238764809E+02  0.90686095445E+02  0.83906729518E+02 0.  0.
         13    1    3    3    0    0  0.20374271054E+02 -0.19508251451E+02  0.11822123754E+02  0.30585234505E+02  0.10566000000E+00 0. -1.
         22    1    1    0    0    0  0.18690681201E+02 -0.26162945569E+02 -0.12238764809E+02  0.34403904555E+02  0.00000000000E+00 0.  1.
</event>
<event>
 5    1  0.1264859E-009  0.9118800E+02  0.7815553E-02  0.1125453E+00
         25   -1    0    0    0    0  0.00000000000E+00  0.00000000000E+00  0.99999998245E-14  0.12509000000E+03  0.12509000000E+03 0.  0.
        -13    1    3    3    0    0 -0.38803550833E+02  0.39943642157E+02  0.10329784718E+02  0.56638553321E+02  0.10566000000E+00 0. -1.
         23    2    1    0    0    0 -0.10453728699E+02  0.21986666847E+02  0.22108448696E+02  0.92204175296E+02  0.86140190826E+02 0.  0.
         13    1    3    3    0    0  0.28349822134E+02 -0.17956975310E+02  0.11778663978E+02  0.35565621975E+02  0.10566000000E+00 0.  1.
         22    1    1    0    0    0  0.10453728699E+02 -0.21986666847E+02 -0.22108448696E+02  0.32885824704E+02  0.00000000000E+00 0. -1.
</event>
<event>
 5    1  0.1264859E-009  0.9118800E+02  0.7815553E-02  0.1125453E+00
         25   -1    0    0    0    0  0.00000000000E+00  0.00000000000E+00  0.99999998245E-14  0.12509000000E+03  0.12509000000E+03 0.  0.
        -13    1    3    3    0    0 -0.27414294928E+02  0.27456640316E+02  0.26308696137E+01  0.38888858338E+02  0.10566000000E+00 0.  1.
         23    2    1    0    0    0  0.20913101497E+02  0.10665016805E+02 -0.19442128895E+02  0.94608911214E+02  0.89564218901E+02 0.  0.
         13    1    3    3    0    0  0.48327396425E+02 -0.16791623511E+02 -0.22072998508E+02  0.55720052876E+02  0.10566000000E+00 0. -1.
         22    1    1    0    0    0 -0.20913101497E+02 -0.10665016805E+02  0.19442128895E+02  0.30481088786E+02  0.00000000000E+00 0. -1.
</event>
<event>
 5    1  0.1264859E-009  0.9118800E+02  0.7815553E-02  0.1125453E+00
         25   -1    0    0    0    0  0.00000000000E+00  0.00000000000E+00  0.99999998245E-14  0.12509000000E+03  0.12509000000E+03 0.  0.
        -13    1    3    3    0    0  0.92965227642E+01 -0.42637633432E+01  0.61061932154E+02  0.61912646008E+02  0.10566000000E+00 0.  1.
         23    2    1    0    0    0  0.10526293005E+02 -0.29163852848E+01  0.27852941669E+02  0.95171869925E+02  0.90347054838E+02 0.  0.
         13    1    3    3    0    0  0.12297702410E+01  0.13473780585E+01 -0.33208990485E+02  0.33259223917E+02  0.10566000000E+00 0. -1.
         22    1    1    0    0    0 -0.10526293005E+02  0.29163852848E+01 -0.27852941669E+02  0.29918130075E+02  0.00000000000E+00 0.  1.
</event>
<event>
 5    1  0.1264859E-009  0.9118800E+02  0.7815553E-02  0.1125453E+00
         25   -1    0    0    0    0  0.00000000000E+00  0.00000000000E+00  0.99999998245E-14  0.12509000000E+03  0.12509000000E+03 0.  0.
        -13    1    3    3    0    0 -0.56173758272E+01 -0.28739719969E+02  0.22026913524E+02  0.36643178062E+02  0.10566000000E+00 0.  1.
         23    2    1    0    0    0 -0.19341236083E+02  0.16895302242E+02 -0.13494019754E+02  0.96079256814E+02  0.91594761694E+02 0.  0.
         13    1    3    3    0    0 -0.13723860256E+02  0.45635022211E+02 -0.35520933278E+02  0.59436078752E+02  0.10566000000E+00 0. -1.
         22    1    1    0    0    0  0.19341236083E+02 -0.16895302242E+02  0.13494019754E+02  0.29010743186E+02  0.00000000000E+00 0. -1.
</event>
<event>
 5    1  0.1264859E-009  0.9118800E+02  0.7815553E-02  0.1125453E+00
         25   -1    0    0    0    0  0.00000000000E+00  0.00000000000E+00  0.99999998245E-14  0.12509000000E+03  0.12509000000E+03 0.  0.
        -13    1    3    3    0    0  0.18786264350E+02 -0.10637712379E+02 -0.14641168781E+02  0.26085621331E+02  0.10566000000E+00 0. -1.
         23    2    1    0    0    0 -0.12342466449E+02  0.37442669704E+02 -0.13641860191E+02  0.83372014166E+02  0.72183809847E+02 0.  0.
         13    1    3    3    0    0 -0.31128730799E+02  0.48080382083E+02  0.99930859072E+00  0.57286392835E+02  0.10566000000E+00 0.  1.
         22    1    1    0    0    0  0.12342466449E+02 -0.37442669704E+02  0.13641860191E+02  0.41717985834E+02  0.00000000000E+00 0.  1.
</event>
<event>
 5    1  0.1264859E-009  0.9118800E+02  0.7815553E-02  0.1125453E+00
         25   -1    0    0    0    0  0.00000000000E+00  0.00000000000E+00  0.99999998245E-14  0.12509000000E+03  0.12509000000E+03 0.  0.
        -13    1    3    3    0    0  0.19193809847E+02 -0.51987691267E+02 -0.22858447225E+02  0.59946994531E+02  0.10566000000E+00 0. -1.
         23    2    1    0    0    0 -0.14474728951E+01 -0.21966149280E+02 -0.17902567539E+02  0.96715560509E+02  0.92459671361E+02 0.  0.
         13    1    3    3    0    0 -0.20641282742E+02  0.30021541987E+02  0.49558796862E+01  0.36768565978E+02  0.10566000000E+00 0.  1.
         22    1    1    0    0    0  0.14474728951E+01  0.21966149280E+02  0.17902567539E+02  0.28374439491E+02  0.00000000000E+00 0. -1.
</event>
<event>
 5    1  0.1264859E-009  0.9118800E+02  0.7815553E-02  0.1125453E+00
         25   -1    0    0    0    0  0.00000000000E+00  0.00000000000E+00  0.99999998245E-14  0.12509000000E+03  0.12509000000E+03 0.  0.
        -13    1    3    3    0    0  0.59793244614E+01  0.50495022308E+02  0.17194344322E+02  0.53676403006E+02  0.10566000000E+00 0. -1.
         23    2    1    0    0    0 -0.60896928851E+01  0.27279260494E+02 -0.13533411784E+02  0.94035279794E+02  0.88759440055E+02 0.  0.
         13    1    3    3    0    0 -0.12069017346E+02 -0.23215761814E+02 -0.30727756106E+02  0.40358876789E+02  0.10566000000E+00 0.  1.
         22    1    1    0    0    0  0.60896928851E+01 -0.27279260494E+02  0.13533411784E+02  0.31054720206E+02  0.00000000000E+00 0. -1.
</event>
<event>
 5    1  0.1264859E-009  0.9118800E+02  0.7815553E-02  0.1125453E+00
         25   -1    0    0    0    0  0.00000000000E+00  0.00000000000E+00  0.99999998245E-14  0.12509000000E+03  0.12509000000E+03 0.  0.
        -13    1    3    3    0    0  0.11692950740E+02  0.13392726916E+02  0.34119435656E+02  0.38473851962E+02  0.10566000000E+00 0. -1.
         23    2    1    0    0    0 -0.52751815929E+01  0.20701792750E+02 -0.20101636202E+02  0.95756272962E+02  0.91152598810E+02 0.  0.
         13    1    3    3    0    0 -0.16968132333E+02  0.73090658342E+01 -0.54221071858E+02  0.57282421001E+02  0.10566000000E+00 0.  1.
         22    1    1    0    0    0  0.52751815929E+01 -0.20701792750E+02  0.20101636202E+02  0.29333727038E+02  0.00000000000E+00 0.  1.
</event>
<event>
 5    1  0.1264859E-009  0.9118800E+02  0.7815553E-02  0.1125453E+00
         25   -1    0    0    0    0  0.00000000000E+00  0.00000000000E+00  0.99999998245E-14  0.12509000000E+03  0.12509000000E+03 0.  0.
        -13    1    3    3    0    0 -0.21223653377E+02  0.34304349163E+02  0.45303399740E+01  0.40592696123E+02  0.10566000000E+00 0. -1.
         23    2    1    0    0    0  0.11468889479E+02  0.14007048125E+01 -0.26351626180E+02  0.96316651183E+02  0.91918396923E+02 0.  0.
         13    1    3    3    0    0  0.32692542856E+02 -0.32903644351E+02 -0.30881966154E+02  0.55723955060E+02  0.10566000000E+00 0.  1.
         22    1    1    0    0    0 -0.11468889479E+02 -0.14007048125E+01  0.26351626180E+02  0.28773348817E+02  0.00000000000E+00 0.  1.
</event>
<event>
 5    1  0.1264859E-009  0.9118800E+02  0.7815553E-02  0.1125453E+00
         25   -1    0    0    0    0  0.00000000000E+00  0.00000000000E+00  0.99999998245E-14  0.12509000000E+03  0.12509000000E+03 0.  0.
        -13    1    3    3    0    0  0.18984026311E+02 -0.13428405318E+02 -0.23632108019E+02  0.33154230768E+02  0.10566000000E+00 0. -1.
         23    2    1    0    0    0  0.12356801562E+01  0.28525183856E+02  0.14958957269E+02  0.92856734233E+02  0.87082659986E+02 0.  0.
         13    1    3    3    0    0 -0.17748346154E+02  0.41953589174E+02  0.38591065289E+02  0.59702503465E+02  0.10566000000E+00 0.  1.
         22    1    1    0    0    0 -0.12356801562E+01 -0.28525183856E+02 -0.14958957269E+02  0.32233265767E+02  0.00000000000E+00 0.  1.
</event>
<event>
 5    1  0.1264859E-009  0.9118800E+02  0.7815553E-02  0.1125453E+00
         25   -1    0    0    0    0  0.00000000000E+00  0.00000000000E+00  0.99999998245E-14  0.12509000000E+03  0.12509000000E+03 0.  0.
        -13    1    3    3    0    0 -0.47575065279E+01 -0.25543678633E+02  0.26280562543E+02  0.36956630232E+02  0.10566000000E+00 0. -1.
         23    2    1    0    0    0 -0.12351369673E+02  0.26475441604E+02 -0.31877078574E+00  0.95873447230E+02  0.91313257132E+02 0.  0.
         13    1    3    3    0    0 -0.75938631448E+01  0.52019120237E+02 -0.26599333329E+02  0.58916816999E+02  0.10566000000E+00 0.  1.
         22    1    1    0    0    0  0.12351369673E+02 -0.26475441604E+02  0.31877078574E+00  0.29216552770E+02  0.00000000000E+00 0.  1.
</event>
<event>
 5    1  0.1264859E-009  0.9118800E+02  0.7815553E-02  0.1125453E+00
         25   -1    0    0    0    0  0.00000000000E+00  0.00000000000E+00  0.99999998245E-14  0.12509000000E+03  0.12509000000E+03 0.  0.
        -13    1    3    3    0    0 -0.39734208962E+02 -0.38856125151E+02 -0.53412726318E+01  0.55831408552E+02  0.10566000000E+00 0.  1.
         23    2    1    0    0    0 -0.16672738203E+01 -0.27783927232E+02  0.50185449690E+01  0.96807280752E+02  0.92583677820E+02 0.  0.
         13    1    3    3    0    0  0.38066935141E+02  0.11072197919E+02  0.10359817601E+02  0.40975872200E+02  0.10566000000E+00 0. -1.
         22    1    1    0    0    0  0.16672738203E+01  0.27783927232E+02 -0.50185449690E+01  0.28282719248E+02  0.00000000000E+00 0.  1.
</event>
<event>
 5    1  0.1264859E-009  0.9118800E+02  0.7815553E-02  0.1125453E+00
         25   -1    0    0    0    0  0.00000000000E+00  0.00000000000E+00  0.99999998245E-14  0.12509000000E+03  0.12509000000E+03 0.  0.
        -13    1    3    3    0    0  0.14706619888E+02  0.15025258180E+02  0.57197343705E+02  0.60939234840E+02  0.10566000000E+00 0.  1.
         23    2    1    0    0    0  0.15537846705E+02  0.10910076218E+02  0.23585389434E+02  0.94812532502E+02  0.89848156806E+02 0.  0.
         13    1    3    3    0    0  0.83122681709E+00 -0.41151819613E+01 -0.33611954271E+02  0.33873297663E+02  0.10566000000E+00 0. -1.
         22    1    1    0    0    0 -0.15537846705E+02 -0.10910076218E+02 -0.23585389434E+02  0.30277467498E+02  0.00000000000E+00 0.  1.
</event>
<event>
 5    1  0.1264859E-009  0.9118800E+02  0.7815553E-02  0.1125453E+00
         25   -1    0    0    0    0  0.00000000000E+00  0.00000000000E+00  0.99999998245E-14  0.12509000000E+03  0.12509000000E+03 0.  0.
        -13    1    3    3    0    0  0.21771979934E+02  0.12332372971E+01  0.29443529525E+02  0.36639767731E+02  0.10566000000E+00 0.  1.
         23    2    1    0    0    0 -0.15288280754E+02  0.20028045004E+02 -0.13590966448E+02  0.96461893459E+02  0.92115842316E+02 0.  0.
         13    1    3    3    0    0 -0.37060260688E+02  0.18794807707E+02 -0.43034495973E+02  0.59822125728E+02  0.10566000000E+00 0. -1.
         22    1    1    0    0    0  0.15288280754E+02 -0.20028045004E+02  0.13590966448E+02  0.28628106541E+02  0.00000000000E+00 0. -1.
</event>
<event>
 5    1  0.1264859E-009  0.9118800E+02  0.7815553E-02  0.1125453E+00
         25   -1    0    0    0    0  0.00000000000E+00  0.00000000000E+00  0.99999998245E-14  0.12509000000E+03  0.12509000000E+03 0.  0.
        -13    1    3    3    0    0 -0.20196842250E+01 -0.46702032493E+02 -0.26354337404E+02  0.53663034086E+02  0.10566000000E+00 0. -1.
         23    2    1    0    0    0 -0.99865884826E+01 -0.54538573895E+01 -0.27118885359E+02  0.95680640044E+02  0.91048747526E+02 0.  0.
         13    1    3    3    0    0 -0.79669042576E+01  0.41248175103E+02 -0.76454795433E+00  0.42017605957E+02  0.10566000000E+00 0.  1.
         22    1    1    0    0    0  0.99865884826E+01  0.54538573895E+01  0.27118885359E+02  0.29409359956E+02  0.00000000000E+00 0.  1.
</event>
<event>
 5    1  0.1264859E-009  0.9118800E+02  0.7815553E-02  0.1125453E+00
         25   -1    0    0    0    0  0.00000000000E+00  0.00000000000E+00  0.99999998245E-14  0.12509000000E+03  0.12509000000E+03 0.  0.
        -13    1    3    3    0    0  0.32613819476E+01 -0.31907299731E+02 -0.36405085599E+02  0.48518592414E+02  0.10566000000E+00 0. -1.
         23    2    1    0    0    0 -0.94392346394E+01 -0.27599793966E+02  0.79498095317E+01  0.94856785664E+02  0.89909746620E+02 0.  0.
         13    1    3    3    0    0 -0.12700616587E+02  0.43075057656E+01  0.44354895130E+02  0.46338193250E+02  0.10566000000E+00 0.  1.
         22    1    1    0    0    0  0.94392346394E+01  0.27599793966E+02 -0.79498095317E+01  0.30233214336E+02  0.00000000000E+00 0. -1.
</event>
<event>
 5    1  0.1264859E-009  0.9118800E+02  0.7815553E-02  0.1125453E+00
         25   -1    0    0    0    0  0.00000000000E+00  0.00000000000E+00  0.99999998245E-14  0.12509000000E+03  0.12509000000E+03 0.  0.
        -13    1    3    3    0    0  0.36176674711E+02 -0.23611242507E+02 -0.44297174880E+02  0.61874820665E+02  0.10566000000E+00 0.  1.
         23    2    1    0    0    0  0.20100615875E+02 -0.54661323897E+01 -0.19404592821E+02  0.96621568634E+02  0.92332420855E+02 0.  0.
         13    1    3    3    0    0 -0.16076058836E+02  0.18145110118E+02  0.24892582059E+02  0.34746747970E+02  0.10566000000E+00 0. -1.
         22    1    1    0    0    0 -0.20100615875E+02  0.54661323897E+01  0.19404592821E+02  0.28468431366E+02  0.00000000000E+00 0.  1.
</event>
<event>
 5    1  0.1264859E-009  0.9118800E+02  0.7815553E-02  0.1125453E+00
         25   -1    0    0    0    0  0.00000000000E+00  0.00000000000E+00  0.99999998245E-14  0.12509000000E+03  0.12509000000E+03 0.  0.
        -13    1    3    3    0    0 -0.54030602166E+02 -0.19798681990E+01  0.18688605537E+02  0.57205777589E+02  0.10566000000E+00 0. -1.
         23    2    1    0    0    0 -0.22343144796E+02 -0.18386882131E+02  0.13110542838E+02  0.93322408222E+02  0.87749028422E+02 0.  0.
         13    1    3    3    0    0  0.31687457371E+02 -0.16407013932E+02 -0.55780626998E+01  0.36116630634E+02  0.10566000000E+00 0.  1.
         22    1    1    0    0    0  0.22343144796E+02  0.18386882131E+02 -0.13110542838E+02  0.31767591778E+02  0.00000000000E+00 0. -1.
</event>
<event>
 5    1  0.1264859E-009  0.9118800E+02  0.7815553E-02  0.1125453E+00
         25   -1    0    0    0    0  0.00000000000E+00  0.00000000000E+00  0.99999998245E-14  0.12509000000E+03  0.12509000000E+03 0.  0.
        -13    1    3    3    0    0  0.37862540791E+02 -0.14448291451E+02 -0.42445167709E+01  0.40747419644E+02  0.10566000000E+00 0.  1.
         23    2    1    0    0    0 -0.15932604820E+01 -0.18841238711E+02  0.27595404233E+02  0.91637988253E+02  0.85314030506E+02 0.  0.
         13    1    3    3    0    0 -0.39455801273E+02 -0.43929472599E+01  0.31839921004E+02  0.50890568609E+02  0.10566000000E+00 0. -1.
         22    1    1    0    0    0  0.15932604820E+01  0.18841238711E+02 -0.27595404233E+02  0.33452011747E+02  0.00000000000E+00 0.  1.
</event>
<event>
 5    1  0.1264859E-009  0.9118800E+02  0.7815553E-02  0.1125453E+00
         25   -1    0    0    0    0  0.00000000000E+00  0.00000000000E+00  0.99999998245E-14  0.12509000000E+03  0.12509000000E+03 0.  0.
        -13    1    3    3    0    0  0.18354892374E+02 -0.21546350455E+01 -0.37655188834E+02  0.41946024083E+02  0.10566000000E+00 0.  1.
         23    2    1    0    0    0  0.92958594815E+01 -0.26336642138E+02  0.94001605915E+01  0.95621461832E+02  0.90967407467E+02 0.  0.
         13    1    3    3    0    0 -0.90590328927E+01 -0.24182007092E+02  0.47055349425E+02  0.53675437749E+02  0.10566000000E+00 0. -1.
         22    1    1    0    0    0 -0.92958594815E+01  0.26336642138E+02 -0.94001605915E+01  0.29468538168E+02  0.00000000000E+00 0. -1.
</event>
<event>
 5    1  0.1264859E-009  0.9118800E+02  0.7815553E-02  0.1125453E+00
         25   -1    0    0    0    0  0.00000000000E+00  0.00000000000E+00  0.99999998245E-14  0.12509000000E+03  0.12509000000E+03 0.  0.
        -13    1    3    3    0    0  0.39888009125E+02 -0.72712407314E+01  0.52968115663E+01  0.40889993771E+02  0.10566000000E+00 0.  1.
         23    2    1    0    0    0  0.41009890192E+01  0.22482124351E+02 -0.20749141376E+02  0.94222688907E+02  0.89023166708E+02 0.  0.
         13    1    3    3    0    0 -0.35787020106E+02  0.29753365083E+02 -0.26045952942E+02  0.53332695136E+02  0.10566000000E+00 0. -1.
         22    1    1    0    0    0 -0.41009890192E+01 -0.22482124351E+02  0.20749141376E+02  0.30867311093E+02  0.00000000000E+00 0. -1.
</event>
<event>
 5    1  0.1264859E-009  0.9118800E+02  0.7815553E-02  0.1125453E+00
         25   -1    0    0    0    0  0.00000000000E+00  0.00000000000E+00  0.99999998245E-14  0.12509000000E+03  0.12509000000E+03 0.  0.
        -13    1    3    3    0    0 -0.14696984175E+02 -0.28792099516E+02 -0.45048121824E+02  0.55446648071E+02  0.10566000000E+00 0.  1.
         23    2    1    0    0    0  0.14520681637E+02 -0.14324651664E+02 -0.19548867328E+02  0.96837494725E+02  0.92624490985E+02 0.  0.
         13    1    3    3    0    0  0.29217665813E+02  0.14467447852E+02  0.25499254496E+02  0.41390846654E+02  0.10566000000E+00 0. -1.
         22    1    1    0    0    0 -0.14520681637E+02  0.14324651664E+02  0.19548867328E+02  0.28252505275E+02  0.00000000000E+00 0.  1.
</event>
<event>
 5    1  0.1264859E-009  0.9118800E+02  0.7815553E-02  0.1125453E+00
         25   -1    0    0    0    0  0.00000000000E+00  0.00000000000E+00  0.99999998245E-14  0.12509000000E+03  0.12509000000E+03 0.  0.
        -13    1    3    3    0    0  0.10076137329E+02 -0.20159105218E+02  0.37296953195E+02  0.43577424756E+02  0.10566000000E+00 0.  1.
         23    2    1    0    0    0  0.28758854755E+02 -0.62529057067E+01 -0.80694658138E+01  0.94573007437E+02  0.89514059793E+02 0.  0.
         13    1    3    3    0    0  0.18682717426E+02  0.13906199511E+02 -0.45366419009E+02  0.50995582681E+02  0.10566000000E+00 0. -1.
         22    1    1    0    0    0 -0.28758854755E+02  0.62529057067E+01  0.80694658138E+01  0.30516992563E+02  0.00000000000E+00 0.  1.
</event>
<event>
 5    1  0.1264859E-009  0.9118800E+02  0.7815553E-02  0.1125453E+00
         25   -1    0    0    0    0  0.00000000000E+00  0.00000000000E+00  0.99999998245E-14  0.12509000000E+03  0.12509000000E+03 0.  0.
        -13    1    3    3    0    0  0.36003293815E+02 -0.81810366933E+00  0.49215477195E+01  0.36347479351E+02  0.10566000000E+00 0.  1.
         23    2    1    0    0    0 -0.19711895920E+02  0.60554164687E+01 -0.18700201373E+02  0.97252535303E+02  0.93183320300E+02 0.  0.
         13    1    3    3    0    0 -0.55715189735E+02  0.68735201380E+01 -0.23621749093E+02  0.60905055952E+02  0.10566000000E+00 0. -1.
         22    1    1    0    0    0  0.19711895920E+02 -0.60554164687E+01  0.18700201373E+02  0.27837464697E+02  0.00000000000E+00 0. -1.
</event>
<event>
 5    1  0.1264859E-009  0.9118800E+02  0.7815553E-02  0.1125453E+00
         25   -1    0    0    0    0  0.00000000000E+00  0.00000000000E+00  0.99999998245E-14  0.12509000000E+03  0.12509000000E+03 0.  0.
        -13    1    3    3    0    0 -0.53982196318E+02 -0.53635470505E+01  0.20791890082E+02  0.58096118747E+02  0.10566000000E+00 0. -1.
         23    2    1    0    0    0 -0.26866099482E+02 -0.13787417653E+02 -0.24547890041E+01  0.94793033551E+02  0.89821005527E+02 0.  0.
         13    1    3    3    0    0  0.27116096836E+02 -0.84238706028E+01 -0.23246679086E+02  0.36696914804E+02  0.10566000000E+00 0.  1.
         22    1    1    0    0    0  0.26866099482E+02  0.13787417653E+02  0.24547890041E+01  0.30296966449E+02  0.00000000000E+00 0. -1.
</event>
<event>
 5    1  0.1264859E-009  0.9118800E+02  0.7815553E-02  0.1125453E+00
         25   -1    0    0    0    0  0.00000000000E+00  0.00000000000E+00  0.99999998245E-14  0.12509000000E+03  0.12509000000E+03 0.  0.
        -13    1    3    3    0    0  0.10049607501E+02  0.23308950663E+02 -0.32298758252E+01  0.25587986513E+02  0.10566000000E+00 0. -1.
         23    2    1    0    0    0 -0.13957703909E+02 -0.29372241011E+02 -0.21275436284E+02  0.86228833915E+02  0.76975460823E+02 0.  0.
         13    1    3    3    0    0 -0.24007311410E+02 -0.52681191674E+02 -0.18045560459E+02  0.60640847402E+02  0.10566000000E+00 0.  1.
         22    1    1    0    0    0  0.13957703909E+02  0.29372241011E+02  0.21275436284E+02  0.38861166085E+02  0.00000000000E+00 0.  1.
</event>
<event>
 5    1  0.1264859E-009  0.9118800E+02  0.7815553E-02  0.1125453E+00
         25   -1    0    0    0    0  0.00000000000E+00  0.00000000000E+00  0.99999998245E-14  0.12509000000E+03  0.12509000000E+03 0.  0.
        -13    1    3    3    0    0 -0.16443169004E+02  0.18765299258E+01  0.52912949938E+02  0.55440874873E+02  0.10566000000E+00 0.  1.
         23    2    1    0    0    0  0.65361841347E+01 -0.15098352937E+02  0.23069510366E+02  0.96754787401E+02  0.92512726757E+02 0.  0.
         13    1    3    3    0    0  0.22979353139E+02 -0.16974882863E+02 -0.29843439572E+02  0.41313912529E+02  0.10566000000E+00 0. -1.
         22    1    1    0    0    0 -0.65361841347E+01  0.15098352937E+02 -0.23069510366E+02  0.28335212599E+02  0.00000000000E+00 0.  1.
</event>
<event>
 5    1  0.1264859E-009  0.9118800E+02  0.7815553E-02  0.1125453E+00
         25   -1    0    0    0    0  0.00000000000E+00  0.00000000000E+00  0.99999998245E-14  0.12509000000E+03  0.12509000000E+03 0.  0.
        -13    1    3    3    0    0  0.22841900529E+02  0.12084628224E+01  0.27225250531E+02  0.35558940264E+02  0.10566000000E+00 0. -1.
         23    2    1    0    0    0 -0.34476061400E+01 -0.21763031203E+01 -0.27988722871E+02  0.96805889774E+02  0.92581798446E+02 0.  0.
         13    1    3    3    0    0 -0.26289506669E+02 -0.33847659427E+01 -0.55213973402E+02  0.61246949510E+02  0.10566000000E+00 0.  1.
         22    1    1    0    0    0  0.34476061400E+01  0.21763031203E+01  0.27988722871E+02  0.28284110226E+02  0.00000000000E+00 0.  1.
</event>
<event>
 5    1  0.1264859E-009  0.9118800E+02  0.7815553E-02  0.1125453E+00
         25   -1    0    0    0    0  0.00000000000E+00  0.00000000000E+00  0.99999998245E-14  0.12509000000E+03  0.12509000000E+03 0.  0.
        -13    1    3    3    0    0 -0.85335030504E+01 -0.15275794149E+01  0.38874922385E+02  0.39829950134E+02  0.10566000000E+00 0.  1.
         23    2    1    0    0    0 -0.85433789711E+01 -0.24371213893E+02 -0.12754102075E+02  0.96287005180E+02  0.91878043383E+02 0.  0.
         13    1    3    3    0    0 -0.98759206872E-02 -0.22843634478E+02 -0.51629024460E+02  0.56457055046E+02  0.10566000000E+00 0. -1.
         22    1    1    0    0    0  0.85433789711E+01  0.24371213893E+02  0.12754102075E+02  0.28802994820E+02  0.00000000000E+00 0. -1.
</event>
<event>
 5    1  0.1264859E-009  0.9118800E+02  0.7815553E-02  0.1125453E+00
         25   -1    0    0    0    0  0.00000000000E+00  0.00000000000E+00  0.99999998245E-14  0.12509000000E+03  0.12509000000E+03 0.  0.
        -13    1    3    3    0    0  0.12781324281E+02 -0.42087408677E+02  0.21617353009E+01  0.44038579485E+02  0.10566000000E+00 0. -1.
         23    2    1    0    0    0  0.14407973381E+02  0.16665119969E+02 -0.20531053015E+01  0.10296464889E+03  0.10055937429E+03 0.  0.
         13    1    3    3    0    0  0.16266491002E+01  0.58752528646E+02 -0.42148406024E+01  0.58926069400E+02  0.10566000000E+00 0.  1.
         22    1    1    0    0    0 -0.14407973381E+02 -0.16665119969E+02  0.20531053015E+01  0.22125351114E+02  0.00000000000E+00 0.  1.
</event>
<event>
 5    1  0.1264859E-009  0.9118800E+02  0.7815553E-02  0.1125453E+00
         25   -1    0    0    0    0  0.00000000000E+00  0.00000000000E+00  0.99999998245E-14  0.12509000000E+03  0.12509000000E+03 0.  0.
        -13    1    3    3    0    0  0.15313212645E+02  0.35516263560E+01  0.36851511141E+02  0.40064367818E+02  0.10566000000E+00 0.  1.
         23    2    1    0    0    0 -0.45160370143E+01 -0.24993392043E+02 -0.94771497083E+01  0.97981318684E+02  0.94156562216E+02 0.  0.
         13    1    3    3    0    0 -0.19829249660E+02 -0.28545018399E+02 -0.46328660849E+02  0.57916950865E+02  0.10566000000E+00 0. -1.
         22    1    1    0    0    0  0.45160370143E+01  0.24993392043E+02  0.94771497083E+01  0.27108681316E+02  0.00000000000E+00 0. -1.
</event>
<event>
 5    1  0.1264859E-009  0.9118800E+02  0.7815553E-02  0.1125453E+00
         25   -1    0    0    0    0  0.00000000000E+00  0.00000000000E+00  0.99999998245E-14  0.12509000000E+03  0.12509000000E+03 0.  0.
        -13    1    3    3    0    0  0.21385318242E+02 -0.32689368826E+02  0.30033045621E+01  0.39178535869E+02  0.10566000000E+00 0.  1.
         23    2    1    0    0    0  0.16384795623E+02  0.22423251959E+02  0.11245238403E+02  0.95128038402E+02  0.90286347514E+02 0.  0.
         13    1    3    3    0    0 -0.50005226189E+01  0.55112620785E+02  0.82419338410E+01  0.55949502533E+02  0.10566000000E+00 0. -1.
         22    1    1    0    0    0 -0.16384795623E+02 -0.22423251959E+02 -0.11245238403E+02  0.29961961598E+02  0.00000000000E+00 0. -1.
</event>
<event>
 5    1  0.1264859E-009  0.9118800E+02  0.7815553E-02  0.1125453E+00
         25   -1    0    0    0    0  0.00000000000E+00  0.00000000000E+00  0.99999998245E-14  0.12509000000E+03  0.12509000000E+03 0.  0.
        -13    1    3    3    0    0  0.30441280642E+01 -0.59074036134E+02  0.11433802449E+02  0.60247418727E+02  0.10566000000E+00 0.  1.
         23    2    1    0    0    0 -0.80841332508E+01 -0.26871894980E+02  0.12580045641E+02  0.94337609872E+02  0.89184500547E+02 0.  0.
         13    1    3    3    0    0 -0.11128261315E+02  0.32202141154E+02  0.11462431924E+01  0.34090191145E+02  0.10566000000E+00 0. -1.
         22    1    1    0    0    0  0.80841332508E+01  0.26871894980E+02 -0.12580045641E+02  0.30752390128E+02  0.00000000000E+00 0.  1.
</event>
<event>
 5    1  0.1264859E-009  0.9118800E+02  0.7815553E-02  0.1125453E+00
         25   -1    0    0    0    0  0.00000000000E+00  0.00000000000E+00  0.99999998245E-14  0.12509000000E+03  0.12509000000E+03 0.  0.
        -13    1    3    3    0    0 -0.38559437942E+02 -0.13510208409E+02  0.15176807785E+02  0.43585578397E+02  0.10566000000E+00 0. -1.
         23    2    1    0    0    0  0.87188389960E+01 -0.28876561568E+02  0.85452930504E+01  0.93738827857E+02  0.88340657985E+02 0.  0.
         13    1    3    3    0    0  0.47278276938E+02 -0.15366353159E+02 -0.66315147341E+01  0.50153249459E+02  0.10566000000E+00 0.  1.
         22    1    1    0    0    0 -0.87188389960E+01  0.28876561568E+02 -0.85452930504E+01  0.31351172143E+02  0.00000000000E+00 0.  1.
</event>
<event>
 5    1  0.1264859E-009  0.9118800E+02  0.7815553E-02  0.1125453E+00
         25   -1    0    0    0    0  0.00000000000E+00  0.00000000000E+00  0.99999998245E-14  0.12509000000E+03  0.12509000000E+03 0.  0.
        -13    1    3    3    0    0 -0.38112659276E+02  0.38055165496E+02  0.22146294579E+02  0.58234353655E+02  0.10566000000E+00 0. -1.
         23    2    1    0    0    0 -0.75299384324E+01  0.17759675682E+02  0.23154908541E+02  0.94952716733E+02  0.90043115074E+02 0.  0.
         13    1    3    3    0    0  0.30582720844E+02 -0.20295489813E+02  0.10086139627E+01  0.36718363078E+02  0.10566000000E+00 0.  1.
         22    1    1    0    0    0  0.75299384324E+01 -0.17759675682E+02 -0.23154908541E+02  0.30137283267E+02  0.00000000000E+00 0. -1.
</event>
<event>
 5    1  0.1264859E-009  0.9118800E+02  0.7815553E-02  0.1125453E+00
         25   -1    0    0    0    0  0.00000000000E+00  0.00000000000E+00  0.99999998245E-14  0.12509000000E+03  0.12509000000E+03 0.  0.
        -13    1    3    3    0    0 -0.13804281272E+01 -0.26248612479E+02 -0.29755289382E+02  0.39702438831E+02  0.10566000000E+00 0.  1.
         23    2    1    0    0    0  0.35435282921E+01 -0.15031954825E+02  0.24941405699E+02  0.95754186106E+02  0.91149734942E+02 0.  0.
         13    1    3    3    0    0  0.49239564193E+01  0.11216657654E+02  0.54696695081E+02  0.56051747275E+02  0.10566000000E+00 0. -1.
         22    1    1    0    0    0 -0.35435282921E+01  0.15031954825E+02 -0.24941405699E+02  0.29335813894E+02  0.00000000000E+00 0. -1.
</event>
<event>
 5    1  0.1264859E-009  0.9118800E+02  0.7815553E-02  0.1125453E+00
         25   -1    0    0    0    0  0.00000000000E+00  0.00000000000E+00  0.99999998245E-14  0.12509000000E+03  0.12509000000E+03 0.  0.
        -13    1    3    3    0    0  0.46256123687E+01 -0.29288395451E+02 -0.27377595514E+02  0.40357778657E+02  0.10566000000E+00 0.  1.
         23    2    1    0    0    0  0.18506505242E+02  0.82053047831E+01  0.15953155338E+02  0.99315576086E+02  0.95912787079E+02 0.  0.
         13    1    3    3    0    0  0.13880892873E+02  0.37493700234E+02  0.43330750853E+02  0.58957797429E+02  0.10566000000E+00 0. -1.
         22    1    1    0    0    0 -0.18506505242E+02 -0.82053047831E+01 -0.15953155338E+02  0.25774423914E+02  0.00000000000E+00 0. -1.
</event>
<event>
 5    1  0.1264859E-009  0.9118800E+02  0.7815553E-02  0.1125453E+00
         25   -1    0    0    0    0  0.00000000000E+00  0.00000000000E+00  0.99999998245E-14  0.12509000000E+03  0.12509000000E+03 0.  0.
        -13    1    3    3    0    0  0.30424446771E+02  0.81779327967E+01  0.18227916191E+02  0.36397714747E+02  0.10566000000E+00 0.  1.
         23    2    1    0    0    0 -0.79262241381E+01  0.23767764072E+00 -0.27421438593E+02  0.96545003691E+02  0.92228633967E+02 0.  0.
         13    1    3    3    0    0 -0.38350670909E+02 -0.79402551560E+01 -0.45649354784E+02  0.60147288944E+02  0.10566000000E+00 0. -1.
         22    1    1    0    0    0  0.79262241381E+01 -0.23767764072E+00  0.27421438593E+02  0.28544996309E+02  0.00000000000E+00 0. -1.
</event>
<event>
 5    1  0.1264859E-009  0.9118800E+02  0.7815553E-02  0.1125453E+00
         25   -1    0    0    0    0  0.00000000000E+00  0.00000000000E+00  0.99999998245E-14  0.12509000000E+03  0.12509000000E+03 0.  0.
        -13    1    3    3    0    0 -0.24185805386E+02  0.45570586621E+02  0.23127545209E+02  0.56537828562E+02  0.10566000000E+00 0.  1.
         23    2    1    0    0    0  0.77591119218E+01  0.25566980815E+02  0.75138531918E+01  0.97335138884E+02  0.93294142077E+02 0.  0.
         13    1    3    3    0    0  0.31944917308E+02 -0.20003605806E+02 -0.15613692017E+02  0.40797310321E+02  0.10566000000E+00 0. -1.
         22    1    1    0    0    0 -0.77591119218E+01 -0.25566980815E+02 -0.75138531918E+01  0.27754861116E+02  0.00000000000E+00 0.  1.
</event>
<event>
 5    1  0.1264859E-009  0.9118800E+02  0.7815553E-02  0.1125453E+00
         25   -1    0    0    0    0  0.00000000000E+00  0.00000000000E+00  0.99999998245E-14  0.12509000000E+03  0.12509000000E+03 0.  0.
        -13    1    3    3    0    0  0.60404200055E+02 -0.55898708102E+01 -0.11202586511E+02  0.61688111890E+02  0.10566000000E+00 0.  1.
         23    2    1    0    0    0  0.36295278167E+02  0.13207648634E+01 -0.10201148411E+01  0.88756375473E+02  0.80978774476E+02 0.  0.
         13    1    3    3    0    0 -0.24108921888E+02  0.69106356736E+01  0.10182471670E+02  0.27068263583E+02  0.10566000000E+00 0. -1.
         22    1    1    0    0    0 -0.36295278167E+02 -0.13207648634E+01  0.10201148411E+01  0.36333624527E+02  0.00000000000E+00 0.  1.
</event>
<event>
 5    1  0.1264859E-009  0.9118800E+02  0.7815553E-02  0.1125453E+00
         25   -1    0    0    0    0  0.00000000000E+00  0.00000000000E+00  0.99999998245E-14  0.12509000000E+03  0.12509000000E+03 0.  0.
        -13    1    3    3    0    0  0.21274333743E+02  0.10039301170E+02  0.17158667807E+02  0.29117278189E+02  0.10566000000E+00 0.  1.
         23    2    1    0    0    0 -0.28772804961E+02 -0.12824289820E+01 -0.17823884195E+02  0.91219514660E+02  0.84698229483E+02 0.  0.
         13    1    3    3    0    0 -0.50047138703E+02 -0.11321730152E+02 -0.34982552002E+02  0.62102236471E+02  0.10566000000E+00 0. -1.
         22    1    1    0    0    0  0.28772804961E+02  0.12824289820E+01  0.17823884195E+02  0.33870485340E+02  0.00000000000E+00 0. -1.
</event>
<event>
 5    1  0.1264859E-009  0.9118800E+02  0.7815553E-02  0.1125453E+00
         25   -1    0    0    0    0  0.00000000000E+00  0.00000000000E+00  0.99999998245E-14  0.12509000000E+03  0.12509000000E+03 0.  0.
        -13    1    3    3    0    0  0.52885275460E+02 -0.18429630990E+02 -0.12269874991E+02  0.57332928193E+02  0.10566000000E+00 0. -1.
         23    2    1    0    0    0  0.22442884804E+02 -0.12001477421E+02 -0.23537312369E+02  0.90424114577E+02  0.83515249415E+02 0.  0.
         13    1    3    3    0    0 -0.30442390656E+02  0.64281535684E+01 -0.11267437378E+02  0.33091186384E+02  0.10566000000E+00 0.  1.
         22    1    1    0    0    0 -0.22442884804E+02  0.12001477421E+02  0.23537312369E+02  0.34665885423E+02  0.00000000000E+00 0. -1.
</event>
<event>
 5    1  0.1264859E-009  0.9118800E+02  0.7815553E-02  0.1125453E+00
         25   -1    0    0    0    0  0.00000000000E+00  0.00000000000E+00  0.99999998245E-14  0.12509000000E+03  0.12509000000E+03 0.  0.
        -13    1    3    3    0    0  0.50815339390E+02  0.27187997874E+02 -0.87314656254E+01  0.58289240874E+02  0.10566000000E+00 0. -1.
         23    2    1    0    0    0  0.32281194177E+02  0.16211354735E+01  0.43632763617E+01  0.92474945833E+02  0.86532501689E+02 0.  0.
         13    1    3    3    0    0 -0.18534145213E+02 -0.25566862401E+02  0.13094741987E+02  0.34185704959E+02  0.10566000000E+00 0.  1.
         22    1    1    0    0    0 -0.32281194177E+02 -0.16211354735E+01 -0.43632763617E+01  0.32615054167E+02  0.00000000000E+00 0. -1.
</event>
<event>
 5    1  0.1264859E-009  0.9118800E+02  0.7815553E-02  0.1125453E+00
         25   -1    0    0    0    0  0.00000000000E+00  0.00000000000E+00  0.99999998245E-14  0.12509000000E+03  0.12509000000E+03 0.  0.
        -13    1    3    3    0    0  0.32285221212E+02 -0.12799459307E+02 -0.56476271549E+01  0.35186197916E+02  0.10566000000E+00 0.  1.
         23    2    1    0    0    0 -0.14969571714E+02  0.11401655035E+02  0.22887396793E+02  0.95460306333E+02  0.90745530680E+02 0.  0.
         13    1    3    3    0    0 -0.47254792926E+02  0.24201114342E+02  0.28535023948E+02  0.60274108418E+02  0.10566000000E+00 0. -1.
         22    1    1    0    0    0  0.14969571714E+02 -0.11401655035E+02 -0.22887396793E+02  0.29629693667E+02  0.00000000000E+00 0. -1.
</event>
<event>
 5    1  0.1264859E-009  0.9118800E+02  0.7815553E-02  0.1125453E+00
         25   -1    0    0    0    0  0.00000000000E+00  0.00000000000E+00  0.99999998245E-14  0.12509000000E+03  0.12509000000E+03 0.  0.
        -13    1    3    3    0    0  0.40485026324E+02  0.24374587802E+02  0.14164933625E+02  0.49333704459E+02  0.10566000000E+00 0. -1.
         23    2    1    0    0    0  0.18976332348E+02  0.53343742925E+01 -0.22020996034E+02  0.95535287942E+02  0.90848831789E+02 0.  0.
         13    1    3    3    0    0 -0.21508693976E+02 -0.19040213510E+02 -0.36185929659E+02  0.46201583483E+02  0.10566000000E+00 0.  1.
         22    1    1    0    0    0 -0.18976332348E+02 -0.53343742925E+01  0.22020996034E+02  0.29554712058E+02  0.00000000000E+00 0.  1.
</event>
<event>
 5    1  0.1264859E-009  0.9118800E+02  0.7815553E-02  0.1125453E+00
         25   -1    0    0    0    0  0.00000000000E+00  0.00000000000E+00  0.99999998245E-14  0.12509000000E+03  0.12509000000E+03 0.  0.
        -13    1    3    3    0    0 -0.22933678148E+02  0.41577359624E+02 -0.16412718019E+02  0.50239614882E+02  0.10566000000E+00 0. -1.
         23    2    1    0    0    0  0.95141299161E+01  0.27870685821E+02  0.96961721792E+01  0.94085007642E+02  0.88829494606E+02 0.  0.
         13    1    3    3    0    0  0.32447808064E+02 -0.13706673803E+02  0.26108890198E+02  0.43845392761E+02  0.10566000000E+00 0.  1.
         22    1    1    0    0    0 -0.95141299161E+01 -0.27870685821E+02 -0.96961721792E+01  0.31004992358E+02  0.00000000000E+00 0. -1.
</event>
<event>
 5    1  0.1264859E-009  0.9118800E+02  0.7815553E-02  0.1125453E+00
         25   -1    0    0    0    0  0.00000000000E+00  0.00000000000E+00  0.99999998245E-14  0.12509000000E+03  0.12509000000E+03 0.  0.
        -13    1    3    3    0    0 -0.66288416889E+01 -0.47554761425E+02  0.14093843286E+02  0.50040428245E+02  0.10566000000E+00 0. -1.
         23    2    1    0    0    0 -0.11356510472E+02 -0.53453960587E+01  0.27732016488E+02  0.94649758089E+02  0.89621249593E+02 0.  0.
         13    1    3    3    0    0 -0.47276687831E+01  0.42209365367E+02  0.13638173202E+02  0.44609329844E+02  0.10566000000E+00 0.  1.
         22    1    1    0    0    0  0.11356510472E+02  0.53453960587E+01 -0.27732016488E+02  0.30440241911E+02  0.00000000000E+00 0. -1.
</event>
<event>
 5    1  0.1264859E-009  0.9118800E+02  0.7815553E-02  0.1125453E+00
         25   -1    0    0    0    0  0.00000000000E+00  0.00000000000E+00  0.99999998245E-14  0.12509000000E+03  0.12509000000E+03 0.  0.
        -13    1    3    3    0    0  0.21013867166E+02  0.25779849994E+02 -0.52247862366E+02  0.61935721235E+02  0.10566000000E+00 0. -1.
         23    2    1    0    0    0  0.38451779023E+01  0.12778451150E+02 -0.25802865945E+02  0.96040695398E+02  0.91542083627E+02 0.  0.
         13    1    3    3    0    0 -0.17168689264E+02 -0.13001398845E+02  0.26444996421E+02  0.34104974164E+02  0.10566000000E+00 0.  1.
         22    1    1    0    0    0 -0.38451779023E+01 -0.12778451150E+02  0.25802865945E+02  0.29049304602E+02  0.00000000000E+00 0. -1.
</event>
<event>
 5    1  0.1264859E-009  0.9118800E+02  0.7815553E-02  0.1125453E+00
         25   -1    0    0    0    0  0.00000000000E+00  0.00000000000E+00  0.99999998245E-14  0.12509000000E+03  0.12509000000E+03 0.  0.
        -13    1    3    3    0    0 -0.15742450449E+02  0.40191904143E+02 -0.18986278123E+02  0.47156164239E+02  0.10566000000E+00 0.  1.
         23    2    1    0    0    0  0.13786451442E+02  0.23478246087E+02  0.13996697967E+02  0.94476247589E+02  0.89378742002E+02 0.  0.
         13    1    3    3    0    0  0.29528901891E+02 -0.16713658056E+02  0.32982976090E+02  0.47320083350E+02  0.10566000000E+00 0. -1.
         22    1    1    0    0    0 -0.13786451442E+02 -0.23478246087E+02 -0.13996697967E+02  0.30613752411E+02  0.00000000000E+00 0. -1.
</event>
<event>
 5    1  0.1264859E-009  0.9118800E+02  0.7815553E-02  0.1125453E+00
         25   -1    0    0    0    0  0.00000000000E+00  0.00000000000E+00  0.99999998245E-14  0.12509000000E+03  0.12509000000E+03 0.  0.
        -13    1    3    3    0    0 -0.93868302539E+01 -0.47554598524E+02 -0.27041389429E+02  0.55504957700E+02  0.10566000000E+00 0. -1.
         23    2    1    0    0    0 -0.23026339778E+02 -0.18245370326E+02 -0.34836671101E+01  0.95505514228E+02  0.90807827027E+02 0.  0.
         13    1    3    3    0    0 -0.13639509524E+02  0.29309228198E+02  0.23557722319E+02  0.40000556528E+02  0.10566000000E+00 0.  1.
         22    1    1    0    0    0  0.23026339778E+02  0.18245370326E+02  0.34836671101E+01  0.29584485772E+02  0.00000000000E+00 0. -1.
</event>
<event>
 5    1  0.1264859E-009  0.9118800E+02  0.7815553E-02  0.1125453E+00
         25   -1    0    0    0    0  0.00000000000E+00  0.00000000000E+00  0.99999998245E-14  0.12509000000E+03  0.12509000000E+03 0.  0.
        -13    1    3    3    0    0  0.29660700946E+02 -0.12935807327E+02 -0.25938508718E+02  0.41471793913E+02  0.10566000000E+00 0. -1.
         23    2    1    0    0    0 -0.22320579487E+02 -0.13743898780E+02 -0.17279393518E+01  0.98820458765E+02  0.95264863794E+02 0.  0.
         13    1    3    3    0    0 -0.51981280433E+02 -0.80809145232E+00  0.24210569366E+02  0.57348664852E+02  0.10566000000E+00 0.  1.
         22    1    1    0    0    0  0.22320579487E+02  0.13743898780E+02  0.17279393518E+01  0.26269541235E+02  0.00000000000E+00 0.  1.
</event>
<event>
 5    1  0.1264859E-009  0.9118800E+02  0.7815553E-02  0.1125453E+00
         25   -1    0    0    0    0  0.00000000000E+00  0.00000000000E+00  0.99999998245E-14  0.12509000000E+03  0.12509000000E+03 0.  0.
        -13    1    3    3    0    0 -0.22003041809E+02  0.30515869371E+02  0.36691328933E+02  0.52551088621E+02  0.10566000000E+00 0.  1.
         23    2    1    0    0    0 -0.27560988592E+02  0.26447703835E+01  0.20959428431E+01  0.97323187454E+02  0.93278116068E+02 0.  0.
         13    1    3    3    0    0 -0.55579467832E+01 -0.27871098987E+02 -0.34595386090E+02  0.44772098833E+02  0.10566000000E+00 0. -1.
         22    1    1    0    0    0  0.27560988592E+02 -0.26447703835E+01 -0.20959428431E+01  0.27766812546E+02  0.00000000000E+00 0. -1.
</event>
<event>
 5    1  0.1264859E-009  0.9118800E+02  0.7815553E-02  0.1125453E+00
         25   -1    0    0    0    0  0.00000000000E+00  0.00000000000E+00  0.99999998245E-14  0.12509000000E+03  0.12509000000E+03 0.  0.
        -13    1    3    3    0    0 -0.27397298089E+02  0.41512708077E+02 -0.31845608618E+02  0.59059891862E+02  0.10566000000E+00 0. -1.
         23    2    1    0    0    0 -0.44019288363E+00  0.21713213961E+02 -0.22566985163E+02  0.93770257829E+02  0.88385151489E+02 0.  0.
         13    1    3    3    0    0  0.26957105206E+02 -0.19799494116E+02  0.92786234554E+01  0.34710365967E+02  0.10566000000E+00 0.  1.
         22    1    1    0    0    0  0.44019288363E+00 -0.21713213961E+02  0.22566985163E+02  0.31319742171E+02  0.00000000000E+00 0. -1.
</event>
<event>
 5    1  0.1264859E-009  0.9118800E+02  0.7815553E-02  0.1125453E+00
         25   -1    0    0    0    0  0.00000000000E+00  0.00000000000E+00  0.99999998245E-14  0.12509000000E+03  0.12509000000E+03 0.  0.
        -13    1    3    3    0    0 -0.13171079163E+02  0.29265240932E+02  0.38884348710E+02  0.50417609937E+02  0.10566000000E+00 0. -1.
         23    2    1    0    0    0 -0.24151851778E+02 -0.70428920072E+01  0.20832761508E+02  0.92426285817E+02  0.86462130935E+02 0.  0.
         13    1    3    3    0    0 -0.10980772615E+02 -0.36308132939E+02 -0.18051587201E+02  0.42008675881E+02  0.10566000000E+00 0.  1.
         22    1    1    0    0    0  0.24151851778E+02  0.70428920072E+01 -0.20832761508E+02  0.32663714183E+02  0.00000000000E+00 0. -1.
</event>
<event>
 5    1  0.1264859E-009  0.9118800E+02  0.7815553E-02  0.1125453E+00
         25   -1    0    0    0    0  0.00000000000E+00  0.00000000000E+00  0.99999998245E-14  0.12509000000E+03  0.12509000000E+03 0.  0.
        -13    1    3    3    0    0  0.97860198322E+01 -0.30462809538E+02 -0.41274901417E+02  0.52224300858E+02  0.10566000000E+00 0. -1.
         23    2    1    0    0    0 -0.94035932139E+01 -0.28085728254E+02 -0.27315448673E+01  0.95346142916E+02  0.90588023130E+02 0.  0.
         13    1    3    3    0    0 -0.19189613046E+02  0.23770812837E+01  0.38543356550E+02  0.43121842058E+02  0.10566000000E+00 0.  1.
         22    1    1    0    0    0  0.94035932139E+01  0.28085728254E+02  0.27315448673E+01  0.29743857084E+02  0.00000000000E+00 0. -1.
</event>
<event>
 5    1  0.1264859E-009  0.9118800E+02  0.7815553E-02  0.1125453E+00
         25   -1    0    0    0    0  0.00000000000E+00  0.00000000000E+00  0.99999998245E-14  0.12509000000E+03  0.12509000000E+03 0.  0.
        -13    1    3    3    0    0 -0.30228481751E+02  0.21512887729E+02 -0.50204824166E+02  0.62426764941E+02  0.10566000000E+00 0. -1.
         23    2    1    0    0    0 -0.12499845504E+02  0.69264239980E+01 -0.22852247608E+02  0.98137324664E+02  0.94363593533E+02 0.  0.
         13    1    3    3    0    0  0.17728636247E+02 -0.14586463731E+02  0.27352576558E+02  0.35710559723E+02  0.10566000000E+00 0.  1.
         22    1    1    0    0    0  0.12499845504E+02 -0.69264239980E+01  0.22852247608E+02  0.26952675336E+02  0.00000000000E+00 0. -1.
</event>
<event>
 5    1  0.1264859E-009  0.9118800E+02  0.7815553E-02  0.1125453E+00
         25   -1    0    0    0    0  0.00000000000E+00  0.00000000000E+00  0.99999998245E-14  0.12509000000E+03  0.12509000000E+03 0.  0.
        -13    1    3    3    0    0 -0.28678110885E+02 -0.36321534915E+01  0.34929638286E+02  0.45340019604E+02  0.10566000000E+00 0. -1.
         23    2    1    0    0    0 -0.27820572401E+02 -0.10606967939E+02 -0.12143412450E+02  0.92934837373E+02  0.87194779168E+02 0.  0.
         13    1    3    3    0    0  0.85753848314E+00 -0.69748144475E+01 -0.47073050736E+02  0.47594817769E+02  0.10566000000E+00 0.  1.
         22    1    1    0    0    0  0.27820572401E+02  0.10606967939E+02  0.12143412450E+02  0.32155162627E+02  0.00000000000E+00 0.  1.
</event>
<event>
 5    1  0.1264859E-009  0.9118800E+02  0.7815553E-02  0.1125453E+00
         25   -1    0    0    0    0  0.00000000000E+00  0.00000000000E+00  0.99999998245E-14  0.12509000000E+03  0.12509000000E+03 0.  0.
        -13    1    3    3    0    0  0.36177397958E+02 -0.35491602014E+02  0.97870803328E+01  0.51616431899E+02  0.10566000000E+00 0.  1.
         23    2    1    0    0    0  0.33273751706E+01 -0.39494570808E+02  0.71625070902E+01  0.84813529740E+02  0.74640074828E+02 0.  0.
         13    1    3    3    0    0 -0.32850022787E+02 -0.40029687932E+01 -0.26245732426E+01  0.33197097840E+02  0.10566000000E+00 0. -1.
         22    1    1    0    0    0 -0.33273751706E+01  0.39494570808E+02 -0.71625070902E+01  0.40276470260E+02  0.00000000000E+00 0.  1.
</event>
<event>
 5    1  0.1264859E-009  0.9118800E+02  0.7815553E-02  0.1125453E+00
         25   -1    0    0    0    0  0.00000000000E+00  0.00000000000E+00  0.99999998245E-14  0.12509000000E+03  0.12509000000E+03 0.  0.
        -13    1    3    3    0    0  0.26968638812E+02  0.16897044133E+02  0.41108714876E+02  0.51988029224E+02  0.10566000000E+00 0.  1.
         23    2    1    0    0    0 -0.43527815818E+00  0.28386875149E+02  0.10046994413E+02  0.94974451782E+02  0.90073304851E+02 0.  0.
         13    1    3    3    0    0 -0.27403916970E+02  0.11489831016E+02 -0.31061720464E+02  0.42986422557E+02  0.10566000000E+00 0. -1.
         22    1    1    0    0    0  0.43527815818E+00 -0.28386875149E+02 -0.10046994413E+02  0.30115548218E+02  0.00000000000E+00 0.  1.
</event>
<event>
 5    1  0.1264859E-009  0.9118800E+02  0.7815553E-02  0.1125453E+00
         25   -1    0    0    0    0  0.00000000000E+00  0.00000000000E+00  0.99999998245E-14  0.12509000000E+03  0.12509000000E+03 0.  0.
        -13    1    3    3    0    0  0.54236951557E+02 -0.19118203923E+02  0.12283115488E+02  0.58805090984E+02  0.10566000000E+00 0.  1.
         23    2    1    0    0    0  0.28047692973E+02 -0.42635810410E+00 -0.68166885575E+01  0.96222681018E+02  0.91790425629E+02 0.  0.
         13    1    3    3    0    0 -0.26189258585E+02  0.18691845819E+02 -0.19099804045E+02  0.37417590034E+02  0.10566000000E+00 0. -1.
         22    1    1    0    0    0 -0.28047692973E+02  0.42635810410E+00  0.68166885575E+01  0.28867318982E+02  0.00000000000E+00 0.  1.
</event>
<event>
 5    1  0.1264859E-009  0.9118800E+02  0.7815553E-02  0.1125453E+00
         25   -1    0    0    0    0  0.00000000000E+00  0.00000000000E+00  0.99999998245E-14  0.12509000000E+03  0.12509000000E+03 0.  0.
        -13    1    3    3    0    0  0.19945681165E+02 -0.46425692686E+02  0.35157303793E+02  0.61556659368E+02  0.10566000000E+00 0. -1.
         23    2    1    0    0    0  0.54893995243E+01 -0.24917119660E+02  0.99665716411E+01  0.97697867743E+02  0.93779232520E+02 0.  0.
         13    1    3    3    0    0 -0.14456281640E+02  0.21508573026E+02 -0.25190732151E+02  0.36141208375E+02  0.10566000000E+00 0.  1.
         22    1    1    0    0    0 -0.54893995243E+01  0.24917119660E+02 -0.99665716411E+01  0.27392132257E+02  0.00000000000E+00 0. -1.
</event>
<event>
 5    1  0.1264859E-009  0.9118800E+02  0.7815553E-02  0.1125453E+00
         25   -1    0    0    0    0  0.00000000000E+00  0.00000000000E+00  0.99999998245E-14  0.12509000000E+03  0.12509000000E+03 0.  0.
        -13    1    3    3    0    0  0.17345797836E+02 -0.11525578940E+02  0.39188646736E+02  0.44378788509E+02  0.10566000000E+00 0. -1.
         23    2    1    0    0    0 -0.24625309154E+02 -0.12227114362E+02  0.87252238330E+01  0.96244936167E+02  0.91820749454E+02 0.  0.
         13    1    3    3    0    0 -0.41971106990E+02 -0.70153542241E+00 -0.30463422903E+02  0.51866147658E+02  0.10566000000E+00 0.  1.
         22    1    1    0    0    0  0.24625309154E+02  0.12227114362E+02 -0.87252238330E+01  0.28845063833E+02  0.00000000000E+00 0.  1.
</event>
<event>
 5    1  0.1264859E-009  0.9118800E+02  0.7815553E-02  0.1125453E+00
         25   -1    0    0    0    0  0.00000000000E+00  0.00000000000E+00  0.99999998245E-14  0.12509000000E+03  0.12509000000E+03 0.  0.
        -13    1    3    3    0    0  0.27537472217E+02 -0.19646898507E+02 -0.14860404992E+02  0.36948014799E+02  0.10566000000E+00 0.  1.
         23    2    1    0    0    0 -0.18992496747E+01  0.29441711712E+02 -0.74239044492E+01  0.94667378563E+02  0.89645840220E+02 0.  0.
         13    1    3    3    0    0 -0.29436721891E+02  0.49088610219E+02  0.74365005428E+01  0.57719363764E+02  0.10566000000E+00 0. -1.
         22    1    1    0    0    0  0.18992496747E+01 -0.29441711712E+02  0.74239044492E+01  0.30422621437E+02  0.00000000000E+00 0. -1.
</event>
<event>
 5    1  0.1264859E-009  0.9118800E+02  0.7815553E-02  0.1125453E+00
         25   -1    0    0    0    0  0.00000000000E+00  0.00000000000E+00  0.99999998245E-14  0.12509000000E+03  0.12509000000E+03 0.  0.
        -13    1    3    3    0    0  0.42088088345E+02 -0.11108904821E+02 -0.29736179323E+02  0.52716851876E+02  0.10566000000E+00 0.  1.
         23    2    1    0    0    0  0.12950891026E+01 -0.21965255359E+02 -0.18351578430E+02  0.96438121708E+02  0.92083555475E+02 0.  0.
         13    1    3    3    0    0 -0.40792999243E+02 -0.10856350538E+02  0.11384600894E+02  0.43721269833E+02  0.10566000000E+00 0. -1.
         22    1    1    0    0    0 -0.12950891026E+01  0.21965255359E+02  0.18351578430E+02  0.28651878292E+02  0.00000000000E+00 0. -1.
</event>
<event>
 5    1  0.1264859E-009  0.9118800E+02  0.7815553E-02  0.1125453E+00
         25   -1    0    0    0    0  0.00000000000E+00  0.00000000000E+00  0.99999998245E-14  0.12509000000E+03  0.12509000000E+03 0.  0.
        -13    1    3    3    0    0  0.28820745554E+02 -0.27083008862E+02  0.14165638418E+02  0.42009537240E+02  0.10566000000E+00 0.  1.
         23    2    1    0    0    0  0.64242570629E+00 -0.78469672636E+01 -0.27858818258E+02  0.96140019676E+02  0.91677707336E+02 0.  0.
         13    1    3    3    0    0 -0.28178319847E+02  0.19236041598E+02 -0.42024456676E+02  0.54130482436E+02  0.10566000000E+00 0. -1.
         22    1    1    0    0    0 -0.64242570629E+00  0.78469672636E+01  0.27858818258E+02  0.28949980324E+02  0.00000000000E+00 0. -1.
</event>
<event>
 5    1  0.1264859E-009  0.9118800E+02  0.7815553E-02  0.1125453E+00
         25   -1    0    0    0    0  0.00000000000E+00  0.00000000000E+00  0.99999998245E-14  0.12509000000E+03  0.12509000000E+03 0.  0.
        -13    1    3    3    0    0  0.68162461142E+00  0.22232531186E+02  0.38112247334E+02  0.44128274564E+02  0.10566000000E+00 0. -1.
         23    2    1    0    0    0  0.26137498423E+02  0.96942665896E+01 -0.59951932182E+01  0.96575267487E+02  0.92269671724E+02 0.  0.
         13    1    3    3    0    0  0.25455873812E+02 -0.12538264597E+02 -0.44107440552E+02  0.52446992924E+02  0.10566000000E+00 0.  1.
         22    1    1    0    0    0 -0.26137498423E+02 -0.96942665896E+01  0.59951932182E+01  0.28514732513E+02  0.00000000000E+00 0.  1.
</event>
<event>
 5    1  0.1264859E-009  0.9118800E+02  0.7815553E-02  0.1125453E+00
         25   -1    0    0    0    0  0.00000000000E+00  0.00000000000E+00  0.99999998245E-14  0.12509000000E+03  0.12509000000E+03 0.  0.
        -13    1    3    3    0    0  0.41588021990E+02 -0.14413760001E+01 -0.77196106477E+01  0.42323098781E+02  0.10566000000E+00 0. -1.
         23    2    1    0    0    0 -0.53342790377E+01  0.15963958404E+02 -0.24724787365E+02  0.95179841007E+02  0.90358090523E+02 0.  0.
         13    1    3    3    0    0 -0.46922301028E+02  0.17405334404E+02 -0.17005176717E+02  0.52856742226E+02  0.10566000000E+00 0.  1.
         22    1    1    0    0    0  0.53342790377E+01 -0.15963958404E+02  0.24724787365E+02  0.29910158993E+02  0.00000000000E+00 0.  1.
</event>
<event>
 5    1  0.1264859E-009  0.9118800E+02  0.7815553E-02  0.1125453E+00
         25   -1    0    0    0    0  0.00000000000E+00  0.00000000000E+00  0.99999998245E-14  0.12509000000E+03  0.12509000000E+03 0.  0.
        -13    1    3    3    0    0 -0.59097249491E+02 -0.49675477944E+01  0.16231692136E+02  0.61486912608E+02  0.10566000000E+00 0.  1.
         23    2    1    0    0    0 -0.28703699659E+02 -0.45579285007E+01 -0.16994711185E+00  0.96026174231E+02  0.91522238658E+02 0.  0.
         13    1    3    3    0    0  0.30393549832E+02  0.40961929378E+00 -0.16401639248E+02  0.34539261622E+02  0.10566000000E+00 0. -1.
         22    1    1    0    0    0  0.28703699659E+02  0.45579285007E+01  0.16994711185E+00  0.29063825769E+02  0.00000000000E+00 0.  1.
</event>
<event>
 5    1  0.1264859E-009  0.9118800E+02  0.7815553E-02  0.1125453E+00
         25   -1    0    0    0    0  0.00000000000E+00  0.00000000000E+00  0.99999998245E-14  0.12509000000E+03  0.12509000000E+03 0.  0.
        -13    1    3    3    0    0  0.47248967324E+02 -0.20829496751E+02 -0.18575583744E+02  0.54876190862E+02  0.10566000000E+00 0.  1.
         23    2    1    0    0    0  0.11073948941E+02 -0.27697315797E+02 -0.21843717041E+01  0.95181052723E+02  0.90359767985E+02 0.  0.
         13    1    3    3    0    0 -0.36175018383E+02 -0.68678190460E+01  0.16391212040E+02  0.40304861861E+02  0.10566000000E+00 0. -1.
         22    1    1    0    0    0 -0.11073948941E+02  0.27697315797E+02  0.21843717041E+01  0.29908947277E+02  0.00000000000E+00 0.  1.
</event>
<event>
 5    1  0.1264859E-009  0.9118800E+02  0.7815553E-02  0.1125453E+00
         25   -1    0    0    0    0  0.00000000000E+00  0.00000000000E+00  0.99999998245E-14  0.12509000000E+03  0.12509000000E+03 0.  0.
        -13    1    3    3    0    0  0.10650595735E+02 -0.41991077729E+02 -0.18525829451E+02  0.47115849979E+02  0.10566000000E+00 0.  1.
         23    2    1    0    0    0 -0.21582844429E+02 -0.10854550402E+02  0.85346675227E+01  0.99468115062E+02  0.96111523379E+02 0.  0.
         13    1    3    3    0    0 -0.32233440164E+02  0.31136527328E+02  0.27060496973E+02  0.52352265083E+02  0.10566000000E+00 0. -1.
         22    1    1    0    0    0  0.21582844429E+02  0.10854550402E+02 -0.85346675227E+01  0.25621884938E+02  0.00000000000E+00 0. -1.
</event>
<event>
 5    1  0.1264859E-009  0.9118800E+02  0.7815553E-02  0.1125453E+00
         25   -1    0    0    0    0  0.00000000000E+00  0.00000000000E+00  0.99999998245E-14  0.12509000000E+03  0.12509000000E+03 0.  0.
        -13    1    3    3    0    0  0.95414402248E+01  0.35890274093E+02 -0.61551782233E+01  0.37643701187E+02  0.10566000000E+00 0. -1.
         23    2    1    0    0    0  0.14653143853E+02 -0.22130377090E+02 -0.11561210156E+02  0.96139528585E+02  0.91677037263E+02 0.  0.
         13    1    3    3    0    0  0.51117036285E+01 -0.58020651183E+02 -0.54060319325E+01  0.58495827398E+02  0.10566000000E+00 0.  1.
         22    1    1    0    0    0 -0.14653143853E+02  0.22130377090E+02  0.11561210156E+02  0.28950471415E+02  0.00000000000E+00 0.  1.
</event>
<event>
 5    1  0.1264859E-009  0.9118800E+02  0.7815553E-02  0.1125453E+00
         25   -1    0    0    0    0  0.00000000000E+00  0.00000000000E+00  0.99999998245E-14  0.12509000000E+03  0.12509000000E+03 0.  0.
        -13    1    3    3    0    0 -0.39598709465E+02  0.76414786458E+01 -0.30128013747E+02  0.50340424746E+02  0.10566000000E+00 0. -1.
         23    2    1    0    0    0 -0.30446296042E+02 -0.26798748214E+01  0.10125671614E+02  0.92892361929E+02  0.87133822407E+02 0.  0.
         13    1    3    3    0    0  0.91524134234E+01 -0.10321353467E+02  0.40253685361E+02  0.42551937183E+02  0.10566000000E+00 0.  1.
         22    1    1    0    0    0  0.30446296042E+02  0.26798748214E+01 -0.10125671614E+02  0.32197638071E+02  0.00000000000E+00 0. -1.
</event>
<event>
 5    1  0.1264859E-009  0.9118800E+02  0.7815553E-02  0.1125453E+00
         25   -1    0    0    0    0  0.00000000000E+00  0.00000000000E+00  0.99999998245E-14  0.12509000000E+03  0.12509000000E+03 0.  0.
        -13    1    3    3    0    0  0.23169579307E+02  0.54708463036E+02  0.10312923295E+02  0.60301018929E+02  0.10566000000E+00 0.  1.
         23    2    1    0    0    0  0.15731218007E+01  0.27326667847E+02  0.11972389775E+02  0.95214263946E+02  0.90405732418E+02 0.  0.
         13    1    3    3    0    0 -0.21596457506E+02 -0.27381795188E+02  0.16594664805E+01  0.34913245016E+02  0.10566000000E+00 0. -1.
         22    1    1    0    0    0 -0.15731218007E+01 -0.27326667847E+02 -0.11972389775E+02  0.29875736054E+02  0.00000000000E+00 0.  1.
</event>
<event>
 5    1  0.1264859E-009  0.9118800E+02  0.7815553E-02  0.1125453E+00
         25   -1    0    0    0    0  0.00000000000E+00  0.00000000000E+00  0.99999998245E-14  0.12509000000E+03  0.12509000000E+03 0.  0.
        -13    1    3    3    0    0  0.24899978911E+02  0.43465869217E+02  0.12821554983E+02  0.51707776714E+02  0.10566000000E+00 0.  1.
         23    2    1    0    0    0  0.53761162431E+01  0.57448483314E+01  0.27375395678E+02  0.96606352116E+02  0.92311803538E+02 0.  0.
         13    1    3    3    0    0 -0.19523862668E+02 -0.37721020885E+02  0.14553840695E+02  0.44898575402E+02  0.10566000000E+00 0. -1.
         22    1    1    0    0    0 -0.53761162431E+01 -0.57448483314E+01 -0.27375395678E+02  0.28483647884E+02  0.00000000000E+00 0.  1.
</event>
<event>
 5    1  0.1264859E-009  0.9118800E+02  0.7815553E-02  0.1125453E+00
         25   -1    0    0    0    0  0.00000000000E+00  0.00000000000E+00  0.99999998245E-14  0.12509000000E+03  0.12509000000E+03 0.  0.
        -13    1    3    3    0    0 -0.42276123201E+02  0.66245071958E+01 -0.90627551856E+01  0.43741277806E+02  0.10566000000E+00 0.  1.
         23    2    1    0    0    0  0.11203960819E+01 -0.13717346487E+02 -0.26894372428E+02  0.94878608931E+02  0.89940103860E+02 0.  0.
         13    1    3    3    0    0  0.43396519283E+02 -0.20341853683E+02 -0.17831617242E+02  0.51137331125E+02  0.10566000000E+00 0. -1.
         22    1    1    0    0    0 -0.11203960819E+01  0.13717346487E+02  0.26894372428E+02  0.30211391069E+02  0.00000000000E+00 0.  1.
</event>
<event>
 5    1  0.1264859E-009  0.9118800E+02  0.7815553E-02  0.1125453E+00
         25   -1    0    0    0    0  0.00000000000E+00  0.00000000000E+00  0.99999998245E-14  0.12509000000E+03  0.12509000000E+03 0.  0.
        -13    1    3    3    0    0  0.58613711792E+01 -0.41089214468E+02  0.12563346978E+02  0.43365055852E+02  0.10566000000E+00 0.  1.
         23    2    1    0    0    0 -0.39546438690E+01  0.77766649528E+01  0.28175146775E+02  0.95595006837E+02  0.90931021716E+02 0.  0.
         13    1    3    3    0    0 -0.98160150482E+01  0.48865879421E+02  0.15611799797E+02  0.52229950985E+02  0.10566000000E+00 0. -1.
         22    1    1    0    0    0  0.39546438690E+01 -0.77766649528E+01 -0.28175146775E+02  0.29494993163E+02  0.00000000000E+00 0. -1.
</event>
<event>
 5    1  0.1264859E-009  0.9118800E+02  0.7815553E-02  0.1125453E+00
         25   -1    0    0    0    0  0.00000000000E+00  0.00000000000E+00  0.99999998245E-14  0.12509000000E+03  0.12509000000E+03 0.  0.
        -13    1    3    3    0    0  0.45898518930E+02  0.34888453474E+02 -0.19046983350E+02  0.60718011863E+02  0.10566000000E+00 0.  1.
         23    2    1    0    0    0  0.17239789770E+02  0.22616982649E+02 -0.12315255158E+01  0.96625023089E+02  0.92337100757E+02 0.  0.
         13    1    3    3    0    0 -0.28658729160E+02 -0.12271470825E+02  0.17815457834E+02  0.35907011226E+02  0.10566000000E+00 0. -1.
         22    1    1    0    0    0 -0.17239789770E+02 -0.22616982649E+02  0.12315255158E+01  0.28464976911E+02  0.00000000000E+00 0.  1.
</event>
<event>
 5    1  0.1264859E-009  0.9118800E+02  0.7815553E-02  0.1125453E+00
         25   -1    0    0    0    0  0.00000000000E+00  0.00000000000E+00  0.99999998245E-14  0.12509000000E+03  0.12509000000E+03 0.  0.
        -13    1    3    3    0    0 -0.31469536552E+00  0.15776695831E+02  0.43355940832E+02  0.46138399777E+02  0.10566000000E+00 0.  1.
         23    2    1    0    0    0  0.25501369619E+02 -0.91022598281E+01  0.71668569670E+01  0.97080451179E+02  0.92952026206E+02 0.  0.
         13    1    3    3    0    0  0.25816064984E+02 -0.24878955659E+02 -0.36189083865E+02  0.50942051401E+02  0.10566000000E+00 0. -1.
         22    1    1    0    0    0 -0.25501369619E+02  0.91022598281E+01 -0.71668569670E+01  0.28009548821E+02  0.00000000000E+00 0. -1.
</event>
<event>
 5    1  0.1264859E-009  0.9118800E+02  0.7815553E-02  0.1125453E+00
         25   -1    0    0    0    0  0.00000000000E+00  0.00000000000E+00  0.99999998245E-14  0.12509000000E+03  0.12509000000E+03 0.  0.
        -13    1    3    3    0    0 -0.21611355406E+02  0.33288501086E+02 -0.17837713078E+02  0.43512873485E+02  0.10566000000E+00 0. -1.
         23    2    1    0    0    0  0.25285757213E+02  0.13571903745E+02 -0.53267467532E+01  0.95901983280E+02  0.91352340292E+02 0.  0.
         13    1    3    3    0    0  0.46897112619E+02 -0.19716597341E+02  0.12510966325E+02  0.52389109795E+02  0.10566000000E+00 0.  1.
         22    1    1    0    0    0 -0.25285757213E+02 -0.13571903745E+02  0.53267467532E+01  0.29188016720E+02  0.00000000000E+00 0.  1.
</event>
<event>
 5    1  0.1264859E-009  0.9118800E+02  0.7815553E-02  0.1125453E+00
         25   -1    0    0    0    0  0.00000000000E+00  0.00000000000E+00  0.99999998245E-14  0.12509000000E+03  0.12509000000E+03 0.  0.
        -13    1    3    3    0    0  0.21120002102E+02 -0.24116437185E+02  0.78331456518E+01  0.33000399484E+02  0.10566000000E+00 0. -1.
         23    2    1    0    0    0 -0.24874482429E+02  0.12271105689E+02 -0.11941232097E+02  0.94892103799E+02  0.89958870761E+02 0.  0.
         13    1    3    3    0    0 -0.45994484531E+02  0.36387542874E+02 -0.19774377749E+02  0.61891704315E+02  0.10566000000E+00 0.  1.
         22    1    1    0    0    0  0.24874482429E+02 -0.12271105689E+02  0.11941232097E+02  0.30197896201E+02  0.00000000000E+00 0.  1.
</event>
<event>
 5    1  0.1264859E-009  0.9118800E+02  0.7815553E-02  0.1125453E+00
         25   -1    0    0    0    0  0.00000000000E+00  0.00000000000E+00  0.99999998245E-14  0.12509000000E+03  0.12509000000E+03 0.  0.
        -13    1    3    3    0    0  0.18370861986E+02 -0.37591516511E+02 -0.86245723578E+01  0.42720078372E+02  0.10566000000E+00 0.  1.
         23    2    1    0    0    0 -0.26594089926E+02 -0.68956134184E+01 -0.28298824099E+01  0.97471105420E+02  0.93476270004E+02 0.  0.
         13    1    3    3    0    0 -0.44964951912E+02  0.30695903093E+02  0.57946899479E+01  0.54751027048E+02  0.10566000000E+00 0. -1.
         22    1    1    0    0    0  0.26594089926E+02  0.68956134184E+01  0.28298824099E+01  0.27618894580E+02  0.00000000000E+00 0. -1.
</event>
<event>
 5    1  0.1264859E-009  0.9118800E+02  0.7815553E-02  0.1125453E+00
         25   -1    0    0    0    0  0.00000000000E+00  0.00000000000E+00  0.99999998245E-14  0.12509000000E+03  0.12509000000E+03 0.  0.
        -13    1    3    3    0    0  0.41035599793E+02  0.18504470806E+02  0.18807218722E+01  0.45054235860E+02  0.10566000000E+00 0. -1.
         23    2    1    0    0    0  0.19706868801E+00  0.30306551111E+01  0.28651257066E+02  0.96278227442E+02  0.91866091902E+02 0.  0.
         13    1    3    3    0    0 -0.40838531105E+02 -0.15473815695E+02  0.26770535194E+02  0.51223991582E+02  0.10566000000E+00 0.  1.
         22    1    1    0    0    0 -0.19706868801E+00 -0.30306551111E+01 -0.28651257066E+02  0.28811772558E+02  0.00000000000E+00 0.  1.
</event>
<event>
 5    1  0.1264859E-009  0.9118800E+02  0.7815553E-02  0.1125453E+00
         25   -1    0    0    0    0  0.00000000000E+00  0.00000000000E+00  0.99999998245E-14  0.12509000000E+03  0.12509000000E+03 0.  0.
        -13    1    3    3    0    0 -0.25944141591E+02 -0.23637996887E+02 -0.83353943760E+01  0.36074136763E+02  0.10566000000E+00 0.  1.
         23    2    1    0    0    0  0.28256368251E+02  0.25828673911E+01 -0.14140260968E+01  0.96680617386E+02  0.92412384222E+02 0.  0.
         13    1    3    3    0    0  0.54200509842E+02  0.26220864279E+02  0.69213682792E+01  0.60606480623E+02  0.10566000000E+00 0. -1.
         22    1    1    0    0    0 -0.28256368251E+02 -0.25828673911E+01  0.14140260968E+01  0.28409382614E+02  0.00000000000E+00 0. -1.
</event>
<event>
 5    1  0.1264859E-009  0.9118800E+02  0.7815553E-02  0.1125453E+00
         25   -1    0    0    0    0  0.00000000000E+00  0.00000000000E+00  0.99999998245E-14  0.12509000000E+03  0.12509000000E+03 0.  0.
        -13    1    3    3    0    0 -0.34336891034E+02  0.19317007906E+02  0.18266057452E+02  0.43426131525E+02  0.10566000000E+00 0.  1.
         23    2    1    0    0    0 -0.13913579719E+02 -0.13769330459E+02 -0.19378151143E+02  0.97545583077E+02  0.93575882973E+02 0.  0.
         13    1    3    3    0    0  0.20423311315E+02 -0.33086338366E+02 -0.37644208595E+02  0.54119451552E+02  0.10566000000E+00 0. -1.
         22    1    1    0    0    0  0.13913579719E+02  0.13769330459E+02  0.19378151143E+02  0.27544416923E+02  0.00000000000E+00 0. -1.
</event>
<event>
 5    1  0.1264859E-009  0.9118800E+02  0.7815553E-02  0.1125453E+00
         25   -1    0    0    0    0  0.00000000000E+00  0.00000000000E+00  0.99999998245E-14  0.12509000000E+03  0.12509000000E+03 0.  0.
        -13    1    3    3    0    0  0.22872234005E+02 -0.24574894716E+02  0.24420898005E+01  0.33660652182E+02  0.10566000000E+00 0.  1.
         23    2    1    0    0    0 -0.18527190973E+02  0.21677227068E+02 -0.48607015487E+01  0.96162756815E+02  0.91708725866E+02 0.  0.
         13    1    3    3    0    0 -0.41399424978E+02  0.46252121785E+02 -0.73027913493E+01  0.62502104633E+02  0.10566000000E+00 0. -1.
         22    1    1    0    0    0  0.18527190973E+02 -0.21677227068E+02  0.48607015487E+01  0.28927243185E+02  0.00000000000E+00 0. -1.
</event>
<event>
 5    1  0.1264859E-009  0.9118800E+02  0.7815553E-02  0.1125453E+00
         25   -1    0    0    0    0  0.00000000000E+00  0.00000000000E+00  0.99999998245E-14  0.12509000000E+03  0.12509000000E+03 0.  0.
        -13    1    3    3    0    0 -0.22136791098E+02 -0.20095419451E+02 -0.15943418572E+02  0.33883139802E+02  0.10566000000E+00 0. -1.
         23    2    1    0    0    0  0.23964757438E+02 -0.50797828716E+01  0.19365567352E+02  0.93862784435E+02  0.88516005953E+02 0.  0.
         13    1    3    3    0    0  0.46101548536E+02  0.15015636579E+02  0.35308985924E+02  0.59979644633E+02  0.10566000000E+00 0.  1.
         22    1    1    0    0    0 -0.23964757438E+02  0.50797828716E+01 -0.19365567352E+02  0.31227215565E+02  0.00000000000E+00 0.  1.
</event>
<event>
 5    1  0.1264859E-009  0.9118800E+02  0.7815553E-02  0.1125453E+00
         25   -1    0    0    0    0  0.00000000000E+00  0.00000000000E+00  0.99999998245E-14  0.12509000000E+03  0.12509000000E+03 0.  0.
        -13    1    3    3    0    0  0.33033983414E+02  0.28042766938E+02 -0.88848448796E+01  0.44233386377E+02  0.10566000000E+00 0. -1.
         23    2    1    0    0    0 -0.12357990374E+02  0.69518103374E+01 -0.24600901945E+02  0.96695423589E+02  0.92432423821E+02 0.  0.
         13    1    3    3    0    0 -0.45391973788E+02 -0.21090956601E+02 -0.15716057066E+02  0.52462037212E+02  0.10566000000E+00 0.  1.
         22    1    1    0    0    0  0.12357990374E+02 -0.69518103374E+01  0.24600901945E+02  0.28394576411E+02  0.00000000000E+00 0.  1.
</event>
<event>
 5    1  0.1264859E-009  0.9118800E+02  0.7815553E-02  0.1125453E+00
         25   -1    0    0    0    0  0.00000000000E+00  0.00000000000E+00  0.99999998245E-14  0.12509000000E+03  0.12509000000E+03 0.  0.
        -13    1    3    3    0    0  0.28240630645E+02 -0.38732496090E+02 -0.36061246907E+02  0.59984699425E+02  0.10566000000E+00 0.  1.
         23    2    1    0    0    0  0.26504831003E+02 -0.16974482406E+02 -0.15359748752E+02  0.90067707082E+02  0.82979701481E+02 0.  0.
         13    1    3    3    0    0 -0.17357996411E+01  0.21758013683E+02  0.20701498155E+02  0.30083007658E+02  0.10566000000E+00 0. -1.
         22    1    1    0    0    0 -0.26504831003E+02  0.16974482406E+02  0.15359748752E+02  0.35022292918E+02  0.00000000000E+00 0.  1.
</event>
<event>
 5    1  0.1264859E-009  0.9118800E+02  0.7815553E-02  0.1125453E+00
         25   -1    0    0    0    0  0.00000000000E+00  0.00000000000E+00  0.99999998245E-14  0.12509000000E+03  0.12509000000E+03 0.  0.
        -13    1    3    3    0    0 -0.34840567190E+02  0.24305066436E+02 -0.16093824870E+02  0.45427125592E+02  0.10566000000E+00 0. -1.
         23    2    1    0    0    0  0.15889851274E+01 -0.39444440251E+01 -0.30940732541E+02  0.93858406339E+02  0.88509818652E+02 0.  0.
         13    1    3    3    0    0  0.36429552318E+02 -0.28249510461E+02 -0.14846907671E+02  0.48431280747E+02  0.10566000000E+00 0.  1.
         22    1    1    0    0    0 -0.15889851274E+01  0.39444440251E+01  0.30940732541E+02  0.31231593661E+02  0.00000000000E+00 0. -1.
</event>
<event>
 5    1  0.1264859E-009  0.9118800E+02  0.7815553E-02  0.1125453E+00
         25   -1    0    0    0    0  0.00000000000E+00  0.00000000000E+00  0.99999998245E-14  0.12509000000E+03  0.12509000000E+03 0.  0.
        -13    1    3    3    0    0  0.20273784599E+02  0.10208074800E+02  0.35045093706E+02  0.41754052378E+02  0.10566000000E+00 0.  1.
         23    2    1    0    0    0 -0.84853949882E+01 -0.26912027225E+02  0.88881335290E+01  0.95505239478E+02  0.90807448553E+02 0.  0.
         13    1    3    3    0    0 -0.28759179588E+02 -0.37120102025E+02 -0.26156960177E+02  0.53751187100E+02  0.10566000000E+00 0. -1.
         22    1    1    0    0    0  0.84853949882E+01  0.26912027225E+02 -0.88881335290E+01  0.29584760522E+02  0.00000000000E+00 0. -1.
</event>
<event>
 5    1  0.1264859E-009  0.9118800E+02  0.7815553E-02  0.1125453E+00
         25   -1    0    0    0    0  0.00000000000E+00  0.00000000000E+00  0.99999998245E-14  0.12509000000E+03  0.12509000000E+03 0.  0.
        -13    1    3    3    0    0  0.18049471993E+02 -0.30486491480E+02  0.82971142148E+01  0.36387674704E+02  0.10566000000E+00 0. -1.
         23    2    1    0    0    0 -0.22213805902E+02 -0.19740971925E+00 -0.20873706931E+02  0.94607155903E+02  0.89561767310E+02 0.  0.
         13    1    3    3    0    0 -0.40263277895E+02  0.30289081761E+02 -0.29170821145E+02  0.58219481199E+02  0.10566000000E+00 0.  1.
         22    1    1    0    0    0  0.22213805902E+02  0.19740971925E+00  0.20873706931E+02  0.30482844097E+02  0.00000000000E+00 0.  1.
</event>
<event>
 5    1  0.1264859E-009  0.9118800E+02  0.7815553E-02  0.1125453E+00
         25   -1    0    0    0    0  0.00000000000E+00  0.00000000000E+00  0.99999998245E-14  0.12509000000E+03  0.12509000000E+03 0.  0.
        -13    1    3    3    0    0  0.44319207824E+02 -0.69309377302E+01  0.22045337716E+02  0.49982378485E+02  0.10566000000E+00 0.  1.
         23    2    1    0    0    0  0.25100320504E+01 -0.19286024127E+02  0.24690958430E+02  0.93659212296E+02  0.88227850661E+02 0.  0.
         13    1    3    3    0    0 -0.41809175774E+02 -0.12355086397E+02  0.26456207134E+01  0.43676833811E+02  0.10566000000E+00 0. -1.
         22    1    1    0    0    0 -0.25100320504E+01  0.19286024127E+02 -0.24690958430E+02  0.31430787704E+02  0.00000000000E+00 0.  1.
</event>
<event>
 5    1  0.1264859E-009  0.9118800E+02  0.7815553E-02  0.1125453E+00
         25   -1    0    0    0    0  0.00000000000E+00  0.00000000000E+00  0.99999998245E-14  0.12509000000E+03  0.12509000000E+03 0.  0.
        -13    1    3    3    0    0  0.18901832749E+02  0.28351380399E+02  0.12864070619E+02  0.36422184568E+02  0.10566000000E+00 0. -1.
         23    2    1    0    0    0 -0.16675699839E+02 -0.58347078395E+01 -0.22027436899E+02  0.96852954173E+02  0.92645366722E+02 0.  0.
         13    1    3    3    0    0 -0.35577532588E+02 -0.34186088238E+02 -0.34891507518E+02  0.60430769605E+02  0.10566000000E+00 0.  1.
         22    1    1    0    0    0  0.16675699839E+02  0.58347078395E+01  0.22027436899E+02  0.28237045827E+02  0.00000000000E+00 0.  1.
</event>
<event>
 5    1  0.1264859E-009  0.9118800E+02  0.7815553E-02  0.1125453E+00
         25   -1    0    0    0    0  0.00000000000E+00  0.00000000000E+00  0.99999998245E-14  0.12509000000E+03  0.12509000000E+03 0.  0.
        -13    1    3    3    0    0  0.35956617415E+02  0.29158849487E+02 -0.39095186223E+02  0.60593412094E+02  0.10566000000E+00 0.  1.
         23    2    1    0    0    0  0.21349436570E+02  0.14527284976E+02 -0.77761671382E+01  0.98121328805E+02  0.94342386765E+02 0.  0.
         13    1    3    3    0    0 -0.14607180844E+02 -0.14631564511E+02  0.31319019084E+02  0.37527916712E+02  0.10566000000E+00 0. -1.
         22    1    1    0    0    0 -0.21349436570E+02 -0.14527284976E+02  0.77761671382E+01  0.26968671195E+02  0.00000000000E+00 0.  1.
</event>
<event>
 5    1  0.1264859E-009  0.9118800E+02  0.7815553E-02  0.1125453E+00
         25   -1    0    0    0    0  0.00000000000E+00  0.00000000000E+00  0.99999998245E-14  0.12509000000E+03  0.12509000000E+03 0.  0.
        -13    1    3    3    0    0  0.14583133766E+02 -0.36412622122E+02  0.43327612361E+02  0.58445187973E+02  0.10566000000E+00 0. -1.
         23    2    1    0    0    0  0.12737601601E+02 -0.25101791130E+02  0.76472315830E+01  0.95921068526E+02  0.91378470242E+02 0.  0.
         13    1    3    3    0    0 -0.18455321642E+01  0.11310830992E+02 -0.35680380778E+02  0.37475880553E+02  0.10566000000E+00 0.  1.
         22    1    1    0    0    0 -0.12737601601E+02  0.25101791130E+02 -0.76472315830E+01  0.29168931474E+02  0.00000000000E+00 0. -1.
</event>
<event>
 5    1  0.1264859E-009  0.9118800E+02  0.7815553E-02  0.1125453E+00
         25   -1    0    0    0    0  0.00000000000E+00  0.00000000000E+00  0.99999998245E-14  0.12509000000E+03  0.12509000000E+03 0.  0.
        -13    1    3    3    0    0 -0.18569321999E+02  0.51394704043E+02  0.95662120173E+01  0.55477553114E+02  0.10566000000E+00 0.  1.
         23    2    1    0    0    0  0.61843005241E+01  0.27223450243E+02 -0.10252760451E+02  0.95349776178E+02  0.90593040043E+02 0.  0.
         13    1    3    3    0    0  0.24753622523E+02 -0.24171253800E+02 -0.19818972469E+02  0.39872223063E+02  0.10566000000E+00 0. -1.
         22    1    1    0    0    0 -0.61843005241E+01 -0.27223450243E+02  0.10252760451E+02  0.29740223822E+02  0.00000000000E+00 0.  1.
</event>
<event>
 5    1  0.1264859E-009  0.9118800E+02  0.7815553E-02  0.1125453E+00
         25   -1    0    0    0    0  0.00000000000E+00  0.00000000000E+00  0.99999998245E-14  0.12509000000E+03  0.12509000000E+03 0.  0.
        -13    1    3    3    0    0 -0.22238697891E+02 -0.29206593883E+02  0.29967450966E+02  0.47388227352E+02  0.10566000000E+00 0.  1.
         23    2    1    0    0    0 -0.62870685733E+01 -0.24589378042E+02 -0.15196069429E+02  0.95508159796E+02  0.90811471290E+02 0.  0.
         13    1    3    3    0    0  0.15951629317E+02  0.46172158408E+01 -0.45163520394E+02  0.48119932444E+02  0.10566000000E+00 0. -1.
         22    1    1    0    0    0  0.62870685733E+01  0.24589378042E+02  0.15196069429E+02  0.29581840204E+02  0.00000000000E+00 0.  1.
</event>
<event>
 5    1  0.1264859E-009  0.9118800E+02  0.7815553E-02  0.1125453E+00
         25   -1    0    0    0    0  0.00000000000E+00  0.00000000000E+00  0.99999998245E-14  0.12509000000E+03  0.12509000000E+03 0.  0.
        -13    1    3    3    0    0  0.66736743083E+00 -0.99236192026E+01 -0.37505744945E+02  0.38802263662E+02  0.10566000000E+00 0.  1.
         23    2    1    0    0    0 -0.89688380820E+01 -0.20665409314E+02  0.18063394512E+02  0.96214657232E+02  0.91779490336E+02 0.  0.
         13    1    3    3    0    0 -0.96362055129E+01 -0.10741790111E+02  0.55569139457E+02  0.57412393571E+02  0.10566000000E+00 0. -1.
         22    1    1    0    0    0  0.89688380820E+01  0.20665409314E+02 -0.18063394512E+02  0.28875342768E+02  0.00000000000E+00 0. -1.
</event>
<event>
 5    1  0.1264859E-009  0.9118800E+02  0.7815553E-02  0.1125453E+00
         25   -1    0    0    0    0  0.00000000000E+00  0.00000000000E+00  0.99999998245E-14  0.12509000000E+03  0.12509000000E+03 0.  0.
        -13    1    3    3    0    0  0.44727897156E+02 -0.81864528746E+01  0.42881152888E+01  0.45672769693E+02  0.10566000000E+00 0.  1.
         23    2    1    0    0    0  0.33047003128E+01 -0.20034807269E+02 -0.21201957133E+02  0.95732930447E+02  0.91120559915E+02 0.  0.
         13    1    3    3    0    0 -0.41423196844E+02 -0.11848354394E+02 -0.25490072422E+02  0.50060160754E+02  0.10566000000E+00 0. -1.
         22    1    1    0    0    0 -0.33047003128E+01  0.20034807269E+02  0.21201957133E+02  0.29357069553E+02  0.00000000000E+00 0.  1.
</event>
<event>
 5    1  0.1264859E-009  0.9118800E+02  0.7815553E-02  0.1125453E+00
         25   -1    0    0    0    0  0.00000000000E+00  0.00000000000E+00  0.99999998245E-14  0.12509000000E+03  0.12509000000E+03 0.  0.
        -13    1    3    3    0    0  0.20966646560E+02 -0.52513525175E+02  0.16174226458E+02  0.58812306194E+02  0.10566000000E+00 0.  1.
         23    2    1    0    0    0  0.10475677601E+01 -0.21605856116E+02  0.19805196737E+02  0.95761579747E+02  0.91159881095E+02 0.  0.
         13    1    3    3    0    0 -0.19919078800E+02  0.30907669059E+02  0.36309702789E+01  0.36949273553E+02  0.10566000000E+00 0. -1.
         22    1    1    0    0    0 -0.10475677601E+01  0.21605856116E+02 -0.19805196737E+02  0.29328420253E+02  0.00000000000E+00 0.  1.
</event>
<event>
 5    1  0.1264859E-009  0.9118800E+02  0.7815553E-02  0.1125453E+00
         25   -1    0    0    0    0  0.00000000000E+00  0.00000000000E+00  0.99999998245E-14  0.12509000000E+03  0.12509000000E+03 0.  0.
        -13    1    3    3    0    0 -0.37506818998E+02  0.29485694278E+02  0.48058895901E+01  0.47950759923E+02  0.10566000000E+00 0.  1.
         23    2    1    0    0    0 -0.10504777871E+02  0.32249698223E+02  0.25971611239E+02  0.82370941210E+02  0.70427650620E+02 0.  0.
         13    1    3    3    0    0  0.27002041127E+02  0.27640039446E+01  0.21165721649E+02  0.34420181286E+02  0.10566000000E+00 0. -1.
         22    1    1    0    0    0  0.10504777871E+02 -0.32249698223E+02 -0.25971611239E+02  0.42719058790E+02  0.00000000000E+00 0.  1.
</event>
<event>
 5    1  0.1264859E-009  0.9118800E+02  0.7815553E-02  0.1125453E+00
         25   -1    0    0    0    0  0.00000000000E+00  0.00000000000E+00  0.99999998245E-14  0.12509000000E+03  0.12509000000E+03 0.  0.
        -13    1    3    3    0    0  0.14182920980E+02  0.14935545750E+02 -0.48205584995E+02  0.52421516223E+02  0.10566000000E+00 0.  1.
         23    2    1    0    0    0 -0.83391953192E+01 -0.14030610753E+02 -0.22798387642E+02  0.97051335700E+02  0.92912835848E+02 0.  0.
         13    1    3    3    0    0 -0.22522116299E+02 -0.28966156503E+02  0.25407197353E+02  0.44629819476E+02  0.10566000000E+00 0. -1.
         22    1    1    0    0    0  0.83391953192E+01  0.14030610753E+02  0.22798387642E+02  0.28038664300E+02  0.00000000000E+00 0.  1.
</event>
<event>
 5    1  0.1264859E-009  0.9118800E+02  0.7815553E-02  0.1125453E+00
         25   -1    0    0    0    0  0.00000000000E+00  0.00000000000E+00  0.99999998245E-14  0.12509000000E+03  0.12509000000E+03 0.  0.
        -13    1    3    3    0    0 -0.19818566328E+02 -0.39491014467E+02  0.92092532557E+01  0.45134657465E+02  0.10566000000E+00 0.  1.
         23    2    1    0    0    0 -0.24150402751E+02  0.10544973162E+02  0.13388952854E+02  0.95531541472E+02  0.90843673117E+02 0.  0.
         13    1    3    3    0    0 -0.43318364230E+01  0.50035987629E+02  0.41796995988E+01  0.50396884007E+02  0.10566000000E+00 0. -1.
         22    1    1    0    0    0  0.24150402751E+02 -0.10544973162E+02 -0.13388952854E+02  0.29558458528E+02  0.00000000000E+00 0. -1.
</event>
<event>
 5    1  0.1264859E-009  0.9118800E+02  0.7815553E-02  0.1125453E+00
         25   -1    0    0    0    0  0.00000000000E+00  0.00000000000E+00  0.99999998245E-14  0.12509000000E+03  0.12509000000E+03 0.  0.
        -13    1    3    3    0    0 -0.45574353083E+01  0.76354278024E+01  0.46308928750E+02  0.47155042364E+02  0.10566000000E+00 0. -1.
         23    2    1    0    0    0  0.26152890912E+02  0.51867845471E+01  0.62246469706E+01  0.97710762120E+02  0.93796430461E+02 0.  0.
         13    1    3    3    0    0  0.30710326220E+02 -0.24486432553E+01 -0.40084281779E+02  0.50555719757E+02  0.10566000000E+00 0.  1.
         22    1    1    0    0    0 -0.26152890912E+02 -0.51867845471E+01 -0.62246469706E+01  0.27379237880E+02  0.00000000000E+00 0. -1.
</event>
<event>
 5    1  0.1264859E-009  0.9118800E+02  0.7815553E-02  0.1125453E+00
         25   -1    0    0    0    0  0.00000000000E+00  0.00000000000E+00  0.99999998245E-14  0.12509000000E+03  0.12509000000E+03 0.  0.
        -13    1    3    3    0    0 -0.26689542867E+02 -0.31497589990E+02  0.44054478243E+01  0.41519260689E+02  0.10566000000E+00 0. -1.
         23    2    1    0    0    0  0.25204895607E+02 -0.12938609905E+02  0.90368695401E+00  0.96743729718E+02  0.92497774031E+02 0.  0.
         13    1    3    3    0    0  0.51894438473E+02  0.18558980085E+02 -0.35017608703E+01  0.55224469029E+02  0.10566000000E+00 0.  1.
         22    1    1    0    0    0 -0.25204895607E+02  0.12938609905E+02 -0.90368695401E+00  0.28346270282E+02  0.00000000000E+00 0.  1.
</event>
<event>
 5    1  0.1264859E-009  0.9118800E+02  0.7815553E-02  0.1125453E+00
         25   -1    0    0    0    0  0.00000000000E+00  0.00000000000E+00  0.99999998245E-14  0.12509000000E+03  0.12509000000E+03 0.  0.
        -13    1    3    3    0    0  0.11515799226E+02  0.38253758766E+02 -0.36826271324E+01  0.40119030374E+02  0.10566000000E+00 0.  1.
         23    2    1    0    0    0 -0.93412314395E+01 -0.81559349764E+01 -0.26461928004E+02  0.95866524610E+02  0.91303773345E+02 0.  0.
         13    1    3    3    0    0 -0.20857030665E+02 -0.46409693742E+02 -0.22779300872E+02  0.55747494236E+02  0.10566000000E+00 0. -1.
         22    1    1    0    0    0  0.93412314395E+01  0.81559349764E+01  0.26461928004E+02  0.29223475390E+02  0.00000000000E+00 0. -1.
</event>
<event>
 5    1  0.1264859E-009  0.9118800E+02  0.7815553E-02  0.1125453E+00
         25   -1    0    0    0    0  0.00000000000E+00  0.00000000000E+00  0.99999998245E-14  0.12509000000E+03  0.12509000000E+03 0.  0.
        -13    1    3    3    0    0  0.85011166856E+01  0.16431494864E+01  0.34576536699E+02  0.35644312018E+02  0.10566000000E+00 0. -1.
         23    2    1    0    0    0  0.49875428163E+01 -0.17898733083E+02 -0.22403095711E+02  0.95984348886E+02  0.91465055100E+02 0.  0.
         13    1    3    3    0    0 -0.35135738693E+01 -0.19541882569E+02 -0.56979632410E+02  0.60340036868E+02  0.10566000000E+00 0.  1.
         22    1    1    0    0    0 -0.49875428163E+01  0.17898733083E+02  0.22403095711E+02  0.29105651114E+02  0.00000000000E+00 0.  1.
</event>
<event>
 5    1  0.1264859E-009  0.9118800E+02  0.7815553E-02  0.1125453E+00
         25   -1    0    0    0    0  0.00000000000E+00  0.00000000000E+00  0.99999998245E-14  0.12509000000E+03  0.12509000000E+03 0.  0.
        -13    1    3    3    0    0  0.68660289731E+01  0.57520109569E+02  0.15601996630E+02  0.59992823083E+02  0.10566000000E+00 0.  1.
         23    2    1    0    0    0  0.36247471085E+01  0.28670438421E+02 -0.52258391284E+01  0.95722633324E+02  0.91106422963E+02 0.  0.
         13    1    3    3    0    0 -0.32412818647E+01 -0.28849671147E+02 -0.20827835758E+02  0.35729810241E+02  0.10566000000E+00 0. -1.
         22    1    1    0    0    0 -0.36247471085E+01 -0.28670438421E+02  0.52258391284E+01  0.29367366676E+02  0.00000000000E+00 0.  1.
</event>
<event>
 5    1  0.1264859E-009  0.9118800E+02  0.7815553E-02  0.1125453E+00
         25   -1    0    0    0    0  0.00000000000E+00  0.00000000000E+00  0.99999998245E-14  0.12509000000E+03  0.12509000000E+03 0.  0.
        -13    1    3    3    0    0 -0.38341410606E+02 -0.43967668262E+01 -0.22404523659E+02  0.44624759609E+02  0.10566000000E+00 0.  1.
         23    2    1    0    0    0  0.11892141974E+01  0.26146227205E+02 -0.14398194770E+02  0.95217814943E+02  0.90410645626E+02 0.  0.
         13    1    3    3    0    0  0.39530624803E+02  0.30542994031E+02  0.80063288897E+01  0.50593055334E+02  0.10566000000E+00 0. -1.
         22    1    1    0    0    0 -0.11892141974E+01 -0.26146227205E+02  0.14398194770E+02  0.29872185057E+02  0.00000000000E+00 0.  1.
</event>
<event>
 5    1  0.1264859E-009  0.9118800E+02  0.7815553E-02  0.1125453E+00
         25   -1    0    0    0    0  0.00000000000E+00  0.00000000000E+00  0.99999998245E-14  0.12509000000E+03  0.12509000000E+03 0.  0.
        -13    1    3    3    0    0 -0.24608003891E+02 -0.26095942089E+02 -0.17933523526E+02  0.40102050809E+02  0.10566000000E+00 0. -1.
         23    2    1    0    0    0 -0.29989771113E+01 -0.55761703672E+01  0.28840753078E+02  0.95562443755E+02  0.90886215009E+02 0.  0.
         13    1    3    3    0    0  0.21609026780E+02  0.20519771722E+02  0.46774276604E+02  0.55460392946E+02  0.10566000000E+00 0.  1.
         22    1    1    0    0    0  0.29989771113E+01  0.55761703672E+01 -0.28840753078E+02  0.29527556245E+02  0.00000000000E+00 0.  1.
</event>
<event>
 5    1  0.1264859E-009  0.9118800E+02  0.7815553E-02  0.1125453E+00
         25   -1    0    0    0    0  0.00000000000E+00  0.00000000000E+00  0.99999998245E-14  0.12509000000E+03  0.12509000000E+03 0.  0.
        -13    1    3    3    0    0  0.77480223409E+01  0.35629043253E+02 -0.71936405676E+01  0.37164770980E+02  0.10566000000E+00 0. -1.
         23    2    1    0    0    0 -0.13404907645E+02 -0.11250863733E+02  0.22525401552E+02  0.96565147700E+02  0.92255951307E+02 0.  0.
         13    1    3    3    0    0 -0.21152929986E+02 -0.46879906986E+02  0.29719042119E+02  0.59400376720E+02  0.10566000000E+00 0.  1.
         22    1    1    0    0    0  0.13404907645E+02  0.11250863733E+02 -0.22525401552E+02  0.28524852300E+02  0.00000000000E+00 0.  1.
</event>
<event>
 5    1  0.1264859E-009  0.9118800E+02  0.7815553E-02  0.1125453E+00
         25   -1    0    0    0    0  0.00000000000E+00  0.00000000000E+00  0.99999998245E-14  0.12509000000E+03  0.12509000000E+03 0.  0.
        -13    1    3    3    0    0  0.80754663446E+01  0.29162552957E+02 -0.15397588658E+02  0.33952386546E+02  0.10566000000E+00 0.  1.
         23    2    1    0    0    0 -0.69193773562E+01 -0.25219848932E+02  0.11587078301E+02  0.96486172516E+02  0.92148806504E+02 0.  0.
         13    1    3    3    0    0 -0.14994843701E+02 -0.54382401889E+02  0.26984666959E+02  0.62533785970E+02  0.10566000000E+00 0. -1.
         22    1    1    0    0    0  0.69193773562E+01  0.25219848932E+02 -0.11587078301E+02  0.28603827484E+02  0.00000000000E+00 0. -1.
</event>
<event>
 5    1  0.1264859E-009  0.9118800E+02  0.7815553E-02  0.1125453E+00
         25   -1    0    0    0    0  0.00000000000E+00  0.00000000000E+00  0.99999998245E-14  0.12509000000E+03  0.12509000000E+03 0.  0.
        -13    1    3    3    0    0  0.29197723821E+01 -0.42207364482E+02 -0.32477999596E+02  0.53336838199E+02  0.10566000000E+00 0. -1.
         23    2    1    0    0    0  0.25258918910E+02 -0.22522255731E+02 -0.13445241265E+02  0.88675174717E+02  0.80853244280E+02 0.  0.
         13    1    3    3    0    0  0.22339146528E+02  0.19685108751E+02  0.19032758331E+02  0.35338336518E+02  0.10566000000E+00 0.  1.
         22    1    1    0    0    0 -0.25258918910E+02  0.22522255731E+02  0.13445241265E+02  0.36414825283E+02  0.00000000000E+00 0.  1.
</event>
<event>
 4    1  0.1264859E-009  0.9118800E+02  0.7815553E-02  0.1125453E+00
         25   -1    0    0    0    0  0.00000000000E+00  0.00000000000E+00  0.99999998245E-14  0.12509000000E+03  0.12509000000E+03 0.  0.
        -13    1    1    0    0    0 -0.12815500506E+02  0.30394743080E+01  0.48054087008E+02  0.49826518035E+02  0.10566000000E+00 0.  1.
         13    1    1    0    0    0 -0.51117898000E+01  0.15083743734E+02  0.47568353380E+01  0.16621924270E+02  0.10566000000E+00 0. -1.
         22    1    1    0    0    0  0.17927290306E+02 -0.18123218042E+02 -0.52810922346E+02  0.58641557695E+02  0.00000000000E+00 0.  1.
</event>
<event>
 5    1  0.1264859E-009  0.9118800E+02  0.7815553E-02  0.1125453E+00
         25   -1    0    0    0    0  0.00000000000E+00  0.00000000000E+00  0.99999998245E-14  0.12509000000E+03  0.12509000000E+03 0.  0.
        -13    1    3    3    0    0  0.10333678492E+02  0.31887941027E+02  0.16467186927E+02  0.37347089624E+02  0.10566000000E+00 0. -1.
         23    2    1    0    0    0 -0.23769872540E+02 -0.13236417245E+02 -0.41883216346E+01  0.97562711355E+02  0.93598776844E+02 0.  0.
         13    1    3    3    0    0 -0.34103551031E+02 -0.45124358272E+02 -0.20655508561E+02  0.60215621730E+02  0.10566000000E+00 0.  1.
         22    1    1    0    0    0  0.23769872540E+02  0.13236417245E+02  0.41883216346E+01  0.27527288645E+02  0.00000000000E+00 0.  1.
</event>
<event>
 5    1  0.1264859E-009  0.9118800E+02  0.7815553E-02  0.1125453E+00
         25   -1    0    0    0    0  0.00000000000E+00  0.00000000000E+00  0.99999998245E-14  0.12509000000E+03  0.12509000000E+03 0.  0.
        -13    1    3    3    0    0 -0.72117376354E+01 -0.46607261545E+02 -0.21969027874E+02  0.52027832342E+02  0.10566000000E+00 0.  1.
         23    2    1    0    0    0  0.19104960452E+02 -0.11123265045E+02 -0.18360002824E+02  0.96352981316E+02  0.91967824622E+02 0.  0.
         13    1    3    3    0    0  0.26316698087E+02  0.35483996499E+02  0.36090250499E+01  0.44325148975E+02  0.10566000000E+00 0. -1.
         22    1    1    0    0    0 -0.19104960452E+02  0.11123265045E+02  0.18360002824E+02  0.28737018684E+02  0.00000000000E+00 0.  1.
</event>
<event>
 5    1  0.1264859E-009  0.9118800E+02  0.7815553E-02  0.1125453E+00
         25   -1    0    0    0    0  0.00000000000E+00  0.00000000000E+00  0.99999998245E-14  0.12509000000E+03  0.12509000000E+03 0.  0.
        -13    1    3    3    0    0  0.14517773626E+02 -0.27471100967E+02 -0.18673705854E+00  0.31072064208E+02  0.10566000000E+00 0.  1.
         23    2    1    0    0    0 -0.13239625931E+02  0.23464390731E+02  0.18945682204E+02  0.92153634060E+02  0.86066765183E+02 0.  0.
         13    1    3    3    0    0 -0.27757399557E+02  0.50935491698E+02  0.19132419262E+02  0.61081569852E+02  0.10566000000E+00 0. -1.
         22    1    1    0    0    0  0.13239625931E+02 -0.23464390731E+02 -0.18945682204E+02  0.32936365940E+02  0.00000000000E+00 0. -1.
</event>
<event>
 5    1  0.1264859E-009  0.9118800E+02  0.7815553E-02  0.1125453E+00
         25   -1    0    0    0    0  0.00000000000E+00  0.00000000000E+00  0.99999998245E-14  0.12509000000E+03  0.12509000000E+03 0.  0.
        -13    1    3    3    0    0  0.30397486446E+01  0.16531877749E+02  0.59258577819E+02  0.61596536127E+02  0.10566000000E+00 0.  1.
         23    2    1    0    0    0 -0.61385809955E-01  0.79789084324E+01  0.49548309791E+02  0.74903330942E+02  0.55604021753E+02 0.  0.
         13    1    3    3    0    0 -0.31011344546E+01 -0.85529693166E+01 -0.97102680280E+01  0.13306794815E+02  0.10566000000E+00 0. -1.
         22    1    1    0    0    0  0.61385809955E-01 -0.79789084324E+01 -0.49548309791E+02  0.50186669058E+02  0.00000000000E+00 0.  1.
</event>
<event>
 5    1  0.1264859E-009  0.9118800E+02  0.7815553E-02  0.1125453E+00
         25   -1    0    0    0    0  0.00000000000E+00  0.00000000000E+00  0.99999998245E-14  0.12509000000E+03  0.12509000000E+03 0.  0.
        -13    1    3    3    0    0  0.49336594800E+02 -0.46611655700E+01 -0.20082980686E+02  0.53471144818E+02  0.10566000000E+00 0.  1.
         23    2    1    0    0    0  0.91039419243E+01  0.96572277076E+01 -0.25326639535E+02  0.96496600837E+02  0.92162961635E+02 0.  0.
         13    1    3    3    0    0 -0.40232652875E+02  0.14318393278E+02 -0.52436588489E+01  0.43025456018E+02  0.10566000000E+00 0. -1.
         22    1    1    0    0    0 -0.91039419243E+01 -0.96572277076E+01  0.25326639535E+02  0.28593399163E+02  0.00000000000E+00 0.  1.
</event>
<event>
 5    1  0.1264859E-009  0.9118800E+02  0.7815553E-02  0.1125453E+00
         25   -1    0    0    0    0  0.00000000000E+00  0.00000000000E+00  0.99999998245E-14  0.12509000000E+03  0.12509000000E+03 0.  0.
        -13    1    3    3    0    0 -0.23103933146E+02  0.16757690996E+02  0.21936007913E+02  0.35997382426E+02  0.10566000000E+00 0. -1.
         23    2    1    0    0    0  0.13554844691E+02 -0.26418836181E+02  0.83772654600E+01  0.94237653309E+02  0.89044191303E+02 0.  0.
         13    1    3    3    0    0  0.36658777837E+02 -0.43176527177E+02 -0.13558742453E+02  0.58240270883E+02  0.10566000000E+00 0.  1.
         22    1    1    0    0    0 -0.13554844691E+02  0.26418836181E+02 -0.83772654600E+01  0.30852346691E+02  0.00000000000E+00 0.  1.
</event>
<event>
 5    1  0.1264859E-009  0.9118800E+02  0.7815553E-02  0.1125453E+00
         25   -1    0    0    0    0  0.00000000000E+00  0.00000000000E+00  0.99999998245E-14  0.12509000000E+03  0.12509000000E+03 0.  0.
        -13    1    3    3    0    0  0.10754965529E+02 -0.49711159249E+01 -0.32434951641E+02  0.34531413656E+02  0.10566000000E+00 0.  1.
         23    2    1    0    0    0 -0.51470923598E+01  0.16509235713E+02  0.23141972729E+02  0.96200584544E+02  0.91760308093E+02 0.  0.
         13    1    3    3    0    0 -0.15902057889E+02  0.21480351638E+02  0.55576924370E+02  0.61669170888E+02  0.10566000000E+00 0. -1.
         22    1    1    0    0    0  0.51470923598E+01 -0.16509235713E+02 -0.23141972729E+02  0.28889415456E+02  0.00000000000E+00 0. -1.
</event>
<event>
 5    1  0.1264859E-009  0.9118800E+02  0.7815553E-02  0.1125453E+00
         25   -1    0    0    0    0  0.00000000000E+00  0.00000000000E+00  0.99999998245E-14  0.12509000000E+03  0.12509000000E+03 0.  0.
        -13    1    3    3    0    0 -0.93580642354E+01  0.29222341974E+02 -0.18575319813E+02  0.35868820818E+02  0.10566000000E+00 0.  1.
         23    2    1    0    0    0 -0.85873122362E+01 -0.69711048461E+01  0.28073042183E+02  0.94916602253E+02  0.89992930009E+02 0.  0.
         13    1    3    3    0    0  0.77075199923E+00 -0.36193446820E+02  0.46648361996E+02  0.59047781435E+02  0.10566000000E+00 0. -1.
         22    1    1    0    0    0  0.85873122362E+01  0.69711048461E+01 -0.28073042183E+02  0.30173397747E+02  0.00000000000E+00 0. -1.
</event>
<event>
 5    1  0.1264859E-009  0.9118800E+02  0.7815553E-02  0.1125453E+00
         25   -1    0    0    0    0  0.00000000000E+00  0.00000000000E+00  0.99999998245E-14  0.12509000000E+03  0.12509000000E+03 0.  0.
        -13    1    3    3    0    0 -0.52798731814E+02  0.14391547536E+02  0.28180329304E+02  0.61554568030E+02  0.10566000000E+00 0.  1.
         23    2    1    0    0    0 -0.28637619154E+02  0.44316514326E+00  0.10493469374E+02  0.94587171842E+02  0.89533851428E+02 0.  0.
         13    1    3    3    0    0  0.24161112661E+02 -0.13948382392E+02 -0.17686859930E+02  0.33032603812E+02  0.10566000000E+00 0. -1.
         22    1    1    0    0    0  0.28637619154E+02 -0.44316514326E+00 -0.10493469374E+02  0.30502828158E+02  0.00000000000E+00 0.  1.
</event>
<event>
 5    1  0.1264859E-009  0.9118800E+02  0.7815553E-02  0.1125453E+00
         25   -1    0    0    0    0  0.00000000000E+00  0.00000000000E+00  0.99999998245E-14  0.12509000000E+03  0.12509000000E+03 0.  0.
        -13    1    3    3    0    0  0.19434058996E+02  0.41535148612E+02 -0.29909841507E+02  0.54749073072E+02  0.10566000000E+00 0.  1.
         23    2    1    0    0    0  0.52903001477E+01  0.33236848386E+01 -0.28916344097E+02  0.95506404672E+02  0.90809053629E+02 0.  0.
         13    1    3    3    0    0 -0.14143758848E+02 -0.38211463773E+02  0.99349740921E+00  0.40757331600E+02  0.10566000000E+00 0. -1.
         22    1    1    0    0    0 -0.52903001477E+01 -0.33236848386E+01  0.28916344097E+02  0.29583595328E+02  0.00000000000E+00 0.  1.
</event>
<event>
 5    1  0.1264859E-009  0.9118800E+02  0.7815553E-02  0.1125453E+00
         25   -1    0    0    0    0  0.00000000000E+00  0.00000000000E+00  0.99999998245E-14  0.12509000000E+03  0.12509000000E+03 0.  0.
        -13    1    3    3    0    0 -0.53117666299E+02  0.19947194000E+02  0.66306872678E+01  0.57125775261E+02  0.10566000000E+00 0.  1.
         23    2    1    0    0    0 -0.29018763187E+02 -0.67077716710E+01 -0.49875414439E+01  0.94891351234E+02  0.89957824293E+02 0.  0.
         13    1    3    3    0    0  0.24098903112E+02 -0.26654965671E+02 -0.11618228712E+02  0.37765575973E+02  0.10566000000E+00 0. -1.
         22    1    1    0    0    0  0.29018763187E+02  0.67077716710E+01  0.49875414439E+01  0.30198648766E+02  0.00000000000E+00 0. -1.
</event>
<event>
 5    1  0.1264859E-009  0.9118800E+02  0.7815553E-02  0.1125453E+00
         25   -1    0    0    0    0  0.00000000000E+00  0.00000000000E+00  0.99999998245E-14  0.12509000000E+03  0.12509000000E+03 0.  0.
        -13    1    3    3    0    0 -0.15713378523E+02 -0.29752465491E+02 -0.13944283844E+02  0.36422159235E+02  0.10566000000E+00 0.  1.
         23    2    1    0    0    0  0.20283433078E+02  0.90570279341E+01  0.16438374485E+02  0.97455464213E+02  0.93455336588E+02 0.  0.
         13    1    3    3    0    0  0.35996811601E+02  0.38809493425E+02  0.30382658329E+02  0.61033304978E+02  0.10566000000E+00 0. -1.
         22    1    1    0    0    0 -0.20283433078E+02 -0.90570279341E+01 -0.16438374485E+02  0.27634535787E+02  0.00000000000E+00 0. -1.
</event>
<event>
 5    1  0.1264859E-009  0.9118800E+02  0.7815553E-02  0.1125453E+00
         25   -1    0    0    0    0  0.00000000000E+00  0.00000000000E+00  0.99999998245E-14  0.12509000000E+03  0.12509000000E+03 0.  0.
        -13    1    3    3    0    0 -0.28842091426E+02  0.32598309742E+02 -0.30561715446E+02  0.53184073282E+02  0.10566000000E+00 0.  1.
         23    2    1    0    0    0 -0.16224282720E+02  0.17181771692E+02  0.10810724063E+02  0.99103226768E+02  0.95635438896E+02 0.  0.
         13    1    3    3    0    0  0.12617808705E+02 -0.15416538050E+02  0.41372439508E+02  0.45919153486E+02  0.10566000000E+00 0. -1.
         22    1    1    0    0    0  0.16224282720E+02 -0.17181771692E+02 -0.10810724063E+02  0.25986773232E+02  0.00000000000E+00 0.  1.
</event>
<event>
 5    1  0.1264859E-009  0.9118800E+02  0.7815553E-02  0.1125453E+00
         25   -1    0    0    0    0  0.00000000000E+00  0.00000000000E+00  0.99999998245E-14  0.12509000000E+03  0.12509000000E+03 0.  0.
        -13    1    3    3    0    0  0.13579408570E+02 -0.37579147805E+02 -0.69348445375E+01  0.40554850754E+02  0.10566000000E+00 0.  1.
         23    2    1    0    0    0  0.15979524579E+02  0.79911840027E+01  0.23620574234E+02  0.95473522244E+02  0.90763746589E+02 0.  0.
         13    1    3    3    0    0  0.24001160095E+01  0.45570331808E+02  0.30555418771E+02  0.54918671490E+02  0.10566000000E+00 0. -1.
         22    1    1    0    0    0 -0.15979524579E+02 -0.79911840027E+01 -0.23620574234E+02  0.29616477756E+02  0.00000000000E+00 0. -1.
</event>
<event>
 5    1  0.1264859E-009  0.9118800E+02  0.7815553E-02  0.1125453E+00
         25   -1    0    0    0    0  0.00000000000E+00  0.00000000000E+00  0.99999998245E-14  0.12509000000E+03  0.12509000000E+03 0.  0.
        -13    1    3    3    0    0  0.22521587921E+02 -0.46320740562E+02 -0.17729164871E+02  0.54471711738E+02  0.10566000000E+00 0.  1.
         23    2    1    0    0    0  0.23369383625E+02 -0.54048616903E+01 -0.17502153331E+02  0.95397139038E+02  0.90658414637E+02 0.  0.
         13    1    3    3    0    0  0.84779570441E+00  0.40915878871E+02  0.22701154030E+00  0.40925427300E+02  0.10566000000E+00 0. -1.
         22    1    1    0    0    0 -0.23369383625E+02  0.54048616903E+01  0.17502153331E+02  0.29692860962E+02  0.00000000000E+00 0.  1.
</event>
<event>
 4    1  0.1264859E-009  0.9118800E+02  0.7815553E-02  0.1125453E+00
         25   -1    0    0    0    0  0.00000000000E+00  0.00000000000E+00  0.99999998245E-14  0.12509000000E+03  0.12509000000E+03 0.  0.
        -13    1    1    0    0    0 -0.10297563956E+02 -0.37820849996E+01 -0.35803088585E+01  0.11540093844E+02  0.10566000000E+00 0. -1.
         13    1    1    0    0    0  0.31980353233E+02  0.22016952940E+02  0.47460262404E+02  0.61318650353E+02  0.10566000000E+00 0.  1.
         22    1    1    0    0    0 -0.21682789277E+02 -0.18234867940E+02 -0.43879953545E+02  0.52231255803E+02  0.00000000000E+00 0.  1.
</event>
<event>
 5    1  0.1264859E-009  0.9118800E+02  0.7815553E-02  0.1125453E+00
         25   -1    0    0    0    0  0.00000000000E+00  0.00000000000E+00  0.99999998245E-14  0.12509000000E+03  0.12509000000E+03 0.  0.
        -13    1    3    3    0    0  0.32578083771E+02  0.16312587677E+02  0.95298164558E+01  0.37659801176E+02  0.10566000000E+00 0.  1.
         23    2    1    0    0    0 -0.41303711123E+01 -0.25743243304E+02  0.16976975305E+02  0.93977426467E+02  0.88677869018E+02 0.  0.
         13    1    3    3    0    0 -0.36708454884E+02 -0.42055830981E+02  0.74471588494E+01  0.56317625291E+02  0.10566000000E+00 0. -1.
         22    1    1    0    0    0  0.41303711123E+01  0.25743243304E+02 -0.16976975305E+02  0.31112573533E+02  0.00000000000E+00 0. -1.
</event>
<event>
 5    1  0.1264859E-009  0.9118800E+02  0.7815553E-02  0.1125453E+00
         25   -1    0    0    0    0  0.00000000000E+00  0.00000000000E+00  0.99999998245E-14  0.12509000000E+03  0.12509000000E+03 0.  0.
        -13    1    3    3    0    0  0.12684648859E+02 -0.57786955496E+01 -0.60090832114E+02  0.61686407799E+02  0.10566000000E+00 0. -1.
         23    2    1    0    0    0  0.71676249133E+00 -0.23970211058E+01 -0.37761756579E+02  0.87245453252E+02  0.78610173607E+02 0.  0.
         13    1    3    3    0    0 -0.11967886368E+02  0.33816744438E+01  0.22329075535E+02  0.25559045453E+02  0.10566000000E+00 0.  1.
         22    1    1    0    0    0 -0.71676249133E+00  0.23970211058E+01  0.37761756579E+02  0.37844546748E+02  0.00000000000E+00 0. -1.
</event>
<event>
 5    1  0.1264859E-009  0.9118800E+02  0.7815553E-02  0.1125453E+00
         25   -1    0    0    0    0  0.00000000000E+00  0.00000000000E+00  0.99999998245E-14  0.12509000000E+03  0.12509000000E+03 0.  0.
        -13    1    3    3    0    0 -0.90786398547E-01 -0.37032350823E+01 -0.43077260267E+02  0.43236370204E+02  0.10566000000E+00 0.  1.
         23    2    1    0    0    0 -0.14733160147E+02 -0.26702734305E+02  0.43976605435E+00  0.94589255395E+02  0.89536762364E+02 0.  0.
         13    1    3    3    0    0 -0.14642373749E+02 -0.22999499223E+02  0.43517026322E+02  0.51352885191E+02  0.10566000000E+00 0. -1.
         22    1    1    0    0    0  0.14733160147E+02  0.26702734305E+02 -0.43976605435E+00  0.30500744605E+02  0.00000000000E+00 0.  1.
</event>
<event>
 4    1  0.1264859E-009  0.9118800E+02  0.7815553E-02  0.1125453E+00
         25   -1    0    0    0    0  0.00000000000E+00  0.00000000000E+00  0.99999998245E-14  0.12509000000E+03  0.12509000000E+03 0.  0.
        -13    1    1    0    0    0  0.29731883601E+02  0.10391272000E+02 -0.47319516871E+02  0.56842864787E+02  0.10566000000E+00 0.  1.
         13    1    1    0    0    0 -0.98487880080E+01  0.51168020953E+01 -0.33974454496E+01  0.11607501390E+02  0.10566000000E+00 0. -1.
         22    1    1    0    0    0 -0.19883095593E+02 -0.15508074095E+02  0.50716962321E+02  0.56639633823E+02  0.00000000000E+00 0.  1.
</event>
<event>
 5    1  0.1264859E-009  0.9118800E+02  0.7815553E-02  0.1125453E+00
         25   -1    0    0    0    0  0.00000000000E+00  0.00000000000E+00  0.99999998245E-14  0.12509000000E+03  0.12509000000E+03 0.  0.
        -13    1    3    3    0    0  0.16243039858E+02 -0.56845680594E+02 -0.90474924080E+01  0.59809163419E+02  0.10566000000E+00 0.  1.
         23    2    1    0    0    0 -0.18517464371E+01 -0.24949076254E+02 -0.13351092573E+02  0.96732689766E+02  0.92482842872E+02 0.  0.
         13    1    3    3    0    0 -0.18094786295E+02  0.31896604340E+02 -0.43036001648E+01  0.36923526347E+02  0.10566000000E+00 0. -1.
         22    1    1    0    0    0  0.18517464371E+01  0.24949076254E+02  0.13351092573E+02  0.28357310234E+02  0.00000000000E+00 0.  1.
</event>
<event>
 5    1  0.1264859E-009  0.9118800E+02  0.7815553E-02  0.1125453E+00
         25   -1    0    0    0    0  0.00000000000E+00  0.00000000000E+00  0.99999998245E-14  0.12509000000E+03  0.12509000000E+03 0.  0.
        -13    1    3    3    0    0 -0.13668215881E+02  0.11166807603E+01 -0.40864995272E+02  0.43104826921E+02  0.10566000000E+00 0.  1.
         23    2    1    0    0    0  0.77537170007E+01 -0.28588534808E+02 -0.37756741478E+01  0.95228985867E+02  0.90426100127E+02 0.  0.
         13    1    3    3    0    0  0.21421932882E+02 -0.29705215568E+02  0.37089321124E+02  0.52124158946E+02  0.10566000000E+00 0. -1.
         22    1    1    0    0    0 -0.77537170007E+01  0.28588534808E+02  0.37756741478E+01  0.29861014133E+02  0.00000000000E+00 0. -1.
</event>
<event>
 5    1  0.1264859E-009  0.9118800E+02  0.7815553E-02  0.1125453E+00
         25   -1    0    0    0    0  0.00000000000E+00  0.00000000000E+00  0.99999998245E-14  0.12509000000E+03  0.12509000000E+03 0.  0.
        -13    1    3    3    0    0 -0.21654594281E+02  0.24724505337E+02 -0.16152411974E+02  0.36621499072E+02  0.10566000000E+00 0.  1.
         23    2    1    0    0    0  0.22479306949E+02  0.16157200129E+02  0.17109406997E+02  0.92546088669E+02  0.86635283593E+02 0.  0.
         13    1    3    3    0    0  0.44133901230E+02 -0.85673052082E+01  0.33261818971E+02  0.55924589597E+02  0.10566000000E+00 0. -1.
         22    1    1    0    0    0 -0.22479306949E+02 -0.16157200129E+02 -0.17109406997E+02  0.32543911331E+02  0.00000000000E+00 0. -1.
</event>
<event>
 5    1  0.1264859E-009  0.9118800E+02  0.7815553E-02  0.1125453E+00
         25   -1    0    0    0    0  0.00000000000E+00  0.00000000000E+00  0.99999998245E-14  0.12509000000E+03  0.12509000000E+03 0.  0.
        -13    1    3    3    0    0  0.28851230792E+02  0.19435698738E+02 -0.47190753222E+02  0.58626941395E+02  0.10566000000E+00 0.  1.
         23    2    1    0    0    0  0.13202813170E+02 -0.64642880685E+01 -0.24762083789E+02  0.96293088891E+02  0.91886325853E+02 0.  0.
         13    1    3    3    0    0 -0.15648417622E+02 -0.25899986806E+02  0.22428669433E+02  0.37666147496E+02  0.10566000000E+00 0. -1.
         22    1    1    0    0    0 -0.13202813170E+02  0.64642880685E+01  0.24762083789E+02  0.28796911109E+02  0.00000000000E+00 0.  1.
</event>
<event>
 5    1  0.1264859E-009  0.9118800E+02  0.7815553E-02  0.1125453E+00
         25   -1    0    0    0    0  0.00000000000E+00  0.00000000000E+00  0.99999998245E-14  0.12509000000E+03  0.12509000000E+03 0.  0.
        -13    1    3    3    0    0  0.38111698417E+02  0.33763536184E+02  0.16831820957E+02  0.53626479398E+02  0.10566000000E+00 0. -1.
         23    2    1    0    0    0  0.12049389583E+02  0.23355792253E+02 -0.13995766642E+02  0.95314803863E+02  0.90544737730E+02 0.  0.
         13    1    3    3    0    0 -0.26062308834E+02 -0.10407743931E+02 -0.30827587599E+02  0.41688324465E+02  0.10566000000E+00 0.  1.
         22    1    1    0    0    0 -0.12049389583E+02 -0.23355792253E+02  0.13995766642E+02  0.29775196137E+02  0.00000000000E+00 0. -1.
</event>
<event>
 5    1  0.1264859E-009  0.9118800E+02  0.7815553E-02  0.1125453E+00
         25   -1    0    0    0    0  0.00000000000E+00  0.00000000000E+00  0.99999998245E-14  0.12509000000E+03  0.12509000000E+03 0.  0.
        -13    1    3    3    0    0 -0.21599811341E+02 -0.15768227082E+02 -0.32560558036E+02  0.42135376335E+02  0.10566000000E+00 0.  1.
         23    2    1    0    0    0 -0.26401973054E+02  0.14849496220E+02  0.85459980697E+01  0.93616109199E+02  0.88166717641E+02 0.  0.
         13    1    3    3    0    0 -0.48021617127E+01  0.30617723302E+02  0.41106556106E+02  0.51480732864E+02  0.10566000000E+00 0. -1.
         22    1    1    0    0    0  0.26401973054E+02 -0.14849496220E+02 -0.85459980697E+01  0.31473890801E+02  0.00000000000E+00 0. -1.
</event>
<event>
 5    1  0.1264859E-009  0.9118800E+02  0.7815553E-02  0.1125453E+00
         25   -1    0    0    0    0  0.00000000000E+00  0.00000000000E+00  0.99999998245E-14  0.12509000000E+03  0.12509000000E+03 0.  0.
        -13    1    3    3    0    0 -0.16785080743E+02  0.19390186687E+02 -0.41758080346E+02  0.49004762152E+02  0.10566000000E+00 0.  1.
         23    2    1    0    0    0  0.20205005682E+02  0.58377976963E+00 -0.22779532702E+02  0.94635276827E+02  0.89601034908E+02 0.  0.
         13    1    3    3    0    0  0.36990086424E+02 -0.18806406917E+02  0.18978547645E+02  0.45630514675E+02  0.10566000000E+00 0. -1.
         22    1    1    0    0    0 -0.20205005682E+02 -0.58377976963E+00  0.22779532702E+02  0.30454723173E+02  0.00000000000E+00 0. -1.
</event>
<event>
 5    1  0.1264859E-009  0.9118800E+02  0.7815553E-02  0.1125453E+00
         25   -1    0    0    0    0  0.00000000000E+00  0.00000000000E+00  0.99999998245E-14  0.12509000000E+03  0.12509000000E+03 0.  0.
        -13    1    3    3    0    0 -0.12112520050E+02 -0.28774844693E+02  0.15782203585E+01  0.31260306662E+02  0.10566000000E+00 0.  1.
         23    2    1    0    0    0  0.17151760118E+01  0.30606464176E+02 -0.90008019394E+01  0.93141417658E+02  0.87490638184E+02 0.  0.
         13    1    3    3    0    0  0.13827696062E+02  0.59381308869E+02 -0.10579022298E+02  0.61881110996E+02  0.10566000000E+00 0. -1.
         22    1    1    0    0    0 -0.17151760118E+01 -0.30606464176E+02  0.90008019394E+01  0.31948582342E+02  0.00000000000E+00 0. -1.
</event>
<event>
 5    1  0.1264859E-009  0.9118800E+02  0.7815553E-02  0.1125453E+00
         25   -1    0    0    0    0  0.00000000000E+00  0.00000000000E+00  0.99999998245E-14  0.12509000000E+03  0.12509000000E+03 0.  0.
        -13    1    3    3    0    0  0.31332893701E+02  0.55601475039E+00 -0.42919351855E+02  0.53142650553E+02  0.10566000000E+00 0.  1.
         23    2    1    0    0    0 -0.65495916940E+01  0.12809608801E+02 -0.23726680156E+02  0.97342232879E+02  0.93303653314E+02 0.  0.
         13    1    3    3    0    0 -0.37882485395E+02  0.12253594050E+02  0.19192671699E+02  0.44199582327E+02  0.10566000000E+00 0. -1.
         22    1    1    0    0    0  0.65495916940E+01 -0.12809608801E+02  0.23726680156E+02  0.27747767121E+02  0.00000000000E+00 0.  1.
</event>
<event>
 5    1  0.1264859E-009  0.9118800E+02  0.7815553E-02  0.1125453E+00
         25   -1    0    0    0    0  0.00000000000E+00  0.00000000000E+00  0.99999998245E-14  0.12509000000E+03  0.12509000000E+03 0.  0.
        -13    1    3    3    0    0 -0.38337704772E+02 -0.18429611540E+02 -0.24024619419E+01  0.42605318636E+02  0.10566000000E+00 0.  1.
         23    2    1    0    0    0 -0.79441722321E+01  0.26607627932E+02 -0.43988095804E+01  0.96975497295E+02  0.92810677259E+02 0.  0.
         13    1    3    3    0    0  0.30393532539E+02  0.45037239472E+02 -0.19963476385E+01  0.54370178659E+02  0.10566000000E+00 0. -1.
         22    1    1    0    0    0  0.79441722321E+01 -0.26607627932E+02  0.43988095804E+01  0.28114502705E+02  0.00000000000E+00 0. -1.
</event>
<event>
 5    1  0.1264859E-009  0.9118800E+02  0.7815553E-02  0.1125453E+00
         25   -1    0    0    0    0  0.00000000000E+00  0.00000000000E+00  0.99999998245E-14  0.12509000000E+03  0.12509000000E+03 0.  0.
        -13    1    3    3    0    0  0.53231783322E+02  0.30246253966E+02 -0.99272884999E+01  0.62024356955E+02  0.10566000000E+00 0. -1.
         23    2    1    0    0    0  0.13449240650E+02  0.24572563614E+01 -0.86254709804E+00  0.11139094272E+03  0.11054536602E+03 0.  0.
         13    1    3    3    0    0 -0.39782542673E+02 -0.27788997605E+02  0.90647414019E+01  0.49366585765E+02  0.10566000000E+00 0.  1.
         22    1    1    0    0    0 -0.13449240650E+02 -0.24572563614E+01  0.86254709804E+00  0.13699057280E+02  0.00000000000E+00 0. -1.
</event>
<event>
 5    1  0.1264859E-009  0.9118800E+02  0.7815553E-02  0.1125453E+00
         25   -1    0    0    0    0  0.00000000000E+00  0.00000000000E+00  0.99999998245E-14  0.12509000000E+03  0.12509000000E+03 0.  0.
        -13    1    3    3    0    0  0.45298328015E+02  0.10002774403E+02  0.40658232687E+02  0.61685468839E+02  0.10566000000E+00 0.  1.
         23    2    1    0    0    0  0.27888773000E+02  0.34251898306E+01  0.15435661822E+02  0.93031066133E+02  0.87332720244E+02 0.  0.
         13    1    3    3    0    0 -0.17409555015E+02 -0.65775845722E+01 -0.25222570865E+02  0.31345597294E+02  0.10566000000E+00 0. -1.
         22    1    1    0    0    0 -0.27888773000E+02 -0.34251898306E+01 -0.15435661822E+02  0.32058933867E+02  0.00000000000E+00 0.  1.
</event>
<event>
 5    1  0.1264859E-009  0.9118800E+02  0.7815553E-02  0.1125453E+00
         25   -1    0    0    0    0  0.00000000000E+00  0.00000000000E+00  0.99999998245E-14  0.12509000000E+03  0.12509000000E+03 0.  0.
        -13    1    3    3    0    0  0.47393387966E+01 -0.26350575401E+02  0.22341777695E+02  0.34870909807E+02  0.10566000000E+00 0. -1.
         23    2    1    0    0    0  0.10562202518E+02  0.15554803358E+02 -0.21994393419E+02  0.96154461792E+02  0.91697410820E+02 0.  0.
         13    1    3    3    0    0  0.58228637210E+01  0.41905378759E+02 -0.44336171113E+02  0.61283551985E+02  0.10566000000E+00 0.  1.
         22    1    1    0    0    0 -0.10562202518E+02 -0.15554803358E+02  0.21994393419E+02  0.28935538208E+02  0.00000000000E+00 0.  1.
</event>
<event>
 5    1  0.1264859E-009  0.9118800E+02  0.7815553E-02  0.1125453E+00
         25   -1    0    0    0    0  0.00000000000E+00  0.00000000000E+00  0.99999998245E-14  0.12509000000E+03  0.12509000000E+03 0.  0.
        -13    1    3    3    0    0  0.53813669818E+01 -0.18437972350E+02  0.31211671150E+02  0.36648294844E+02  0.10566000000E+00 0.  1.
         23    2    1    0    0    0  0.25170738927E+01  0.25357877292E+02 -0.10808505452E+02  0.97410018211E+02  0.93394487289E+02 0.  0.
         13    1    3    3    0    0 -0.28642930890E+01  0.43795849642E+02 -0.42020176602E+02  0.60761723367E+02  0.10566000000E+00 0. -1.
         22    1    1    0    0    0 -0.25170738927E+01 -0.25357877292E+02  0.10808505452E+02  0.27679981789E+02  0.00000000000E+00 0. -1.
</event>
<event>
 5    1  0.1264859E-009  0.9118800E+02  0.7815553E-02  0.1125453E+00
         25   -1    0    0    0    0  0.00000000000E+00  0.00000000000E+00  0.99999998245E-14  0.12509000000E+03  0.12509000000E+03 0.  0.
        -13    1    3    3    0    0 -0.33157014829E+02 -0.18709359485E+02 -0.41205030682E+02  0.56100744044E+02  0.10566000000E+00 0.  1.
         23    2    1    0    0    0 -0.30211789647E+02  0.17296103052E+01 -0.10590075406E+02  0.93029222053E+02  0.87330078857E+02 0.  0.
         13    1    3    3    0    0  0.29452251818E+01  0.20438969790E+02  0.30614955276E+02  0.36928478009E+02  0.10566000000E+00 0. -1.
         22    1    1    0    0    0  0.30211789647E+02 -0.17296103052E+01  0.10590075406E+02  0.32060777947E+02  0.00000000000E+00 0.  1.
</event>
<event>
 5    1  0.1264859E-009  0.9118800E+02  0.7815553E-02  0.1125453E+00
         25   -1    0    0    0    0  0.00000000000E+00  0.00000000000E+00  0.99999998245E-14  0.12509000000E+03  0.12509000000E+03 0.  0.
        -13    1    3    3    0    0  0.35701681175E+02 -0.84604330395E+01 -0.21551294554E+02  0.42551832240E+02  0.10566000000E+00 0.  1.
         23    2    1    0    0    0  0.15112389689E+02 -0.13895555916E+01  0.26076333364E+02  0.94918981645E+02  0.89996237299E+02 0.  0.
         13    1    3    3    0    0 -0.20589291486E+02  0.70708774480E+01  0.47627627918E+02  0.52367149406E+02  0.10566000000E+00 0. -1.
         22    1    1    0    0    0 -0.15112389689E+02  0.13895555916E+01 -0.26076333364E+02  0.30171018355E+02  0.00000000000E+00 0. -1.
</event>
<event>
 5    1  0.1264859E-009  0.9118800E+02  0.7815553E-02  0.1125453E+00
         25   -1    0    0    0    0  0.00000000000E+00  0.00000000000E+00  0.99999998245E-14  0.12509000000E+03  0.12509000000E+03 0.  0.
        -13    1    3    3    0    0 -0.22568157994E+02  0.28508685590E+02 -0.72752347022E-01  0.36360464330E+02  0.10566000000E+00 0.  1.
         23    2    1    0    0    0  0.27747500684E+02  0.13857640525E+01 -0.12124160166E+02  0.94777636252E+02  0.89799559785E+02 0.  0.
         13    1    3    3    0    0  0.50315658678E+02 -0.27122921538E+02 -0.12051407819E+02  0.58417171923E+02  0.10566000000E+00 0. -1.
         22    1    1    0    0    0 -0.27747500684E+02 -0.13857640525E+01  0.12124160166E+02  0.30312363748E+02  0.00000000000E+00 0. -1.
</event>
<event>
 5    1  0.1264859E-009  0.9118800E+02  0.7815553E-02  0.1125453E+00
         25   -1    0    0    0    0  0.00000000000E+00  0.00000000000E+00  0.99999998245E-14  0.12509000000E+03  0.12509000000E+03 0.  0.
        -13    1    3    3    0    0 -0.29088328681E+02  0.83202843537E+01  0.16658320906E+02  0.34537933010E+02  0.10566000000E+00 0. -1.
         23    2    1    0    0    0  0.20913788747E+02 -0.67330821854E+01 -0.17555133443E+02  0.96966990459E+02  0.92799211058E+02 0.  0.
         13    1    3    3    0    0  0.50002117428E+02 -0.15053366539E+02 -0.34213454349E+02  0.62429057449E+02  0.10566000000E+00 0.  1.
         22    1    1    0    0    0 -0.20913788747E+02  0.67330821854E+01  0.17555133443E+02  0.28123009541E+02  0.00000000000E+00 0.  1.
</event>
<event>
 5    1  0.1264859E-009  0.9118800E+02  0.7815553E-02  0.1125453E+00
         25   -1    0    0    0    0  0.00000000000E+00  0.00000000000E+00  0.99999998245E-14  0.12509000000E+03  0.12509000000E+03 0.  0.
        -13    1    3    3    0    0  0.55055730723E+02  0.20770048197E+02  0.27951653541E+01  0.58909697852E+02  0.10566000000E+00 0. -1.
         23    2    1    0    0    0  0.24492627972E+02  0.11601054686E+02 -0.13581827608E+02  0.94775987795E+02  0.89797263469E+02 0.  0.
         13    1    3    3    0    0 -0.30563102751E+02 -0.91689935111E+01 -0.16376992962E+02  0.35866289943E+02  0.10566000000E+00 0.  1.
         22    1    1    0    0    0 -0.24492627972E+02 -0.11601054686E+02  0.13581827608E+02  0.30314012205E+02  0.00000000000E+00 0. -1.
</event>
<event>
 5    1  0.1264859E-009  0.9118800E+02  0.7815553E-02  0.1125453E+00
         25   -1    0    0    0    0  0.00000000000E+00  0.00000000000E+00  0.99999998245E-14  0.12509000000E+03  0.12509000000E+03 0.  0.
        -13    1    3    3    0    0 -0.56168555597E+02  0.17159858243E+02  0.16152531294E+02  0.60912090787E+02  0.10566000000E+00 0.  1.
         23    2    1    0    0    0 -0.22605616633E+02  0.16775636038E+02  0.37706405929E+01  0.96688352191E+02  0.92422853511E+02 0.  0.
         13    1    3    3    0    0  0.33562938965E+02 -0.38422220551E+00 -0.12381890701E+02  0.35776261404E+02  0.10566000000E+00 0. -1.
         22    1    1    0    0    0  0.22605616633E+02 -0.16775636038E+02 -0.37706405929E+01  0.28401647809E+02  0.00000000000E+00 0.  1.
</event>
<event>
 5    1  0.1264859E-009  0.9118800E+02  0.7815553E-02  0.1125453E+00
         25   -1    0    0    0    0  0.00000000000E+00  0.00000000000E+00  0.99999998245E-14  0.12509000000E+03  0.12509000000E+03 0.  0.
        -13    1    3    3    0    0  0.26850778965E+02 -0.55875286476E+00 -0.18684277561E+02  0.32716814145E+02  0.10566000000E+00 0.  1.
         23    2    1    0    0    0 -0.25536863409E+02 -0.29860276557E+01  0.15263909993E+02  0.95189586923E+02  0.90371581575E+02 0.  0.
         13    1    3    3    0    0 -0.52387642374E+02 -0.24272747910E+01  0.33948187554E+02  0.62472772778E+02  0.10566000000E+00 0. -1.
         22    1    1    0    0    0  0.25536863409E+02  0.29860276557E+01 -0.15263909993E+02  0.29900413077E+02  0.00000000000E+00 0. -1.
</event>
<event>
 5    1  0.1264859E-009  0.9118800E+02  0.7815553E-02  0.1125453E+00
         25   -1    0    0    0    0  0.00000000000E+00  0.00000000000E+00  0.99999998245E-14  0.12509000000E+03  0.12509000000E+03 0.  0.
        -13    1    3    3    0    0 -0.38448310263E+02  0.20457457451E+01  0.21830487728E+02  0.44261032480E+02  0.10566000000E+00 0. -1.
         23    2    1    0    0    0  0.12397603372E+02  0.17163982571E+02  0.17745012240E+02  0.97464136639E+02  0.93466943912E+02 0.  0.
         13    1    3    3    0    0  0.50845913635E+02  0.15118236826E+02 -0.40854754879E+01  0.53203104159E+02  0.10566000000E+00 0.  1.
         22    1    1    0    0    0 -0.12397603372E+02 -0.17163982571E+02 -0.17745012240E+02  0.27625863361E+02  0.00000000000E+00 0.  1.
</event>
<event>
 5    1  0.1264859E-009  0.9118800E+02  0.7815553E-02  0.1125453E+00
         25   -1    0    0    0    0  0.00000000000E+00  0.00000000000E+00  0.99999998245E-14  0.12509000000E+03  0.12509000000E+03 0.  0.
        -13    1    3    3    0    0  0.23787716475E+02 -0.35260611488E+02 -0.35078980495E+02  0.55133585175E+02  0.10566000000E+00 0.  1.
         23    2    1    0    0    0  0.88396855360E+01 -0.29129018113E+02  0.96579212696E+00  0.94633925220E+02  0.89599147939E+02 0.  0.
         13    1    3    3    0    0 -0.14948030939E+02  0.61315933750E+01  0.36044772622E+02  0.39500340045E+02  0.10566000000E+00 0. -1.
         22    1    1    0    0    0 -0.88396855360E+01  0.29129018113E+02 -0.96579212696E+00  0.30456074780E+02  0.00000000000E+00 0.  1.
</event>
<event>
 5    1  0.1264859E-009  0.9118800E+02  0.7815553E-02  0.1125453E+00
         25   -1    0    0    0    0  0.00000000000E+00  0.00000000000E+00  0.99999998245E-14  0.12509000000E+03  0.12509000000E+03 0.  0.
        -13    1    3    3    0    0  0.27306659345E+02  0.34419504840E+02  0.42470639389E+02  0.61107465437E+02  0.10566000000E+00 0.  1.
         23    2    1    0    0    0  0.14800389592E+02  0.75745967529E+01  0.23591482855E+02  0.96228535876E+02  0.91798404156E+02 0.  0.
         13    1    3    3    0    0 -0.12506269753E+02 -0.26844908087E+02 -0.18879156533E+02  0.35121070439E+02  0.10566000000E+00 0. -1.
         22    1    1    0    0    0 -0.14800389592E+02 -0.75745967529E+01 -0.23591482855E+02  0.28861464124E+02  0.00000000000E+00 0.  1.
</event>
<event>
 5    1  0.1264859E-009  0.9118800E+02  0.7815553E-02  0.1125453E+00
         25   -1    0    0    0    0  0.00000000000E+00  0.00000000000E+00  0.99999998245E-14  0.12509000000E+03  0.12509000000E+03 0.  0.
        -13    1    3    3    0    0  0.16822651735E+02  0.38055087272E+02  0.30365913643E+00  0.41608829010E+02  0.10566000000E+00 0.  1.
         23    2    1    0    0    0  0.20192335724E+02 -0.13560460233E+02  0.16368940890E+02  0.95771767966E+02  0.91173860343E+02 0.  0.
         13    1    3    3    0    0  0.33696839888E+01 -0.51615547506E+02  0.16065281754E+02  0.54162938956E+02  0.10566000000E+00 0. -1.
         22    1    1    0    0    0 -0.20192335724E+02  0.13560460233E+02 -0.16368940890E+02  0.29318232034E+02  0.00000000000E+00 0. -1.
</event>
<event>
 5    1  0.1264859E-009  0.9118800E+02  0.7815553E-02  0.1125453E+00
         25   -1    0    0    0    0  0.00000000000E+00  0.00000000000E+00  0.99999998245E-14  0.12509000000E+03  0.12509000000E+03 0.  0.
        -13    1    3    3    0    0  0.19463477601E+01 -0.31331195444E+02 -0.35986923468E+02  0.47754600849E+02  0.10566000000E+00 0.  1.
         23    2    1    0    0    0 -0.69131927440E+01 -0.25923868676E+02  0.11160792383E+02  0.96031395635E+02  0.91529374847E+02 0.  0.
         13    1    3    3    0    0 -0.88595405041E+01  0.54073267684E+01  0.47147715851E+02  0.48276794785E+02  0.10566000000E+00 0. -1.
         22    1    1    0    0    0  0.69131927440E+01  0.25923868676E+02 -0.11160792383E+02  0.29058604365E+02  0.00000000000E+00 0. -1.
</event>
<event>
 5    1  0.1264859E-009  0.9118800E+02  0.7815553E-02  0.1125453E+00
         25   -1    0    0    0    0  0.00000000000E+00  0.00000000000E+00  0.99999998245E-14  0.12509000000E+03  0.12509000000E+03 0.  0.
        -13    1    3    3    0    0  0.95926989190E+00  0.20470109359E+02 -0.40106661527E+02  0.45038883632E+02  0.10566000000E+00 0.  1.
         23    2    1    0    0    0 -0.19537535866E+02 -0.17413678872E+02 -0.13938521564E+02  0.95438121426E+02  0.90714944295E+02 0.  0.
         13    1    3    3    0    0 -0.20496805758E+02 -0.37883788232E+02  0.26168139963E+02  0.50399237794E+02  0.10566000000E+00 0. -1.
         22    1    1    0    0    0  0.19537535866E+02  0.17413678872E+02  0.13938521564E+02  0.29651878574E+02  0.00000000000E+00 0. -1.
</event>
<event>
 5    1  0.1264859E-009  0.9118800E+02  0.7815553E-02  0.1125453E+00
         25   -1    0    0    0    0  0.00000000000E+00  0.00000000000E+00  0.99999998245E-14  0.12509000000E+03  0.12509000000E+03 0.  0.
        -13    1    3    3    0    0  0.35440667750E+02 -0.37416280396E+02  0.29734614738E+01  0.51622394427E+02  0.10566000000E+00 0. -1.
         23    2    1    0    0    0 -0.47562932247E+01 -0.26993793272E+02  0.13607262963E+02  0.94488614316E+02  0.89396048177E+02 0.  0.
         13    1    3    3    0    0 -0.40196960975E+02  0.10422487124E+02  0.10633801489E+02  0.42866219889E+02  0.10566000000E+00 0.  1.
         22    1    1    0    0    0  0.47562932247E+01  0.26993793272E+02 -0.13607262963E+02  0.30601385684E+02  0.00000000000E+00 0. -1.
</event>
<event>
 5    1  0.1264859E-009  0.9118800E+02  0.7815553E-02  0.1125453E+00
         25   -1    0    0    0    0  0.00000000000E+00  0.00000000000E+00  0.99999998245E-14  0.12509000000E+03  0.12509000000E+03 0.  0.
        -13    1    3    3    0    0  0.39700285788E+02 -0.41466288326E+02  0.21493569737E+02  0.61298861843E+02  0.10566000000E+00 0. -1.
         23    2    1    0    0    0  0.30352510655E+02 -0.19417770165E+02  0.11290422539E+02  0.87330255001E+02  0.78745000452E+02 0.  0.
         13    1    3    3    0    0 -0.93477751323E+01  0.22048518160E+02 -0.10203147197E+02  0.26031393158E+02  0.10566000000E+00 0.  1.
         22    1    1    0    0    0 -0.30352510655E+02  0.19417770165E+02 -0.11290422539E+02  0.37759744999E+02  0.00000000000E+00 0. -1.
</event>
<event>
 5    1  0.1264859E-009  0.9118800E+02  0.7815553E-02  0.1125453E+00
         25   -1    0    0    0    0  0.00000000000E+00  0.00000000000E+00  0.99999998245E-14  0.12509000000E+03  0.12509000000E+03 0.  0.
        -13    1    3    3    0    0  0.63048312848E+01  0.22749828670E+02  0.54269621082E+02  0.59181995053E+02  0.10566000000E+00 0.  1.
         23    2    1    0    0    0  0.81802054566E+01  0.21957167862E+02  0.17912862887E+02  0.95595871115E+02  0.90932210660E+02 0.  0.
         13    1    3    3    0    0  0.18753741717E+01 -0.79266080764E+00 -0.36356758194E+02  0.36413876062E+02  0.10566000000E+00 0. -1.
         22    1    1    0    0    0 -0.81802054566E+01 -0.21957167862E+02 -0.17912862887E+02  0.29494128885E+02  0.00000000000E+00 0.  1.
</event>
<event>
 5    1  0.1264859E-009  0.9118800E+02  0.7815553E-02  0.1125453E+00
         25   -1    0    0    0    0  0.00000000000E+00  0.00000000000E+00  0.99999998245E-14  0.12509000000E+03  0.12509000000E+03 0.  0.
        -13    1    3    3    0    0 -0.19003326216E+02  0.26235395600E+02 -0.17046415008E+02  0.36606199177E+02  0.10566000000E+00 0. -1.
         23    2    1    0    0    0  0.16936655231E+02 -0.18819064906E+02 -0.17622931032E+02  0.94242387572E+02  0.89050841785E+02 0.  0.
         13    1    3    3    0    0  0.35939981447E+02 -0.45054460506E+02 -0.57651602480E+00  0.57636188395E+02  0.10566000000E+00 0.  1.
         22    1    1    0    0    0 -0.16936655231E+02  0.18819064906E+02  0.17622931032E+02  0.30847612428E+02  0.00000000000E+00 0.  1.
</event>
<event>
 5    1  0.1264859E-009  0.9118800E+02  0.7815553E-02  0.1125453E+00
         25   -1    0    0    0    0  0.00000000000E+00  0.00000000000E+00  0.99999998245E-14  0.12509000000E+03  0.12509000000E+03 0.  0.
        -13    1    3    3    0    0 -0.26612618620E+02 -0.50141313420E+01  0.29739903231E+02  0.40222456304E+02  0.10566000000E+00 0. -1.
         23    2    1    0    0    0  0.26323179697E+02 -0.32188352427E+01  0.10064015629E+02  0.96725319493E+02  0.92472873486E+02 0.  0.
         13    1    3    3    0    0  0.52935798317E+02  0.17952960993E+01 -0.19675887602E+02  0.56502863189E+02  0.10566000000E+00 0.  1.
         22    1    1    0    0    0 -0.26323179697E+02  0.32188352427E+01 -0.10064015629E+02  0.28364680507E+02  0.00000000000E+00 0.  1.
</event>
<event>
 5    1  0.1264859E-009  0.9118800E+02  0.7815553E-02  0.1125453E+00
         25   -1    0    0    0    0  0.00000000000E+00  0.00000000000E+00  0.99999998245E-14  0.12509000000E+03  0.12509000000E+03 0.  0.
        -13    1    3    3    0    0 -0.40858889356E+02 -0.42440798020E+02  0.35029881595E+01  0.59016542308E+02  0.10566000000E+00 0. -1.
         23    2    1    0    0    0 -0.27938491925E+02 -0.78712539071E+01  0.27723141557E+00  0.96062550467E+02  0.91571943170E+02 0.  0.
         13    1    3    3    0    0  0.12920397430E+02  0.34569544113E+02 -0.32257567439E+01  0.37046008159E+02  0.10566000000E+00 0.  1.
         22    1    1    0    0    0  0.27938491925E+02  0.78712539071E+01 -0.27723141557E+00  0.29027449533E+02  0.00000000000E+00 0. -1.
</event>
<event>
 5    1  0.1264859E-009  0.9118800E+02  0.7815553E-02  0.1125453E+00
         25   -1    0    0    0    0  0.00000000000E+00  0.00000000000E+00  0.99999998245E-14  0.12509000000E+03  0.12509000000E+03 0.  0.
        -13    1    3    3    0    0 -0.17566218876E+01 -0.46190456604E+02  0.23181439613E+02  0.51711065628E+02  0.10566000000E+00 0.  1.
         23    2    1    0    0    0  0.17837099442E+02 -0.62532260771E+01  0.21826779187E+02  0.96216599740E+02  0.91782137821E+02 0.  0.
         13    1    3    3    0    0  0.19593721330E+02  0.39937230527E+02 -0.13546604263E+01  0.44505534113E+02  0.10566000000E+00 0. -1.
         22    1    1    0    0    0 -0.17837099442E+02  0.62532260771E+01 -0.21826779187E+02  0.28873400260E+02  0.00000000000E+00 0.  1.
</event>
<event>
 5    1  0.1264859E-009  0.9118800E+02  0.7815553E-02  0.1125453E+00
         25   -1    0    0    0    0  0.00000000000E+00  0.00000000000E+00  0.99999998245E-14  0.12509000000E+03  0.12509000000E+03 0.  0.
        -13    1    3    3    0    0 -0.51032140994E+02 -0.30431536589E+02 -0.43148850185E+01  0.59573376859E+02  0.10566000000E+00 0. -1.
         23    2    1    0    0    0 -0.24968295096E+02 -0.48881124015E+01 -0.12144717610E+02  0.96897739206E+02  0.92705815861E+02 0.  0.
         13    1    3    3    0    0  0.26063845898E+02  0.25543424187E+02 -0.78298325912E+01  0.37324362347E+02  0.10566000000E+00 0.  1.
         22    1    1    0    0    0  0.24968295096E+02  0.48881124015E+01  0.12144717610E+02  0.28192260794E+02  0.00000000000E+00 0. -1.
</event>
<event>
 5    1  0.1264859E-009  0.9118800E+02  0.7815553E-02  0.1125453E+00
         25   -1    0    0    0    0  0.00000000000E+00  0.00000000000E+00  0.99999998245E-14  0.12509000000E+03  0.12509000000E+03 0.  0.
        -13    1    3    3    0    0  0.37863723159E+02  0.21016517360E+02 -0.97157225479E+01  0.44382000429E+02  0.10566000000E+00 0. -1.
         23    2    1    0    0    0  0.16867917431E+02 -0.24249162999E+02  0.14552846568E+01  0.95515240524E+02  0.90821224250E+02 0.  0.
         13    1    3    3    0    0 -0.20995805728E+02 -0.45265680360E+02  0.11171007205E+02  0.51133240095E+02  0.10566000000E+00 0.  1.
         22    1    1    0    0    0 -0.16867917431E+02  0.24249162999E+02 -0.14552846568E+01  0.29574759476E+02  0.00000000000E+00 0. -1.
</event>
<event>
 5    1  0.1264859E-009  0.9118800E+02  0.7815553E-02  0.1125453E+00
         25   -1    0    0    0    0  0.00000000000E+00  0.00000000000E+00  0.99999998245E-14  0.12509000000E+03  0.12509000000E+03 0.  0.
        -13    1    3    3    0    0  0.62653326938E+01 -0.43636797012E+02  0.29979417522E+01  0.44186233897E+02  0.10566000000E+00 0.  1.
         23    2    1    0    0    0 -0.26755238684E+02 -0.41625263061E+01  0.10206662826E+02  0.96153079149E+02  0.91695524654E+02 0.  0.
         13    1    3    3    0    0 -0.33020571378E+02  0.39474270706E+02  0.72087210737E+01  0.51966845252E+02  0.10566000000E+00 0. -1.
         22    1    1    0    0    0  0.26755238684E+02  0.41625263061E+01 -0.10206662826E+02  0.28936920851E+02  0.00000000000E+00 0.  1.
</event>
<event>
 5    1  0.1264859E-009  0.9118800E+02  0.7815553E-02  0.1125453E+00
         25   -1    0    0    0    0  0.00000000000E+00  0.00000000000E+00  0.99999998245E-14  0.12509000000E+03  0.12509000000E+03 0.  0.
        -13    1    3    3    0    0  0.16976318558E+02 -0.26955533822E+02 -0.21427548047E+02  0.38392019676E+02  0.10566000000E+00 0.  1.
         23    2    1    0    0    0 -0.30965878671E+02 -0.11463628783E+02 -0.13598215645E+02  0.89379890850E+02  0.81936273975E+02 0.  0.
         13    1    3    3    0    0 -0.47942197230E+02  0.15491905039E+02  0.78293324026E+01  0.50987871174E+02  0.10566000000E+00 0. -1.
         22    1    1    0    0    0  0.30965878671E+02  0.11463628783E+02  0.13598215645E+02  0.35710109150E+02  0.00000000000E+00 0.  1.
</event>
<event>
 5    1  0.1264859E-009  0.9118800E+02  0.7815553E-02  0.1125453E+00
         25   -1    0    0    0    0  0.00000000000E+00  0.00000000000E+00  0.99999998245E-14  0.12509000000E+03  0.12509000000E+03 0.  0.
        -13    1    3    3    0    0 -0.38696411450E+02  0.65469739889E+01  0.23782433474E+02  0.45889981843E+02  0.10566000000E+00 0. -1.
         23    2    1    0    0    0  0.56986600290E+01 -0.15642505485E+02  0.24430957182E+02  0.95525927668E+02  0.90835942688E+02 0.  0.
         13    1    3    3    0    0  0.44395071479E+02 -0.22189479474E+02  0.64852370854E+00  0.49635945826E+02  0.10566000000E+00 0.  1.
         22    1    1    0    0    0 -0.56986600290E+01  0.15642505485E+02 -0.24430957182E+02  0.29564072332E+02  0.00000000000E+00 0. -1.
</event>
<event>
 5    1  0.1264859E-009  0.9118800E+02  0.7815553E-02  0.1125453E+00
         25   -1    0    0    0    0  0.00000000000E+00  0.00000000000E+00  0.99999998245E-14  0.12509000000E+03  0.12509000000E+03 0.  0.
        -13    1    3    3    0    0  0.70579185469E+01  0.22106587425E+02 -0.67141716869E+01  0.24157952879E+02  0.10566000000E+00 0. -1.
         23    2    1    0    0    0 -0.18793058271E+02 -0.32294223475E+02 -0.14744640971E+02  0.84921600152E+02  0.74820971833E+02 0.  0.
         13    1    3    3    0    0 -0.25850976818E+02 -0.54400810900E+02 -0.80304692840E+01  0.60763647273E+02  0.10566000000E+00 0.  1.
         22    1    1    0    0    0  0.18793058271E+02  0.32294223475E+02  0.14744640971E+02  0.40168399848E+02  0.00000000000E+00 0.  1.
</event>
<event>
 5    1  0.1264859E-009  0.9118800E+02  0.7815553E-02  0.1125453E+00
         25   -1    0    0    0    0  0.00000000000E+00  0.00000000000E+00  0.99999998245E-14  0.12509000000E+03  0.12509000000E+03 0.  0.
        -13    1    3    3    0    0  0.29570297802E+02 -0.16027629114E+02 -0.13988283692E+02  0.36427608373E+02  0.10566000000E+00 0.  1.
         23    2    1    0    0    0 -0.22506457150E+02 -0.14411075996E+02  0.13294973515E+02  0.95240778141E+02  0.90442411375E+02 0.  0.
         13    1    3    3    0    0 -0.52076754952E+02  0.16165531184E+01  0.27283257207E+02  0.58813169768E+02  0.10566000000E+00 0. -1.
         22    1    1    0    0    0  0.22506457150E+02  0.14411075996E+02 -0.13294973515E+02  0.29849221859E+02  0.00000000000E+00 0. -1.
</event>
<event>
 5    1  0.1264859E-009  0.9118800E+02  0.7815553E-02  0.1125453E+00
         25   -1    0    0    0    0  0.00000000000E+00  0.00000000000E+00  0.99999998245E-14  0.12509000000E+03  0.12509000000E+03 0.  0.
        -13    1    3    3    0    0  0.71595276975E+01  0.32656034720E+02  0.77110691901E+01  0.34309578729E+02  0.10566000000E+00 0. -1.
         23    2    1    0    0    0  0.29962600427E+01 -0.27218978470E+02  0.13410311359E+02  0.94599233956E+02  0.89550702125E+02 0.  0.
         13    1    3    3    0    0 -0.41632676548E+01 -0.59875013190E+02  0.56992421687E+01  0.60289655227E+02  0.10566000000E+00 0.  1.
         22    1    1    0    0    0 -0.29962600427E+01  0.27218978470E+02 -0.13410311359E+02  0.30490766044E+02  0.00000000000E+00 0.  1.
</event>
<event>
 5    1  0.1264859E-009  0.9118800E+02  0.7815553E-02  0.1125453E+00
         25   -1    0    0    0    0  0.00000000000E+00  0.00000000000E+00  0.99999998245E-14  0.12509000000E+03  0.12509000000E+03 0.  0.
        -13    1    3    3    0    0  0.97776436744E+01  0.50305076187E+02 -0.22412577220E+02  0.55933333422E+02  0.10566000000E+00 0.  1.
         23    2    1    0    0    0 -0.10786093431E+02  0.26816198824E+02  0.27847405708E+01  0.96052040173E+02  0.91557584669E+02 0.  0.
         13    1    3    3    0    0 -0.20563737106E+02 -0.23488877363E+02  0.25197317791E+02  0.40118706751E+02  0.10566000000E+00 0. -1.
         22    1    1    0    0    0  0.10786093431E+02 -0.26816198824E+02 -0.27847405708E+01  0.29037959827E+02  0.00000000000E+00 0.  1.
</event>
<event>
 5    1  0.1264859E-009  0.9118800E+02  0.7815553E-02  0.1125453E+00
         25   -1    0    0    0    0  0.00000000000E+00  0.00000000000E+00  0.99999998245E-14  0.12509000000E+03  0.12509000000E+03 0.  0.
        -13    1    3    3    0    0 -0.28525138286E+02 -0.25621877968E+02 -0.10438402766E+02  0.39738338682E+02  0.10566000000E+00 0.  1.
         23    2    1    0    0    0 -0.85612572927E+01  0.25677670974E+02 -0.13444303299E+02  0.94867703525E+02  0.89924935184E+02 0.  0.
         13    1    3    3    0    0  0.19963880993E+02  0.51299548942E+02 -0.30059005328E+01  0.55129364843E+02  0.10566000000E+00 0. -1.
         22    1    1    0    0    0  0.85612572927E+01 -0.25677670974E+02  0.13444303299E+02  0.30222296475E+02  0.00000000000E+00 0. -1.
</event>
<event>
 5    1  0.1264859E-009  0.9118800E+02  0.7815553E-02  0.1125453E+00
         25   -1    0    0    0    0  0.00000000000E+00  0.00000000000E+00  0.99999998245E-14  0.12509000000E+03  0.12509000000E+03 0.  0.
        -13    1    3    3    0    0  0.48799362225E+02  0.19554293361E+02 -0.31035635739E+01  0.52662998522E+02  0.10566000000E+00 0.  1.
         23    2    1    0    0    0  0.12287892233E+02  0.17592295036E+02  0.19869151433E+02  0.95845097558E+02  0.91274412664E+02 0.  0.
         13    1    3    3    0    0 -0.36511469992E+02 -0.19619983252E+01  0.22972715007E+02  0.43182099037E+02  0.10566000000E+00 0. -1.
         22    1    1    0    0    0 -0.12287892233E+02 -0.17592295036E+02 -0.19869151433E+02  0.29244902442E+02  0.00000000000E+00 0.  1.
</event>
<event>
 5    1  0.1264859E-009  0.9118800E+02  0.7815553E-02  0.1125453E+00
         25   -1    0    0    0    0  0.00000000000E+00  0.00000000000E+00  0.99999998245E-14  0.12509000000E+03  0.12509000000E+03 0.  0.
        -13    1    3    3    0    0 -0.16484071601E+02  0.35036767658E+02  0.26569547391E+02  0.46960107720E+02  0.10566000000E+00 0. -1.
         23    2    1    0    0    0  0.15602636104E+02  0.25251572506E+02 -0.71859364597E+01  0.94549504749E+02  0.89481210307E+02 0.  0.
         13    1    3    3    0    0  0.32086707705E+02 -0.97851951524E+01 -0.33755483851E+02  0.47589397029E+02  0.10566000000E+00 0.  1.
         22    1    1    0    0    0 -0.15602636104E+02 -0.25251572506E+02  0.71859364597E+01  0.30540495251E+02  0.00000000000E+00 0. -1.
</event>
<event>
 5    1  0.1264859E-009  0.9118800E+02  0.7815553E-02  0.1125453E+00
         25   -1    0    0    0    0  0.00000000000E+00  0.00000000000E+00  0.99999998245E-14  0.12509000000E+03  0.12509000000E+03 0.  0.
        -13    1    3    3    0    0 -0.29578931932E+02 -0.19252702205E+02  0.36286673883E+02  0.50619300884E+02  0.10566000000E+00 0.  1.
         23    2    1    0    0    0 -0.23631071761E+02  0.13536021658E+02  0.30472773370E+01  0.97686764168E+02  0.93764420542E+02 0.  0.
         13    1    3    3    0    0  0.59478601712E+01  0.32788723864E+02 -0.33239396546E+02  0.47067463284E+02  0.10566000000E+00 0. -1.
         22    1    1    0    0    0  0.23631071761E+02 -0.13536021658E+02 -0.30472773370E+01  0.27403235832E+02  0.00000000000E+00 0. -1.
</event>
<event>
 5    1  0.1264859E-009  0.9118800E+02  0.7815553E-02  0.1125453E+00
         25   -1    0    0    0    0  0.00000000000E+00  0.00000000000E+00  0.99999998245E-14  0.12509000000E+03  0.12509000000E+03 0.  0.
        -13    1    3    3    0    0 -0.44036168778E+02 -0.26917954579E+02  0.32445069242E+02  0.60962727314E+02  0.10566000000E+00 0. -1.
         23    2    1    0    0    0 -0.18240663399E+02 -0.70234562138E+01  0.23053275359E+02  0.94865767285E+02  0.89922241740E+02 0.  0.
         13    1    3    3    0    0  0.25795505379E+02  0.19894498365E+02 -0.93917938838E+01  0.33903039972E+02  0.10566000000E+00 0.  1.
         22    1    1    0    0    0  0.18240663399E+02  0.70234562138E+01 -0.23053275359E+02  0.30224232715E+02  0.00000000000E+00 0. -1.
</event>
<event>
 5    1  0.1264859E-009  0.9118800E+02  0.7815553E-02  0.1125453E+00
         25   -1    0    0    0    0  0.00000000000E+00  0.00000000000E+00  0.99999998245E-14  0.12509000000E+03  0.12509000000E+03 0.  0.
        -13    1    3    3    0    0 -0.27674581167E+02  0.16953555465E+02  0.48581754775E+01  0.32816436715E+02  0.10566000000E+00 0.  1.
         23    2    1    0    0    0  0.21631214666E+02 -0.76067045111E+01 -0.21297720825E+02  0.93795203088E+02  0.88420449040E+02 0.  0.
         13    1    3    3    0    0  0.49305795833E+02 -0.24560259976E+02 -0.26155896302E+02  0.60978766372E+02  0.10566000000E+00 0. -1.
         22    1    1    0    0    0 -0.21631214666E+02  0.76067045111E+01  0.21297720825E+02  0.31294796912E+02  0.00000000000E+00 0. -1.
</event>
<event>
 5    1  0.1264859E-009  0.9118800E+02  0.7815553E-02  0.1125453E+00
         25   -1    0    0    0    0  0.00000000000E+00  0.00000000000E+00  0.99999998245E-14  0.12509000000E+03  0.12509000000E+03 0.  0.
        -13    1    3    3    0    0  0.49243069200E+02 -0.28489517737E+02 -0.19819784631E+02  0.60244232189E+02  0.10566000000E+00 0.  1.
         23    2    1    0    0    0  0.20699374961E+02 -0.15874217088E+02 -0.21191091373E+02  0.91481708679E+02  0.85084580138E+02 0.  0.
         13    1    3    3    0    0 -0.28543694239E+02  0.12615300649E+02 -0.13713067420E+01  0.31237476491E+02  0.10566000000E+00 0. -1.
         22    1    1    0    0    0 -0.20699374961E+02  0.15874217088E+02  0.21191091373E+02  0.33608291321E+02  0.00000000000E+00 0.  1.
</event>
<event>
 5    1  0.1264859E-009  0.9118800E+02  0.7815553E-02  0.1125453E+00
         25   -1    0    0    0    0  0.00000000000E+00  0.00000000000E+00  0.99999998245E-14  0.12509000000E+03  0.12509000000E+03 0.  0.
        -13    1    3    3    0    0 -0.32574688402E+02  0.16933317544E+02 -0.81498106358E+01  0.37606889594E+02  0.10566000000E+00 0. -1.
         23    2    1    0    0    0  0.52377263442E+01 -0.27772583979E+02  0.66916346037E+00  0.96819910190E+02  0.92600739907E+02 0.  0.
         13    1    3    3    0    0  0.37812414746E+02 -0.44705901523E+02  0.88189740961E+01  0.59213020596E+02  0.10566000000E+00 0.  1.
         22    1    1    0    0    0 -0.52377263442E+01  0.27772583979E+02 -0.66916346037E+00  0.28270089810E+02  0.00000000000E+00 0.  1.
</event>
<event>
 5    1  0.1264859E-009  0.9118800E+02  0.7815553E-02  0.1125453E+00
         25   -1    0    0    0    0  0.00000000000E+00  0.00000000000E+00  0.99999998245E-14  0.12509000000E+03  0.12509000000E+03 0.  0.
        -13    1    3    3    0    0 -0.89323566022E+00 -0.25784194065E+02  0.27000287258E+02  0.37345002472E+02  0.10566000000E+00 0.  1.
         23    2    1    0    0    0 -0.22008576323E+02  0.15452757068E+01 -0.19756847020E+02  0.95474154360E+02  0.90764617764E+02 0.  0.
         13    1    3    3    0    0 -0.21115340663E+02  0.27329469772E+02 -0.46757134278E+02  0.58129151889E+02  0.10566000000E+00 0. -1.
         22    1    1    0    0    0  0.22008576323E+02 -0.15452757068E+01  0.19756847020E+02  0.29615845640E+02  0.00000000000E+00 0. -1.
</event>
<event>
 5    1  0.1264859E-009  0.9118800E+02  0.7815553E-02  0.1125453E+00
         25   -1    0    0    0    0  0.00000000000E+00  0.00000000000E+00  0.99999998245E-14  0.12509000000E+03  0.12509000000E+03 0.  0.
        -13    1    3    3    0    0  0.94832628384E+01 -0.33720259393E+02  0.38846657282E+00  0.35030704217E+02  0.10566000000E+00 0. -1.
         23    2    1    0    0    0  0.13505162862E+02  0.25136206420E+02 -0.98436724470E+01  0.94905298836E+02  0.89977216909E+02 0.  0.
         13    1    3    3    0    0  0.40219000237E+01  0.58856465813E+02 -0.10232139020E+02  0.59874594619E+02  0.10566000000E+00 0.  1.
         22    1    1    0    0    0 -0.13505162862E+02 -0.25136206420E+02  0.98436724470E+01  0.30184701164E+02  0.00000000000E+00 0.  1.
</event>
<event>
 5    1  0.1264859E-009  0.9118800E+02  0.7815553E-02  0.1125453E+00
         25   -1    0    0    0    0  0.00000000000E+00  0.00000000000E+00  0.99999998245E-14  0.12509000000E+03  0.12509000000E+03 0.  0.
        -13    1    3    3    0    0 -0.12628598667E+02  0.33268930588E+02 -0.99799259090E+01  0.36958264731E+02  0.10566000000E+00 0. -1.
         23    2    1    0    0    0  0.20886528215E+02 -0.26358082732E+01  0.21262032731E+02  0.95168960881E+02  0.90343027031E+02 0.  0.
         13    1    3    3    0    0  0.33515126881E+02 -0.35904738861E+02  0.31241958640E+02  0.58210696150E+02  0.10566000000E+00 0.  1.
         22    1    1    0    0    0 -0.20886528215E+02  0.26358082732E+01 -0.21262032731E+02  0.29921039119E+02  0.00000000000E+00 0.  1.
</event>
<event>
 5    1  0.1264859E-009  0.9118800E+02  0.7815553E-02  0.1125453E+00
         25   -1    0    0    0    0  0.00000000000E+00  0.00000000000E+00  0.99999998245E-14  0.12509000000E+03  0.12509000000E+03 0.  0.
        -13    1    3    3    0    0 -0.37802896891E+02  0.30129782920E+02  0.48337536338E+01  0.48582292766E+02  0.10566000000E+00 0.  1.
         23    2    1    0    0    0 -0.22410319403E+02 -0.12210609227E+02  0.15962513686E+02  0.94988119052E+02  0.90092283378E+02 0.  0.
         13    1    3    3    0    0  0.15392577488E+02 -0.42340392147E+02  0.11128760053E+02  0.46405826286E+02  0.10566000000E+00 0. -1.
         22    1    1    0    0    0  0.22410319403E+02  0.12210609227E+02 -0.15962513686E+02  0.30101880948E+02  0.00000000000E+00 0.  1.
</event>
<event>
 5    1  0.1264859E-009  0.9118800E+02  0.7815553E-02  0.1125453E+00
         25   -1    0    0    0    0  0.00000000000E+00  0.00000000000E+00  0.99999998245E-14  0.12509000000E+03  0.12509000000E+03 0.  0.
        -13    1    3    3    0    0  0.36130902292E+02 -0.38681672463E+02  0.33044668414E+02  0.62399320185E+02  0.10566000000E+00 0. -1.
         23    2    1    0    0    0  0.15365028968E+02 -0.17492898204E+02  0.17979033079E+02  0.95673487065E+02  0.91038919666E+02 0.  0.
         13    1    3    3    0    0 -0.20765873324E+02  0.21188774259E+02 -0.15065635335E+02  0.33274166880E+02  0.10566000000E+00 0.  1.
         22    1    1    0    0    0 -0.15365028968E+02  0.17492898204E+02 -0.17979033079E+02  0.29416512935E+02  0.00000000000E+00 0. -1.
</event>
<event>
 5    1  0.1264859E-009  0.9118800E+02  0.7815553E-02  0.1125453E+00
         25   -1    0    0    0    0  0.00000000000E+00  0.00000000000E+00  0.99999998245E-14  0.12509000000E+03  0.12509000000E+03 0.  0.
        -13    1    3    3    0    0  0.53612412776E+02 -0.81160088978E+01 -0.27791511684E+02  0.60930613733E+02  0.10566000000E+00 0. -1.
         23    2    1    0    0    0  0.28955175308E+02 -0.45089513804E+01 -0.37680620980E+01  0.95544592376E+02  0.90861642186E+02 0.  0.
         13    1    3    3    0    0 -0.24657237468E+02  0.36070575174E+01  0.24023449586E+02  0.34613978644E+02  0.10566000000E+00 0.  1.
         22    1    1    0    0    0 -0.28955175308E+02  0.45089513804E+01  0.37680620980E+01  0.29545407624E+02  0.00000000000E+00 0. -1.
</event>
<event>
 5    1  0.1264859E-009  0.9118800E+02  0.7815553E-02  0.1125453E+00
         25   -1    0    0    0    0  0.00000000000E+00  0.00000000000E+00  0.99999998245E-14  0.12509000000E+03  0.12509000000E+03 0.  0.
        -13    1    3    3    0    0 -0.68487815543E+01 -0.42820401853E+02 -0.39068481058E+02  0.58368227658E+02  0.10566000000E+00 0. -1.
         23    2    1    0    0    0  0.12877792495E+02 -0.20786732964E+02 -0.16113258832E+02  0.95805824802E+02  0.91220574154E+02 0.  0.
         13    1    3    3    0    0  0.19726574049E+02  0.22033668889E+02  0.22955222226E+02  0.37437597144E+02  0.10566000000E+00 0.  1.
         22    1    1    0    0    0 -0.12877792495E+02  0.20786732964E+02  0.16113258832E+02  0.29284175198E+02  0.00000000000E+00 0. -1.
</event>
<event>
 5    1  0.1264859E-009  0.9118800E+02  0.7815553E-02  0.1125453E+00
         25   -1    0    0    0    0  0.00000000000E+00  0.00000000000E+00  0.99999998245E-14  0.12509000000E+03  0.12509000000E+03 0.  0.
        -13    1    3    3    0    0  0.30853795992E+02  0.26209757842E+00  0.85402286973E+01  0.32015185342E+02  0.10566000000E+00 0.  1.
         23    2    1    0    0    0 -0.30118995938E+02 -0.13519064278E+01 -0.50905300726E+01  0.94513946237E+02  0.89431487573E+02 0.  0.
         13    1    3    3    0    0 -0.60972791930E+02 -0.16140040062E+01 -0.13630758770E+02  0.62498760895E+02  0.10566000000E+00 0. -1.
         22    1    1    0    0    0  0.30118995938E+02  0.13519064278E+01  0.50905300726E+01  0.30576053763E+02  0.00000000000E+00 0. -1.
</event>
<event>
 5    1  0.1264859E-009  0.9118800E+02  0.7815553E-02  0.1125453E+00
         25   -1    0    0    0    0  0.00000000000E+00  0.00000000000E+00  0.99999998245E-14  0.12509000000E+03  0.12509000000E+03 0.  0.
        -13    1    3    3    0    0  0.33301803861E+02  0.11742885048E+02 -0.34009002000E+02  0.49025798012E+02  0.10566000000E+00 0.  1.
         23    2    1    0    0    0  0.26159196967E+02  0.55858702977E+01  0.11842282699E+02  0.95836877219E+02  0.91263146136E+02 0.  0.
         13    1    3    3    0    0 -0.71426068943E+01 -0.61570147503E+01  0.45851284699E+02  0.46811079207E+02  0.10566000000E+00 0. -1.
         22    1    1    0    0    0 -0.26159196967E+02 -0.55858702977E+01 -0.11842282699E+02  0.29253122781E+02  0.00000000000E+00 0.  1.
</event>
<event>
 5    1  0.1264859E-009  0.9118800E+02  0.7815553E-02  0.1125453E+00
         25   -1    0    0    0    0  0.00000000000E+00  0.00000000000E+00  0.99999998245E-14  0.12509000000E+03  0.12509000000E+03 0.  0.
        -13    1    3    3    0    0 -0.12797131405E+02  0.25582981151E+02  0.25540403329E+02  0.38348127243E+02  0.10566000000E+00 0. -1.
         23    2    1    0    0    0  0.26214977899E+02  0.55471958074E+01 -0.11670176742E+02  0.95863479975E+02  0.91299601972E+02 0.  0.
         13    1    3    3    0    0  0.39012109304E+02 -0.20035785343E+02 -0.37210580072E+02  0.57515352733E+02  0.10566000000E+00 0.  1.
         22    1    1    0    0    0 -0.26214977899E+02 -0.55471958074E+01  0.11670176742E+02  0.29226520025E+02  0.00000000000E+00 0.  1.
</event>
<event>
 5    1  0.1264859E-009  0.9118800E+02  0.7815553E-02  0.1125453E+00
         25   -1    0    0    0    0  0.00000000000E+00  0.00000000000E+00  0.99999998245E-14  0.12509000000E+03  0.12509000000E+03 0.  0.
        -13    1    3    3    0    0  0.12526203485E+02  0.12570161295E+02 -0.51956743521E+02  0.54903816717E+02  0.10566000000E+00 0. -1.
         23    2    1    0    0    0 -0.10293891188E+02  0.20010112359E+02 -0.19224071325E+02  0.95493822701E+02  0.90791720236E+02 0.  0.
         13    1    3    3    0    0 -0.22820094672E+02  0.74399510640E+01  0.32732672196E+02  0.40590005984E+02  0.10566000000E+00 0.  1.
         22    1    1    0    0    0  0.10293891188E+02 -0.20010112359E+02  0.19224071325E+02  0.29596177299E+02  0.00000000000E+00 0. -1.
</event>
<event>
 5    1  0.1264859E-009  0.9118800E+02  0.7815553E-02  0.1125453E+00
         25   -1    0    0    0    0  0.00000000000E+00  0.00000000000E+00  0.99999998245E-14  0.12509000000E+03  0.12509000000E+03 0.  0.
        -13    1    3    3    0    0 -0.50397137711E+01 -0.17207224284E+02  0.35186436645E+02  0.39491565812E+02  0.10566000000E+00 0. -1.
         23    2    1    0    0    0 -0.65967974516E+01 -0.19319632054E+02 -0.21036711399E+02  0.95776024735E+02  0.91179700418E+02 0.  0.
         13    1    3    3    0    0 -0.15570836805E+01 -0.21124077695E+01 -0.56223148045E+02  0.56284458923E+02  0.10566000000E+00 0.  1.
         22    1    1    0    0    0  0.65967974516E+01  0.19319632054E+02  0.21036711399E+02  0.29313975265E+02  0.00000000000E+00 0.  1.
</event>
<event>
 5    1  0.1264859E-009  0.9118800E+02  0.7815553E-02  0.1125453E+00
         25   -1    0    0    0    0  0.00000000000E+00  0.00000000000E+00  0.99999998245E-14  0.12509000000E+03  0.12509000000E+03 0.  0.
        -13    1    3    3    0    0 -0.21734036153E+02  0.29611010907E+02 -0.17868531178E+02  0.40846981099E+02  0.10566000000E+00 0. -1.
         23    2    1    0    0    0  0.24841147495E+02  0.16702609836E+02  0.56992378619E+01  0.94618027691E+02  0.89576950539E+02 0.  0.
         13    1    3    3    0    0  0.46575183648E+02 -0.12908401071E+02  0.23567769040E+02  0.53771046592E+02  0.10566000000E+00 0.  1.
         22    1    1    0    0    0 -0.24841147495E+02 -0.16702609836E+02 -0.56992378619E+01  0.30471972309E+02  0.00000000000E+00 0.  1.
</event>
<event>
 5    1  0.1264859E-009  0.9118800E+02  0.7815553E-02  0.1125453E+00
         25   -1    0    0    0    0  0.00000000000E+00  0.00000000000E+00  0.99999998245E-14  0.12509000000E+03  0.12509000000E+03 0.  0.
        -13    1    3    3    0    0 -0.20621331868E+02  0.19341701357E+02 -0.20750581565E+02  0.35070479590E+02  0.10566000000E+00 0.  1.
         23    2    1    0    0    0  0.62341276903E+01 -0.28676532912E+02  0.41330774500E+01  0.95454038448E+02  0.90736890177E+02 0.  0.
         13    1    3    3    0    0  0.26855459558E+02 -0.48018234269E+02  0.24883659015E+02  0.60383558858E+02  0.10566000000E+00 0. -1.
         22    1    1    0    0    0 -0.62341276903E+01  0.28676532912E+02 -0.41330774500E+01  0.29635961552E+02  0.00000000000E+00 0. -1.
</event>
<event>
 5    1  0.1264859E-009  0.9118800E+02  0.7815553E-02  0.1125453E+00
         25   -1    0    0    0    0  0.00000000000E+00  0.00000000000E+00  0.99999998245E-14  0.12509000000E+03  0.12509000000E+03 0.  0.
        -13    1    3    3    0    0  0.22164356515E+02 -0.39578519414E+02 -0.94285274522E+01  0.46331697494E+02  0.10566000000E+00 0. -1.
         23    2    1    0    0    0  0.22767077529E+02  0.12260226832E+01  0.18454794514E+02  0.95757042574E+02  0.91153654952E+02 0.  0.
         13    1    3    3    0    0  0.60272101380E+00  0.40804542097E+02  0.27883321966E+02  0.49425345080E+02  0.10566000000E+00 0.  1.
         22    1    1    0    0    0 -0.22767077529E+02 -0.12260226832E+01 -0.18454794514E+02  0.29332957426E+02  0.00000000000E+00 0.  1.
</event>
<event>
 5    1  0.1264859E-009  0.9118800E+02  0.7815553E-02  0.1125453E+00
         25   -1    0    0    0    0  0.00000000000E+00  0.00000000000E+00  0.99999998245E-14  0.12509000000E+03  0.12509000000E+03 0.  0.
        -13    1    3    3    0    0  0.46677670612E+02 -0.18329493096E+02 -0.20597221215E+02  0.54212839224E+02  0.10566000000E+00 0. -1.
         23    2    1    0    0    0  0.18565481920E+02  0.25139450017E+01 -0.29334233985E+02  0.90283472999E+02  0.83304328668E+02 0.  0.
         13    1    3    3    0    0 -0.28112188692E+02  0.20843438097E+02 -0.87370127700E+01  0.36070633775E+02  0.10566000000E+00 0.  1.
         22    1    1    0    0    0 -0.18565481920E+02 -0.25139450017E+01  0.29334233985E+02  0.34806527001E+02  0.00000000000E+00 0. -1.
</event>
<event>
 5    1  0.1264859E-009  0.9118800E+02  0.7815553E-02  0.1125453E+00
         25   -1    0    0    0    0  0.00000000000E+00  0.00000000000E+00  0.99999998245E-14  0.12509000000E+03  0.12509000000E+03 0.  0.
        -13    1    3    3    0    0 -0.58457513832E+02 -0.87059168982E+01 -0.58642645218E+01  0.59392547301E+02  0.10566000000E+00 0. -1.
         23    2    1    0    0    0 -0.23862949747E+02 -0.15192053146E+02  0.52816253568E+01  0.96312675318E+02  0.91912986085E+02 0.  0.
         13    1    3    3    0    0  0.34594564085E+02 -0.64861362476E+01  0.11145889879E+02  0.36920128018E+02  0.10566000000E+00 0.  1.
         22    1    1    0    0    0  0.23862949747E+02  0.15192053146E+02 -0.52816253568E+01  0.28777324682E+02  0.00000000000E+00 0.  1.
</event>
<event>
 5    1  0.1264859E-009  0.9118800E+02  0.7815553E-02  0.1125453E+00
         25   -1    0    0    0    0  0.00000000000E+00  0.00000000000E+00  0.99999998245E-14  0.12509000000E+03  0.12509000000E+03 0.  0.
        -13    1    3    3    0    0  0.28712031798E+02  0.10803233625E+02 -0.24898382288E+02  0.39509887766E+02  0.10566000000E+00 0. -1.
         23    2    1    0    0    0 -0.22815584927E+02  0.17591440578E+02 -0.22838191062E+01  0.96189731370E+02  0.91745511575E+02 0.  0.
         13    1    3    3    0    0 -0.51527616725E+02  0.67882069527E+01  0.22614563182E+02  0.56679843604E+02  0.10566000000E+00 0.  1.
         22    1    1    0    0    0  0.22815584927E+02 -0.17591440578E+02  0.22838191062E+01  0.28900268630E+02  0.00000000000E+00 0.  1.
</event>
<event>
 5    1  0.1264859E-009  0.9118800E+02  0.7815553E-02  0.1125453E+00
         25   -1    0    0    0    0  0.00000000000E+00  0.00000000000E+00  0.99999998245E-14  0.12509000000E+03  0.12509000000E+03 0.  0.
        -13    1    3    3    0    0 -0.35374156396E+02  0.22440804826E+02  0.11853074759E+02  0.43536504307E+02  0.10566000000E+00 0.  1.
         23    2    1    0    0    0  0.59259688012E+01 -0.60860734989E+01  0.27655122586E+02  0.96159683684E+02  0.91704534044E+02 0.  0.
         13    1    3    3    0    0  0.41300125197E+02 -0.28526878325E+02  0.15802047827E+02  0.52623179378E+02  0.10566000000E+00 0. -1.
         22    1    1    0    0    0 -0.59259688012E+01  0.60860734989E+01 -0.27655122586E+02  0.28930316316E+02  0.00000000000E+00 0. -1.
</event>
<event>
 5    1  0.1264859E-009  0.9118800E+02  0.7815553E-02  0.1125453E+00
         25   -1    0    0    0    0  0.00000000000E+00  0.00000000000E+00  0.99999998245E-14  0.12509000000E+03  0.12509000000E+03 0.  0.
        -13    1    3    3    0    0  0.99335494055E+01  0.51907901335E+02 -0.30519280588E+02  0.61029036339E+02  0.10566000000E+00 0.  1.
         23    2    1    0    0    0  0.10156301792E+02  0.29476291610E+02 -0.78106690274E+01  0.92949545992E+02  0.87215877662E+02 0.  0.
         13    1    3    3    0    0  0.22275238646E+00 -0.22431609725E+02  0.22708611561E+02  0.31920509653E+02  0.10566000000E+00 0. -1.
         22    1    1    0    0    0 -0.10156301792E+02 -0.29476291610E+02  0.78106690274E+01  0.32140454008E+02  0.00000000000E+00 0.  1.
</event>
<event>
 5    1  0.1264859E-009  0.9118800E+02  0.7815553E-02  0.1125453E+00
         25   -1    0    0    0    0  0.00000000000E+00  0.00000000000E+00  0.99999998245E-14  0.12509000000E+03  0.12509000000E+03 0.  0.
        -13    1    3    3    0    0  0.10774759863E+02 -0.75634841858E+01  0.30852083646E+02  0.33543463930E+02  0.10566000000E+00 0.  1.
         23    2    1    0    0    0 -0.24023401807E+01  0.14375934804E+02 -0.25659361702E+02  0.95579974877E+02  0.90910340527E+02 0.  0.
         13    1    3    3    0    0 -0.13177100043E+02  0.21939418989E+02 -0.56511445347E+02  0.62036510947E+02  0.10566000000E+00 0. -1.
         22    1    1    0    0    0  0.24023401807E+01 -0.14375934804E+02  0.25659361702E+02  0.29510025123E+02  0.00000000000E+00 0. -1.
</event>
<event>
 5    1  0.1264859E-009  0.9118800E+02  0.7815553E-02  0.1125453E+00
         25   -1    0    0    0    0  0.00000000000E+00  0.00000000000E+00  0.99999998245E-14  0.12509000000E+03  0.12509000000E+03 0.  0.
        -13    1    3    3    0    0  0.19265287350E+02  0.64685497031E+01 -0.42041968249E+02  0.46696163550E+02  0.10566000000E+00 0. -1.
         23    2    1    0    0    0  0.28049108548E+02 -0.95302853270E+01  0.30183820838E+01  0.95312668703E+02  0.90541787900E+02 0.  0.
         13    1    3    3    0    0  0.87838211978E+01 -0.15998835030E+02  0.45060350333E+02  0.48616505154E+02  0.10566000000E+00 0.  1.
         22    1    1    0    0    0 -0.28049108548E+02  0.95302853270E+01 -0.30183820838E+01  0.29777331297E+02  0.00000000000E+00 0.  1.
</event>
<event>
 5    1  0.1264859E-009  0.9118800E+02  0.7815553E-02  0.1125453E+00
         25   -1    0    0    0    0  0.00000000000E+00  0.00000000000E+00  0.99999998245E-14  0.12509000000E+03  0.12509000000E+03 0.  0.
        -13    1    3    3    0    0 -0.71094965941E+01  0.34063436286E+01 -0.31255663148E+02  0.32234698100E+02  0.10566000000E+00 0. -1.
         23    2    1    0    0    0  0.10085166914E+02 -0.53198662367E+01  0.28164344591E+02  0.94705104497E+02  0.89698466783E+02 0.  0.
         13    1    3    3    0    0  0.17194663508E+02 -0.87262098653E+01  0.59420007739E+02  0.62470406398E+02  0.10566000000E+00 0.  1.
         22    1    1    0    0    0 -0.10085166914E+02  0.53198662367E+01 -0.28164344591E+02  0.30384895503E+02  0.00000000000E+00 0.  1.
</event>
<event>
 5    1  0.1264859E-009  0.9118800E+02  0.7815553E-02  0.1125453E+00
         25   -1    0    0    0    0  0.00000000000E+00  0.00000000000E+00  0.99999998245E-14  0.12509000000E+03  0.12509000000E+03 0.  0.
        -13    1    3    3    0    0 -0.20914300137E+02  0.22818613474E+02 -0.38261675970E+02  0.49214470262E+02  0.10566000000E+00 0. -1.
         23    2    1    0    0    0  0.61216362251E+01  0.27511124699E+02  0.73322477070E+00  0.96896489561E+02  0.92704129673E+02 0.  0.
         13    1    3    3    0    0  0.27035936362E+02  0.46925112252E+01  0.38994900741E+02  0.47682019299E+02  0.10566000000E+00 0.  1.
         22    1    1    0    0    0 -0.61216362251E+01 -0.27511124699E+02 -0.73322477070E+00  0.28193510439E+02  0.00000000000E+00 0. -1.
</event>
<event>
 5    1  0.1264859E-009  0.9118800E+02  0.7815553E-02  0.1125453E+00
         25   -1    0    0    0    0  0.00000000000E+00  0.00000000000E+00  0.99999998245E-14  0.12509000000E+03  0.12509000000E+03 0.  0.
        -13    1    3    3    0    0 -0.13835057212E+02  0.24124034265E+02  0.21554416545E+02  0.35184966590E+02  0.10566000000E+00 0.  1.
         23    2    1    0    0    0 -0.68784676893E+01 -0.12504568499E+02 -0.25890654018E+02  0.95526449527E+02  0.90836661336E+02 0.  0.
         13    1    3    3    0    0  0.69565895225E+01 -0.36628602765E+02 -0.47445070563E+02  0.60341482937E+02  0.10566000000E+00 0. -1.
         22    1    1    0    0    0  0.68784676893E+01  0.12504568499E+02  0.25890654018E+02  0.29563550473E+02  0.00000000000E+00 0. -1.
</event>
<event>
 5    1  0.1264859E-009  0.9118800E+02  0.7815553E-02  0.1125453E+00
         25   -1    0    0    0    0  0.00000000000E+00  0.00000000000E+00  0.99999998245E-14  0.12509000000E+03  0.12509000000E+03 0.  0.
        -13    1    3    3    0    0  0.12857269330E+02  0.59963111512E+02  0.41262764340E+01  0.61464798365E+02  0.10566000000E+00 0.  1.
         23    2    1    0    0    0 -0.22375983338E+01  0.28568919223E+02  0.18143152400E+01  0.96376210079E+02  0.91999413789E+02 0.  0.
         13    1    3    3    0    0 -0.15094867663E+02 -0.31394192289E+02 -0.23119611940E+01  0.34911411714E+02  0.10566000000E+00 0. -1.
         22    1    1    0    0    0  0.22375983338E+01 -0.28568919223E+02 -0.18143152400E+01  0.28713789921E+02  0.00000000000E+00 0.  1.
</event>
<event>
 5    1  0.1264859E-009  0.9118800E+02  0.7815553E-02  0.1125453E+00
         25   -1    0    0    0    0  0.00000000000E+00  0.00000000000E+00  0.99999998245E-14  0.12509000000E+03  0.12509000000E+03 0.  0.
        -13    1    3    3    0    0 -0.10139511646E+02  0.37735435908E+02 -0.43643881371E+02  0.58579624143E+02  0.10566000000E+00 0. -1.
         23    2    1    0    0    0  0.36652960045E+01  0.25958062599E+02 -0.95736967210E+01  0.97181021560E+02  0.93087270203E+02 0.  0.
         13    1    3    3    0    0  0.13804807651E+02 -0.11777373309E+02  0.34070184650E+02  0.38601397416E+02  0.10566000000E+00 0.  1.
         22    1    1    0    0    0 -0.36652960045E+01 -0.25958062599E+02  0.95736967210E+01  0.27908978440E+02  0.00000000000E+00 0. -1.
</event>
<event>
 5    1  0.1264859E-009  0.9118800E+02  0.7815553E-02  0.1125453E+00
         25   -1    0    0    0    0  0.00000000000E+00  0.00000000000E+00  0.99999998245E-14  0.12509000000E+03  0.12509000000E+03 0.  0.
        -13    1    3    3    0    0  0.38333903470E+02 -0.40816724634E+02  0.17714369133E+02  0.58730768792E+02  0.10566000000E+00 0. -1.
         23    2    1    0    0    0  0.14401080728E+02 -0.12640784255E+02  0.21963254625E+02  0.95942699843E+02  0.91408077033E+02 0.  0.
         13    1    3    3    0    0 -0.23932822742E+02  0.28175940378E+02  0.42488854919E+01  0.37211931051E+02  0.10566000000E+00 0.  1.
         22    1    1    0    0    0 -0.14401080728E+02  0.12640784255E+02 -0.21963254625E+02  0.29147300157E+02  0.00000000000E+00 0. -1.
</event>
<event>
 5    1  0.1264859E-009  0.9118800E+02  0.7815553E-02  0.1125453E+00
         25   -1    0    0    0    0  0.00000000000E+00  0.00000000000E+00  0.99999998245E-14  0.12509000000E+03  0.12509000000E+03 0.  0.
        -13    1    3    3    0    0  0.10318486478E+02 -0.38082945419E+02 -0.10760079802E+02  0.40897094962E+02  0.10566000000E+00 0. -1.
         23    2    1    0    0    0  0.25512826748E+02  0.13977182262E+02 -0.63950956386E+01  0.95304715028E+02  0.90530798658E+02 0.  0.
         13    1    3    3    0    0  0.15194340269E+02  0.52060127681E+02  0.43649841637E+01  0.54407620065E+02  0.10566000000E+00 0.  1.
         22    1    1    0    0    0 -0.25512826748E+02 -0.13977182262E+02  0.63950956386E+01  0.29785284972E+02  0.00000000000E+00 0.  1.
</event>
<event>
 5    1  0.1264859E-009  0.9118800E+02  0.7815553E-02  0.1125453E+00
         25   -1    0    0    0    0  0.00000000000E+00  0.00000000000E+00  0.99999998245E-14  0.12509000000E+03  0.12509000000E+03 0.  0.
        -13    1    3    3    0    0 -0.11682315944E+02  0.45697873388E+02 -0.68288541318E+01  0.47659380512E+02  0.10566000000E+00 0.  1.
         23    2    1    0    0    0  0.11677560193E+01  0.72955175032E+01 -0.29917000449E+02  0.94274173780E+02  0.89095480785E+02 0.  0.
         13    1    3    3    0    0  0.12850071963E+02 -0.38402355885E+02 -0.23088146317E+02  0.46614793268E+02  0.10566000000E+00 0. -1.
         22    1    1    0    0    0 -0.11677560193E+01 -0.72955175032E+01  0.29917000449E+02  0.30815826220E+02  0.00000000000E+00 0. -1.
</event>
<event>
 5    1  0.1264859E-009  0.9118800E+02  0.7815553E-02  0.1125453E+00
         25   -1    0    0    0    0  0.00000000000E+00  0.00000000000E+00  0.99999998245E-14  0.12509000000E+03  0.12509000000E+03 0.  0.
        -13    1    3    3    0    0  0.23498378821E+02  0.29966504056E+02 -0.86835489885E+01  0.39058678416E+02  0.10566000000E+00 0.  1.
         23    2    1    0    0    0 -0.17499410638E+02 -0.12695120377E+02 -0.15313099685E+02  0.98596859831E+02  0.94970807581E+02 0.  0.
         13    1    3    3    0    0 -0.40997789458E+02 -0.42661624433E+02 -0.66295506969E+01  0.59538181415E+02  0.10566000000E+00 0. -1.
         22    1    1    0    0    0  0.17499410638E+02  0.12695120377E+02  0.15313099685E+02  0.26493140169E+02  0.00000000000E+00 0. -1.
</event>
<event>
 5    1  0.1264859E-009  0.9118800E+02  0.7815553E-02  0.1125453E+00
         25   -1    0    0    0    0  0.00000000000E+00  0.00000000000E+00  0.99999998245E-14  0.12509000000E+03  0.12509000000E+03 0.  0.
        -13    1    3    3    0    0  0.84861317539E+01 -0.43507488604E+02 -0.33260774312E+02  0.55418465051E+02  0.10566000000E+00 0.  1.
         23    2    1    0    0    0  0.94546282393E+01 -0.12174960338E+01 -0.24750420102E+02  0.98567262830E+02  0.94931816136E+02 0.  0.
         13    1    3    3    0    0  0.96849648541E+00  0.42289992570E+02  0.85103542092E+01  0.43148797779E+02  0.10566000000E+00 0. -1.
         22    1    1    0    0    0 -0.94546282393E+01  0.12174960338E+01  0.24750420102E+02  0.26522737170E+02  0.00000000000E+00 0. -1.
</event>
<event>
 5    1  0.1264859E-009  0.9118800E+02  0.7815553E-02  0.1125453E+00
         25   -1    0    0    0    0  0.00000000000E+00  0.00000000000E+00  0.99999998245E-14  0.12509000000E+03  0.12509000000E+03 0.  0.
        -13    1    3    3    0    0 -0.34207421785E+02  0.31425868943E+02 -0.25393117277E+02  0.52939158598E+02  0.10566000000E+00 0.  1.
         23    2    1    0    0    0 -0.18869737813E+02 -0.84976566431E+01 -0.20455640765E+02  0.95991711173E+02  0.91475123401E+02 0.  0.
         13    1    3    3    0    0  0.15337683972E+02 -0.39923525586E+02  0.49374765115E+01  0.43052552575E+02  0.10566000000E+00 0. -1.
         22    1    1    0    0    0  0.18869737813E+02  0.84976566431E+01  0.20455640765E+02  0.29098288827E+02  0.00000000000E+00 0.  1.
</event>
<event>
 5    1  0.1264859E-009  0.9118800E+02  0.7815553E-02  0.1125453E+00
         25   -1    0    0    0    0  0.00000000000E+00  0.00000000000E+00  0.99999998245E-14  0.12509000000E+03  0.12509000000E+03 0.  0.
        -13    1    3    3    0    0 -0.33220980891E+01  0.38077285532E+02  0.39146082565E+02  0.54711451757E+02  0.10566000000E+00 0. -1.
         23    2    1    0    0    0 -0.52557741910E+01  0.75828763489E-01  0.31029735028E+02  0.93618213138E+02  0.88169702636E+02 0.  0.
         13    1    3    3    0    0 -0.19336761020E+01 -0.38001456768E+02 -0.81163475368E+01  0.38906761381E+02  0.10566000000E+00 0.  1.
         22    1    1    0    0    0  0.52557741910E+01 -0.75828763489E-01 -0.31029735028E+02  0.31471786862E+02  0.00000000000E+00 0. -1.
</event>
<event>
 5    1  0.1264859E-009  0.9118800E+02  0.7815553E-02  0.1125453E+00
         25   -1    0    0    0    0  0.00000000000E+00  0.00000000000E+00  0.99999998245E-14  0.12509000000E+03  0.12509000000E+03 0.  0.
        -13    1    3    3    0    0 -0.72079649070E+01  0.10610215974E+02  0.54429151557E+02  0.55920257013E+02  0.10566000000E+00 0.  1.
         23    2    1    0    0    0  0.84679901032E+00 -0.14838055120E+02  0.27463230105E+02  0.93863185303E+02  0.88516572454E+02 0.  0.
         13    1    3    3    0    0  0.80547639174E+01 -0.25448271094E+02 -0.26965921452E+02  0.37942928290E+02  0.10566000000E+00 0. -1.
         22    1    1    0    0    0 -0.84679901032E+00  0.14838055120E+02 -0.27463230105E+02  0.31226814697E+02  0.00000000000E+00 0.  1.
</event>
<event>
 5    1  0.1264859E-009  0.9118800E+02  0.7815553E-02  0.1125453E+00
         25   -1    0    0    0    0  0.00000000000E+00  0.00000000000E+00  0.99999998245E-14  0.12509000000E+03  0.12509000000E+03 0.  0.
        -13    1    3    3    0    0 -0.55481565194E+02  0.22268797379E+02  0.33744969944E+01  0.59879059838E+02  0.10566000000E+00 0. -1.
         23    2    1    0    0    0 -0.20213469167E+02  0.20459041687E+02 -0.42777395979E+01  0.96013277719E+02  0.91504610374E+02 0.  0.
         13    1    3    3    0    0  0.35268096027E+02 -0.18097556913E+01 -0.76522365923E+01  0.36134217881E+02  0.10566000000E+00 0.  1.
         22    1    1    0    0    0  0.20213469167E+02 -0.20459041687E+02  0.42777395979E+01  0.29076722281E+02  0.00000000000E+00 0. -1.
</event>
<event>
 5    1  0.1264859E-009  0.9118800E+02  0.7815553E-02  0.1125453E+00
         25   -1    0    0    0    0  0.00000000000E+00  0.00000000000E+00  0.99999998245E-14  0.12509000000E+03  0.12509000000E+03 0.  0.
        -13    1    3    3    0    0 -0.31522993734E+02 -0.49266645918E+02  0.83854087305E+00  0.58494579653E+02  0.10566000000E+00 0.  1.
         23    2    1    0    0    0 -0.25994540185E+02 -0.18500774764E+02 -0.10118176626E+02  0.91618037337E+02  0.85284772855E+02 0.  0.
         13    1    3    3    0    0  0.55284535493E+01  0.30765871154E+02 -0.10956717499E+02  0.33123457684E+02  0.10566000000E+00 0. -1.
         22    1    1    0    0    0  0.25994540185E+02  0.18500774764E+02  0.10118176626E+02  0.33471962663E+02  0.00000000000E+00 0.  1.
</event>
<event>
 5    1  0.1264859E-009  0.9118800E+02  0.7815553E-02  0.1125453E+00
         25   -1    0    0    0    0  0.00000000000E+00  0.00000000000E+00  0.99999998245E-14  0.12509000000E+03  0.12509000000E+03 0.  0.
        -13    1    3    3    0    0 -0.25246132943E+02 -0.10180956200E+01 -0.56402451547E+02  0.61803328808E+02  0.10566000000E+00 0. -1.
         23    2    1    0    0    0 -0.59483350382E+01  0.22112903405E+00 -0.29856166268E+02  0.94646244449E+02  0.89616345252E+02 0.  0.
         13    1    3    3    0    0  0.19297797905E+02  0.12392246541E+01  0.26546285278E+02  0.32842915641E+02  0.10566000000E+00 0.  1.
         22    1    1    0    0    0  0.59483350382E+01 -0.22112903405E+00  0.29856166268E+02  0.30443755551E+02  0.00000000000E+00 0. -1.
</event>
<event>
 5    1  0.1264859E-009  0.9118800E+02  0.7815553E-02  0.1125453E+00
         25   -1    0    0    0    0  0.00000000000E+00  0.00000000000E+00  0.99999998245E-14  0.12509000000E+03  0.12509000000E+03 0.  0.
        -13    1    3    3    0    0  0.32162807434E+02 -0.43612648301E+02 -0.10894604928E+02  0.55273979904E+02  0.10566000000E+00 0.  1.
         23    2    1    0    0    0  0.28640598279E+02 -0.52680852334E+01 -0.11488489850E+02  0.93784697081E+02  0.88405584754E+02 0.  0.
         13    1    3    3    0    0 -0.35222091554E+01  0.38344563067E+02 -0.59388492237E+00  0.38510717177E+02  0.10566000000E+00 0. -1.
         22    1    1    0    0    0 -0.28640598279E+02  0.52680852334E+01  0.11488489850E+02  0.31305302919E+02  0.00000000000E+00 0.  1.
</event>
<event>
 5    1  0.1264859E-009  0.9118800E+02  0.7815553E-02  0.1125453E+00
         25   -1    0    0    0    0  0.00000000000E+00  0.00000000000E+00  0.99999998245E-14  0.12509000000E+03  0.12509000000E+03 0.  0.
        -13    1    3    3    0    0 -0.30070965019E+02 -0.11824513206E+02 -0.46973423966E+02  0.57013996289E+02  0.10566000000E+00 0.  1.
         23    2    1    0    0    0  0.72818279242E+01 -0.87908401711E+01 -0.14751384347E+02  0.10643772858E+03  0.10479066197E+03 0.  0.
         13    1    3    3    0    0  0.37352792943E+02  0.30336730345E+01  0.32222039619E+02  0.49423732295E+02  0.10566000000E+00 0. -1.
         22    1    1    0    0    0 -0.72818279242E+01  0.87908401711E+01  0.14751384347E+02  0.18652271416E+02  0.00000000000E+00 0.  1.
</event>
<event>
 5    1  0.1264859E-009  0.9118800E+02  0.7815553E-02  0.1125453E+00
         25   -1    0    0    0    0  0.00000000000E+00  0.00000000000E+00  0.99999998245E-14  0.12509000000E+03  0.12509000000E+03 0.  0.
        -13    1    3    3    0    0  0.41449861680E+02 -0.21778970894E+01  0.31502525605E+02  0.52108104481E+02  0.10566000000E+00 0.  1.
         23    2    1    0    0    0  0.13116760273E+02  0.23815016425E+02  0.10304122186E+02  0.96014592154E+02  0.91506407236E+02 0.  0.
         13    1    3    3    0    0 -0.28333101407E+02  0.25992913514E+02 -0.21198403419E+02  0.43906487674E+02  0.10566000000E+00 0. -1.
         22    1    1    0    0    0 -0.13116760273E+02 -0.23815016425E+02 -0.10304122186E+02  0.29075407846E+02  0.00000000000E+00 0.  1.
</event>
<event>
 5    1  0.1264859E-009  0.9118800E+02  0.7815553E-02  0.1125453E+00
         25   -1    0    0    0    0  0.00000000000E+00  0.00000000000E+00  0.99999998245E-14  0.12509000000E+03  0.12509000000E+03 0.  0.
        -13    1    3    3    0    0  0.13894423452E+02 -0.97236473783E+01 -0.56747713795E+02  0.59227683614E+02  0.10566000000E+00 0. -1.
         23    2    1    0    0    0  0.52677105814E+01  0.97755897749E+01 -0.27582576701E+02  0.95356021664E+02  0.90601663340E+02 0.  0.
         13    1    3    3    0    0 -0.86267128703E+01  0.19499237153E+02  0.29165137094E+02  0.36128338050E+02  0.10566000000E+00 0.  1.
         22    1    1    0    0    0 -0.52677105814E+01 -0.97755897749E+01  0.27582576701E+02  0.29733978336E+02  0.00000000000E+00 0. -1.
</event>
<event>
 5    1  0.1264859E-009  0.9118800E+02  0.7815553E-02  0.1125453E+00
         25   -1    0    0    0    0  0.00000000000E+00  0.00000000000E+00  0.99999998245E-14  0.12509000000E+03  0.12509000000E+03 0.  0.
        -13    1    3    3    0    0  0.26031787786E+02 -0.39948407195E+02 -0.17636560201E+02  0.50838849638E+02  0.10566000000E+00 0.  1.
         23    2    1    0    0    0  0.26468504618E+02  0.36032272214E+01 -0.14956699947E+02  0.94475169339E+02  0.89377232924E+02 0.  0.
         13    1    3    3    0    0  0.43671683183E+00  0.43551634417E+02  0.26798602543E+01  0.43636319700E+02  0.10566000000E+00 0. -1.
         22    1    1    0    0    0 -0.26468504618E+02 -0.36032272214E+01  0.14956699947E+02  0.30614830661E+02  0.00000000000E+00 0. -1.
</event>
<event>
 5    1  0.1264859E-009  0.9118800E+02  0.7815553E-02  0.1125453E+00
         25   -1    0    0    0    0  0.00000000000E+00  0.00000000000E+00  0.99999998245E-14  0.12509000000E+03  0.12509000000E+03 0.  0.
        -13    1    3    3    0    0  0.43872313661E+02  0.10433631017E+02  0.39134342517E+02  0.59708864421E+02  0.10566000000E+00 0. -1.
         23    2    1    0    0    0  0.16895226203E+02  0.17145939941E+02  0.13673499560E+02  0.97406132583E+02  0.93389282841E+02 0.  0.
         13    1    3    3    0    0 -0.26977087458E+02  0.67123089239E+01 -0.25460842956E+02  0.37697268162E+02  0.10566000000E+00 0.  1.
         22    1    1    0    0    0 -0.16895226203E+02 -0.17145939941E+02 -0.13673499560E+02  0.27683867417E+02  0.00000000000E+00 0. -1.
</event>
<event>
 5    1  0.1264859E-009  0.9118800E+02  0.7815553E-02  0.1125453E+00
         25   -1    0    0    0    0  0.00000000000E+00  0.00000000000E+00  0.99999998245E-14  0.12509000000E+03  0.12509000000E+03 0.  0.
        -13    1    3    3    0    0  0.29827269659E+01 -0.17787739927E+02  0.32483731115E+02  0.37155138313E+02  0.10566000000E+00 0.  1.
         23    2    1    0    0    0  0.21776969093E+02  0.19395679705E+02 -0.75829949634E+01  0.94958113456E+02  0.90050612016E+02 0.  0.
         13    1    3    3    0    0  0.18794242127E+02  0.37183419632E+02 -0.40066726079E+02  0.57802975143E+02  0.10566000000E+00 0. -1.
         22    1    1    0    0    0 -0.21776969093E+02 -0.19395679705E+02  0.75829949634E+01  0.30131886544E+02  0.00000000000E+00 0. -1.
</event>
<event>
 5    1  0.1264859E-009  0.9118800E+02  0.7815553E-02  0.1125453E+00
         25   -1    0    0    0    0  0.00000000000E+00  0.00000000000E+00  0.99999998245E-14  0.12509000000E+03  0.12509000000E+03 0.  0.
        -13    1    3    3    0    0  0.16352137000E+02  0.22393724191E+02  0.35789912736E+02  0.45274720157E+02  0.10566000000E+00 0.  1.
         23    2    1    0    0    0 -0.22058816521E+02  0.22683290057E+02  0.87108574830E+01  0.92272290266E+02  0.86239048457E+02 0.  0.
         13    1    3    3    0    0 -0.38410953521E+02  0.28956586607E+00 -0.27079055253E+02  0.46997570109E+02  0.10566000000E+00 0. -1.
         22    1    1    0    0    0  0.22058816521E+02 -0.22683290057E+02 -0.87108574830E+01  0.32817709734E+02  0.00000000000E+00 0. -1.
</event>
<event>
 5    1  0.1264859E-009  0.9118800E+02  0.7815553E-02  0.1125453E+00
         25   -1    0    0    0    0  0.00000000000E+00  0.00000000000E+00  0.99999998245E-14  0.12509000000E+03  0.12509000000E+03 0.  0.
        -13    1    3    3    0    0 -0.11400642385E+02 -0.33959896575E+02 -0.71223534764E+01  0.36523804638E+02  0.10566000000E+00 0. -1.
         23    2    1    0    0    0  0.49140959089E+00  0.17882077781E+02  0.21657815901E+02  0.96999589203E+02  0.92843142594E+02 0.  0.
         13    1    3    3    0    0  0.11892051976E+02  0.51841974355E+02  0.28780169378E+02  0.60475784565E+02  0.10566000000E+00 0.  1.
         22    1    1    0    0    0 -0.49140959089E+00 -0.17882077781E+02 -0.21657815901E+02  0.28090410797E+02  0.00000000000E+00 0.  1.
</event>
<event>
 5    1  0.1264859E-009  0.9118800E+02  0.7815553E-02  0.1125453E+00
         25   -1    0    0    0    0  0.00000000000E+00  0.00000000000E+00  0.99999998245E-14  0.12509000000E+03  0.12509000000E+03 0.  0.
        -13    1    3    3    0    0 -0.12417564140E+02  0.55354707250E+02  0.14594444068E+01  0.56749278902E+02  0.10566000000E+00 0. -1.
         23    2    1    0    0    0  0.19528415703E+01  0.23688135880E+02  0.18016835653E+02  0.95264713101E+02  0.90475509524E+02 0.  0.
         13    1    3    3    0    0  0.14370405710E+02 -0.31666571370E+02  0.16557391246E+02  0.38515434199E+02  0.10566000000E+00 0.  1.
         22    1    1    0    0    0 -0.19528415703E+01 -0.23688135880E+02 -0.18016835653E+02  0.29825286899E+02  0.00000000000E+00 0. -1.
</event>
<event>
 5    1  0.1264859E-009  0.9118800E+02  0.7815553E-02  0.1125453E+00
         25   -1    0    0    0    0  0.00000000000E+00  0.00000000000E+00  0.99999998245E-14  0.12509000000E+03  0.12509000000E+03 0.  0.
        -13    1    3    3    0    0 -0.25443360180E+02  0.88201545375E+01 -0.54899483227E+02  0.61148377950E+02  0.10566000000E+00 0.  1.
         23    2    1    0    0    0 -0.37861870126E+01  0.12690676994E+01 -0.29297193556E+02  0.95521921010E+02  0.90830424959E+02 0.  0.
         13    1    3    3    0    0  0.21657173168E+02 -0.75510868381E+01  0.25602289671E+02  0.34373543060E+02  0.10566000000E+00 0. -1.
         22    1    1    0    0    0  0.37861870126E+01 -0.12690676994E+01  0.29297193556E+02  0.29568078990E+02  0.00000000000E+00 0.  1.
</event>
<event>
 5    1  0.1264859E-009  0.9118800E+02  0.7815553E-02  0.1125453E+00
         25   -1    0    0    0    0  0.00000000000E+00  0.00000000000E+00  0.99999998245E-14  0.12509000000E+03  0.12509000000E+03 0.  0.
        -13    1    3    3    0    0 -0.15844531454E+02 -0.88498798553E+01 -0.26634176756E+02  0.32229801208E+02  0.10566000000E+00 0.  1.
         23    2    1    0    0    0  0.16494980238E+02  0.19658342943E+02  0.17580618355E+02  0.93983522184E+02  0.88686467288E+02 0.  0.
         13    1    3    3    0    0  0.32339511692E+02  0.28508222799E+02  0.44214795111E+02  0.61753720976E+02  0.10566000000E+00 0. -1.
         22    1    1    0    0    0 -0.16494980238E+02 -0.19658342943E+02 -0.17580618355E+02  0.31106477816E+02  0.00000000000E+00 0. -1.
</event>
<event>
 5    1  0.1264859E-009  0.9118800E+02  0.7815553E-02  0.1125453E+00
         25   -1    0    0    0    0  0.00000000000E+00  0.00000000000E+00  0.99999998245E-14  0.12509000000E+03  0.12509000000E+03 0.  0.
        -13    1    3    3    0    0  0.28124506887E+02  0.23340814101E+02 -0.32202035588E+02  0.48711022886E+02  0.10566000000E+00 0.  1.
         23    2    1    0    0    0  0.16277473297E+02 -0.19086257564E+02 -0.95039498401E+01  0.98265264637E+02  0.94533040822E+02 0.  0.
         13    1    3    3    0    0 -0.11847033591E+02 -0.42427071664E+02  0.22698085748E+02  0.49554241752E+02  0.10566000000E+00 0. -1.
         22    1    1    0    0    0 -0.16277473297E+02  0.19086257564E+02  0.95039498401E+01  0.26824735363E+02  0.00000000000E+00 0.  1.
</event>
<event>
 5    1  0.1264859E-009  0.9118800E+02  0.7815553E-02  0.1125453E+00
         25   -1    0    0    0    0  0.00000000000E+00  0.00000000000E+00  0.99999998245E-14  0.12509000000E+03  0.12509000000E+03 0.  0.
        -13    1    3    3    0    0  0.29071169845E+02 -0.80445156770E+01 -0.19636852802E+02  0.35992558962E+02  0.10566000000E+00 0.  1.
         23    2    1    0    0    0 -0.43017009360E+01  0.18538844640E+02  0.22268949851E+02  0.95796664256E+02  0.91208011510E+02 0.  0.
         13    1    3    3    0    0 -0.33372870781E+02  0.26583360317E+02  0.41905802654E+02  0.59804105294E+02  0.10566000000E+00 0. -1.
         22    1    1    0    0    0  0.43017009360E+01 -0.18538844640E+02 -0.22268949851E+02  0.29293335744E+02  0.00000000000E+00 0. -1.
</event>
<event>
 5    1  0.1264859E-009  0.9118800E+02  0.7815553E-02  0.1125453E+00
         25   -1    0    0    0    0  0.00000000000E+00  0.00000000000E+00  0.99999998245E-14  0.12509000000E+03  0.12509000000E+03 0.  0.
        -13    1    3    3    0    0  0.35921680283E+02  0.30348712686E+02 -0.27338601099E+02  0.54395052626E+02  0.10566000000E+00 0.  1.
         23    2    1    0    0    0 -0.27198685662E+01  0.18184684168E+02 -0.23735164919E+02  0.95066034954E+02  0.90200402022E+02 0.  0.
         13    1    3    3    0    0 -0.38641548849E+02 -0.12164028517E+02  0.36034361800E+01  0.40670982329E+02  0.10566000000E+00 0. -1.
         22    1    1    0    0    0  0.27198685662E+01 -0.18184684168E+02  0.23735164919E+02  0.30023965046E+02  0.00000000000E+00 0.  1.
</event>
<event>
 5    1  0.1264859E-009  0.9118800E+02  0.7815553E-02  0.1125453E+00
         25   -1    0    0    0    0  0.00000000000E+00  0.00000000000E+00  0.99999998245E-14  0.12509000000E+03  0.12509000000E+03 0.  0.
        -13    1    3    3    0    0  0.22673410289E+02  0.15777747477E+02  0.41466440928E+02  0.49824669963E+02  0.10566000000E+00 0.  1.
         23    2    1    0    0    0  0.17751050896E+02  0.22753441380E+02 -0.38834068151E+01  0.95971281776E+02  0.91447182432E+02 0.  0.
         13    1    3    3    0    0 -0.49223593936E+01  0.69756939023E+01 -0.45349847744E+02  0.46146611813E+02  0.10566000000E+00 0. -1.
         22    1    1    0    0    0 -0.17751050896E+02 -0.22753441380E+02  0.38834068151E+01  0.29118718224E+02  0.00000000000E+00 0. -1.
</event>
<event>
 5    1  0.1264859E-009  0.9118800E+02  0.7815553E-02  0.1125453E+00
         25   -1    0    0    0    0  0.00000000000E+00  0.00000000000E+00  0.99999998245E-14  0.12509000000E+03  0.12509000000E+03 0.  0.
        -13    1    3    3    0    0  0.25800702559E+02  0.39428166840E+02 -0.37538786648E+02  0.60244736367E+02  0.10566000000E+00 0. -1.
         23    2    1    0    0    0  0.19697096291E+02  0.21569431010E+02 -0.88793709803E+01  0.94560355630E+02  0.89496377980E+02 0.  0.
         13    1    3    3    0    0 -0.61036062681E+01 -0.17858735830E+02  0.28659415668E+02  0.34315619263E+02  0.10566000000E+00 0.  1.
         22    1    1    0    0    0 -0.19697096291E+02 -0.21569431010E+02  0.88793709803E+01  0.30529644370E+02  0.00000000000E+00 0. -1.
</event>
<event>
 5    1  0.1264859E-009  0.9118800E+02  0.7815553E-02  0.1125453E+00
         25   -1    0    0    0    0  0.00000000000E+00  0.00000000000E+00  0.99999998245E-14  0.12509000000E+03  0.12509000000E+03 0.  0.
        -13    1    3    3    0    0 -0.53899315234E+02 -0.12894827839E+02  0.10695572778E+02  0.56443061654E+02  0.10566000000E+00 0.  1.
         23    2    1    0    0    0 -0.18955354204E+02 -0.20365227820E+02  0.16645891220E+02  0.92668808602E+02  0.86812294268E+02 0.  0.
         13    1    3    3    0    0  0.34943961031E+02 -0.74703999805E+01  0.59503184422E+01  0.36225746949E+02  0.10566000000E+00 0. -1.
         22    1    1    0    0    0  0.18955354204E+02  0.20365227820E+02 -0.16645891220E+02  0.32421191398E+02  0.00000000000E+00 0.  1.
</event>
<event>
 5    1  0.1264859E-009  0.9118800E+02  0.7815553E-02  0.1125453E+00
         25   -1    0    0    0    0  0.00000000000E+00  0.00000000000E+00  0.99999998245E-14  0.12509000000E+03  0.12509000000E+03 0.  0.
        -13    1    3    3    0    0 -0.39331188765E+02 -0.83270976003E+01  0.30260920411E+02  0.50319155719E+02  0.10566000000E+00 0.  1.
         23    2    1    0    0    0  0.44617474147E+01 -0.20562414051E+02  0.17966361960E+02  0.97422144578E+02  0.93410727598E+02 0.  0.
         13    1    3    3    0    0  0.43792936180E+02 -0.12235316450E+02 -0.12294558451E+02  0.47102988859E+02  0.10566000000E+00 0. -1.
         22    1    1    0    0    0 -0.44617474147E+01  0.20562414051E+02 -0.17966361960E+02  0.27667855422E+02  0.00000000000E+00 0. -1.
</event>
<event>
 5    1  0.1264859E-009  0.9118800E+02  0.7815553E-02  0.1125453E+00
         25   -1    0    0    0    0  0.00000000000E+00  0.00000000000E+00  0.99999998245E-14  0.12509000000E+03  0.12509000000E+03 0.  0.
        -13    1    3    3    0    0  0.43471846012E+01  0.33876470079E+02 -0.18777358384E+02  0.38975807765E+02  0.10566000000E+00 0. -1.
         23    2    1    0    0    0  0.93142541000E+00  0.25269652199E+01  0.28859580705E+02  0.96105029671E+02  0.91629952652E+02 0.  0.
         13    1    3    3    0    0 -0.34157591912E+01 -0.31349504860E+02  0.47636939089E+02  0.57129221906E+02  0.10566000000E+00 0.  1.
         22    1    1    0    0    0 -0.93142541000E+00 -0.25269652199E+01 -0.28859580705E+02  0.28984970329E+02  0.00000000000E+00 0.  1.
</event>
<event>
 5    1  0.1264859E-009  0.9118800E+02  0.7815553E-02  0.1125453E+00
         25   -1    0    0    0    0  0.00000000000E+00  0.00000000000E+00  0.99999998245E-14  0.12509000000E+03  0.12509000000E+03 0.  0.
        -13    1    3    3    0    0 -0.24508190307E+02  0.44929909633E+02  0.87227007965E+01  0.51917673725E+02  0.10566000000E+00 0. -1.
         23    2    1    0    0    0 -0.26988855559E+02  0.13929882332E+01  0.11730877416E+02  0.95628971071E+02  0.90977732894E+02 0.  0.
         13    1    3    3    0    0 -0.24806652519E+01 -0.43536921400E+02  0.30081766198E+01  0.43711297346E+02  0.10566000000E+00 0.  1.
         22    1    1    0    0    0  0.26988855559E+02 -0.13929882332E+01 -0.11730877416E+02  0.29461028929E+02  0.00000000000E+00 0. -1.
</event>
<event>
 5    1  0.1264859E-009  0.9118800E+02  0.7815553E-02  0.1125453E+00
         25   -1    0    0    0    0  0.00000000000E+00  0.00000000000E+00  0.99999998245E-14  0.12509000000E+03  0.12509000000E+03 0.  0.
        -13    1    3    3    0    0 -0.21209166809E+01 -0.48180580960E+02  0.22204987148E+02  0.53093684064E+02  0.10566000000E+00 0.  1.
         23    2    1    0    0    0  0.20861069977E+02 -0.20632136556E+02 -0.84650390454E+00  0.95737217026E+02  0.91126444327E+02 0.  0.
         13    1    3    3    0    0  0.22981986658E+02  0.27548444404E+02 -0.23051491052E+02  0.42643532963E+02  0.10566000000E+00 0. -1.
         22    1    1    0    0    0 -0.20861069977E+02  0.20632136556E+02  0.84650390454E+00  0.29352782974E+02  0.00000000000E+00 0.  1.
</event>
<event>
 5    1  0.1264859E-009  0.9118800E+02  0.7815553E-02  0.1125453E+00
         25   -1    0    0    0    0  0.00000000000E+00  0.00000000000E+00  0.99999998245E-14  0.12509000000E+03  0.12509000000E+03 0.  0.
        -13    1    3    3    0    0  0.17563508812E+02  0.27430513341E+02 -0.13064023867E+02  0.35094013557E+02  0.10566000000E+00 0.  1.
         23    2    1    0    0    0 -0.21189015851E+00 -0.29010369170E+02  0.15215855691E+01  0.96038982127E+02  0.91539742453E+02 0.  0.
         13    1    3    3    0    0 -0.17775398970E+02 -0.56440882512E+02  0.14585609436E+02  0.60944968569E+02  0.10566000000E+00 0. -1.
         22    1    1    0    0    0  0.21189015851E+00  0.29010369170E+02 -0.15215855691E+01  0.29051017873E+02  0.00000000000E+00 0. -1.
</event>
<event>
 5    1  0.1264859E-009  0.9118800E+02  0.7815553E-02  0.1125453E+00
         25   -1    0    0    0    0  0.00000000000E+00  0.00000000000E+00  0.99999998245E-14  0.12509000000E+03  0.12509000000E+03 0.  0.
        -13    1    3    3    0    0 -0.13248505900E+02 -0.35510628179E+02  0.12643212254E+02  0.39954844542E+02  0.10566000000E+00 0. -1.
         23    2    1    0    0    0 -0.75167885422E+00  0.13581679320E+02  0.28892875694E+02  0.93155296305E+02  0.87510478970E+02 0.  0.
         13    1    3    3    0    0  0.12496827046E+02  0.49092307499E+02  0.16249663439E+02  0.53200451762E+02  0.10566000000E+00 0.  1.
         22    1    1    0    0    0  0.75167885422E+00 -0.13581679320E+02 -0.28892875694E+02  0.31934703695E+02  0.00000000000E+00 0.  1.
</event>
<event>
 5    1  0.1264859E-009  0.9118800E+02  0.7815553E-02  0.1125453E+00
         25   -1    0    0    0    0  0.00000000000E+00  0.00000000000E+00  0.99999998245E-14  0.12509000000E+03  0.12509000000E+03 0.  0.
        -13    1    3    3    0    0  0.19361136556E+02 -0.92629665230E+01 -0.40475931053E+02  0.45814498974E+02  0.10566000000E+00 0.  1.
         23    2    1    0    0    0 -0.15683085718E+02 -0.23357346767E+02 -0.74565958571E+01  0.95984577010E+02  0.91465367087E+02 0.  0.
         13    1    3    3    0    0 -0.35044222274E+02 -0.14094380244E+02  0.33019335196E+02  0.50170078036E+02  0.10566000000E+00 0. -1.
         22    1    1    0    0    0  0.15683085718E+02  0.23357346767E+02  0.74565958571E+01  0.29105422990E+02  0.00000000000E+00 0. -1.
</event>
<event>
 5    1  0.1264859E-009  0.9118800E+02  0.7815553E-02  0.1125453E+00
         25   -1    0    0    0    0  0.00000000000E+00  0.00000000000E+00  0.99999998245E-14  0.12509000000E+03  0.12509000000E+03 0.  0.
        -13    1    3    3    0    0  0.74953848529E+01 -0.59878723224E+02 -0.11582688047E+02  0.61447637183E+02  0.10566000000E+00 0.  1.
         23    2    1    0    0    0 -0.37361696222E+01 -0.26637567853E+02 -0.93758078579E+01  0.96604481617E+02  0.92309268825E+02 0.  0.
         13    1    3    3    0    0 -0.11231554475E+02  0.33241155371E+02  0.22068801892E+01  0.35156844434E+02  0.10566000000E+00 0. -1.
         22    1    1    0    0    0  0.37361696222E+01  0.26637567853E+02  0.93758078579E+01  0.28485518383E+02  0.00000000000E+00 0.  1.
</event>
<event>
 5    1  0.1264859E-009  0.9118800E+02  0.7815553E-02  0.1125453E+00
         25   -1    0    0    0    0  0.00000000000E+00  0.00000000000E+00  0.99999998245E-14  0.12509000000E+03  0.12509000000E+03 0.  0.
        -13    1    3    3    0    0 -0.29201386683E+02  0.30852199101E+02  0.30125939745E+02  0.52078427233E+02  0.10566000000E+00 0. -1.
         23    2    1    0    0    0  0.11626898640E+02  0.19513984811E+02  0.17868132349E+02  0.96189298817E+02  0.91744921811E+02 0.  0.
         13    1    3    3    0    0  0.40828285323E+02 -0.11338214290E+02 -0.12257807395E+02  0.44110871584E+02  0.10566000000E+00 0.  1.
         22    1    1    0    0    0 -0.11626898640E+02 -0.19513984811E+02 -0.17868132349E+02  0.28900701183E+02  0.00000000000E+00 0. -1.
</event>
<event>
 5    1  0.1264859E-009  0.9118800E+02  0.7815553E-02  0.1125453E+00
         25   -1    0    0    0    0  0.00000000000E+00  0.00000000000E+00  0.99999998245E-14  0.12509000000E+03  0.12509000000E+03 0.  0.
        -13    1    3    3    0    0  0.19205940548E+01 -0.40784901074E+02 -0.86901425326E-01  0.40830326389E+02  0.10566000000E+00 0. -1.
         23    2    1    0    0    0  0.29374503867E+02  0.59859154627E+01 -0.13961230152E+01  0.95079304893E+02  0.90218802908E+02 0.  0.
         13    1    3    3    0    0  0.27453909812E+02  0.46770816537E+02 -0.13092215898E+01  0.54248978504E+02  0.10566000000E+00 0.  1.
         22    1    1    0    0    0 -0.29374503867E+02 -0.59859154627E+01  0.13961230152E+01  0.30010695107E+02  0.00000000000E+00 0.  1.
</event>
<event>
 5    1  0.1264859E-009  0.9118800E+02  0.7815553E-02  0.1125453E+00
         25   -1    0    0    0    0  0.00000000000E+00  0.00000000000E+00  0.99999998245E-14  0.12509000000E+03  0.12509000000E+03 0.  0.
        -13    1    3    3    0    0 -0.28074342460E+02  0.12248969517E+01  0.23323339926E+02  0.36519288417E+02  0.10566000000E+00 0.  1.
         23    2    1    0    0    0  0.29785885609E+01 -0.16971162976E+02 -0.23732868449E+02  0.95761832526E+02  0.91160227958E+02 0.  0.
         13    1    3    3    0    0  0.31052931021E+02 -0.18196059927E+02 -0.47056208375E+02  0.59242544109E+02  0.10566000000E+00 0. -1.
         22    1    1    0    0    0 -0.29785885609E+01  0.16971162976E+02  0.23732868449E+02  0.29328167474E+02  0.00000000000E+00 0. -1.
</event>
<event>
 5    1  0.1264859E-009  0.9118800E+02  0.7815553E-02  0.1125453E+00
         25   -1    0    0    0    0  0.00000000000E+00  0.00000000000E+00  0.99999998245E-14  0.12509000000E+03  0.12509000000E+03 0.  0.
        -13    1    3    3    0    0 -0.67462443419E+01 -0.15471407443E+02 -0.28630955142E+02  0.33235809263E+02  0.10566000000E+00 0. -1.
         23    2    1    0    0    0  0.12685793964E+01  0.12779675453E+02  0.26467422017E+02  0.95671403389E+02  0.91036056592E+02 0.  0.
         13    1    3    3    0    0  0.80148237383E+01  0.28251082896E+02  0.55098377158E+02  0.62435594126E+02  0.10566000000E+00 0.  1.
         22    1    1    0    0    0 -0.12685793964E+01 -0.12779675453E+02 -0.26467422017E+02  0.29418596611E+02  0.00000000000E+00 0.  1.
</event>
<event>
 5    1  0.1264859E-009  0.9118800E+02  0.7815553E-02  0.1125453E+00
         25   -1    0    0    0    0  0.00000000000E+00  0.00000000000E+00  0.99999998245E-14  0.12509000000E+03  0.12509000000E+03 0.  0.
        -13    1    3    3    0    0 -0.10127365523E+02 -0.24262644233E+02  0.35962777802E+02  0.44548535205E+02  0.10566000000E+00 0. -1.
         23    2    1    0    0    0  0.27752656908E+02 -0.13276725402E+01  0.13852347273E+02  0.94043901939E+02  0.88771590541E+02 0.  0.
         13    1    3    3    0    0  0.37880022431E+02  0.22934971692E+02 -0.22110430529E+02  0.49495366734E+02  0.10566000000E+00 0.  1.
         22    1    1    0    0    0 -0.27752656908E+02  0.13276725402E+01 -0.13852347273E+02  0.31046098061E+02  0.00000000000E+00 0. -1.
</event>
<event>
 5    1  0.1264859E-009  0.9118800E+02  0.7815553E-02  0.1125453E+00
         25   -1    0    0    0    0  0.00000000000E+00  0.00000000000E+00  0.99999998245E-14  0.12509000000E+03  0.12509000000E+03 0.  0.
        -13    1    3    3    0    0  0.52117914307E+02  0.29810021519E+02  0.36525130951E+01  0.60152027319E+02  0.10566000000E+00 0.  1.
         23    2    1    0    0    0  0.19511636187E+02  0.20199807944E+02 -0.76626443166E+01  0.95978965913E+02  0.91457692909E+02 0.  0.
         13    1    3    3    0    0 -0.32606278119E+02 -0.96102135746E+01 -0.11315157412E+02  0.35826938594E+02  0.10566000000E+00 0. -1.
         22    1    1    0    0    0 -0.19511636187E+02 -0.20199807944E+02  0.76626443166E+01  0.29111034087E+02  0.00000000000E+00 0.  1.
</event>
<event>
 5    1  0.1264859E-009  0.9118800E+02  0.7815553E-02  0.1125453E+00
         25   -1    0    0    0    0  0.00000000000E+00  0.00000000000E+00  0.99999998245E-14  0.12509000000E+03  0.12509000000E+03 0.  0.
        -13    1    3    3    0    0  0.32198385930E+02 -0.98138860832E+00  0.33709073662E+02  0.46626301497E+02  0.10566000000E+00 0.  1.
         23    2    1    0    0    0  0.76409995894E+01  0.27297628327E+02  0.41320516543E+00  0.96740112425E+02  0.92492882031E+02 0.  0.
         13    1    3    3    0    0 -0.24557386341E+02  0.28279016936E+02 -0.33295868496E+02  0.50113810928E+02  0.10566000000E+00 0. -1.
         22    1    1    0    0    0 -0.76409995894E+01 -0.27297628327E+02 -0.41320516543E+00  0.28349887575E+02  0.00000000000E+00 0. -1.
</event>
<event>
 5    1  0.1264859E-009  0.9118800E+02  0.7815553E-02  0.1125453E+00
         25   -1    0    0    0    0  0.00000000000E+00  0.00000000000E+00  0.99999998245E-14  0.12509000000E+03  0.12509000000E+03 0.  0.
        -13    1    3    3    0    0  0.29013485460E+02 -0.42118075848E+02  0.35964904532E+02  0.62523596935E+02  0.10566000000E+00 0. -1.
         23    2    1    0    0    0  0.13228992682E+02 -0.18891701979E+02  0.17610298962E+02  0.96072328134E+02  0.91585298779E+02 0.  0.
         13    1    3    3    0    0 -0.15784492778E+02  0.23226373869E+02 -0.18354605570E+02  0.33548731199E+02  0.10566000000E+00 0.  1.
         22    1    1    0    0    0 -0.13228992682E+02  0.18891701979E+02 -0.17610298962E+02  0.29017671866E+02  0.00000000000E+00 0. -1.
</event>
<event>
 5    1  0.1264859E-009  0.9118800E+02  0.7815553E-02  0.1125453E+00
         25   -1    0    0    0    0  0.00000000000E+00  0.00000000000E+00  0.99999998245E-14  0.12509000000E+03  0.12509000000E+03 0.  0.
        -13    1    3    3    0    0 -0.10972429744E+02 -0.23487793092E+02  0.39155737408E+02  0.46960127500E+02  0.10566000000E+00 0.  1.
         23    2    1    0    0    0  0.17878174881E+02 -0.23373041350E+02 -0.82129798337E-01  0.95663227423E+02  0.91024821541E+02 0.  0.
         13    1    3    3    0    0  0.28850604625E+02  0.11475174150E+00 -0.39237867206E+02  0.48703099923E+02  0.10566000000E+00 0. -1.
         22    1    1    0    0    0 -0.17878174881E+02  0.23373041350E+02  0.82129798337E-01  0.29426772577E+02  0.00000000000E+00 0. -1.
</event>
<event>
 5    1  0.1264859E-009  0.9118800E+02  0.7815553E-02  0.1125453E+00
         25   -1    0    0    0    0  0.00000000000E+00  0.00000000000E+00  0.99999998245E-14  0.12509000000E+03  0.12509000000E+03 0.  0.
        -13    1    3    3    0    0  0.53742991863E+02 -0.10279481420E+02  0.25959979609E+02  0.60563261290E+02  0.10566000000E+00 0. -1.
         23    2    1    0    0    0  0.26494424997E+02  0.61464502287E+01  0.10522361608E+02  0.95927464099E+02  0.91387224864E+02 0.  0.
         13    1    3    3    0    0 -0.27248566866E+02  0.16425931649E+02 -0.15437618001E+02  0.35364202810E+02  0.10566000000E+00 0.  1.
         22    1    1    0    0    0 -0.26494424997E+02 -0.61464502287E+01 -0.10522361608E+02  0.29162535901E+02  0.00000000000E+00 0. -1.
</event>
<event>
 5    1  0.1264859E-009  0.9118800E+02  0.7815553E-02  0.1125453E+00
         25   -1    0    0    0    0  0.00000000000E+00  0.00000000000E+00  0.99999998245E-14  0.12509000000E+03  0.12509000000E+03 0.  0.
        -13    1    3    3    0    0 -0.89425902279E+01  0.45567239605E+02  0.38789443597E+02  0.60505994280E+02  0.10566000000E+00 0. -1.
         23    2    1    0    0    0 -0.34355862936E+01  0.17789146549E+02  0.29794738947E+02  0.90219045653E+02  0.83207528154E+02 0.  0.
         13    1    3    3    0    0  0.55070039344E+01 -0.27778093056E+02 -0.89947046495E+01  0.29713051374E+02  0.10566000000E+00 0.  1.
         22    1    1    0    0    0  0.34355862936E+01 -0.17789146549E+02 -0.29794738947E+02  0.34870954347E+02  0.00000000000E+00 0. -1.
</event>
<event>
 5    1  0.1264859E-009  0.9118800E+02  0.7815553E-02  0.1125453E+00
         25   -1    0    0    0    0  0.00000000000E+00  0.00000000000E+00  0.99999998245E-14  0.12509000000E+03  0.12509000000E+03 0.  0.
        -13    1    3    3    0    0 -0.32882432901E+02 -0.61427882199E+01  0.10470828926E+02  0.35051928093E+02  0.10566000000E+00 0. -1.
         23    2    1    0    0    0  0.25270061513E+02 -0.16128789856E+02 -0.69731302277E+00  0.95103334354E+02  0.90252114040E+02 0.  0.
         13    1    3    3    0    0  0.58152494415E+02 -0.99860016359E+01 -0.11168141949E+02  0.60051406261E+02  0.10566000000E+00 0.  1.
         22    1    1    0    0    0 -0.25270061513E+02  0.16128789856E+02  0.69731302277E+00  0.29986665646E+02  0.00000000000E+00 0.  1.
</event>
<event>
 5    1  0.1264859E-009  0.9118800E+02  0.7815553E-02  0.1125453E+00
         25   -1    0    0    0    0  0.00000000000E+00  0.00000000000E+00  0.99999998245E-14  0.12509000000E+03  0.12509000000E+03 0.  0.
        -13    1    3    3    0    0 -0.31278019685E+02  0.30310671822E+02 -0.29131596967E+02  0.52399546254E+02  0.10566000000E+00 0. -1.
         23    2    1    0    0    0 -0.12795085648E+02  0.25256625185E+02  0.92550066786E+01  0.95302981332E+02  0.90528403110E+02 0.  0.
         13    1    3    3    0    0  0.18482934036E+02 -0.50540466368E+01  0.38386603646E+02  0.42903435078E+02  0.10566000000E+00 0.  1.
         22    1    1    0    0    0  0.12795085648E+02 -0.25256625185E+02 -0.92550066786E+01  0.29787018668E+02  0.00000000000E+00 0.  1.
</event>
<event>
 5    1  0.1264859E-009  0.9118800E+02  0.7815553E-02  0.1125453E+00
         25   -1    0    0    0    0  0.00000000000E+00  0.00000000000E+00  0.99999998245E-14  0.12509000000E+03  0.12509000000E+03 0.  0.
        -13    1    3    3    0    0  0.34923001319E+02 -0.19159626960E+02  0.25745317391E+02  0.47429314332E+02  0.10566000000E+00 0.  1.
         23    2    1    0    0    0  0.27208647176E+02 -0.62634242108E+01 -0.16768678104E+02  0.92521157077E+02  0.86599278158E+02 0.  0.
         13    1    3    3    0    0 -0.77143541431E+01  0.12896202749E+02 -0.42513995495E+02  0.45091842745E+02  0.10566000000E+00 0. -1.
         22    1    1    0    0    0 -0.27208647176E+02  0.62634242108E+01  0.16768678104E+02  0.32568842923E+02  0.00000000000E+00 0.  1.
</event>
<event>
 5    1  0.1264859E-009  0.9118800E+02  0.7815553E-02  0.1125453E+00
         25   -1    0    0    0    0  0.00000000000E+00  0.00000000000E+00  0.99999998245E-14  0.12509000000E+03  0.12509000000E+03 0.  0.
        -13    1    3    3    0    0 -0.73325480935E+01 -0.94173837231E+01 -0.53878378674E+02  0.55184637630E+02  0.10566000000E+00 0.  1.
         23    2    1    0    0    0  0.51227010845E+01  0.15502759661E+02 -0.24267296772E+02  0.95841421981E+02  0.91269375210E+02 0.  0.
         13    1    3    3    0    0  0.12455249178E+02  0.24920143384E+02  0.29611081902E+02  0.40656784352E+02  0.10566000000E+00 0. -1.
         22    1    1    0    0    0 -0.51227010845E+01 -0.15502759661E+02  0.24267296772E+02  0.29248578019E+02  0.00000000000E+00 0.  1.
</event>
<event>
 5    1  0.1264859E-009  0.9118800E+02  0.7815553E-02  0.1125453E+00
         25   -1    0    0    0    0  0.00000000000E+00  0.00000000000E+00  0.99999998245E-14  0.12509000000E+03  0.12509000000E+03 0.  0.
        -13    1    3    3    0    0  0.13298205026E+02 -0.12757623209E+02 -0.42213555296E+02  0.46060770962E+02  0.10566000000E+00 0. -1.
         23    2    1    0    0    0 -0.18733257737E+02  0.15314698436E+02 -0.16267966605E+02  0.95933153959E+02  0.91395012761E+02 0.  0.
         13    1    3    3    0    0 -0.32031462763E+02  0.28072321645E+02  0.25945588691E+02  0.49872382997E+02  0.10566000000E+00 0.  1.
         22    1    1    0    0    0  0.18733257737E+02 -0.15314698436E+02  0.16267966605E+02  0.29156846041E+02  0.00000000000E+00 0.  1.
</event>
<event>
 5    1  0.1264859E-009  0.9118800E+02  0.7815553E-02  0.1125453E+00
         25   -1    0    0    0    0  0.00000000000E+00  0.00000000000E+00  0.99999998245E-14  0.12509000000E+03  0.12509000000E+03 0.  0.
        -13    1    3    3    0    0 -0.41924938525E+02 -0.30292791466E+02 -0.27150587443E+02  0.58416771972E+02  0.10566000000E+00 0. -1.
         23    2    1    0    0    0 -0.17782542614E+02  0.46117505591E+01 -0.66145539604E+01  0.10556464753E+03  0.10374321866E+03 0.  0.
         13    1    3    3    0    0  0.24142395911E+02  0.34904542025E+02  0.20536033483E+02  0.47147875557E+02  0.10566000000E+00 0.  1.
         22    1    1    0    0    0  0.17782542614E+02 -0.46117505591E+01  0.66145539604E+01  0.19525352471E+02  0.00000000000E+00 0. -1.
</event>
<event>
 5    1  0.1264859E-009  0.9118800E+02  0.7815553E-02  0.1125453E+00
         25   -1    0    0    0    0  0.00000000000E+00  0.00000000000E+00  0.99999998245E-14  0.12509000000E+03  0.12509000000E+03 0.  0.
        -13    1    3    3    0    0  0.40275370849E+02  0.20830656647E+02  0.38617712224E+02  0.59559723092E+02  0.10566000000E+00 0.  1.
         23    2    1    0    0    0  0.16013945896E+02 -0.17929701322E+01  0.24841948762E+02  0.95479467696E+02  0.90771940202E+02 0.  0.
         13    1    3    3    0    0 -0.24261424952E+02 -0.22623626780E+02 -0.13775763463E+02  0.35919744604E+02  0.10566000000E+00 0. -1.
         22    1    1    0    0    0 -0.16013945896E+02  0.17929701322E+01 -0.24841948762E+02  0.29610532304E+02  0.00000000000E+00 0.  1.
</event>
<event>
 5    1  0.1264859E-009  0.9118800E+02  0.7815553E-02  0.1125453E+00
         25   -1    0    0    0    0  0.00000000000E+00  0.00000000000E+00  0.99999998245E-14  0.12509000000E+03  0.12509000000E+03 0.  0.
        -13    1    3    3    0    0 -0.41227881093E+02 -0.11746635016E+02 -0.40879008446E+02  0.59235345101E+02  0.10566000000E+00 0.  1.
         23    2    1    0    0    0 -0.80979913165E+01 -0.19928111791E+01 -0.27635543143E+02  0.96223548806E+02  0.91791608223E+02 0.  0.
         13    1    3    3    0    0  0.33129889777E+02  0.97538238364E+01  0.13243465304E+02  0.36988203705E+02  0.10566000000E+00 0. -1.
         22    1    1    0    0    0  0.80979913165E+01  0.19928111791E+01  0.27635543143E+02  0.28866451194E+02  0.00000000000E+00 0.  1.
</event>
<event>
 5    1  0.1264859E-009  0.9118800E+02  0.7815553E-02  0.1125453E+00
         25   -1    0    0    0    0  0.00000000000E+00  0.00000000000E+00  0.99999998245E-14  0.12509000000E+03  0.12509000000E+03 0.  0.
        -13    1    3    3    0    0  0.38270883056E+02  0.13877109336E+02 -0.46165499524E+02  0.61550785241E+02  0.10566000000E+00 0.  1.
         23    2    1    0    0    0  0.24191279609E+02  0.62072226734E+01 -0.16856291091E+02  0.94958916850E+02  0.90051728009E+02 0.  0.
         13    1    3    3    0    0 -0.14079603447E+02 -0.76698866624E+01  0.29309208433E+02  0.33408131609E+02  0.10566000000E+00 0. -1.
         22    1    1    0    0    0 -0.24191279609E+02 -0.62072226734E+01  0.16856291091E+02  0.30131083150E+02  0.00000000000E+00 0.  1.
</event>
<event>
 5    1  0.1264859E-009  0.9118800E+02  0.7815553E-02  0.1125453E+00
         25   -1    0    0    0    0  0.00000000000E+00  0.00000000000E+00  0.99999998245E-14  0.12509000000E+03  0.12509000000E+03 0.  0.
        -13    1    3    3    0    0  0.10736081017E+02  0.32698996275E+02  0.92395466479E+01  0.35635209825E+02  0.10566000000E+00 0. -1.
         23    2    1    0    0    0 -0.23166308232E+01 -0.24420843746E+02  0.17707218161E+02  0.94836240520E+02  0.89881157944E+02 0.  0.
         13    1    3    3    0    0 -0.13052711840E+02 -0.57119840021E+02  0.84676715132E+01  0.59201030695E+02  0.10566000000E+00 0.  1.
         22    1    1    0    0    0  0.23166308232E+01  0.24420843746E+02 -0.17707218161E+02  0.30253759480E+02  0.00000000000E+00 0.  1.
</event>
<event>
 5    1  0.1264859E-009  0.9118800E+02  0.7815553E-02  0.1125453E+00
         25   -1    0    0    0    0  0.00000000000E+00  0.00000000000E+00  0.99999998245E-14  0.12509000000E+03  0.12509000000E+03 0.  0.
        -13    1    3    3    0    0 -0.35635393760E+02  0.40139491602E+02 -0.29751013778E+02  0.61369325068E+02  0.10566000000E+00 0. -1.
         23    2    1    0    0    0 -0.10268404936E+02  0.21754531347E+02 -0.18806856633E+02  0.94554813240E+02  0.89488630990E+02 0.  0.
         13    1    3    3    0    0  0.25366988824E+02 -0.18384960255E+02  0.10944157145E+02  0.33185488172E+02  0.10566000000E+00 0.  1.
         22    1    1    0    0    0  0.10268404936E+02 -0.21754531347E+02  0.18806856633E+02  0.30535186760E+02  0.00000000000E+00 0. -1.
</event>
<event>
 5    1  0.1264859E-009  0.9118800E+02  0.7815553E-02  0.1125453E+00
         25   -1    0    0    0    0  0.00000000000E+00  0.00000000000E+00  0.99999998245E-14  0.12509000000E+03  0.12509000000E+03 0.  0.
        -13    1    3    3    0    0  0.26871006625E+02 -0.18189640252E+02  0.30823563678E+02  0.44755080732E+02  0.10566000000E+00 0. -1.
         23    2    1    0    0    0  0.16274810618E+02  0.22975972542E+02  0.57251671058E+00  0.96928101089E+02  0.92746774771E+02 0.  0.
         13    1    3    3    0    0 -0.10596196007E+02  0.41165612794E+02 -0.30251046967E+02  0.52173020357E+02  0.10566000000E+00 0.  1.
         22    1    1    0    0    0 -0.16274810618E+02 -0.22975972542E+02 -0.57251671058E+00  0.28161898911E+02  0.00000000000E+00 0.  1.
</event>
<event>
 5    1  0.1264859E-009  0.9118800E+02  0.7815553E-02  0.1125453E+00
         25   -1    0    0    0    0  0.00000000000E+00  0.00000000000E+00  0.99999998245E-14  0.12509000000E+03  0.12509000000E+03 0.  0.
        -13    1    3    3    0    0  0.10471804286E+02  0.38071800147E+02  0.39204725944E+02  0.55642990141E+02  0.10566000000E+00 0.  1.
         23    2    1    0    0    0  0.27877473364E+01  0.31019380250E+02  0.24496111347E+01  0.93849416122E+02  0.88497111961E+02 0.  0.
         13    1    3    3    0    0 -0.76840569500E+01 -0.70524198975E+01 -0.36755114809E+02  0.38206425982E+02  0.10566000000E+00 0. -1.
         22    1    1    0    0    0 -0.27877473364E+01 -0.31019380250E+02 -0.24496111347E+01  0.31240583878E+02  0.00000000000E+00 0.  1.
</event>
<event>
 5    1  0.1264859E-009  0.9118800E+02  0.7815553E-02  0.1125453E+00
         25   -1    0    0    0    0  0.00000000000E+00  0.00000000000E+00  0.99999998245E-14  0.12509000000E+03  0.12509000000E+03 0.  0.
        -13    1    3    3    0    0  0.10875117075E+02 -0.86860859164E+01  0.37995904408E+02  0.40464999392E+02  0.10566000000E+00 0.  1.
         23    2    1    0    0    0  0.97441986632E+01  0.28922864310E+02 -0.86638955338E+00  0.94557523548E+02  0.89492419462E+02 0.  0.
         13    1    3    3    0    0 -0.11309184115E+01  0.37608950226E+02 -0.38862293962E+02  0.54092524156E+02  0.10566000000E+00 0. -1.
         22    1    1    0    0    0 -0.97441986632E+01 -0.28922864310E+02  0.86638955338E+00  0.30532476452E+02  0.00000000000E+00 0. -1.
</event>
<event>
 5    1  0.1264859E-009  0.9118800E+02  0.7815553E-02  0.1125453E+00
         25   -1    0    0    0    0  0.00000000000E+00  0.00000000000E+00  0.99999998245E-14  0.12509000000E+03  0.12509000000E+03 0.  0.
        -13    1    3    3    0    0 -0.29377723369E+02  0.42357643382E+01 -0.40187228024E+02  0.49960152023E+02  0.10566000000E+00 0. -1.
         23    2    1    0    0    0 -0.20620924379E+02 -0.21868377592E+02 -0.50323202494E+01  0.94614227527E+02  0.89571643630E+02 0.  0.
         13    1    3    3    0    0  0.87567989893E+01 -0.26104141930E+02  0.35154907775E+02  0.44654075504E+02  0.10566000000E+00 0.  1.
         22    1    1    0    0    0  0.20620924379E+02  0.21868377592E+02  0.50323202494E+01  0.30475772473E+02  0.00000000000E+00 0. -1.
</event>
<event>
 5    1  0.1264859E-009  0.9118800E+02  0.7815553E-02  0.1125453E+00
         25   -1    0    0    0    0  0.00000000000E+00  0.00000000000E+00  0.99999998245E-14  0.12509000000E+03  0.12509000000E+03 0.  0.
        -13    1    3    3    0    0 -0.32373616845E+02 -0.20469358555E+02 -0.11636287504E+02  0.40030738916E+02  0.10566000000E+00 0.  1.
         23    2    1    0    0    0  0.20629963543E+02 -0.22161021674E+02  0.18726312409E+01  0.94754986811E+02  0.89768003767E+02 0.  0.
         13    1    3    3    0    0  0.53003580387E+02 -0.16916631195E+01  0.13508918745E+02  0.54724247895E+02  0.10566000000E+00 0. -1.
         22    1    1    0    0    0 -0.20629963543E+02  0.22161021674E+02 -0.18726312409E+01  0.30335013189E+02  0.00000000000E+00 0. -1.
</event>
<event>
 5    1  0.1264859E-009  0.9118800E+02  0.7815553E-02  0.1125453E+00
         25   -1    0    0    0    0  0.00000000000E+00  0.00000000000E+00  0.99999998245E-14  0.12509000000E+03  0.12509000000E+03 0.  0.
        -13    1    3    3    0    0 -0.19376143872E+01  0.36758783329E+02  0.45159086905E+01  0.37085942036E+02  0.10566000000E+00 0. -1.
         23    2    1    0    0    0 -0.75571809671E+00 -0.22548822202E+02 -0.13144778223E+02  0.98978590864E+02  0.95472277454E+02 0.  0.
         13    1    3    3    0    0  0.11818962905E+01 -0.59307605531E+02 -0.17660686913E+02  0.61892648828E+02  0.10566000000E+00 0.  1.
         22    1    1    0    0    0  0.75571809671E+00  0.22548822202E+02  0.13144778223E+02  0.26111409136E+02  0.00000000000E+00 0.  1.
</event>
<event>
 5    1  0.1264859E-009  0.9118800E+02  0.7815553E-02  0.1125453E+00
         25   -1    0    0    0    0  0.00000000000E+00  0.00000000000E+00  0.99999998245E-14  0.12509000000E+03  0.12509000000E+03 0.  0.
        -13    1    3    3    0    0 -0.39265037634E+02  0.16007171200E+01 -0.11662205908E+02  0.40991751443E+02  0.10566000000E+00 0.  1.
         23    2    1    0    0    0 -0.16165267100E+01 -0.57530672629E+01  0.28170734214E+02  0.96292409689E+02  0.91885401213E+02 0.  0.
         13    1    3    3    0    0  0.37648510924E+02 -0.73537843829E+01  0.39832940123E+02  0.55300658246E+02  0.10566000000E+00 0. -1.
         22    1    1    0    0    0  0.16165267100E+01  0.57530672629E+01 -0.28170734214E+02  0.28797590311E+02  0.00000000000E+00 0. -1.
</event>
<event>
 5    1  0.1264859E-009  0.9118800E+02  0.7815553E-02  0.1125453E+00
         25   -1    0    0    0    0  0.00000000000E+00  0.00000000000E+00  0.99999998245E-14  0.12509000000E+03  0.12509000000E+03 0.  0.
        -13    1    3    3    0    0 -0.16846206794E+01  0.25611466774E+02  0.27626629248E+02  0.37709773068E+02  0.10566000000E+00 0. -1.
         23    2    1    0    0    0 -0.12631634951E+02 -0.19770175324E+02 -0.11812834330E+02  0.98822889600E+02  0.95268055612E+02 0.  0.
         13    1    3    3    0    0 -0.10947014271E+02 -0.45381642097E+02 -0.39439463579E+02  0.61113116533E+02  0.10566000000E+00 0.  1.
         22    1    1    0    0    0  0.12631634951E+02  0.19770175324E+02  0.11812834330E+02  0.26267110400E+02  0.00000000000E+00 0.  1.
</event>
<event>
 5    1  0.1264859E-009  0.9118800E+02  0.7815553E-02  0.1125453E+00
         25   -1    0    0    0    0  0.00000000000E+00  0.00000000000E+00  0.99999998245E-14  0.12509000000E+03  0.12509000000E+03 0.  0.
        -13    1    3    3    0    0 -0.13931251791E+01 -0.30086614275E+02  0.20774827932E+02  0.36588929964E+02  0.10566000000E+00 0. -1.
         23    2    1    0    0    0  0.43968098365E+01  0.27393711065E+02  0.11303297599E+02  0.95131497380E+02  0.90291139734E+02 0.  0.
         13    1    3    3    0    0  0.57899350156E+01  0.57480325340E+02 -0.94715303335E+01  0.58542567415E+02  0.10566000000E+00 0.  1.
         22    1    1    0    0    0 -0.43968098365E+01 -0.27393711065E+02 -0.11303297599E+02  0.29958502620E+02  0.00000000000E+00 0.  1.
</event>
<event>
 5    1  0.1264859E-009  0.9118800E+02  0.7815553E-02  0.1125453E+00
         25   -1    0    0    0    0  0.00000000000E+00  0.00000000000E+00  0.99999998245E-14  0.12509000000E+03  0.12509000000E+03 0.  0.
        -13    1    3    3    0    0  0.51135207757E+02 -0.15494998158E+02  0.14584389787E+02  0.55386099607E+02  0.10566000000E+00 0. -1.
         23    2    1    0    0    0  0.22481061774E+02 -0.20163665775E+02 -0.98427931331E+01  0.93327567275E+02  0.87756382564E+02 0.  0.
         13    1    3    3    0    0 -0.28654145982E+02 -0.46686676171E+01 -0.24427182920E+02  0.37941467667E+02  0.10566000000E+00 0.  1.
         22    1    1    0    0    0 -0.22481061774E+02  0.20163665775E+02  0.98427931331E+01  0.31762432725E+02  0.00000000000E+00 0. -1.
</event>
<event>
 5    1  0.1264859E-009  0.9118800E+02  0.7815553E-02  0.1125453E+00
         25   -1    0    0    0    0  0.00000000000E+00  0.00000000000E+00  0.99999998245E-14  0.12509000000E+03  0.12509000000E+03 0.  0.
        -13    1    3    3    0    0  0.33516197624E+02 -0.29635473364E+01 -0.10888389969E+02  0.35365043703E+02  0.10566000000E+00 0. -1.
         23    2    1    0    0    0 -0.23517400406E+02  0.16556633018E+02 -0.43901490257E+01  0.95995952031E+02  0.91480922487E+02 0.  0.
         13    1    3    3    0    0 -0.57033598030E+02  0.19520180354E+02  0.64982409436E+01  0.60630908328E+02  0.10566000000E+00 0.  1.
         22    1    1    0    0    0  0.23517400406E+02 -0.16556633018E+02  0.43901490257E+01  0.29094047969E+02  0.00000000000E+00 0.  1.
</event>
<event>
 5    1  0.1264859E-009  0.9118800E+02  0.7815553E-02  0.1125453E+00
         25   -1    0    0    0    0  0.00000000000E+00  0.00000000000E+00  0.99999998245E-14  0.12509000000E+03  0.12509000000E+03 0.  0.
        -13    1    3    3    0    0  0.33912862370E+01  0.54147834532E+02  0.16978301787E+02  0.56848594552E+02  0.10566000000E+00 0. -1.
         23    2    1    0    0    0  0.12472379723E+02  0.16559738080E+02  0.20820174896E+02  0.95708630666E+02  0.91087195149E+02 0.  0.
         13    1    3    3    0    0  0.90810934857E+01 -0.37588096452E+02  0.38418731082E+01  0.38860036115E+02  0.10566000000E+00 0.  1.
         22    1    1    0    0    0 -0.12472379723E+02 -0.16559738080E+02 -0.20820174896E+02  0.29381369334E+02  0.00000000000E+00 0. -1.
</event>
<event>
 5    1  0.1264859E-009  0.9118800E+02  0.7815553E-02  0.1125453E+00
         25   -1    0    0    0    0  0.00000000000E+00  0.00000000000E+00  0.99999998245E-14  0.12509000000E+03  0.12509000000E+03 0.  0.
        -13    1    3    3    0    0 -0.10071675198E+02  0.46082842263E+02 -0.99222223619E+01  0.48202994232E+02  0.10566000000E+00 0.  1.
         23    2    1    0    0    0 -0.47180634126E+01  0.17787639781E+02  0.25366884551E+02  0.93750901686E+02  0.88357752822E+02 0.  0.
         13    1    3    3    0    0  0.53536117854E+01 -0.28295202482E+02  0.35289106913E+02  0.45547907453E+02  0.10566000000E+00 0. -1.
         22    1    1    0    0    0  0.47180634126E+01 -0.17787639781E+02 -0.25366884551E+02  0.31339098314E+02  0.00000000000E+00 0.  1.
</event>
<event>
 5    1  0.1264859E-009  0.9118800E+02  0.7815553E-02  0.1125453E+00
         25   -1    0    0    0    0  0.00000000000E+00  0.00000000000E+00  0.99999998245E-14  0.12509000000E+03  0.12509000000E+03 0.  0.
        -13    1    3    3    0    0 -0.16597926463E+02  0.21080250383E+02 -0.27514709275E+02  0.38430957698E+02  0.10566000000E+00 0. -1.
         23    2    1    0    0    0 -0.18069720401E+02 -0.11848897198E+02  0.19590253436E+02  0.95923423412E+02  0.91381693841E+02 0.  0.
         13    1    3    3    0    0 -0.14717939379E+01 -0.32929147581E+02  0.47104962710E+02  0.57492465714E+02  0.10566000000E+00 0.  1.
         22    1    1    0    0    0  0.18069720401E+02  0.11848897198E+02 -0.19590253436E+02  0.29166576588E+02  0.00000000000E+00 0.  1.
</event>
<event>
 5    1  0.1264859E-009  0.9118800E+02  0.7815553E-02  0.1125453E+00
         25   -1    0    0    0    0  0.00000000000E+00  0.00000000000E+00  0.99999998245E-14  0.12509000000E+03  0.12509000000E+03 0.  0.
        -13    1    3    3    0    0  0.32674157960E+02 -0.26163060473E+00  0.63273826060E+01  0.33282367458E+02  0.10566000000E+00 0. -1.
         23    2    1    0    0    0 -0.27168512062E+02 -0.10481952324E+02 -0.63119206241E+01  0.95293360690E+02  0.90515108559E+02 0.  0.
         13    1    3    3    0    0 -0.59842670022E+02 -0.10220321719E+02 -0.12639303230E+02  0.62010993232E+02  0.10566000000E+00 0.  1.
         22    1    1    0    0    0  0.27168512062E+02  0.10481952324E+02  0.63119206241E+01  0.29796639310E+02  0.00000000000E+00 0.  1.
</event>
<event>
 5    1  0.1264859E-009  0.9118800E+02  0.7815553E-02  0.1125453E+00
         25   -1    0    0    0    0  0.00000000000E+00  0.00000000000E+00  0.99999998245E-14  0.12509000000E+03  0.12509000000E+03 0.  0.
        -13    1    3    3    0    0 -0.96641321306E+01  0.32011455660E+02  0.28497133114E+02  0.43934343094E+02  0.10566000000E+00 0. -1.
         23    2    1    0    0    0  0.66070501043E+01 -0.14897555839E+02  0.26933341865E+02  0.93609923999E+02  0.88157941707E+02 0.  0.
         13    1    3    3    0    0  0.16271182235E+02 -0.46909011499E+02 -0.15637912489E+01  0.49675580905E+02  0.10566000000E+00 0.  1.
         22    1    1    0    0    0 -0.66070501043E+01  0.14897555839E+02 -0.26933341865E+02  0.31480076001E+02  0.00000000000E+00 0.  1.
</event>
<event>
 5    1  0.1264859E-009  0.9118800E+02  0.7815553E-02  0.1125453E+00
         25   -1    0    0    0    0  0.00000000000E+00  0.00000000000E+00  0.99999998245E-14  0.12509000000E+03  0.12509000000E+03 0.  0.
        -13    1    3    3    0    0 -0.20668721780E+01 -0.76885950466E+01  0.39301930708E+02  0.40100366280E+02  0.10566000000E+00 0. -1.
         23    2    1    0    0    0  0.14549166771E+02  0.29320384931E+02  0.78563189491E+01  0.91428672431E+02  0.85006571327E+02 0.  0.
         13    1    3    3    0    0  0.16616038949E+02  0.37008979978E+02 -0.31445611759E+02  0.51328306151E+02  0.10566000000E+00 0.  1.
         22    1    1    0    0    0 -0.14549166771E+02 -0.29320384931E+02 -0.78563189491E+01  0.33661327569E+02  0.00000000000E+00 0.  1.
</event>
<event>
 5    1  0.1264859E-009  0.9118800E+02  0.7815553E-02  0.1125453E+00
         25   -1    0    0    0    0  0.00000000000E+00  0.00000000000E+00  0.99999998245E-14  0.12509000000E+03  0.12509000000E+03 0.  0.
        -13    1    3    3    0    0  0.15703817377E+02  0.55949511744E+02 -0.58713825080E+01  0.58407551235E+02  0.10566000000E+00 0.  1.
         23    2    1    0    0    0  0.22920892510E+02  0.24221744433E+02 -0.72037164567E+01  0.90973233629E+02  0.84333715022E+02 0.  0.
         13    1    3    3    0    0  0.72170751326E+01 -0.31727767311E+02 -0.13323339487E+01  0.32565682395E+02  0.10566000000E+00 0. -1.
         22    1    1    0    0    0 -0.22920892510E+02 -0.24221744433E+02  0.72037164567E+01  0.34116766371E+02  0.00000000000E+00 0.  1.
</event>
<event>
 5    1  0.1264859E-009  0.9118800E+02  0.7815553E-02  0.1125453E+00
         25   -1    0    0    0    0  0.00000000000E+00  0.00000000000E+00  0.99999998245E-14  0.12509000000E+03  0.12509000000E+03 0.  0.
        -13    1    3    3    0    0  0.36450233980E+02 -0.47823700990E+02 -0.11549034850E+02  0.61230035960E+02  0.10566000000E+00 0.  1.
         23    2    1    0    0    0  0.81324780124E+01 -0.25117937097E+02 -0.67188425668E+01  0.97846820889E+02  0.93977707729E+02 0.  0.
         13    1    3    3    0    0 -0.28317755968E+02  0.22705763893E+02  0.48301922829E+01  0.36616784929E+02  0.10566000000E+00 0. -1.
         22    1    1    0    0    0 -0.81324780124E+01  0.25117937097E+02  0.67188425668E+01  0.27243179111E+02  0.00000000000E+00 0.  1.
</event>
<event>
 5    1  0.1264859E-009  0.9118800E+02  0.7815553E-02  0.1125453E+00
         25   -1    0    0    0    0  0.00000000000E+00  0.00000000000E+00  0.99999998245E-14  0.12509000000E+03  0.12509000000E+03 0.  0.
        -13    1    3    3    0    0  0.13272227091E+02  0.95894156027E+00 -0.29054476485E+02  0.31956929588E+02  0.10566000000E+00 0. -1.
         23    2    1    0    0    0 -0.10049541501E+02  0.13430353497E+02  0.26638346228E+02  0.93610337212E+02  0.88158528027E+02 0.  0.
         13    1    3    3    0    0 -0.23321768591E+02  0.12471411937E+02  0.55692822713E+02  0.61653407624E+02  0.10566000000E+00 0.  1.
         22    1    1    0    0    0  0.10049541501E+02 -0.13430353497E+02 -0.26638346228E+02  0.31479662788E+02  0.00000000000E+00 0.  1.
</event>
<event>
 5    1  0.1264859E-009  0.9118800E+02  0.7815553E-02  0.1125453E+00
         25   -1    0    0    0    0  0.00000000000E+00  0.00000000000E+00  0.99999998245E-14  0.12509000000E+03  0.12509000000E+03 0.  0.
        -13    1    3    3    0    0 -0.12782048620E+02 -0.40783306579E+02 -0.14432284873E+02  0.45110540599E+02  0.10566000000E+00 0. -1.
         23    2    1    0    0    0  0.94612490761E+01  0.54864375323E+00 -0.29259436694E+02  0.94334010670E+02  0.89179452170E+02 0.  0.
         13    1    3    3    0    0  0.22243297696E+02  0.41331950332E+02 -0.14827151821E+02  0.49223470071E+02  0.10566000000E+00 0.  1.
         22    1    1    0    0    0 -0.94612490761E+01 -0.54864375323E+00  0.29259436694E+02  0.30755989330E+02  0.00000000000E+00 0.  1.
</event>
<event>
 5    1  0.1264859E-009  0.9118800E+02  0.7815553E-02  0.1125453E+00
         25   -1    0    0    0    0  0.00000000000E+00  0.00000000000E+00  0.99999998245E-14  0.12509000000E+03  0.12509000000E+03 0.  0.
        -13    1    3    3    0    0  0.31240017664E+02 -0.34793883235E+01 -0.18450759972E+02  0.36448409489E+02  0.10566000000E+00 0.  1.
         23    2    1    0    0    0 -0.23883181816E+02 -0.14999384574E+02  0.30401143740E+01  0.96723995581E+02  0.92471082585E+02 0.  0.
         13    1    3    3    0    0 -0.55123199480E+02 -0.11519996251E+02  0.21490874346E+02  0.60275586092E+02  0.10566000000E+00 0. -1.
         22    1    1    0    0    0  0.23883181816E+02  0.14999384574E+02 -0.30401143740E+01  0.28366004419E+02  0.00000000000E+00 0. -1.
</event>
<event>
 5    1  0.1264859E-009  0.9118800E+02  0.7815553E-02  0.1125453E+00
         25   -1    0    0    0    0  0.00000000000E+00  0.00000000000E+00  0.99999998245E-14  0.12509000000E+03  0.12509000000E+03 0.  0.
        -13    1    3    3    0    0  0.95762837657E+01 -0.23983641904E+02 -0.16790304433E+02  0.30803340350E+02  0.10566000000E+00 0. -1.
         23    2    1    0    0    0  0.22441090243E+02  0.24237744777E+02  0.13746466357E+02  0.89312407285E+02  0.81833183700E+02 0.  0.
         13    1    3    3    0    0  0.12864806478E+02  0.48221386682E+02  0.30536770790E+02  0.58509066934E+02  0.10566000000E+00 0.  1.
         22    1    1    0    0    0 -0.22441090243E+02 -0.24237744777E+02 -0.13746466357E+02  0.35777592715E+02  0.00000000000E+00 0.  1.
</event>
<event>
 5    1  0.1264859E-009  0.9118800E+02  0.7815553E-02  0.1125453E+00
         25   -1    0    0    0    0  0.00000000000E+00  0.00000000000E+00  0.99999998245E-14  0.12509000000E+03  0.12509000000E+03 0.  0.
        -13    1    3    3    0    0 -0.41897040989E+02 -0.31818783682E+01  0.23162571368E+02  0.47979185800E+02  0.10566000000E+00 0.  1.
         23    2    1    0    0    0 -0.29827568940E+02  0.97514274852E+01 -0.15197976118E+02  0.90222354755E+02  0.83212502741E+02 0.  0.
         13    1    3    3    0    0  0.12069472049E+02  0.12933305853E+02 -0.38360547486E+02  0.42243168955E+02  0.10566000000E+00 0. -1.
         22    1    1    0    0    0  0.29827568940E+02 -0.97514274852E+01  0.15197976118E+02  0.34867645245E+02  0.00000000000E+00 0.  1.
</event>
<event>
 5    1  0.1264859E-009  0.9118800E+02  0.7815553E-02  0.1125453E+00
         25   -1    0    0    0    0  0.00000000000E+00  0.00000000000E+00  0.99999998245E-14  0.12509000000E+03  0.12509000000E+03 0.  0.
        -13    1    3    3    0    0  0.24821531878E+02  0.13645562154E+02 -0.51344738120E+02  0.58639603579E+02  0.10566000000E+00 0.  1.
         23    2    1    0    0    0  0.95267992558E+01  0.20873463440E+02 -0.18381587630E+02  0.95690269664E+02  0.91061976502E+02 0.  0.
         13    1    3    3    0    0 -0.15294732623E+02  0.72279012867E+01  0.32963150490E+02  0.37050666084E+02  0.10566000000E+00 0. -1.
         22    1    1    0    0    0 -0.95267992558E+01 -0.20873463440E+02  0.18381587630E+02  0.29399730336E+02  0.00000000000E+00 0.  1.
</event>
<event>
 5    1  0.1264859E-009  0.9118800E+02  0.7815553E-02  0.1125453E+00
         25   -1    0    0    0    0  0.00000000000E+00  0.00000000000E+00  0.99999998245E-14  0.12509000000E+03  0.12509000000E+03 0.  0.
        -13    1    3    3    0    0  0.15116713621E+02 -0.28615977910E+02  0.53478369671E+02  0.62508690669E+02  0.10566000000E+00 0. -1.
         23    2    1    0    0    0  0.60412225002E+01 -0.14532743444E+02  0.25100627251E+02  0.95463348321E+02  0.90749723873E+02 0.  0.
         13    1    3    3    0    0 -0.90754911212E+01  0.14083234466E+02 -0.28377742420E+02  0.32954657652E+02  0.10566000000E+00 0.  1.
         22    1    1    0    0    0 -0.60412225002E+01  0.14532743444E+02 -0.25100627251E+02  0.29626651679E+02  0.00000000000E+00 0. -1.
</event>
<event>
 5    1  0.1264859E-009  0.9118800E+02  0.7815553E-02  0.1125453E+00
         25   -1    0    0    0    0  0.00000000000E+00  0.00000000000E+00  0.99999998245E-14  0.12509000000E+03  0.12509000000E+03 0.  0.
        -13    1    3    3    0    0  0.46658953132E+02 -0.15331195718E+02 -0.27781378072E+02  0.56426231499E+02  0.10566000000E+00 0.  1.
         23    2    1    0    0    0  0.10177336506E+02 -0.18837999830E+02 -0.23456825525E+02  0.93330417515E+02  0.87760445269E+02 0.  0.
         13    1    3    3    0    0 -0.36481616626E+02 -0.35068041118E+01  0.43245525477E+01  0.36904186016E+02  0.10566000000E+00 0. -1.
         22    1    1    0    0    0 -0.10177336506E+02  0.18837999830E+02  0.23456825525E+02  0.31759582485E+02  0.00000000000E+00 0.  1.
</event>
<event>
 5    1  0.1264859E-009  0.9118800E+02  0.7815553E-02  0.1125453E+00
         25   -1    0    0    0    0  0.00000000000E+00  0.00000000000E+00  0.99999998245E-14  0.12509000000E+03  0.12509000000E+03 0.  0.
        -13    1    3    3    0    0  0.14378877177E+02 -0.22634298844E+02  0.52981634964E+02  0.59381212521E+02  0.10566000000E+00 0. -1.
         23    2    1    0    0    0  0.15899515614E+02 -0.17552340739E+02  0.16549395163E+02  0.96197756362E+02  0.91756452561E+02 0.  0.
         13    1    3    3    0    0  0.15206384366E+01  0.50819581046E+01 -0.36432239800E+02  0.36816543840E+02  0.10566000000E+00 0.  1.
         22    1    1    0    0    0 -0.15899515614E+02  0.17552340739E+02 -0.16549395163E+02  0.28892243638E+02  0.00000000000E+00 0. -1.
</event>
<event>
 5    1  0.1264859E-009  0.9118800E+02  0.7815553E-02  0.1125453E+00
         25   -1    0    0    0    0  0.00000000000E+00  0.00000000000E+00  0.99999998245E-14  0.12509000000E+03  0.12509000000E+03 0.  0.
        -13    1    3    3    0    0 -0.24940918518E+00  0.27753084341E+02  0.55949328643E+02  0.62455059323E+02  0.10566000000E+00 0. -1.
         23    2    1    0    0    0  0.69928439550E+00  0.22113759116E+02  0.40311320237E+02  0.79106199808E+02  0.64368322705E+02 0.  0.
         13    1    3    3    0    0  0.94869358068E+00 -0.56393252246E+01 -0.15638008406E+02  0.16651140485E+02  0.10566000000E+00 0.  1.
         22    1    1    0    0    0 -0.69928439550E+00 -0.22113759116E+02 -0.40311320237E+02  0.45983800192E+02  0.00000000000E+00 0. -1.
</event>
<event>
 5    1  0.1264859E-009  0.9118800E+02  0.7815553E-02  0.1125453E+00
         25   -1    0    0    0    0  0.00000000000E+00  0.00000000000E+00  0.99999998245E-14  0.12509000000E+03  0.12509000000E+03 0.  0.
        -13    1    3    3    0    0 -0.57286821993E+01 -0.18504073311E+02  0.40928707295E+02  0.45281218775E+02  0.10566000000E+00 0.  1.
         23    2    1    0    0    0  0.22436400703E+02  0.13081116257E+02  0.12463451007E+02  0.96282964574E+02  0.91872542019E+02 0.  0.
         13    1    3    3    0    0  0.28165082903E+02  0.31585189568E+02 -0.28465256288E+02  0.51001745799E+02  0.10566000000E+00 0. -1.
         22    1    1    0    0    0 -0.22436400703E+02 -0.13081116257E+02 -0.12463451007E+02  0.28807035426E+02  0.00000000000E+00 0.  1.
</event>
<event>
 5    1  0.1264859E-009  0.9118800E+02  0.7815553E-02  0.1125453E+00
         25   -1    0    0    0    0  0.00000000000E+00  0.00000000000E+00  0.99999998245E-14  0.12509000000E+03  0.12509000000E+03 0.  0.
        -13    1    3    3    0    0  0.18392979493E+01  0.38353365048E+02  0.18326174652E+00  0.38398025683E+02  0.10566000000E+00 0.  1.
         23    2    1    0    0    0 -0.27962948285E+02 -0.10058248975E+02  0.22759319257E+01  0.95286062083E+02  0.90505021474E+02 0.  0.
         13    1    3    3    0    0 -0.29802246234E+02 -0.48411614023E+02  0.20926701792E+01  0.56888036400E+02  0.10566000000E+00 0. -1.
         22    1    1    0    0    0  0.27962948285E+02  0.10058248975E+02 -0.22759319257E+01  0.29803937917E+02  0.00000000000E+00 0. -1.
</event>
<event>
 5    1  0.1264859E-009  0.9118800E+02  0.7815553E-02  0.1125453E+00
         25   -1    0    0    0    0  0.00000000000E+00  0.00000000000E+00  0.99999998245E-14  0.12509000000E+03  0.12509000000E+03 0.  0.
        -13    1    3    3    0    0 -0.57310871723E+01  0.42561092424E+02  0.36394907979E+02  0.56292916422E+02  0.10566000000E+00 0. -1.
         23    2    1    0    0    0 -0.12249783512E+02  0.54014921714E+01  0.26662306090E+02  0.95255257169E+02  0.90462434958E+02 0.  0.
         13    1    3    3    0    0 -0.65186963399E+01 -0.37159600252E+02 -0.97326018893E+01  0.38962340747E+02  0.10566000000E+00 0.  1.
         22    1    1    0    0    0  0.12249783512E+02 -0.54014921714E+01 -0.26662306090E+02  0.29834742831E+02  0.00000000000E+00 0. -1.
</event>
<event>
 5    1  0.1264859E-009  0.9118800E+02  0.7815553E-02  0.1125453E+00
         25   -1    0    0    0    0  0.00000000000E+00  0.00000000000E+00  0.99999998245E-14  0.12509000000E+03  0.12509000000E+03 0.  0.
        -13    1    3    3    0    0 -0.30971398681E+02 -0.88230018097E+01  0.14034560142E+02  0.35129089649E+02  0.10566000000E+00 0. -1.
         23    2    1    0    0    0  0.26084692516E+02 -0.15633083178E+02 -0.14654992980E+01  0.94644110926E+02  0.89613367147E+02 0.  0.
         13    1    3    3    0    0  0.57056091197E+02 -0.68100813686E+01 -0.15500059440E+02  0.59515021277E+02  0.10566000000E+00 0.  1.
         22    1    1    0    0    0 -0.26084692516E+02  0.15633083178E+02  0.14654992980E+01  0.30445889074E+02  0.00000000000E+00 0.  1.
</event>
<event>
 5    1  0.1264859E-009  0.9118800E+02  0.7815553E-02  0.1125453E+00
         25   -1    0    0    0    0  0.00000000000E+00  0.00000000000E+00  0.99999998245E-14  0.12509000000E+03  0.12509000000E+03 0.  0.
        -13    1    3    3    0    0  0.30704518727E+02 -0.74650253874E+01 -0.10331897533E+02  0.33245350727E+02  0.10566000000E+00 0.  1.
         23    2    1    0    0    0 -0.28414113596E+02  0.65213346947E+01  0.40009199829E+01  0.95663871842E+02  0.91025707124E+02 0.  0.
         13    1    3    3    0    0 -0.59118632324E+02  0.13986360082E+02  0.14332817516E+02  0.62418521115E+02  0.10566000000E+00 0. -1.
         22    1    1    0    0    0  0.28414113596E+02 -0.65213346947E+01 -0.40009199829E+01  0.29426128158E+02  0.00000000000E+00 0. -1.
</event>
<event>
 5    1  0.1264859E-009  0.9118800E+02  0.7815553E-02  0.1125453E+00
         25   -1    0    0    0    0  0.00000000000E+00  0.00000000000E+00  0.99999998245E-14  0.12509000000E+03  0.12509000000E+03 0.  0.
        -13    1    3    3    0    0 -0.33072205025E+01 -0.18828566668E+02 -0.54742142090E+02  0.57984186765E+02  0.10566000000E+00 0. -1.
         23    2    1    0    0    0  0.42688708611E+01 -0.23048825015E+02 -0.18560501632E+02  0.95190772354E+02  0.90373222403E+02 0.  0.
         13    1    3    3    0    0  0.75760913636E+01 -0.42202583476E+01  0.36181640458E+02  0.37206585589E+02  0.10566000000E+00 0.  1.
         22    1    1    0    0    0 -0.42688708611E+01  0.23048825015E+02  0.18560501632E+02  0.29899227646E+02  0.00000000000E+00 0. -1.
</event>
<event>
 5    1  0.1264859E-009  0.9118800E+02  0.7815553E-02  0.1125453E+00
         25   -1    0    0    0    0  0.00000000000E+00  0.00000000000E+00  0.99999998245E-14  0.12509000000E+03  0.12509000000E+03 0.  0.
        -13    1    3    3    0    0  0.28327631461E+02  0.19847669561E+02  0.43274340501E+01  0.34858607842E+02  0.10566000000E+00 0. -1.
         23    2    1    0    0    0 -0.52420457039E+01 -0.29385914351E+02 -0.37989166630E+01  0.94999423847E+02  0.90107978326E+02 0.  0.
         13    1    3    3    0    0 -0.33569677165E+02 -0.49233583912E+02 -0.81263507131E+01  0.60140816005E+02  0.10566000000E+00 0.  1.
         22    1    1    0    0    0  0.52420457039E+01  0.29385914351E+02  0.37989166630E+01  0.30090576153E+02  0.00000000000E+00 0.  1.
</event>
<event>
 5    1  0.1264859E-009  0.9118800E+02  0.7815553E-02  0.1125453E+00
         25   -1    0    0    0    0  0.00000000000E+00  0.00000000000E+00  0.99999998245E-14  0.12509000000E+03  0.12509000000E+03 0.  0.
        -13    1    3    3    0    0  0.21299199758E+02  0.50225704291E+02 -0.24586353055E+02  0.59839595607E+02  0.10566000000E+00 0. -1.
         23    2    1    0    0    0 -0.20105945082E+01  0.28212910774E+02 -0.13355311469E+02  0.93811010741E+02  0.88442809584E+02 0.  0.
         13    1    3    3    0    0 -0.23309794266E+02 -0.22012793516E+02  0.11231041585E+02  0.33971415134E+02  0.10566000000E+00 0.  1.
         22    1    1    0    0    0  0.20105945082E+01 -0.28212910774E+02  0.13355311469E+02  0.31278989259E+02  0.00000000000E+00 0. -1.
</event>
<event>
 5    1  0.1264859E-009  0.9118800E+02  0.7815553E-02  0.1125453E+00
         25   -1    0    0    0    0  0.00000000000E+00  0.00000000000E+00  0.99999998245E-14  0.12509000000E+03  0.12509000000E+03 0.  0.
        -13    1    3    3    0    0 -0.12812579762E+02 -0.39392948968E+01  0.39431669396E+02  0.41647904627E+02  0.10566000000E+00 0. -1.
         23    2    1    0    0    0 -0.18412439917E+02  0.24054807131E+02 -0.49266701340E+01  0.94399223398E+02  0.89270877724E+02 0.  0.
         13    1    3    3    0    0 -0.55998601548E+01  0.27994102028E+02 -0.44358339530E+02  0.52751318771E+02  0.10566000000E+00 0.  1.
         22    1    1    0    0    0  0.18412439917E+02 -0.24054807131E+02  0.49266701340E+01  0.30690776602E+02  0.00000000000E+00 0. -1.
</event>
<event>
 5    1  0.1264859E-009  0.9118800E+02  0.7815553E-02  0.1125453E+00
         25   -1    0    0    0    0  0.00000000000E+00  0.00000000000E+00  0.99999998245E-14  0.12509000000E+03  0.12509000000E+03 0.  0.
        -13    1    3    3    0    0  0.24657609625E+02  0.18248990083E+02 -0.62410222867E+01  0.31304710104E+02  0.10566000000E+00 0.  1.
         23    2    1    0    0    0  0.10106777818E+02 -0.35264507659E+02 -0.10522912034E+02  0.86926350594E+02  0.78100744501E+02 0.  0.
         13    1    3    3    0    0 -0.14550831808E+02 -0.53513497743E+02 -0.42818897470E+01  0.55621640490E+02  0.10566000000E+00 0. -1.
         22    1    1    0    0    0 -0.10106777818E+02  0.35264507659E+02  0.10522912034E+02  0.38163649406E+02  0.00000000000E+00 0. -1.
</event>
<event>
 5    1  0.1264859E-009  0.9118800E+02  0.7815553E-02  0.1125453E+00
         25   -1    0    0    0    0  0.00000000000E+00  0.00000000000E+00  0.99999998245E-14  0.12509000000E+03  0.12509000000E+03 0.  0.
        -13    1    3    3    0    0 -0.71414769753E+01 -0.27515513214E+02  0.17893389828E+02  0.33590009295E+02  0.10566000000E+00 0.  1.
         23    2    1    0    0    0  0.80116753650E+01  0.27826224852E+02 -0.56081084118E+01  0.95595312145E+02  0.90931441716E+02 0.  0.
         13    1    3    3    0    0  0.15153152340E+02  0.55341738066E+02 -0.23501498240E+02  0.62005302851E+02  0.10566000000E+00 0. -1.
         22    1    1    0    0    0 -0.80116753650E+01 -0.27826224852E+02  0.56081084118E+01  0.29494687855E+02  0.00000000000E+00 0. -1.
</event>
<event>
 5    1  0.1264859E-009  0.9118800E+02  0.7815553E-02  0.1125453E+00
         25   -1    0    0    0    0  0.00000000000E+00  0.00000000000E+00  0.99999998245E-14  0.12509000000E+03  0.12509000000E+03 0.  0.
        -13    1    3    3    0    0 -0.82516316623E+01  0.17266329501E+02  0.31803522355E+02  0.37117256873E+02  0.10566000000E+00 0.  1.
         23    2    1    0    0    0  0.97602964942E+01  0.15831659990E+02 -0.23397887577E+02  0.95200771359E+02  0.90387061456E+02 0.  0.
         13    1    3    3    0    0  0.18011928157E+02 -0.14346695115E+01 -0.55201409932E+02  0.58083514486E+02  0.10566000000E+00 0. -1.
         22    1    1    0    0    0 -0.97602964942E+01 -0.15831659990E+02  0.23397887577E+02  0.29889228641E+02  0.00000000000E+00 0. -1.
</event>
<event>
 4    1  0.1264859E-009  0.9118800E+02  0.7815553E-02  0.1125453E+00
         25   -1    0    0    0    0  0.00000000000E+00  0.00000000000E+00  0.99999998245E-14  0.12509000000E+03  0.12509000000E+03 0.  0.
        -13    1    1    0    0    0 -0.10373813080E+01  0.10682280364E+01 -0.19634468983E+02  0.19691135249E+02  0.10566000000E+00 0.  1.
         13    1    1    0    0    0 -0.46090936962E+02 -0.23047424746E+02  0.10811062132E+02  0.52654045295E+02  0.10566000000E+00 0. -1.
         22    1    1    0    0    0  0.47128318270E+02  0.21979196709E+02  0.88234068513E+01  0.52744819456E+02  0.00000000000E+00 0. -1.
</event>
<event>
 5    1  0.1264859E-009  0.9118800E+02  0.7815553E-02  0.1125453E+00
         25   -1    0    0    0    0  0.00000000000E+00  0.00000000000E+00  0.99999998245E-14  0.12509000000E+03  0.12509000000E+03 0.  0.
        -13    1    3    3    0    0 -0.27016399210E+00 -0.61495829502E+02  0.10496765393E+02  0.62385922150E+02  0.10566000000E+00 0.  1.
         23    2    1    0    0    0  0.29206373201E+01 -0.28335163863E+02  0.40442334996E+01  0.96319051838E+02  0.91921663871E+02 0.  0.
         13    1    3    3    0    0  0.31908013122E+01  0.33160665638E+02 -0.64525318937E+01  0.33933129689E+02  0.10566000000E+00 0. -1.
         22    1    1    0    0    0 -0.29206373201E+01  0.28335163863E+02 -0.40442334996E+01  0.28770948162E+02  0.00000000000E+00 0.  1.
</event>
<event>
 5    1  0.1264859E-009  0.9118800E+02  0.7815553E-02  0.1125453E+00
         25   -1    0    0    0    0  0.00000000000E+00  0.00000000000E+00  0.99999998245E-14  0.12509000000E+03  0.12509000000E+03 0.  0.
        -13    1    3    3    0    0 -0.12098764672E+02  0.22300713286E+02 -0.42390171230E+02  0.49402830897E+02  0.10566000000E+00 0. -1.
         23    2    1    0    0    0 -0.24764213287E+02  0.16483100983E+02  0.13510862651E+01  0.95311076047E+02  0.90539587504E+02 0.  0.
         13    1    3    3    0    0 -0.12665448614E+02 -0.58176123033E+01  0.43741257495E+02  0.45908245150E+02  0.10566000000E+00 0.  1.
         22    1    1    0    0    0  0.24764213287E+02 -0.16483100983E+02 -0.13510862651E+01  0.29778923953E+02  0.00000000000E+00 0.  1.
</event>
<event>
 5    1  0.1264859E-009  0.9118800E+02  0.7815553E-02  0.1125453E+00
         25   -1    0    0    0    0  0.00000000000E+00  0.00000000000E+00  0.99999998245E-14  0.12509000000E+03  0.12509000000E+03 0.  0.
        -13    1    3    3    0    0  0.44141990022E+02  0.30295499053E+02  0.29873156996E+02  0.61308639023E+02  0.10566000000E+00 0. -1.
         23    2    1    0    0    0  0.18431712034E+02  0.21604907706E+02  0.98646023861E+01  0.95026559982E+02  0.90145641472E+02 0.  0.
         13    1    3    3    0    0 -0.25710277988E+02 -0.86905913473E+01 -0.20008554609E+02  0.33717920959E+02  0.10566000000E+00 0.  1.
         22    1    1    0    0    0 -0.18431712034E+02 -0.21604907706E+02 -0.98646023861E+01  0.30063440018E+02  0.00000000000E+00 0. -1.
</event>
<event>
 5    1  0.1264859E-009  0.9118800E+02  0.7815553E-02  0.1125453E+00
         25   -1    0    0    0    0  0.00000000000E+00  0.00000000000E+00  0.99999998245E-14  0.12509000000E+03  0.12509000000E+03 0.  0.
        -13    1    3    3    0    0  0.20249574119E+02  0.38744654249E+02  0.42352353262E+02  0.60868107213E+02  0.10566000000E+00 0. -1.
         23    2    1    0    0    0  0.12936042014E+02  0.23818389593E+02  0.12055166150E+02  0.95425477473E+02  0.90697507432E+02 0.  0.
         13    1    3    3    0    0 -0.73135321050E+01 -0.14926264655E+02 -0.30297187112E+02  0.34557370260E+02  0.10566000000E+00 0.  1.
         22    1    1    0    0    0 -0.12936042014E+02 -0.23818389593E+02 -0.12055166150E+02  0.29664522527E+02  0.00000000000E+00 0. -1.
</event>
<event>
 5    1  0.1264859E-009  0.9118800E+02  0.7815553E-02  0.1125453E+00
         25   -1    0    0    0    0  0.00000000000E+00  0.00000000000E+00  0.99999998245E-14  0.12509000000E+03  0.12509000000E+03 0.  0.
        -13    1    3    3    0    0  0.29983928176E+02 -0.49647371021E+02 -0.11043146154E+01  0.58009723952E+02  0.10566000000E+00 0. -1.
         23    2    1    0    0    0  0.26968999070E+02 -0.12683212208E+02  0.19595008273E+01  0.95223121585E+02  0.90417987470E+02 0.  0.
         13    1    3    3    0    0 -0.30149291063E+01  0.36964158813E+02  0.30638154427E+01  0.37213397633E+02  0.10566000000E+00 0.  1.
         22    1    1    0    0    0 -0.26968999070E+02  0.12683212208E+02 -0.19595008273E+01  0.29866878415E+02  0.00000000000E+00 0. -1.
</event>
<event>
 5    1  0.1264859E-009  0.9118800E+02  0.7815553E-02  0.1125453E+00
         25   -1    0    0    0    0  0.00000000000E+00  0.00000000000E+00  0.99999998245E-14  0.12509000000E+03  0.12509000000E+03 0.  0.
        -13    1    3    3    0    0  0.45316098307E+01 -0.32420233780E+02 -0.59180035510E+01  0.33266213733E+02  0.10566000000E+00 0.  1.
         23    2    1    0    0    0 -0.54762158243E-01  0.28904253652E+02  0.50940569819E+01  0.95740242001E+02  0.91130596639E+02 0.  0.
         13    1    3    3    0    0 -0.45863719889E+01  0.61324487432E+02  0.11012060533E+02  0.62474028268E+02  0.10566000000E+00 0. -1.
         22    1    1    0    0    0  0.54762158243E-01 -0.28904253652E+02 -0.50940569819E+01  0.29349757999E+02  0.00000000000E+00 0. -1.
</event>
<event>
 5    1  0.1264859E-009  0.9118800E+02  0.7815553E-02  0.1125453E+00
         25   -1    0    0    0    0  0.00000000000E+00  0.00000000000E+00  0.99999998245E-14  0.12509000000E+03  0.12509000000E+03 0.  0.
        -13    1    3    3    0    0  0.38673795409E+02  0.30310221379E+02  0.10951975208E+02  0.50342118513E+02  0.10566000000E+00 0.  1.
         23    2    1    0    0    0  0.25109285666E+02 -0.30179045709E+01 -0.15879875146E+02  0.95227742730E+02  0.90424380430E+02 0.  0.
         13    1    3    3    0    0 -0.13564509743E+02 -0.33328125950E+02 -0.26831850354E+02  0.44885624217E+02  0.10566000000E+00 0. -1.
         22    1    1    0    0    0 -0.25109285666E+02  0.30179045709E+01  0.15879875146E+02  0.29862257270E+02  0.00000000000E+00 0.  1.
</event>
<event>
 5    1  0.1264859E-009  0.9118800E+02  0.7815553E-02  0.1125453E+00
         25   -1    0    0    0    0  0.00000000000E+00  0.00000000000E+00  0.99999998245E-14  0.12509000000E+03  0.12509000000E+03 0.  0.
        -13    1    3    3    0    0  0.22464940781E+02  0.24231095635E+02  0.87059686747E+00  0.33054328958E+02  0.10566000000E+00 0. -1.
         23    2    1    0    0    0 -0.17165865531E+02 -0.21007201948E+02  0.13923327445E+02  0.94596910287E+02  0.89547456221E+02 0.  0.
         13    1    3    3    0    0 -0.39630806312E+02 -0.45238297582E+02  0.13052730578E+02  0.61542581329E+02  0.10566000000E+00 0.  1.
         22    1    1    0    0    0  0.17165865531E+02  0.21007201948E+02 -0.13923327445E+02  0.30493089713E+02  0.00000000000E+00 0.  1.
</event>
<event>
 5    1  0.1264859E-009  0.9118800E+02  0.7815553E-02  0.1125453E+00
         25   -1    0    0    0    0  0.00000000000E+00  0.00000000000E+00  0.99999998245E-14  0.12509000000E+03  0.12509000000E+03 0.  0.
        -13    1    3    3    0    0  0.11126469958E+02 -0.48748080459E+02 -0.30416054649E+02  0.58526243913E+02  0.10566000000E+00 0. -1.
         23    2    1    0    0    0 -0.90489975913E+01 -0.20367484021E+02 -0.20688225095E+02  0.94680767515E+02  0.89664520949E+02 0.  0.
         13    1    3    3    0    0 -0.20175467549E+02  0.28380596438E+02  0.97278295548E+01  0.36154523602E+02  0.10566000000E+00 0.  1.
         22    1    1    0    0    0  0.90489975913E+01  0.20367484021E+02  0.20688225095E+02  0.30409232485E+02  0.00000000000E+00 0. -1.
</event>
<event>
 5    1  0.1264859E-009  0.9118800E+02  0.7815553E-02  0.1125453E+00
         25   -1    0    0    0    0  0.00000000000E+00  0.00000000000E+00  0.99999998245E-14  0.12509000000E+03  0.12509000000E+03 0.  0.
        -13    1    3    3    0    0 -0.30679127149E+02 -0.30929629539E+01 -0.15400327642E+02  0.34466745103E+02  0.10566000000E+00 0.  1.
         23    2    1    0    0    0  0.16835824581E+02  0.13682262881E+02  0.19627202706E+02  0.95834634801E+02  0.91260072510E+02 0.  0.
         13    1    3    3    0    0  0.47514951730E+02  0.16775225835E+02  0.35027530347E+02  0.61367889698E+02  0.10566000000E+00 0. -1.
         22    1    1    0    0    0 -0.16835824581E+02 -0.13682262881E+02 -0.19627202706E+02  0.29255365199E+02  0.00000000000E+00 0. -1.
</event>
<event>
 5    1  0.1264859E-009  0.9118800E+02  0.7815553E-02  0.1125453E+00
         25   -1    0    0    0    0  0.00000000000E+00  0.00000000000E+00  0.99999998245E-14  0.12509000000E+03  0.12509000000E+03 0.  0.
        -13    1    3    3    0    0  0.21094135030E+02 -0.66164051892E+01  0.27728015539E+02  0.35462562796E+02  0.10566000000E+00 0. -1.
         23    2    1    0    0    0 -0.17214284349E+02  0.16065146623E+02 -0.15002369078E+02  0.97170623223E+02  0.93073295944E+02 0.  0.
         13    1    3    3    0    0 -0.38308419379E+02  0.22681551812E+02 -0.42730384618E+02  0.61708060426E+02  0.10566000000E+00 0.  1.
         22    1    1    0    0    0  0.17214284349E+02 -0.16065146623E+02  0.15002369078E+02  0.27919376777E+02  0.00000000000E+00 0.  1.
</event>
<event>
 5    1  0.1264859E-009  0.9118800E+02  0.7815553E-02  0.1125453E+00
         25   -1    0    0    0    0  0.00000000000E+00  0.00000000000E+00  0.99999998245E-14  0.12509000000E+03  0.12509000000E+03 0.  0.
        -13    1    3    3    0    0 -0.25065314998E+02  0.18053138494E+02  0.19120972996E+02  0.36329170068E+02  0.10566000000E+00 0.  1.
         23    2    1    0    0    0  0.18071499856E+01 -0.26038318529E+02 -0.11725213388E+02  0.96476358989E+02  0.92135483892E+02 0.  0.
         13    1    3    3    0    0  0.26872464983E+02 -0.44091457023E+02 -0.30846186384E+02  0.60147188922E+02  0.10566000000E+00 0. -1.
         22    1    1    0    0    0 -0.18071499856E+01  0.26038318529E+02  0.11725213388E+02  0.28613641011E+02  0.00000000000E+00 0. -1.
</event>
<event>
 5    1  0.1264859E-009  0.9118800E+02  0.7815553E-02  0.1125453E+00
         25   -1    0    0    0    0  0.00000000000E+00  0.00000000000E+00  0.99999998245E-14  0.12509000000E+03  0.12509000000E+03 0.  0.
        -13    1    3    3    0    0 -0.35474960875E+02 -0.32741857769E+01 -0.36583762216E+02  0.51064429533E+02  0.10566000000E+00 0.  1.
         23    2    1    0    0    0  0.37768693800E+01  0.14731070758E+02 -0.25087676784E+02  0.95752980478E+02  0.91148080374E+02 0.  0.
         13    1    3    3    0    0  0.39251830255E+02  0.18005256535E+02  0.11496085431E+02  0.44688550945E+02  0.10566000000E+00 0. -1.
         22    1    1    0    0    0 -0.37768693800E+01 -0.14731070758E+02  0.25087676784E+02  0.29337019522E+02  0.00000000000E+00 0. -1.
</event>
<event>
 5    1  0.1264859E-009  0.9118800E+02  0.7815553E-02  0.1125453E+00
         25   -1    0    0    0    0  0.00000000000E+00  0.00000000000E+00  0.99999998245E-14  0.12509000000E+03  0.12509000000E+03 0.  0.
        -13    1    3    3    0    0  0.46999007113E+02  0.29939715949E+02  0.34055272203E+01  0.55829222101E+02  0.10566000000E+00 0.  1.
         23    2    1    0    0    0  0.31756832785E+02 -0.28516310811E+01 -0.46268097772E+01  0.92871440177E+02  0.87103781798E+02 0.  0.
         13    1    3    3    0    0 -0.15242174329E+02 -0.32791347030E+02 -0.80323369975E+01  0.37042218076E+02  0.10566000000E+00 0. -1.
         22    1    1    0    0    0 -0.31756832785E+02  0.28516310811E+01  0.46268097772E+01  0.32218559823E+02  0.00000000000E+00 0.  1.
</event>
<event>
 5    1  0.1264859E-009  0.9118800E+02  0.7815553E-02  0.1125453E+00
         25   -1    0    0    0    0  0.00000000000E+00  0.00000000000E+00  0.99999998245E-14  0.12509000000E+03  0.12509000000E+03 0.  0.
        -13    1    3    3    0    0  0.41290295428E+02 -0.37040763708E+02 -0.25085781835E+02  0.60878684997E+02  0.10566000000E+00 0.  1.
         23    2    1    0    0    0  0.85672535072E+01 -0.20320504436E+02 -0.62693373378E+01  0.10216347990E+03  0.99557778710E+02 0.  0.
         13    1    3    3    0    0 -0.32723041921E+02  0.16720259272E+02  0.18816444497E+02  0.41284794904E+02  0.10566000000E+00 0. -1.
         22    1    1    0    0    0 -0.85672535072E+01  0.20320504436E+02  0.62693373378E+01  0.22926520099E+02  0.00000000000E+00 0.  1.
</event>
<event>
 5    1  0.1264859E-009  0.9118800E+02  0.7815553E-02  0.1125453E+00
         25   -1    0    0    0    0  0.00000000000E+00  0.00000000000E+00  0.99999998245E-14  0.12509000000E+03  0.12509000000E+03 0.  0.
        -13    1    3    3    0    0 -0.17507751204E+02  0.27378481578E+02 -0.28291539875E+02  0.43087411134E+02  0.10566000000E+00 0. -1.
         23    2    1    0    0    0 -0.11260681629E+02 -0.22968660480E+02 -0.14602118441E+02  0.95635218080E+02  0.90986321825E+02 0.  0.
         13    1    3    3    0    0  0.62470695745E+01 -0.50347142057E+02  0.13689421434E+02  0.52547806946E+02  0.10566000000E+00 0.  1.
         22    1    1    0    0    0  0.11260681629E+02  0.22968660480E+02  0.14602118441E+02  0.29454781920E+02  0.00000000000E+00 0.  1.
</event>
<event>
 5    1  0.1264859E-009  0.9118800E+02  0.7815553E-02  0.1125453E+00
         25   -1    0    0    0    0  0.00000000000E+00  0.00000000000E+00  0.99999998245E-14  0.12509000000E+03  0.12509000000E+03 0.  0.
        -13    1    3    3    0    0 -0.52970547392E+02  0.91636074217E+01 -0.63551393347E+01  0.54131779501E+02  0.10566000000E+00 0.  1.
         23    2    1    0    0    0 -0.24334715284E+02  0.43739529422E+00  0.19668225245E+02  0.93797688374E+02  0.88423964950E+02 0.  0.
         13    1    3    3    0    0  0.28635832108E+02 -0.87262121274E+01  0.26023364580E+02  0.39665908873E+02  0.10566000000E+00 0. -1.
         22    1    1    0    0    0  0.24334715284E+02 -0.43739529422E+00 -0.19668225245E+02  0.31292311626E+02  0.00000000000E+00 0.  1.
</event>
<event>
 5    1  0.1264859E-009  0.9118800E+02  0.7815553E-02  0.1125453E+00
         25   -1    0    0    0    0  0.00000000000E+00  0.00000000000E+00  0.99999998245E-14  0.12509000000E+03  0.12509000000E+03 0.  0.
        -13    1    3    3    0    0  0.17415418648E+02 -0.19155451526E+02  0.22360554524E+02  0.34208678614E+02  0.10566000000E+00 0.  1.
         23    2    1    0    0    0 -0.46930051364E+01  0.10542132245E+02 -0.26893071206E+02  0.95825719241E+02  0.91247851151E+02 0.  0.
         13    1    3    3    0    0 -0.22108423784E+02  0.29697583771E+02 -0.49253625730E+02  0.61617040627E+02  0.10566000000E+00 0. -1.
         22    1    1    0    0    0  0.46930051364E+01 -0.10542132245E+02  0.26893071206E+02  0.29264280759E+02  0.00000000000E+00 0. -1.
</event>
<event>
 5    1  0.1264859E-009  0.9118800E+02  0.7815553E-02  0.1125453E+00
         25   -1    0    0    0    0  0.00000000000E+00  0.00000000000E+00  0.99999998245E-14  0.12509000000E+03  0.12509000000E+03 0.  0.
        -13    1    3    3    0    0  0.30047995124E+02  0.17509966860E+02 -0.10091965600E+02  0.36212427206E+02  0.10566000000E+00 0.  1.
         23    2    1    0    0    0 -0.23960074399E+02  0.14650813097E+02  0.11889518847E+02  0.94592587847E+02  0.89541417945E+02 0.  0.
         13    1    3    3    0    0 -0.54008069524E+02 -0.28591537636E+01  0.21981484447E+02  0.58380160641E+02  0.10566000000E+00 0. -1.
         22    1    1    0    0    0  0.23960074399E+02 -0.14650813097E+02 -0.11889518847E+02  0.30497412153E+02  0.00000000000E+00 0. -1.
</event>
<event>
 5    1  0.1264859E-009  0.9118800E+02  0.7815553E-02  0.1125453E+00
         25   -1    0    0    0    0  0.00000000000E+00  0.00000000000E+00  0.99999998245E-14  0.12509000000E+03  0.12509000000E+03 0.  0.
        -13    1    3    3    0    0  0.29903703932E+02  0.34288763526E+02  0.20718610526E+02  0.49992227388E+02  0.10566000000E+00 0. -1.
         23    2    1    0    0    0 -0.12029563919E+02  0.25636995745E+02  0.20648695506E+01  0.96695816702E+02  0.92432955825E+02 0.  0.
         13    1    3    3    0    0 -0.41933267851E+02 -0.86517677813E+01 -0.18653740976E+02  0.46703589314E+02  0.10566000000E+00 0.  1.
         22    1    1    0    0    0  0.12029563919E+02 -0.25636995745E+02 -0.20648695506E+01  0.28394183298E+02  0.00000000000E+00 0. -1.
</event>
<event>
 5    1  0.1264859E-009  0.9118800E+02  0.7815553E-02  0.1125453E+00
         25   -1    0    0    0    0  0.00000000000E+00  0.00000000000E+00  0.99999998245E-14  0.12509000000E+03  0.12509000000E+03 0.  0.
        -13    1    3    3    0    0  0.12469970955E+02  0.13270519996E+02 -0.30205444019E+02  0.35270198313E+02  0.10566000000E+00 0.  1.
         23    2    1    0    0    0  0.28757887911E+01  0.90635872979E+01  0.28573671264E+02  0.94975660137E+02  0.90074982948E+02 0.  0.
         13    1    3    3    0    0 -0.95941821643E+01 -0.42069326981E+01  0.58779115283E+02  0.59705461824E+02  0.10566000000E+00 0. -1.
         22    1    1    0    0    0 -0.28757887911E+01 -0.90635872979E+01 -0.28573671264E+02  0.30114339863E+02  0.00000000000E+00 0. -1.
</event>
<event>
 5    1  0.1264859E-009  0.9118800E+02  0.7815553E-02  0.1125453E+00
         25   -1    0    0    0    0  0.00000000000E+00  0.00000000000E+00  0.99999998245E-14  0.12509000000E+03  0.12509000000E+03 0.  0.
        -13    1    3    3    0    0  0.40856678770E+02 -0.93414942401E+01  0.31510924070E+01  0.42029421387E+02  0.10566000000E+00 0. -1.
         23    2    1    0    0    0 -0.68545795874E+01 -0.18024819970E+01  0.27899934015E+02  0.96303883195E+02  0.91901019569E+02 0.  0.
         13    1    3    3    0    0 -0.47711258357E+02  0.75390122431E+01  0.24748841608E+02  0.54274461808E+02  0.10566000000E+00 0.  1.
         22    1    1    0    0    0  0.68545795874E+01  0.18024819970E+01 -0.27899934015E+02  0.28786116805E+02  0.00000000000E+00 0.  1.
</event>
<event>
 5    1  0.1264859E-009  0.9118800E+02  0.7815553E-02  0.1125453E+00
         25   -1    0    0    0    0  0.00000000000E+00  0.00000000000E+00  0.99999998245E-14  0.12509000000E+03  0.12509000000E+03 0.  0.
        -13    1    3    3    0    0  0.14101223427E+02 -0.26527323656E+02  0.25694915004E+02  0.39532053116E+02  0.10566000000E+00 0.  1.
         23    2    1    0    0    0  0.23265172351E+02  0.14517112472E+02 -0.11191175825E+02  0.95471471755E+02  0.90760920575E+02 0.  0.
         13    1    3    3    0    0  0.91639489244E+01  0.41044436129E+02 -0.36886090829E+02  0.55939418639E+02  0.10566000000E+00 0. -1.
         22    1    1    0    0    0 -0.23265172351E+02 -0.14517112472E+02  0.11191175825E+02  0.29618528245E+02  0.00000000000E+00 0. -1.
</event>
<event>
 5    1  0.1264859E-009  0.9118800E+02  0.7815553E-02  0.1125453E+00
         25   -1    0    0    0    0  0.00000000000E+00  0.00000000000E+00  0.99999998245E-14  0.12509000000E+03  0.12509000000E+03 0.  0.
        -13    1    3    3    0    0 -0.39131017266E+01  0.11271232814E+01 -0.52794691821E+02  0.52951613956E+02  0.10566000000E+00 0. -1.
         23    2    1    0    0    0 -0.11399722187E+02  0.21660936734E+02 -0.15688453991E+02  0.96016344661E+02  0.91508802896E+02 0.  0.
         13    1    3    3    0    0 -0.74866204601E+01  0.20533813452E+02  0.37106237830E+02  0.43064730705E+02  0.10566000000E+00 0.  1.
         22    1    1    0    0    0  0.11399722187E+02 -0.21660936734E+02  0.15688453991E+02  0.29073655339E+02  0.00000000000E+00 0. -1.
</event>
<event>
 5    1  0.1264859E-009  0.9118800E+02  0.7815553E-02  0.1125453E+00
         25   -1    0    0    0    0  0.00000000000E+00  0.00000000000E+00  0.99999998245E-14  0.12509000000E+03  0.12509000000E+03 0.  0.
        -13    1    3    3    0    0  0.13590324507E+02  0.20187910130E+02 -0.52056680585E+02  0.57464404575E+02  0.10566000000E+00 0. -1.
         23    2    1    0    0    0  0.17949021477E+02  0.18397082861E+02 -0.13980426844E+02  0.95831285666E+02  0.91255481741E+02 0.  0.
         13    1    3    3    0    0  0.43586969699E+01 -0.17908272692E+01  0.38076253741E+02  0.38366881090E+02  0.10566000000E+00 0.  1.
         22    1    1    0    0    0 -0.17949021477E+02 -0.18397082861E+02  0.13980426844E+02  0.29258714334E+02  0.00000000000E+00 0. -1.
</event>
<event>
 5    1  0.1264859E-009  0.9118800E+02  0.7815553E-02  0.1125453E+00
         25   -1    0    0    0    0  0.00000000000E+00  0.00000000000E+00  0.99999998245E-14  0.12509000000E+03  0.12509000000E+03 0.  0.
        -13    1    3    3    0    0  0.26098019768E+02  0.17344206783E+02  0.47027718750E+02  0.56511464674E+02  0.10566000000E+00 0.  1.
         23    2    1    0    0    0 -0.38148951856E+01  0.19514593086E+02  0.20071046936E+02  0.96837217948E+02  0.92624117195E+02 0.  0.
         13    1    3    3    0    0 -0.29912914954E+02  0.21703863027E+01 -0.26956671814E+02  0.40325753273E+02  0.10566000000E+00 0. -1.
         22    1    1    0    0    0  0.38148951856E+01 -0.19514593086E+02 -0.20071046936E+02  0.28252782052E+02  0.00000000000E+00 0.  1.
</event>
<event>
 5    1  0.1264859E-009  0.9118800E+02  0.7815553E-02  0.1125453E+00
         25   -1    0    0    0    0  0.00000000000E+00  0.00000000000E+00  0.99999998245E-14  0.12509000000E+03  0.12509000000E+03 0.  0.
        -13    1    3    3    0    0  0.41723203441E+02  0.31397018860E+02  0.12908999428E+01  0.52232902326E+02  0.10566000000E+00 0.  1.
         23    2    1    0    0    0  0.24664540112E+02 -0.36127989571E+01 -0.16651666877E+02  0.95112177113E+02  0.90264369328E+02 0.  0.
         13    1    3    3    0    0 -0.17058663329E+02 -0.35009817817E+02 -0.17942566820E+02  0.42879274787E+02  0.10566000000E+00 0. -1.
         22    1    1    0    0    0 -0.24664540112E+02  0.36127989571E+01  0.16651666877E+02  0.29977822887E+02  0.00000000000E+00 0.  1.
</event>
<event>
 5    1  0.1264859E-009  0.9118800E+02  0.7815553E-02  0.1125453E+00
         25   -1    0    0    0    0  0.00000000000E+00  0.00000000000E+00  0.99999998245E-14  0.12509000000E+03  0.12509000000E+03 0.  0.
        -13    1    3    3    0    0  0.21593724046E+02  0.51580921357E+02 -0.26553614203E+02  0.61903036738E+02  0.10566000000E+00 0. -1.
         23    2    1    0    0    0  0.10344439638E+02  0.24636324369E+02 -0.57407634577E+01  0.97760304156E+02  0.93862478093E+02 0.  0.
         13    1    3    3    0    0 -0.11249284407E+02 -0.26944596988E+02  0.20812850745E+02  0.35857267418E+02  0.10566000000E+00 0.  1.
         22    1    1    0    0    0 -0.10344439638E+02 -0.24636324369E+02  0.57407634577E+01  0.27329695844E+02  0.00000000000E+00 0. -1.
</event>
<event>
 5    1  0.1264859E-009  0.9118800E+02  0.7815553E-02  0.1125453E+00
         25   -1    0    0    0    0  0.00000000000E+00  0.00000000000E+00  0.99999998245E-14  0.12509000000E+03  0.12509000000E+03 0.  0.
        -13    1    3    3    0    0  0.98024261634E+01 -0.38176459353E+02 -0.28825741013E+02  0.48830974969E+02  0.10566000000E+00 0. -1.
         23    2    1    0    0    0 -0.23071642770E+02 -0.61388814969E+01 -0.15484410910E+02  0.96633831119E+02  0.92349032314E+02 0.  0.
         13    1    3    3    0    0 -0.32874068933E+02  0.32037577856E+02  0.13341330103E+02  0.47802856150E+02  0.10566000000E+00 0.  1.
         22    1    1    0    0    0  0.23071642770E+02  0.61388814969E+01  0.15484410910E+02  0.28456168881E+02  0.00000000000E+00 0.  1.
</event>
<event>
 5    1  0.1264859E-009  0.9118800E+02  0.7815553E-02  0.1125453E+00
         25   -1    0    0    0    0  0.00000000000E+00  0.00000000000E+00  0.99999998245E-14  0.12509000000E+03  0.12509000000E+03 0.  0.
        -13    1    3    3    0    0  0.19881168515E+02 -0.11396913191E+02  0.32565577140E+02  0.39820578478E+02  0.10566000000E+00 0. -1.
         23    2    1    0    0    0  0.30532095338E+02 -0.23724526657E+02 -0.97920716326E+01  0.85203327067E+02  0.75290505813E+02 0.  0.
         13    1    3    3    0    0  0.10650926823E+02 -0.12327613465E+02 -0.42357648773E+02  0.45382748589E+02  0.10566000000E+00 0.  1.
         22    1    1    0    0    0 -0.30532095338E+02  0.23724526657E+02  0.97920716326E+01  0.39886672933E+02  0.00000000000E+00 0. -1.
</event>
<event>
 5    1  0.1264859E-009  0.9118800E+02  0.7815553E-02  0.1125453E+00
         25   -1    0    0    0    0  0.00000000000E+00  0.00000000000E+00  0.99999998245E-14  0.12509000000E+03  0.12509000000E+03 0.  0.
        -13    1    3    3    0    0 -0.27167182500E+02 -0.20192825649E+02 -0.13062157111E+02  0.36282738666E+02  0.10566000000E+00 0.  1.
         23    2    1    0    0    0  0.28169880270E+02 -0.71921355396E+01  0.42571672639E+01  0.95706459690E+02  0.91084213699E+02 0.  0.
         13    1    3    3    0    0  0.55337062771E+02  0.13000690109E+02  0.17319324375E+02  0.59423721023E+02  0.10566000000E+00 0. -1.
         22    1    1    0    0    0 -0.28169880270E+02  0.71921355396E+01 -0.42571672639E+01  0.29383540310E+02  0.00000000000E+00 0. -1.
</event>
<event>
 5    1  0.1264859E-009  0.9118800E+02  0.7815553E-02  0.1125453E+00
         25   -1    0    0    0    0  0.00000000000E+00  0.00000000000E+00  0.99999998245E-14  0.12509000000E+03  0.12509000000E+03 0.  0.
        -13    1    3    3    0    0  0.37734565831E+02 -0.35430167257E+02 -0.25966604511E+02  0.57909152335E+02  0.10566000000E+00 0. -1.
         23    2    1    0    0    0  0.66918365198E+01 -0.28063018543E+02 -0.57718916554E+01  0.95668436155E+02  0.91031979311E+02 0.  0.
         13    1    3    3    0    0 -0.31042729311E+02  0.73671487138E+01  0.20194712855E+02  0.37759283820E+02  0.10566000000E+00 0.  1.
         22    1    1    0    0    0 -0.66918365198E+01  0.28063018543E+02  0.57718916554E+01  0.29421563845E+02  0.00000000000E+00 0. -1.
</event>
<event>
 5    1  0.1264859E-009  0.9118800E+02  0.7815553E-02  0.1125453E+00
         25   -1    0    0    0    0  0.00000000000E+00  0.00000000000E+00  0.99999998245E-14  0.12509000000E+03  0.12509000000E+03 0.  0.
        -13    1    3    3    0    0  0.22857988482E+02 -0.17756492407E+01  0.24684164770E+02  0.33689163274E+02  0.10566000000E+00 0.  1.
         23    2    1    0    0    0 -0.27532803703E+02  0.45573175807E+01 -0.10281273736E+02  0.95348967521E+02  0.90591923451E+02 0.  0.
         13    1    3    3    0    0 -0.50390792185E+02  0.63329668213E+01 -0.34965438506E+02  0.61659804247E+02  0.10566000000E+00 0. -1.
         22    1    1    0    0    0  0.27532803703E+02 -0.45573175807E+01  0.10281273736E+02  0.29741032479E+02  0.00000000000E+00 0. -1.
</event>
<event>
 5    1  0.1264859E-009  0.9118800E+02  0.7815553E-02  0.1125453E+00
         25   -1    0    0    0    0  0.00000000000E+00  0.00000000000E+00  0.99999998245E-14  0.12509000000E+03  0.12509000000E+03 0.  0.
        -13    1    3    3    0    0  0.11288823220E+02 -0.14163933220E+02 -0.31824775171E+02  0.36618055828E+02  0.10566000000E+00 0. -1.
         23    2    1    0    0    0 -0.23564220025E+02 -0.59519435037E+01  0.15724768058E+02  0.96142350228E+02  0.91680887212E+02 0.  0.
         13    1    3    3    0    0 -0.34853043244E+02  0.82119897165E+01  0.47549543229E+02  0.59524294400E+02  0.10566000000E+00 0.  1.
         22    1    1    0    0    0  0.23564220025E+02  0.59519435037E+01 -0.15724768058E+02  0.28947649772E+02  0.00000000000E+00 0.  1.
</event>
<event>
 5    1  0.1264859E-009  0.9118800E+02  0.7815553E-02  0.1125453E+00
         25   -1    0    0    0    0  0.00000000000E+00  0.00000000000E+00  0.99999998245E-14  0.12509000000E+03  0.12509000000E+03 0.  0.
        -13    1    3    3    0    0 -0.46567702677E+01  0.46192540488E+02  0.33151837459E+02  0.57048153318E+02  0.10566000000E+00 0. -1.
         23    2    1    0    0    0  0.17705728645E+01  0.28353549198E+02 -0.15996186124E+01  0.96636222394E+02  0.92352271323E+02 0.  0.
         13    1    3    3    0    0  0.64273431321E+01 -0.17838991290E+02 -0.34751456072E+02  0.39588069075E+02  0.10566000000E+00 0.  1.
         22    1    1    0    0    0 -0.17705728645E+01 -0.28353549198E+02  0.15996186124E+01  0.28453777606E+02  0.00000000000E+00 0. -1.
</event>
<event>
 5    1  0.1264859E-009  0.9118800E+02  0.7815553E-02  0.1125453E+00
         25   -1    0    0    0    0  0.00000000000E+00  0.00000000000E+00  0.99999998245E-14  0.12509000000E+03  0.12509000000E+03 0.  0.
        -13    1    3    3    0    0 -0.26393353087E+02  0.27288467994E+02  0.69106241650E+01  0.38588048189E+02  0.10566000000E+00 0. -1.
         23    2    1    0    0    0  0.27053768361E+02  0.70092374320E+01 -0.42183522775E+01  0.96826414101E+02  0.92609525319E+02 0.  0.
         13    1    3    3    0    0  0.53447121449E+02 -0.20279230562E+02 -0.11128976443E+02  0.58238365912E+02  0.10566000000E+00 0.  1.
         22    1    1    0    0    0 -0.27053768361E+02 -0.70092374320E+01  0.42183522775E+01  0.28263585899E+02  0.00000000000E+00 0.  1.
</event>
<event>
 5    1  0.1264859E-009  0.9118800E+02  0.7815553E-02  0.1125453E+00
         25   -1    0    0    0    0  0.00000000000E+00  0.00000000000E+00  0.99999998245E-14  0.12509000000E+03  0.12509000000E+03 0.  0.
        -13    1    3    3    0    0 -0.50448219514E+02 -0.10029459024E+02 -0.30048967948E+02  0.59569829102E+02  0.10566000000E+00 0.  1.
         23    2    1    0    0    0 -0.28995469749E+02  0.47694298044E+01 -0.58624224967E+01  0.95125809303E+02  0.90283259087E+02 0.  0.
         13    1    3    3    0    0  0.21452749766E+02  0.14798888829E+02  0.24186545452E+02  0.35555980200E+02  0.10566000000E+00 0. -1.
         22    1    1    0    0    0  0.28995469749E+02 -0.47694298044E+01  0.58624224967E+01  0.29964190697E+02  0.00000000000E+00 0.  1.
</event>
<event>
 5    1  0.1264859E-009  0.9118800E+02  0.7815553E-02  0.1125453E+00
         25   -1    0    0    0    0  0.00000000000E+00  0.00000000000E+00  0.99999998245E-14  0.12509000000E+03  0.12509000000E+03 0.  0.
        -13    1    3    3    0    0  0.94246445792E+01 -0.21298377616E+02 -0.23565110868E+02  0.33132618804E+02  0.10566000000E+00 0. -1.
         23    2    1    0    0    0 -0.37637950927E+01  0.23528300378E+02  0.17648966663E+02  0.95438135026E+02  0.90714963048E+02 0.  0.
         13    1    3    3    0    0 -0.13188439672E+02  0.44826677994E+02  0.41214077531E+02  0.62305516222E+02  0.10566000000E+00 0.  1.
         22    1    1    0    0    0  0.37637950927E+01 -0.23528300378E+02 -0.17648966663E+02  0.29651864974E+02  0.00000000000E+00 0.  1.
</event>
<event>
 5    1  0.1264859E-009  0.9118800E+02  0.7815553E-02  0.1125453E+00
         25   -1    0    0    0    0  0.00000000000E+00  0.00000000000E+00  0.99999998245E-14  0.12509000000E+03  0.12509000000E+03 0.  0.
        -13    1    3    3    0    0  0.42133694058E+02 -0.15026666579E+02  0.15348167945E+02  0.47292983695E+02  0.10566000000E+00 0.  1.
         23    2    1    0    0    0  0.18181837865E+02  0.23608783206E+02  0.12299837877E+02  0.92852756253E+02  0.87076945625E+02 0.  0.
         13    1    3    3    0    0 -0.23951856194E+02  0.38635449785E+02 -0.30483300686E+01  0.45559772558E+02  0.10566000000E+00 0. -1.
         22    1    1    0    0    0 -0.18181837865E+02 -0.23608783206E+02 -0.12299837877E+02  0.32237243747E+02  0.00000000000E+00 0. -1.
</event>
<event>
 5    1  0.1264859E-009  0.9118800E+02  0.7815553E-02  0.1125453E+00
         25   -1    0    0    0    0  0.00000000000E+00  0.00000000000E+00  0.99999998245E-14  0.12509000000E+03  0.12509000000E+03 0.  0.
        -13    1    3    3    0    0  0.54852191759E+02  0.99753545663E+01 -0.95826865861E+01  0.56569511981E+02  0.10566000000E+00 0. -1.
         23    2    1    0    0    0  0.22428576671E+02  0.15615511081E+02  0.11267674819E+02  0.95529118186E+02  0.90840336237E+02 0.  0.
         13    1    3    3    0    0 -0.32423615088E+02  0.56401565146E+01  0.20850361406E+02  0.38959606205E+02  0.10566000000E+00 0.  1.
         22    1    1    0    0    0 -0.22428576671E+02 -0.15615511081E+02 -0.11267674819E+02  0.29560881814E+02  0.00000000000E+00 0. -1.
</event>
<event>
 5    1  0.1264859E-009  0.9118800E+02  0.7815553E-02  0.1125453E+00
         25   -1    0    0    0    0  0.00000000000E+00  0.00000000000E+00  0.99999998245E-14  0.12509000000E+03  0.12509000000E+03 0.  0.
        -13    1    3    3    0    0  0.19254895194E+02 -0.24861900345E+02  0.25624764052E+02  0.40564821884E+02  0.10566000000E+00 0. -1.
         23    2    1    0    0    0  0.19952531807E+02 -0.73973965603E+01 -0.23903537120E+02  0.93086811281E+02  0.87412529687E+02 0.  0.
         13    1    3    3    0    0  0.69763661215E+00  0.17464503785E+02 -0.49528301171E+02  0.52521989397E+02  0.10566000000E+00 0.  1.
         22    1    1    0    0    0 -0.19952531807E+02  0.73973965603E+01  0.23903537120E+02  0.32003188719E+02  0.00000000000E+00 0.  1.
</event>
<event>
 5    1  0.1264859E-009  0.9118800E+02  0.7815553E-02  0.1125453E+00
         25   -1    0    0    0    0  0.00000000000E+00  0.00000000000E+00  0.99999998245E-14  0.12509000000E+03  0.12509000000E+03 0.  0.
        -13    1    3    3    0    0  0.27053182658E+02 -0.14350102431E+02  0.30991567753E+02  0.43569353536E+02  0.10566000000E+00 0. -1.
         23    2    1    0    0    0  0.12957120412E+02 -0.23850295525E+02 -0.16028598289E+02  0.93567951699E+02  0.88098365797E+02 0.  0.
         13    1    3    3    0    0 -0.14096062246E+02 -0.95001930941E+01 -0.47020166042E+02  0.49998598163E+02  0.10566000000E+00 0.  1.
         22    1    1    0    0    0 -0.12957120412E+02  0.23850295525E+02  0.16028598289E+02  0.31522048301E+02  0.00000000000E+00 0. -1.
</event>
<event>
 5    1  0.1264859E-009  0.9118800E+02  0.7815553E-02  0.1125453E+00
         25   -1    0    0    0    0  0.00000000000E+00  0.00000000000E+00  0.99999998245E-14  0.12509000000E+03  0.12509000000E+03 0.  0.
        -13    1    3    3    0    0 -0.17843504695E+02  0.41016611834E+02 -0.64483556282E+01  0.45192317494E+02  0.10566000000E+00 0.  1.
         23    2    1    0    0    0 -0.26008150518E+02 -0.51716936901E+01  0.12493177615E+02  0.95777037067E+02  0.91181089231E+02 0.  0.
         13    1    3    3    0    0 -0.81646458230E+01 -0.46188305524E+02  0.18941533243E+02  0.50584719573E+02  0.10566000000E+00 0. -1.
         22    1    1    0    0    0  0.26008150518E+02  0.51716936901E+01 -0.12493177615E+02  0.29312962933E+02  0.00000000000E+00 0. -1.
</event>
<event>
 5    1  0.1264859E-009  0.9118800E+02  0.7815553E-02  0.1125453E+00
         25   -1    0    0    0    0  0.00000000000E+00  0.00000000000E+00  0.99999998245E-14  0.12509000000E+03  0.12509000000E+03 0.  0.
        -13    1    3    3    0    0  0.38914791387E+02  0.71092572653E+01 -0.11479034010E+02  0.41190798893E+02  0.10566000000E+00 0. -1.
         23    2    1    0    0    0 -0.12135569861E+01  0.10676955160E+02  0.26460965327E+02  0.96530364532E+02  0.92208776690E+02 0.  0.
         13    1    3    3    0    0 -0.40128348374E+02  0.35676978949E+01  0.37939999336E+02  0.55339565639E+02  0.10566000000E+00 0.  1.
         22    1    1    0    0    0  0.12135569861E+01 -0.10676955160E+02 -0.26460965327E+02  0.28559635468E+02  0.00000000000E+00 0.  1.
</event>
<event>
 5    1  0.1264859E-009  0.9118800E+02  0.7815553E-02  0.1125453E+00
         25   -1    0    0    0    0  0.00000000000E+00  0.00000000000E+00  0.99999998245E-14  0.12509000000E+03  0.12509000000E+03 0.  0.
        -13    1    3    3    0    0  0.47610369169E+02  0.28797903305E+02  0.75053783912E+01  0.56146312043E+02  0.10566000000E+00 0. -1.
         23    2    1    0    0    0  0.17486704793E+02  0.67746363889E+01  0.22003118694E+02  0.96179486774E+02  0.91731542564E+02 0.  0.
         13    1    3    3    0    0 -0.30123664377E+02 -0.22023266916E+02  0.14497740303E+02  0.40033174731E+02  0.10566000000E+00 0.  1.
         22    1    1    0    0    0 -0.17486704793E+02 -0.67746363889E+01 -0.22003118694E+02  0.28910513226E+02  0.00000000000E+00 0. -1.
</event>
<event>
 5    1  0.1264859E-009  0.9118800E+02  0.7815553E-02  0.1125453E+00
         25   -1    0    0    0    0  0.00000000000E+00  0.00000000000E+00  0.99999998245E-14  0.12509000000E+03  0.12509000000E+03 0.  0.
        -13    1    3    3    0    0  0.26030120084E+02 -0.32587193726E+02  0.42369787526E+02  0.59453363282E+02  0.10566000000E+00 0.  1.
         23    2    1    0    0    0  0.89335413289E+01 -0.43063477869E+01  0.27808047115E+02  0.95566445399E+02  0.90891722450E+02 0.  0.
         13    1    3    3    0    0 -0.17096578756E+02  0.28280845939E+02 -0.14561740410E+02  0.36113082117E+02  0.10566000000E+00 0. -1.
         22    1    1    0    0    0 -0.89335413289E+01  0.43063477869E+01 -0.27808047115E+02  0.29523554601E+02  0.00000000000E+00 0.  1.
</event>
<event>
 5    1  0.1264859E-009  0.9118800E+02  0.7815553E-02  0.1125453E+00
         25   -1    0    0    0    0  0.00000000000E+00  0.00000000000E+00  0.99999998245E-14  0.12509000000E+03  0.12509000000E+03 0.  0.
        -13    1    3    3    0    0 -0.16214631536E+02 -0.30891714119E+02  0.13125096837E+00  0.34888976309E+02  0.10566000000E+00 0.  1.
         23    2    1    0    0    0  0.26035493561E+02  0.11591443549E+02 -0.83276777653E+01  0.95398945699E+02  0.90660907424E+02 0.  0.
         13    1    3    3    0    0  0.42250125097E+02  0.42483157668E+02 -0.84589287336E+01  0.60509969390E+02  0.10566000000E+00 0. -1.
         22    1    1    0    0    0 -0.26035493561E+02 -0.11591443549E+02  0.83276777653E+01  0.29691054301E+02  0.00000000000E+00 0. -1.
</event>
<event>
 5    1  0.1264859E-009  0.9118800E+02  0.7815553E-02  0.1125453E+00
         25   -1    0    0    0    0  0.00000000000E+00  0.00000000000E+00  0.99999998245E-14  0.12509000000E+03  0.12509000000E+03 0.  0.
        -13    1    3    3    0    0  0.49694976975E+02 -0.54233074150E+01 -0.15560977348E+02  0.52356071090E+02  0.10566000000E+00 0.  1.
         23    2    1    0    0    0  0.70903386104E+01 -0.98611951586E+01 -0.25954491209E+02  0.96434255628E+02  0.92078303487E+02 0.  0.
         13    1    3    3    0    0 -0.42604638365E+02 -0.44378877436E+01 -0.10393513861E+02  0.44078184539E+02  0.10566000000E+00 0. -1.
         22    1    1    0    0    0 -0.70903386104E+01  0.98611951586E+01  0.25954491209E+02  0.28655744372E+02  0.00000000000E+00 0. -1.
</event>
<event>
 5    1  0.1264859E-009  0.9118800E+02  0.7815553E-02  0.1125453E+00
         25   -1    0    0    0    0  0.00000000000E+00  0.00000000000E+00  0.99999998245E-14  0.12509000000E+03  0.12509000000E+03 0.  0.
        -13    1    3    3    0    0  0.47184411861E+02 -0.30426164765E+02 -0.18532962523E+02  0.59123617014E+02  0.10566000000E+00 0. -1.
         23    2    1    0    0    0  0.20806328388E+02 -0.26450401282E+01 -0.18022897192E+02  0.97436349943E+02  0.93429748628E+02 0.  0.
         13    1    3    3    0    0 -0.26378083473E+02  0.27781124637E+02  0.51006533083E+00  0.38312732929E+02  0.10566000000E+00 0.  1.
         22    1    1    0    0    0 -0.20806328388E+02  0.26450401282E+01  0.18022897192E+02  0.27653650057E+02  0.00000000000E+00 0. -1.
</event>
<event>
 5    1  0.1264859E-009  0.9118800E+02  0.7815553E-02  0.1125453E+00
         25   -1    0    0    0    0  0.00000000000E+00  0.00000000000E+00  0.99999998245E-14  0.12509000000E+03  0.12509000000E+03 0.  0.
        -13    1    3    3    0    0 -0.52196798666E+02 -0.20804618206E+01  0.24141629471E+02  0.57547055094E+02  0.10566000000E+00 0.  1.
         23    2    1    0    0    0 -0.27357968845E+02 -0.12324086227E+02 -0.19782596187E+01  0.95019165762E+02  0.90135380347E+02 0.  0.
         13    1    3    3    0    0  0.24838829822E+02 -0.10243624406E+02 -0.26119889089E+02  0.37472110669E+02  0.10566000000E+00 0. -1.
         22    1    1    0    0    0  0.27357968845E+02  0.12324086227E+02  0.19782596187E+01  0.30070834238E+02  0.00000000000E+00 0.  1.
</event>
<event>
 5    1  0.1264859E-009  0.9118800E+02  0.7815553E-02  0.1125453E+00
         25   -1    0    0    0    0  0.00000000000E+00  0.00000000000E+00  0.99999998245E-14  0.12509000000E+03  0.12509000000E+03 0.  0.
        -13    1    3    3    0    0 -0.33600060600E+01 -0.54612126771E+02  0.28550712061E+02  0.61716516059E+02  0.10566000000E+00 0. -1.
         23    2    1    0    0    0 -0.37632977686E+01 -0.28623173308E+02  0.72443822235E+01  0.95325431565E+02  0.90559418996E+02 0.  0.
         13    1    3    3    0    0 -0.40329170859E+00  0.25988953463E+02 -0.21306329838E+02  0.33608915506E+02  0.10566000000E+00 0.  1.
         22    1    1    0    0    0  0.37632977686E+01  0.28623173308E+02 -0.72443822235E+01  0.29764568435E+02  0.00000000000E+00 0. -1.
</event>
<event>
 5    1  0.1264859E-009  0.9118800E+02  0.7815553E-02  0.1125453E+00
         25   -1    0    0    0    0  0.00000000000E+00  0.00000000000E+00  0.99999998245E-14  0.12509000000E+03  0.12509000000E+03 0.  0.
        -13    1    3    3    0    0  0.10147538705E+02  0.92618600471E+01 -0.37351786631E+02  0.39798514066E+02  0.10566000000E+00 0.  1.
         23    2    1    0    0    0  0.23064731971E+02  0.44338572853E+01  0.17143641829E+02  0.96011736529E+02  0.91502503489E+02 0.  0.
         13    1    3    3    0    0  0.12917193266E+02 -0.48280027618E+01  0.54495428460E+02  0.56213222462E+02  0.10566000000E+00 0. -1.
         22    1    1    0    0    0 -0.23064731971E+02 -0.44338572853E+01 -0.17143641829E+02  0.29078263471E+02  0.00000000000E+00 0. -1.
</event>
<event>
 5    1  0.1264859E-009  0.9118800E+02  0.7815553E-02  0.1125453E+00
         25   -1    0    0    0    0  0.00000000000E+00  0.00000000000E+00  0.99999998245E-14  0.12509000000E+03  0.12509000000E+03 0.  0.
        -13    1    3    3    0    0 -0.50158525170E+02  0.35413667989E+02 -0.65046125662E+01  0.61744041626E+02  0.10566000000E+00 0. -1.
         23    2    1    0    0    0 -0.26500943758E+02  0.11685745362E+02 -0.71515835333E+01  0.95257101854E+02  0.90464985723E+02 0.  0.
         13    1    3    3    0    0  0.23657581412E+02 -0.23727922626E+02 -0.64697096709E+00  0.33513060229E+02  0.10566000000E+00 0.  1.
         22    1    1    0    0    0  0.26500943758E+02 -0.11685745362E+02  0.71515835333E+01  0.29832898146E+02  0.00000000000E+00 0. -1.
</event>
<event>
 5    1  0.1264859E-009  0.9118800E+02  0.7815553E-02  0.1125453E+00
         25   -1    0    0    0    0  0.00000000000E+00  0.00000000000E+00  0.99999998245E-14  0.12509000000E+03  0.12509000000E+03 0.  0.
        -13    1    3    3    0    0 -0.10391751777E+00 -0.43824709076E+02  0.21126387724E+02  0.48651324203E+02  0.10566000000E+00 0.  1.
         23    2    1    0    0    0 -0.17223799660E+02 -0.95698149436E+01 -0.14240211038E+02  0.10077900983E+03  0.97802784105E+02 0.  0.
         13    1    3    3    0    0 -0.17119882142E+02  0.34254894132E+02 -0.35366598761E+02  0.52127685624E+02  0.10566000000E+00 0. -1.
         22    1    1    0    0    0  0.17223799660E+02  0.95698149436E+01  0.14240211038E+02  0.24310990173E+02  0.00000000000E+00 0. -1.
</event>
<event>
 5    1  0.1264859E-009  0.9118800E+02  0.7815553E-02  0.1125453E+00
         25   -1    0    0    0    0  0.00000000000E+00  0.00000000000E+00  0.99999998245E-14  0.12509000000E+03  0.12509000000E+03 0.  0.
        -13    1    3    3    0    0 -0.75051792407E+01  0.49824254016E+02  0.62320968583E+01  0.50770406724E+02  0.10566000000E+00 0.  1.
         23    2    1    0    0    0 -0.98018634380E+01  0.90606698576E+01  0.25796805957E+02  0.96044389958E+02  0.91547132013E+02 0.  0.
         13    1    3    3    0    0 -0.22966841973E+01 -0.40763584158E+02  0.19564709098E+02  0.45273983234E+02  0.10566000000E+00 0. -1.
         22    1    1    0    0    0  0.98018634380E+01 -0.90606698576E+01 -0.25796805957E+02  0.29045610042E+02  0.00000000000E+00 0.  1.
</event>
<event>
 5    1  0.1264859E-009  0.9118800E+02  0.7815553E-02  0.1125453E+00
         25   -1    0    0    0    0  0.00000000000E+00  0.00000000000E+00  0.99999998245E-14  0.12509000000E+03  0.12509000000E+03 0.  0.
        -13    1    3    3    0    0  0.49402901188E+02  0.24596243298E+02  0.23036447661E+02  0.59802265133E+02  0.10566000000E+00 0. -1.
         23    2    1    0    0    0  0.27969145999E+02  0.11081520899E+02 -0.13572798470E+01  0.94974963192E+02  0.90074015073E+02 0.  0.
         13    1    3    3    0    0 -0.21433755189E+02 -0.13514722399E+02 -0.24393727508E+02  0.35172698060E+02  0.10566000000E+00 0.  1.
         22    1    1    0    0    0 -0.27969145999E+02 -0.11081520899E+02  0.13572798470E+01  0.30115036808E+02  0.00000000000E+00 0. -1.
</event>
<event>
 5    1  0.1264859E-009  0.9118800E+02  0.7815553E-02  0.1125453E+00
         25   -1    0    0    0    0  0.00000000000E+00  0.00000000000E+00  0.99999998245E-14  0.12509000000E+03  0.12509000000E+03 0.  0.
        -13    1    3    3    0    0  0.86170984045E+01  0.15118537961E+02  0.40242211926E+02  0.43843715168E+02  0.10566000000E+00 0.  1.
         23    2    1    0    0    0  0.20132331954E+02  0.18759855972E+02 -0.10223233495E+02  0.95734293756E+02  0.91122431442E+02 0.  0.
         13    1    3    3    0    0  0.11515233550E+02  0.36413180105E+01 -0.50465445422E+02  0.51890578588E+02  0.10566000000E+00 0. -1.
         22    1    1    0    0    0 -0.20132331954E+02 -0.18759855972E+02  0.10223233495E+02  0.29355706244E+02  0.00000000000E+00 0. -1.
</event>
<event>
 5    1  0.1264859E-009  0.9118800E+02  0.7815553E-02  0.1125453E+00
         25   -1    0    0    0    0  0.00000000000E+00  0.00000000000E+00  0.99999998245E-14  0.12509000000E+03  0.12509000000E+03 0.  0.
        -13    1    3    3    0    0  0.44556751777E+02 -0.15877733788E+02  0.18723192014E+02  0.50872149968E+02  0.10566000000E+00 0. -1.
         23    2    1    0    0    0 -0.50917773880E+01 -0.11900029425E+02  0.20651788701E+02  0.10071720217E+03  0.97723699992E+02 0.  0.
         13    1    3    3    0    0 -0.49648529165E+02  0.39777043628E+01  0.19285966865E+01  0.49845052207E+02  0.10566000000E+00 0.  1.
         22    1    1    0    0    0  0.50917773880E+01  0.11900029425E+02 -0.20651788701E+02  0.24372797825E+02  0.00000000000E+00 0. -1.
</event>
<event>
 5    1  0.1264859E-009  0.9118800E+02  0.7815553E-02  0.1125453E+00
         25   -1    0    0    0    0  0.00000000000E+00  0.00000000000E+00  0.99999998245E-14  0.12509000000E+03  0.12509000000E+03 0.  0.
        -13    1    3    3    0    0 -0.24105570280E+02 -0.28210075104E+02 -0.25542544404E+02  0.45047969927E+02  0.10566000000E+00 0.  1.
         23    2    1    0    0    0  0.91678613301E+01  0.99002033413E+01 -0.26172956219E+02  0.95643653116E+02  0.90997917759E+02 0.  0.
         13    1    3    3    0    0  0.33273431610E+02  0.38110278445E+02 -0.63041181557E+00  0.50595683189E+02  0.10566000000E+00 0. -1.
         22    1    1    0    0    0 -0.91678613301E+01 -0.99002033413E+01  0.26172956219E+02  0.29446346884E+02  0.00000000000E+00 0. -1.
</event>
<event>
 5    1  0.1264859E-009  0.9118800E+02  0.7815553E-02  0.1125453E+00
         25   -1    0    0    0    0  0.00000000000E+00  0.00000000000E+00  0.99999998245E-14  0.12509000000E+03  0.12509000000E+03 0.  0.
        -13    1    3    3    0    0 -0.43816156718E+02  0.21146125167E+02 -0.11886446375E+02  0.50083060715E+02  0.10566000000E+00 0.  1.
         23    2    1    0    0    0 -0.20194115421E+02 -0.13393286755E+02  0.11768951476E+02  0.98151354032E+02  0.94382189272E+02 0.  0.
         13    1    3    3    0    0  0.23622041297E+02 -0.34539411921E+02  0.23655397851E+02  0.48068293317E+02  0.10566000000E+00 0. -1.
         22    1    1    0    0    0  0.20194115421E+02  0.13393286755E+02 -0.11768951476E+02  0.26938645968E+02  0.00000000000E+00 0.  1.
</event>
<event>
 5    1  0.1264859E-009  0.9118800E+02  0.7815553E-02  0.1125453E+00
         25   -1    0    0    0    0  0.00000000000E+00  0.00000000000E+00  0.99999998245E-14  0.12509000000E+03  0.12509000000E+03 0.  0.
        -13    1    3    3    0    0 -0.10665847301E+01  0.28270470681E+02 -0.39624399360E+02  0.48687383419E+02  0.10566000000E+00 0. -1.
         23    2    1    0    0    0 -0.27716234332E+02  0.43174265328E+01 -0.95802615150E+01  0.95448623039E+02  0.90729424180E+02 0.  0.
         13    1    3    3    0    0 -0.26649649602E+02 -0.23953044148E+02  0.30044137845E+02  0.46761239620E+02  0.10566000000E+00 0.  1.
         22    1    1    0    0    0  0.27716234332E+02 -0.43174265328E+01  0.95802615150E+01  0.29641376961E+02  0.00000000000E+00 0.  1.
</event>
<event>
 5    1  0.1264859E-009  0.9118800E+02  0.7815553E-02  0.1125453E+00
         25   -1    0    0    0    0  0.00000000000E+00  0.00000000000E+00  0.99999998245E-14  0.12509000000E+03  0.12509000000E+03 0.  0.
        -13    1    3    3    0    0  0.20817119725E+02  0.44746966950E+02 -0.28561493939E+02  0.57021168218E+02  0.10566000000E+00 0.  1.
         23    2    1    0    0    0 -0.34942352540E+01  0.26548523919E+02 -0.59374112904E+00  0.98305931399E+02  0.94586837442E+02 0.  0.
         13    1    3    3    0    0 -0.24311354979E+02 -0.18198443031E+02  0.27967752810E+02  0.41284763181E+02  0.10566000000E+00 0. -1.
         22    1    1    0    0    0  0.34942352540E+01 -0.26548523919E+02  0.59374112904E+00  0.26784068601E+02  0.00000000000E+00 0.  1.
</event>
<event>
 5    1  0.1264859E-009  0.9118800E+02  0.7815553E-02  0.1125453E+00
         25   -1    0    0    0    0  0.00000000000E+00  0.00000000000E+00  0.99999998245E-14  0.12509000000E+03  0.12509000000E+03 0.  0.
        -13    1    3    3    0    0 -0.14681318059E+02 -0.52443828381E+01  0.38585568466E+02  0.41616125591E+02  0.10566000000E+00 0.  1.
         23    2    1    0    0    0 -0.45042914965E+01  0.24749820638E+02 -0.86498433080E+01  0.98488081785E+02  0.94827423253E+02 0.  0.
         13    1    3    3    0    0  0.10177026563E+02  0.29994203476E+02 -0.47235411774E+02  0.56871956194E+02  0.10566000000E+00 0. -1.
         22    1    1    0    0    0  0.45042914965E+01 -0.24749820638E+02  0.86498433080E+01  0.26601918215E+02  0.00000000000E+00 0. -1.
</event>
<event>
 5    1  0.1264859E-009  0.9118800E+02  0.7815553E-02  0.1125453E+00
         25   -1    0    0    0    0  0.00000000000E+00  0.00000000000E+00  0.99999998245E-14  0.12509000000E+03  0.12509000000E+03 0.  0.
        -13    1    3    3    0    0  0.35823676574E+02 -0.26689106780E+02  0.94229862415E+01  0.45655756020E+02  0.10566000000E+00 0. -1.
         23    2    1    0    0    0 -0.14220361725E+02 -0.21339718771E+02  0.13426460092E+02  0.96143979282E+02  0.91683109878E+02 0.  0.
         13    1    3    3    0    0 -0.50044038299E+02  0.53493880089E+01  0.40034738501E+01  0.50488223263E+02  0.10566000000E+00 0.  1.
         22    1    1    0    0    0  0.14220361725E+02  0.21339718771E+02 -0.13426460092E+02  0.28946020718E+02  0.00000000000E+00 0.  1.
</event>
<event>
 5    1  0.1264859E-009  0.9118800E+02  0.7815553E-02  0.1125453E+00
         25   -1    0    0    0    0  0.00000000000E+00  0.00000000000E+00  0.99999998245E-14  0.12509000000E+03  0.12509000000E+03 0.  0.
        -13    1    3    3    0    0  0.11413162882E+02 -0.25856027137E+02 -0.23095896545E+02  0.36499671609E+02  0.10566000000E+00 0.  1.
         23    2    1    0    0    0  0.12347550691E+02  0.18787311375E+02  0.17306797907E+02  0.96718353404E+02  0.92463449830E+02 0.  0.
         13    1    3    3    0    0  0.93438780931E+00  0.44643338512E+02  0.40402694453E+02  0.60218681795E+02  0.10566000000E+00 0. -1.
         22    1    1    0    0    0 -0.12347550691E+02 -0.18787311375E+02 -0.17306797907E+02  0.28371646596E+02  0.00000000000E+00 0. -1.
</event>
<event>
 5    1  0.1264859E-009  0.9118800E+02  0.7815553E-02  0.1125453E+00
         25   -1    0    0    0    0  0.00000000000E+00  0.00000000000E+00  0.99999998245E-14  0.12509000000E+03  0.12509000000E+03 0.  0.
        -13    1    3    3    0    0  0.39682635895E+01  0.47982398479E+02 -0.26459791975E+02  0.54938050886E+02  0.10566000000E+00 0.  1.
         23    2    1    0    0    0  0.15239379511E+02  0.91388318478E+01 -0.23686687780E+02  0.95478919077E+02  0.90771184165E+02 0.  0.
         13    1    3    3    0    0  0.11271115921E+02 -0.38843566632E+02  0.27731041947E+01  0.40540868191E+02  0.10566000000E+00 0. -1.
         22    1    1    0    0    0 -0.15239379511E+02 -0.91388318478E+01  0.23686687780E+02  0.29611080923E+02  0.00000000000E+00 0.  1.
</event>
<event>
 5    1  0.1264859E-009  0.9118800E+02  0.7815553E-02  0.1125453E+00
         25   -1    0    0    0    0  0.00000000000E+00  0.00000000000E+00  0.99999998245E-14  0.12509000000E+03  0.12509000000E+03 0.  0.
        -13    1    3    3    0    0  0.32823822238E+02  0.11470449719E+02  0.38399254968E+02  0.51802398296E+02  0.10566000000E+00 0.  1.
         23    2    1    0    0    0 -0.61109088796E+01 -0.51112161294E+01  0.28816479557E+02  0.95192554762E+02  0.90375689488E+02 0.  0.
         13    1    3    3    0    0 -0.38934731118E+02 -0.16581665849E+02 -0.95827754105E+01  0.43390156466E+02  0.10566000000E+00 0. -1.
         22    1    1    0    0    0  0.61109088796E+01  0.51112161294E+01 -0.28816479557E+02  0.29897445238E+02  0.00000000000E+00 0. -1.
</event>
<event>
 5    1  0.1264859E-009  0.9118800E+02  0.7815553E-02  0.1125453E+00
         25   -1    0    0    0    0  0.00000000000E+00  0.00000000000E+00  0.99999998245E-14  0.12509000000E+03  0.12509000000E+03 0.  0.
        -13    1    3    3    0    0 -0.10683262774E+02  0.40478706574E+02  0.39113797673E+02  0.57293613273E+02  0.10566000000E+00 0. -1.
         23    2    1    0    0    0  0.11714638038E+02  0.96675327059E+01  0.20182917459E+02  0.99830465362E+02  0.96581974116E+02 0.  0.
         13    1    3    3    0    0  0.22397900812E+02 -0.30811173868E+02 -0.18930880214E+02  0.42536852089E+02  0.10566000000E+00 0.  1.
         22    1    1    0    0    0 -0.11714638038E+02 -0.96675327059E+01 -0.20182917459E+02  0.25259534638E+02  0.00000000000E+00 0. -1.
</event>
<event>
 5    1  0.1264859E-009  0.9118800E+02  0.7815553E-02  0.1125453E+00
         25   -1    0    0    0    0  0.00000000000E+00  0.00000000000E+00  0.99999998245E-14  0.12509000000E+03  0.12509000000E+03 0.  0.
        -13    1    3    3    0    0 -0.34819388678E+01  0.60381788232E+02 -0.45016955077E-01  0.60482207623E+02  0.10566000000E+00 0. -1.
         23    2    1    0    0    0  0.93306017923E+01  0.26899838909E+02 -0.30351648444E+01  0.96456563448E+02  0.92108604068E+02 0.  0.
         13    1    3    3    0    0  0.12812540660E+02 -0.33481949323E+02 -0.29901478893E+01  0.35974355825E+02  0.10566000000E+00 0.  1.
         22    1    1    0    0    0 -0.93306017923E+01 -0.26899838909E+02  0.30351648444E+01  0.28633436552E+02  0.00000000000E+00 0. -1.
</event>
<event>
 5    1  0.1264859E-009  0.9118800E+02  0.7815553E-02  0.1125453E+00
         25   -1    0    0    0    0  0.00000000000E+00  0.00000000000E+00  0.99999998245E-14  0.12509000000E+03  0.12509000000E+03 0.  0.
        -13    1    3    3    0    0 -0.20201237997E+02 -0.31808708467E+02 -0.23853218450E+02  0.44596761602E+02  0.10566000000E+00 0. -1.
         23    2    1    0    0    0  0.18450519067E+02 -0.21705014747E+02  0.77852533968E+01  0.95557992119E+02  0.90880087854E+02 0.  0.
         13    1    3    3    0    0  0.38651757065E+02  0.10103693720E+02  0.31638471847E+02  0.50961230517E+02  0.10566000000E+00 0.  1.
         22    1    1    0    0    0 -0.18450519067E+02  0.21705014747E+02 -0.77852533968E+01  0.29532007881E+02  0.00000000000E+00 0.  1.
</event>
<event>
 5    1  0.1264859E-009  0.9118800E+02  0.7815553E-02  0.1125453E+00
         25   -1    0    0    0    0  0.00000000000E+00  0.00000000000E+00  0.99999998245E-14  0.12509000000E+03  0.12509000000E+03 0.  0.
        -13    1    3    3    0    0  0.13661383323E+02 -0.29289413938E+02 -0.49774554154E+02  0.59346613791E+02  0.10566000000E+00 0. -1.
         23    2    1    0    0    0  0.19718911517E+02 -0.16202971773E+02 -0.19196758161E+02  0.93154325754E+02  0.87509091625E+02 0.  0.
         13    1    3    3    0    0  0.60575281936E+01  0.13086442165E+02  0.30577795993E+02  0.33807711963E+02  0.10566000000E+00 0.  1.
         22    1    1    0    0    0 -0.19718911517E+02  0.16202971773E+02  0.19196758161E+02  0.31935674246E+02  0.00000000000E+00 0. -1.
</event>
<event>
 5    1  0.1264859E-009  0.9118800E+02  0.7815553E-02  0.1125453E+00
         25   -1    0    0    0    0  0.00000000000E+00  0.00000000000E+00  0.99999998245E-14  0.12509000000E+03  0.12509000000E+03 0.  0.
        -13    1    3    3    0    0 -0.44736960131E+02  0.20115183016E+02 -0.35359240136E+02  0.60467373157E+02  0.10566000000E+00 0. -1.
         23    2    1    0    0    0 -0.23281668161E+02 -0.17518204409E+01 -0.17326526305E+02  0.96015725099E+02  0.91507955968E+02 0.  0.
         13    1    3    3    0    0  0.21455291970E+02 -0.21867003457E+02  0.18032713831E+02  0.35548351943E+02  0.10566000000E+00 0.  1.
         22    1    1    0    0    0  0.23281668161E+02  0.17518204409E+01  0.17326526305E+02  0.29074274901E+02  0.00000000000E+00 0. -1.
</event>
<event>
 5    1  0.1264859E-009  0.9118800E+02  0.7815553E-02  0.1125453E+00
         25   -1    0    0    0    0  0.00000000000E+00  0.00000000000E+00  0.99999998245E-14  0.12509000000E+03  0.12509000000E+03 0.  0.
        -13    1    3    3    0    0  0.52532537066E+02  0.11455505444E+02 -0.29065170152E+02  0.61120302155E+02  0.10566000000E+00 0.  1.
         23    2    1    0    0    0  0.21665236780E+02  0.12815677667E+02 -0.18779101347E+02  0.93684925152E+02  0.88264298981E+02 0.  0.
         13    1    3    3    0    0 -0.30867300286E+02  0.13601722234E+01  0.10286068805E+02  0.32564622997E+02  0.10566000000E+00 0. -1.
         22    1    1    0    0    0 -0.21665236780E+02 -0.12815677667E+02  0.18779101347E+02  0.31405074848E+02  0.00000000000E+00 0.  1.
</event>
<event>
 5    1  0.1264859E-009  0.9118800E+02  0.7815553E-02  0.1125453E+00
         25   -1    0    0    0    0  0.00000000000E+00  0.00000000000E+00  0.99999998245E-14  0.12509000000E+03  0.12509000000E+03 0.  0.
        -13    1    3    3    0    0 -0.25726081949E+02  0.17668381931E+02 -0.12121134025E+02  0.33480383310E+02  0.10566000000E+00 0. -1.
         23    2    1    0    0    0  0.22816526740E+02 -0.15847972641E+02  0.86089762463E+01  0.96006214116E+02  0.91494953673E+02 0.  0.
         13    1    3    3    0    0  0.48542608689E+02 -0.33516354572E+02  0.20730110271E+02  0.62525830806E+02  0.10566000000E+00 0.  1.
         22    1    1    0    0    0 -0.22816526740E+02  0.15847972641E+02 -0.86089762463E+01  0.29083785884E+02  0.00000000000E+00 0.  1.
</event>
<event>
 5    1  0.1264859E-009  0.9118800E+02  0.7815553E-02  0.1125453E+00
         25   -1    0    0    0    0  0.00000000000E+00  0.00000000000E+00  0.99999998245E-14  0.12509000000E+03  0.12509000000E+03 0.  0.
        -13    1    3    3    0    0 -0.25827661081E+02  0.33975698263E+02  0.12065272216E+02  0.44350852382E+02  0.10566000000E+00 0.  1.
         23    2    1    0    0    0 -0.82449447598E+01 -0.15766468575E+02  0.20681754107E+02  0.97808218564E+02  0.93926311651E+02 0.  0.
         13    1    3    3    0    0  0.17582716321E+02 -0.49742166837E+02  0.86164818907E+01  0.53457366182E+02  0.10566000000E+00 0. -1.
         22    1    1    0    0    0  0.82449447598E+01  0.15766468575E+02 -0.20681754107E+02  0.27281781436E+02  0.00000000000E+00 0. -1.
</event>
<event>
 5    1  0.1264859E-009  0.9118800E+02  0.7815553E-02  0.1125453E+00
         25   -1    0    0    0    0  0.00000000000E+00  0.00000000000E+00  0.99999998245E-14  0.12509000000E+03  0.12509000000E+03 0.  0.
        -13    1    3    3    0    0  0.21413174238E+02  0.21430109234E+02 -0.21770690307E+02  0.37306135329E+02  0.10566000000E+00 0.  1.
         23    2    1    0    0    0  0.97754725895E+01  0.40424836385E+02  0.15482446664E+02  0.80711701071E+02  0.67416209282E+02 0.  0.
         13    1    3    3    0    0 -0.11637701649E+02  0.18994727151E+02  0.37253136971E+02  0.43405565742E+02  0.10566000000E+00 0. -1.
         22    1    1    0    0    0 -0.97754725895E+01 -0.40424836385E+02 -0.15482446664E+02  0.44378298929E+02  0.00000000000E+00 0. -1.
</event>
<event>
 5    1  0.1264859E-009  0.9118800E+02  0.7815553E-02  0.1125453E+00
         25   -1    0    0    0    0  0.00000000000E+00  0.00000000000E+00  0.99999998245E-14  0.12509000000E+03  0.12509000000E+03 0.  0.
        -13    1    3    3    0    0 -0.29197568263E+02  0.22888824670E+02 -0.47806926869E+01  0.37406716962E+02  0.10566000000E+00 0. -1.
         23    2    1    0    0    0  0.24926484378E+01  0.46880988766E+02 -0.86856459284E+01  0.77346090973E+02  0.60851762010E+02 0.  0.
         13    1    3    3    0    0  0.31690216701E+02  0.23992164097E+02 -0.39049532416E+01  0.39939374012E+02  0.10566000000E+00 0.  1.
         22    1    1    0    0    0 -0.24926484378E+01 -0.46880988766E+02  0.86856459284E+01  0.47743909027E+02  0.00000000000E+00 0. -1.
</event>
<event>
 5    1  0.1264859E-009  0.9118800E+02  0.7815553E-02  0.1125453E+00
         25   -1    0    0    0    0  0.00000000000E+00  0.00000000000E+00  0.99999998245E-14  0.12509000000E+03  0.12509000000E+03 0.  0.
        -13    1    3    3    0    0  0.41918994301E+02  0.14734713828E+02 -0.34877150788E+02  0.56486641659E+02  0.10566000000E+00 0. -1.
         23    2    1    0    0    0  0.18030062095E+01  0.14240949589E+02 -0.22370532331E+02  0.98510003887E+02  0.94856337018E+02 0.  0.
         13    1    3    3    0    0 -0.40115988092E+02 -0.49376423924E+00  0.12506618457E+02  0.42023362228E+02  0.10566000000E+00 0.  1.
         22    1    1    0    0    0 -0.18030062095E+01 -0.14240949589E+02  0.22370532331E+02  0.26579996113E+02  0.00000000000E+00 0. -1.
</event>
<event>
 5    1  0.1264859E-009  0.9118800E+02  0.7815553E-02  0.1125453E+00
         25   -1    0    0    0    0  0.00000000000E+00  0.00000000000E+00  0.99999998245E-14  0.12509000000E+03  0.12509000000E+03 0.  0.
        -13    1    3    3    0    0  0.36401492401E+02  0.39683436888E+01  0.50758095740E+01  0.36967437124E+02  0.10566000000E+00 0. -1.
         23    2    1    0    0    0 -0.12119298328E+02 -0.17786977076E+02 -0.19955257102E+02  0.95739255010E+02  0.91129241840E+02 0.  0.
         13    1    3    3    0    0 -0.48520790729E+02 -0.21755320765E+02 -0.25031066676E+02  0.58771817885E+02  0.10566000000E+00 0.  1.
         22    1    1    0    0    0  0.12119298328E+02  0.17786977076E+02  0.19955257102E+02  0.29350744990E+02  0.00000000000E+00 0.  1.
</event>
<event>
 5    1  0.1264859E-009  0.9118800E+02  0.7815553E-02  0.1125453E+00
         25   -1    0    0    0    0  0.00000000000E+00  0.00000000000E+00  0.99999998245E-14  0.12509000000E+03  0.12509000000E+03 0.  0.
        -13    1    3    3    0    0  0.25600242930E+01  0.15485238305E+02 -0.44433015281E+02  0.47123776808E+02  0.10566000000E+00 0.  1.
         23    2    1    0    0    0  0.17393161131E+02  0.25392617893E+02 -0.75661168827E+00  0.94302347299E+02  0.89135027611E+02 0.  0.
         13    1    3    3    0    0  0.14833136838E+02  0.99073795881E+01  0.43676403592E+02  0.47178570491E+02  0.10566000000E+00 0. -1.
         22    1    1    0    0    0 -0.17393161131E+02 -0.25392617893E+02  0.75661168827E+00  0.30787652701E+02  0.00000000000E+00 0.  1.
</event>
<event>
 5    1  0.1264859E-009  0.9118800E+02  0.7815553E-02  0.1125453E+00
         25   -1    0    0    0    0  0.00000000000E+00  0.00000000000E+00  0.99999998245E-14  0.12509000000E+03  0.12509000000E+03 0.  0.
        -13    1    3    3    0    0 -0.15299746870E+02 -0.55113720623E+02  0.54249722217E+01  0.57454729508E+02  0.10566000000E+00 0.  1.
         23    2    1    0    0    0 -0.16992756150E+02 -0.18520196447E+02  0.15641868232E+02  0.95485617220E+02  0.90780414275E+02 0.  0.
         13    1    3    3    0    0 -0.16930092799E+01  0.36593524176E+02  0.10216896010E+02  0.38030887712E+02  0.10566000000E+00 0. -1.
         22    1    1    0    0    0  0.16992756150E+02  0.18520196447E+02 -0.15641868232E+02  0.29604382780E+02  0.00000000000E+00 0.  1.
</event>
<event>
 5    1  0.1264859E-009  0.9118800E+02  0.7815553E-02  0.1125453E+00
         25   -1    0    0    0    0  0.00000000000E+00  0.00000000000E+00  0.99999998245E-14  0.12509000000E+03  0.12509000000E+03 0.  0.
        -13    1    3    3    0    0 -0.13244189301E+02  0.12549498175E+02  0.31265951184E+02  0.36200405000E+02  0.10566000000E+00 0. -1.
         23    2    1    0    0    0 -0.11682448730E+02 -0.67221177158E+01 -0.25542685580E+02  0.96209292572E+02  0.91772178332E+02 0.  0.
         13    1    3    3    0    0  0.15617405707E+01 -0.19271615891E+02 -0.56808636764E+02  0.60008887572E+02  0.10566000000E+00 0.  1.
         22    1    1    0    0    0  0.11682448730E+02  0.67221177158E+01  0.25542685580E+02  0.28880707428E+02  0.00000000000E+00 0.  1.
</event>
<event>
 5    1  0.1264859E-009  0.9118800E+02  0.7815553E-02  0.1125453E+00
         25   -1    0    0    0    0  0.00000000000E+00  0.00000000000E+00  0.99999998245E-14  0.12509000000E+03  0.12509000000E+03 0.  0.
        -13    1    3    3    0    0  0.18390044803E+02 -0.34998694118E+02 -0.43164878596E+02  0.58534778090E+02  0.10566000000E+00 0.  1.
         23    2    1    0    0    0  0.27253857865E+01 -0.27541705936E+02 -0.10561145755E+02  0.95467186272E+02  0.90755013974E+02 0.  0.
         13    1    3    3    0    0 -0.15664659017E+02  0.74569881827E+01  0.32603732841E+02  0.36932408181E+02  0.10566000000E+00 0. -1.
         22    1    1    0    0    0 -0.27253857865E+01  0.27541705936E+02  0.10561145755E+02  0.29622813728E+02  0.00000000000E+00 0.  1.
</event>
<event>
 5    1  0.1264859E-009  0.9118800E+02  0.7815553E-02  0.1125453E+00
         25   -1    0    0    0    0  0.00000000000E+00  0.00000000000E+00  0.99999998245E-14  0.12509000000E+03  0.12509000000E+03 0.  0.
        -13    1    3    3    0    0  0.43564638543E+01  0.17000064979E+02 -0.41066053901E+01  0.18023772037E+02  0.10566000000E+00 0. -1.
         23    2    1    0    0    0  0.26735735806E+01 -0.44651517759E+02  0.37727480652E+01  0.80199693008E+02  0.66459394346E+02 0.  0.
         13    1    3    3    0    0 -0.16828902738E+01 -0.61651582737E+02  0.78793534553E+01  0.62175920971E+02  0.10566000000E+00 0.  1.
         22    1    1    0    0    0 -0.26735735806E+01  0.44651517759E+02 -0.37727480652E+01  0.44890306992E+02  0.00000000000E+00 0.  1.
</event>
<event>
 5    1  0.1264859E-009  0.9118800E+02  0.7815553E-02  0.1125453E+00
         25   -1    0    0    0    0  0.00000000000E+00  0.00000000000E+00  0.99999998245E-14  0.12509000000E+03  0.12509000000E+03 0.  0.
        -13    1    3    3    0    0  0.16014764828E+02  0.29627213123E+02 -0.32911122403E+02  0.47089251340E+02  0.10566000000E+00 0.  1.
         23    2    1    0    0    0  0.29815287869E+02 -0.56001047544E+00  0.19258616574E+01  0.95207330347E+02  0.90396138226E+02 0.  0.
         13    1    3    3    0    0  0.13800523041E+02 -0.30187223599E+02  0.34836984060E+02  0.48118079006E+02  0.10566000000E+00 0. -1.
         22    1    1    0    0    0 -0.29815287869E+02  0.56001047544E+00 -0.19258616574E+01  0.29882669653E+02  0.00000000000E+00 0.  1.
</event>
<event>
 5    1  0.1264859E-009  0.9118800E+02  0.7815553E-02  0.1125453E+00
         25   -1    0    0    0    0  0.00000000000E+00  0.00000000000E+00  0.99999998245E-14  0.12509000000E+03  0.12509000000E+03 0.  0.
        -13    1    3    3    0    0 -0.44688910905E+02  0.26064552508E+02 -0.34942099869E+01  0.51852486178E+02  0.10566000000E+00 0. -1.
         23    2    1    0    0    0 -0.10941911423E+01  0.23749586664E+02 -0.14973710703E+02  0.96992809159E+02  0.92834007214E+02 0.  0.
         13    1    3    3    0    0  0.43594719763E+02 -0.23149658445E+01 -0.11479500716E+02  0.45140322981E+02  0.10566000000E+00 0.  1.
         22    1    1    0    0    0  0.10941911423E+01 -0.23749586664E+02  0.14973710703E+02  0.28097190841E+02  0.00000000000E+00 0. -1.
</event>
<event>
 5    1  0.1264859E-009  0.9118800E+02  0.7815553E-02  0.1125453E+00
         25   -1    0    0    0    0  0.00000000000E+00  0.00000000000E+00  0.99999998245E-14  0.12509000000E+03  0.12509000000E+03 0.  0.
        -13    1    3    3    0    0 -0.22779644407E+02 -0.16171103467E+02 -0.21824710311E+02  0.35450612560E+02  0.10566000000E+00 0. -1.
         23    2    1    0    0    0  0.29267955342E+02  0.60137312303E+01 -0.12074450758E+02  0.92863139552E+02  0.87091860429E+02 0.  0.
         13    1    3    3    0    0  0.52047599749E+02  0.22184834698E+02  0.97502595527E+01  0.57412526992E+02  0.10566000000E+00 0.  1.
         22    1    1    0    0    0 -0.29267955342E+02 -0.60137312303E+01  0.12074450758E+02  0.32226860448E+02  0.00000000000E+00 0.  1.
</event>
<event>
 5    1  0.1264859E-009  0.9118800E+02  0.7815553E-02  0.1125453E+00
         25   -1    0    0    0    0  0.00000000000E+00  0.00000000000E+00  0.99999998245E-14  0.12509000000E+03  0.12509000000E+03 0.  0.
        -13    1    3    3    0    0 -0.49500285088E+01 -0.32734136923E+02  0.47249884440E+02  0.57693927288E+02  0.10566000000E+00 0.  1.
         23    2    1    0    0    0  0.87723045898E+01 -0.26946255973E+02  0.15438135409E+02  0.92819424181E+02  0.87029049412E+02 0.  0.
         13    1    3    3    0    0  0.13722333099E+02  0.57878809494E+01 -0.31811749031E+02  0.35125496893E+02  0.10566000000E+00 0. -1.
         22    1    1    0    0    0 -0.87723045898E+01  0.26946255973E+02 -0.15438135409E+02  0.32270575819E+02  0.00000000000E+00 0.  1.
</event>
<event>
 5    1  0.1264859E-009  0.9118800E+02  0.7815553E-02  0.1125453E+00
         25   -1    0    0    0    0  0.00000000000E+00  0.00000000000E+00  0.99999998245E-14  0.12509000000E+03  0.12509000000E+03 0.  0.
        -13    1    3    3    0    0  0.38106464632E+02 -0.22684027932E+02 -0.50601604035E+01  0.44635010444E+02  0.10566000000E+00 0. -1.
         23    2    1    0    0    0 -0.12784842822E+02 -0.20497161449E+02 -0.15166355456E+02  0.96566252503E+02  0.92257449299E+02 0.  0.
         13    1    3    3    0    0 -0.50891307453E+02  0.21868664834E+01 -0.10106195053E+02  0.51931242059E+02  0.10566000000E+00 0.  1.
         22    1    1    0    0    0  0.12784842822E+02  0.20497161449E+02  0.15166355456E+02  0.28523747497E+02  0.00000000000E+00 0.  1.
</event>
<event>
 5    1  0.1264859E-009  0.9118800E+02  0.7815553E-02  0.1125453E+00
         25   -1    0    0    0    0  0.00000000000E+00  0.00000000000E+00  0.99999998245E-14  0.12509000000E+03  0.12509000000E+03 0.  0.
        -13    1    3    3    0    0  0.21552529538E+02 -0.48660848194E+02  0.20100369942E+02  0.56889592302E+02  0.10566000000E+00 0. -1.
         23    2    1    0    0    0  0.10929412341E+02 -0.25257650706E+02  0.29951605541E+02  0.84414458851E+02  0.73968244641E+02 0.  0.
         13    1    3    3    0    0 -0.10623117197E+02  0.23403197488E+02  0.98512355993E+01  0.27524866549E+02  0.10566000000E+00 0.  1.
         22    1    1    0    0    0 -0.10929412341E+02  0.25257650706E+02 -0.29951605541E+02  0.40675541149E+02  0.00000000000E+00 0. -1.
</event>
<event>
 5    1  0.1264859E-009  0.9118800E+02  0.7815553E-02  0.1125453E+00
         25   -1    0    0    0    0  0.00000000000E+00  0.00000000000E+00  0.99999998245E-14  0.12509000000E+03  0.12509000000E+03 0.  0.
        -13    1    3    3    0    0 -0.28286777193E+02  0.11304237464E+02 -0.50021010791E+02  0.58566545341E+02  0.10566000000E+00 0.  1.
         23    2    1    0    0    0  0.13078537086E+01 -0.34190746471E+01 -0.24475751153E+02  0.10034201125E+03  0.97242255599E+02 0.  0.
         13    1    3    3    0    0  0.29594630901E+02 -0.14723312111E+02  0.25545259638E+02  0.41775465907E+02  0.10566000000E+00 0. -1.
         22    1    1    0    0    0 -0.13078537086E+01  0.34190746471E+01  0.24475751153E+02  0.24747988752E+02  0.00000000000E+00 0.  1.
</event>
<event>
 5    1  0.1264859E-009  0.9118800E+02  0.7815553E-02  0.1125453E+00
         25   -1    0    0    0    0  0.00000000000E+00  0.00000000000E+00  0.99999998245E-14  0.12509000000E+03  0.12509000000E+03 0.  0.
        -13    1    3    3    0    0 -0.30706809350E+02  0.34266527101E+01  0.52561139018E+02  0.60969948238E+02  0.10566000000E+00 0.  1.
         23    2    1    0    0    0 -0.17080028977E+02  0.10893283231E+02  0.22470400208E+02  0.94835911104E+02  0.89880699486E+02 0.  0.
         13    1    3    3    0    0  0.13626780373E+02  0.74666305206E+01 -0.30090738810E+02  0.33865962866E+02  0.10566000000E+00 0. -1.
         22    1    1    0    0    0  0.17080028977E+02 -0.10893283231E+02 -0.22470400208E+02  0.30254088896E+02  0.00000000000E+00 0.  1.
</event>
<event>
 5    1  0.1264859E-009  0.9118800E+02  0.7815553E-02  0.1125453E+00
         25   -1    0    0    0    0  0.00000000000E+00  0.00000000000E+00  0.99999998245E-14  0.12509000000E+03  0.12509000000E+03 0.  0.
        -13    1    3    3    0    0  0.25455464573E+02  0.43883749574E+02 -0.10228769048E+02  0.51753290075E+02  0.10566000000E+00 0.  1.
         23    2    1    0    0    0 -0.31773392045E+01  0.83082033636E+01 -0.24035212935E+02  0.99461633130E+02  0.96103086717E+02 0.  0.
         13    1    3    3    0    0 -0.28632803777E+02 -0.35575546210E+02 -0.13806443887E+02  0.47708343056E+02  0.10566000000E+00 0. -1.
         22    1    1    0    0    0  0.31773392045E+01 -0.83082033636E+01  0.24035212935E+02  0.25628366870E+02  0.00000000000E+00 0.  1.
</event>
<event>
 5    1  0.1264859E-009  0.9118800E+02  0.7815553E-02  0.1125453E+00
         25   -1    0    0    0    0  0.00000000000E+00  0.00000000000E+00  0.99999998245E-14  0.12509000000E+03  0.12509000000E+03 0.  0.
        -13    1    3    3    0    0 -0.22448250137E+02 -0.28820273815E+02  0.74529731914E+01  0.37283911952E+02  0.10566000000E+00 0. -1.
         23    2    1    0    0    0  0.27750333271E+02 -0.14658548957E+02  0.15546972221E+02  0.90066259488E+02  0.82977519237E+02 0.  0.
         13    1    3    3    0    0  0.50198583408E+02  0.14161724858E+02  0.80939990294E+01  0.52782347537E+02  0.10566000000E+00 0.  1.
         22    1    1    0    0    0 -0.27750333271E+02  0.14658548957E+02 -0.15546972221E+02  0.35023740512E+02  0.00000000000E+00 0.  1.
</event>
<event>
 5    1  0.1264859E-009  0.9118800E+02  0.7815553E-02  0.1125453E+00
         25   -1    0    0    0    0  0.00000000000E+00  0.00000000000E+00  0.99999998245E-14  0.12509000000E+03  0.12509000000E+03 0.  0.
        -13    1    3    3    0    0  0.27710490261E+02 -0.21159144901E+02 -0.14424640439E+02  0.37731447087E+02  0.10566000000E+00 0.  1.
         23    2    1    0    0    0 -0.18757812536E+02  0.17283619336E+02 -0.78782104296E+01  0.98394584138E+02  0.94704007093E+02 0.  0.
         13    1    3    3    0    0 -0.46468302796E+02  0.38442764237E+02  0.65464300096E+01  0.60663137051E+02  0.10566000000E+00 0. -1.
         22    1    1    0    0    0  0.18757812536E+02 -0.17283619336E+02  0.78782104296E+01  0.26695415862E+02  0.00000000000E+00 0. -1.
</event>
<event>
 5    1  0.1264859E-009  0.9118800E+02  0.7815553E-02  0.1125453E+00
         25   -1    0    0    0    0  0.00000000000E+00  0.00000000000E+00  0.99999998245E-14  0.12509000000E+03  0.12509000000E+03 0.  0.
        -13    1    3    3    0    0  0.67246480421E+01  0.40217640535E+02 -0.30446175061E+02  0.50888704458E+02  0.10566000000E+00 0.  1.
         23    2    1    0    0    0 -0.72995638279E+01 -0.29071089006E+01 -0.27675046140E+02  0.96321213215E+02  0.91924605096E+02 0.  0.
         13    1    3    3    0    0 -0.14024211870E+02 -0.43124749435E+02  0.27711289214E+01  0.45432508757E+02  0.10566000000E+00 0. -1.
         22    1    1    0    0    0  0.72995638279E+01  0.29071089006E+01  0.27675046140E+02  0.28768786785E+02  0.00000000000E+00 0. -1.
</event>
<event>
 5    1  0.1264859E-009  0.9118800E+02  0.7815553E-02  0.1125453E+00
         25   -1    0    0    0    0  0.00000000000E+00  0.00000000000E+00  0.99999998245E-14  0.12509000000E+03  0.12509000000E+03 0.  0.
        -13    1    3    3    0    0 -0.27181193831E+02  0.23686699015E+02 -0.30187884389E+02  0.47023361600E+02  0.10566000000E+00 0. -1.
         23    2    1    0    0    0  0.16289089158E+02  0.43556399813E+01 -0.25076277791E+02  0.94872029634E+02  0.89930952812E+02 0.  0.
         13    1    3    3    0    0  0.43470282989E+02 -0.19331059034E+02  0.51116065980E+01  0.47848668033E+02  0.10566000000E+00 0.  1.
         22    1    1    0    0    0 -0.16289089158E+02 -0.43556399813E+01  0.25076277791E+02  0.30217970366E+02  0.00000000000E+00 0. -1.
</event>
<event>
 5    1  0.1264859E-009  0.9118800E+02  0.7815553E-02  0.1125453E+00
         25   -1    0    0    0    0  0.00000000000E+00  0.00000000000E+00  0.99999998245E-14  0.12509000000E+03  0.12509000000E+03 0.  0.
        -13    1    3    3    0    0 -0.44681904619E+02  0.13499996070E+02 -0.39903480022E+02  0.61408642520E+02  0.10566000000E+00 0.  1.
         23    2    1    0    0    0 -0.18127876781E+02  0.47326919457E+01 -0.27049843612E+02  0.92185405654E+02  0.86112929845E+02 0.  0.
         13    1    3    3    0    0  0.26554027838E+02 -0.87673041246E+01  0.12853636410E+02  0.30776763134E+02  0.10566000000E+00 0. -1.
         22    1    1    0    0    0  0.18127876781E+02 -0.47326919457E+01  0.27049843612E+02  0.32904594346E+02  0.00000000000E+00 0.  1.
</event>
<event>
 5    1  0.1264859E-009  0.9118800E+02  0.7815553E-02  0.1125453E+00
         25   -1    0    0    0    0  0.00000000000E+00  0.00000000000E+00  0.99999998245E-14  0.12509000000E+03  0.12509000000E+03 0.  0.
        -13    1    3    3    0    0  0.42254942440E+02 -0.10521397503E+02 -0.43058019931E+02  0.61238747623E+02  0.10566000000E+00 0.  1.
         23    2    1    0    0    0  0.30238278356E+02  0.96250361146E+00 -0.31001414978E+02  0.81772940754E+02  0.69357380413E+02 0.  0.
         13    1    3    3    0    0 -0.12016664084E+02  0.11483901114E+02  0.12056604953E+02  0.20534193131E+02  0.10566000000E+00 0. -1.
         22    1    1    0    0    0 -0.30238278356E+02 -0.96250361146E+00  0.31001414978E+02  0.43317059246E+02  0.00000000000E+00 0.  1.
</event>
<event>
 5    1  0.1264859E-009  0.9118800E+02  0.7815553E-02  0.1125453E+00
         25   -1    0    0    0    0  0.00000000000E+00  0.00000000000E+00  0.99999998245E-14  0.12509000000E+03  0.12509000000E+03 0.  0.
        -13    1    3    3    0    0 -0.35645680816E+02 -0.12813350943E+02  0.26894424017E+02  0.46455545746E+02  0.10566000000E+00 0. -1.
         23    2    1    0    0    0  0.41771182225E+01  0.17636188863E+02  0.21643660559E+02  0.96860024501E+02  0.92654912604E+02 0.  0.
         13    1    3    3    0    0  0.39822799039E+02  0.30449539806E+02 -0.52507634583E+01  0.50404478756E+02  0.10566000000E+00 0.  1.
         22    1    1    0    0    0 -0.41771182225E+01 -0.17636188863E+02 -0.21643660559E+02  0.28229975499E+02  0.00000000000E+00 0. -1.
</event>
<event>
 5    1  0.1264859E-009  0.9118800E+02  0.7815553E-02  0.1125453E+00
         25   -1    0    0    0    0  0.00000000000E+00  0.00000000000E+00  0.99999998245E-14  0.12509000000E+03  0.12509000000E+03 0.  0.
        -13    1    3    3    0    0 -0.50265636520E+01  0.21294134841E+02  0.55704484583E+02  0.59847366587E+02  0.10566000000E+00 0.  1.
         23    2    1    0    0    0 -0.14427019497E+02  0.52209287240E+01  0.25477560058E+02  0.95349403926E+02  0.90592526040E+02 0.  0.
         13    1    3    3    0    0 -0.94004558450E+01 -0.16073206117E+02 -0.30226924524E+02  0.35502037339E+02  0.10566000000E+00 0. -1.
         22    1    1    0    0    0  0.14427019497E+02 -0.52209287240E+01 -0.25477560058E+02  0.29740596074E+02  0.00000000000E+00 0.  1.
</event>
<event>
 5    1  0.1264859E-009  0.9118800E+02  0.7815553E-02  0.1125453E+00
         25   -1    0    0    0    0  0.00000000000E+00  0.00000000000E+00  0.99999998245E-14  0.12509000000E+03  0.12509000000E+03 0.  0.
        -13    1    3    3    0    0  0.28217204174E+02  0.39377174293E+02  0.27206872849E+02  0.55560755583E+02  0.10566000000E+00 0.  1.
         23    2    1    0    0    0  0.15390826757E+01  0.24432237620E+02 -0.51419574057E+01  0.10007514968E+03  0.96898363489E+02 0.  0.
         13    1    3    3    0    0 -0.26678121499E+02 -0.14944936673E+02 -0.32348830254E+02  0.44514394096E+02  0.10566000000E+00 0. -1.
         22    1    1    0    0    0 -0.15390826757E+01 -0.24432237620E+02  0.51419574057E+01  0.25014850321E+02  0.00000000000E+00 0. -1.
</event>
<event>
 5    1  0.1264859E-009  0.9118800E+02  0.7815553E-02  0.1125453E+00
         25   -1    0    0    0    0  0.00000000000E+00  0.00000000000E+00  0.99999998245E-14  0.12509000000E+03  0.12509000000E+03 0.  0.
        -13    1    3    3    0    0  0.11851520784E+02  0.50618742479E+02 -0.38846513360E+01  0.52132689505E+02  0.10566000000E+00 0. -1.
         23    2    1    0    0    0  0.10327829262E+02  0.12765443693E+02 -0.24754318117E+02  0.95384834197E+02  0.90641434893E+02 0.  0.
         13    1    3    3    0    0 -0.15236915222E+01 -0.37853298786E+02 -0.20869666781E+02  0.43252144692E+02  0.10566000000E+00 0.  1.
         22    1    1    0    0    0 -0.10327829262E+02 -0.12765443693E+02  0.24754318117E+02  0.29705165803E+02  0.00000000000E+00 0. -1.
</event>
<event>
 5    1  0.1264859E-009  0.9118800E+02  0.7815553E-02  0.1125453E+00
         25   -1    0    0    0    0  0.00000000000E+00  0.00000000000E+00  0.99999998245E-14  0.12509000000E+03  0.12509000000E+03 0.  0.
        -13    1    3    3    0    0  0.38450693240E+02  0.27219427740E+02 -0.10467490478E+02  0.48259015511E+02  0.10566000000E+00 0. -1.
         23    2    1    0    0    0 -0.54721907781E+01  0.14906526082E+02 -0.24419901682E+02  0.95961302983E+02  0.91433531488E+02 0.  0.
         13    1    3    3    0    0 -0.43922884018E+02 -0.12312901658E+02 -0.13952411204E+02  0.47702287473E+02  0.10566000000E+00 0.  1.
         22    1    1    0    0    0  0.54721907781E+01 -0.14906526082E+02  0.24419901682E+02  0.29128697017E+02  0.00000000000E+00 0.  1.
</event>
<event>
 5    1  0.1264859E-009  0.9118800E+02  0.7815553E-02  0.1125453E+00
         25   -1    0    0    0    0  0.00000000000E+00  0.00000000000E+00  0.99999998245E-14  0.12509000000E+03  0.12509000000E+03 0.  0.
        -13    1    3    3    0    0  0.12599536667E+02 -0.57938332008E+00 -0.53196027902E+02  0.54670948024E+02  0.10566000000E+00 0. -1.
         23    2    1    0    0    0  0.20280843292E+02 -0.15281381879E+02 -0.16874868770E+02  0.94600748898E+02  0.89552818265E+02 0.  0.
         13    1    3    3    0    0  0.76813066248E+01 -0.14701998559E+02  0.36321159132E+02  0.39929800874E+02  0.10566000000E+00 0.  1.
         22    1    1    0    0    0 -0.20280843292E+02  0.15281381879E+02  0.16874868770E+02  0.30489251102E+02  0.00000000000E+00 0. -1.
</event>
<event>
 5    1  0.1264859E-009  0.9118800E+02  0.7815553E-02  0.1125453E+00
         25   -1    0    0    0    0  0.00000000000E+00  0.00000000000E+00  0.99999998245E-14  0.12509000000E+03  0.12509000000E+03 0.  0.
        -13    1    3    3    0    0  0.17510616432E+02 -0.11745631740E+02  0.27414482454E+02  0.34585351885E+02  0.10566000000E+00 0. -1.
         23    2    1    0    0    0 -0.59818791333E+01 -0.15129980936E+01 -0.28414065559E+02  0.96013701013E+02  0.91505189030E+02 0.  0.
         13    1    3    3    0    0 -0.23492495565E+02  0.10232633647E+02 -0.55828548013E+02  0.61428349127E+02  0.10566000000E+00 0.  1.
         22    1    1    0    0    0  0.59818791333E+01  0.15129980936E+01  0.28414065559E+02  0.29076298987E+02  0.00000000000E+00 0.  1.
</event>
<event>
 5    1  0.1264859E-009  0.9118800E+02  0.7815553E-02  0.1125453E+00
         25   -1    0    0    0    0  0.00000000000E+00  0.00000000000E+00  0.99999998245E-14  0.12509000000E+03  0.12509000000E+03 0.  0.
        -13    1    3    3    0    0  0.33221810094E+02  0.39341762256E+02 -0.65940475109E+01  0.51912961290E+02  0.10566000000E+00 0.  1.
         23    2    1    0    0    0  0.26535590388E+02  0.12789205734E+01 -0.18917929975E+02  0.92476179776E+02  0.86534285439E+02 0.  0.
         13    1    3    3    0    0 -0.66862197055E+01 -0.38062841683E+02 -0.12323882464E+02  0.40563218486E+02  0.10566000000E+00 0. -1.
         22    1    1    0    0    0 -0.26535590388E+02 -0.12789205734E+01  0.18917929975E+02  0.32613820224E+02  0.00000000000E+00 0. -1.
</event>
<event>
 5    1  0.1264859E-009  0.9118800E+02  0.7815553E-02  0.1125453E+00
         25   -1    0    0    0    0  0.00000000000E+00  0.00000000000E+00  0.99999998245E-14  0.12509000000E+03  0.12509000000E+03 0.  0.
        -13    1    3    3    0    0  0.18432629822E+02  0.35432579957E+02  0.15227166910E+02  0.42744676168E+02  0.10566000000E+00 0. -1.
         23    2    1    0    0    0  0.26078716276E+02 -0.13445873991E+02 -0.32806306380E+01  0.95566221323E+02  0.90891414064E+02 0.  0.
         13    1    3    3    0    0  0.76460864536E+01 -0.48878453948E+02 -0.18507797548E+02  0.52821545155E+02  0.10566000000E+00 0.  1.
         22    1    1    0    0    0 -0.26078716276E+02  0.13445873991E+02  0.32806306380E+01  0.29523778677E+02  0.00000000000E+00 0.  1.
</event>
<event>
 5    1  0.1264859E-009  0.9118800E+02  0.7815553E-02  0.1125453E+00
         25   -1    0    0    0    0  0.00000000000E+00  0.00000000000E+00  0.99999998245E-14  0.12509000000E+03  0.12509000000E+03 0.  0.
        -13    1    3    3    0    0 -0.41247472925E+01  0.28677921003E+02  0.27528464061E+02  0.39965787755E+02  0.10566000000E+00 0.  1.
         23    2    1    0    0    0  0.32394543626E+02 -0.21819689610E+01  0.77330011663E+01  0.91713859536E+02  0.85425202830E+02 0.  0.
         13    1    3    3    0    0  0.36519290918E+02 -0.30859889964E+02 -0.19795462894E+02  0.51748071781E+02  0.10566000000E+00 0. -1.
         22    1    1    0    0    0 -0.32394543626E+02  0.21819689610E+01 -0.77330011663E+01  0.33376140464E+02  0.00000000000E+00 0. -1.
</event>
<event>
 5    1  0.1264859E-009  0.9118800E+02  0.7815553E-02  0.1125453E+00
         25   -1    0    0    0    0  0.00000000000E+00  0.00000000000E+00  0.99999998245E-14  0.12509000000E+03  0.12509000000E+03 0.  0.
        -13    1    3    3    0    0  0.25753081563E+02 -0.28270019972E+02  0.42300075043E+02  0.57023878787E+02  0.10566000000E+00 0. -1.
         23    2    1    0    0    0  0.79011967085E+00 -0.27622359999E+02  0.16620590552E+02  0.92843091755E+02  0.87063061027E+02 0.  0.
         13    1    3    3    0    0 -0.24962961893E+02  0.64765997217E+00 -0.25679484491E+02  0.35819212968E+02  0.10566000000E+00 0.  1.
         22    1    1    0    0    0 -0.79011967085E+00  0.27622359999E+02 -0.16620590552E+02  0.32246908245E+02  0.00000000000E+00 0. -1.
</event>
<event>
 5    1  0.1264859E-009  0.9118800E+02  0.7815553E-02  0.1125453E+00
         25   -1    0    0    0    0  0.00000000000E+00  0.00000000000E+00  0.99999998245E-14  0.12509000000E+03  0.12509000000E+03 0.  0.
        -13    1    3    3    0    0 -0.49914834803E+02  0.82889243983E+01 -0.18478318910E+02  0.53867025487E+02  0.10566000000E+00 0.  1.
         23    2    1    0    0    0 -0.25010524282E+02 -0.18579414863E+02 -0.25052400393E+01  0.93833045427E+02  0.88473969081E+02 0.  0.
         13    1    3    3    0    0  0.24904310521E+02 -0.26868339262E+02  0.15973078870E+02  0.39966019940E+02  0.10566000000E+00 0. -1.
         22    1    1    0    0    0  0.25010524282E+02  0.18579414863E+02  0.25052400393E+01  0.31256954573E+02  0.00000000000E+00 0.  1.
</event>
<event>
 5    1  0.1264859E-009  0.9118800E+02  0.7815553E-02  0.1125453E+00
         25   -1    0    0    0    0  0.00000000000E+00  0.00000000000E+00  0.99999998245E-14  0.12509000000E+03  0.12509000000E+03 0.  0.
        -13    1    3    3    0    0 -0.10355216232E+02  0.36189188348E+02 -0.30224579359E+02  0.48274467558E+02  0.10566000000E+00 0.  1.
         23    2    1    0    0    0  0.15385726738E+02 -0.38807397109E+01 -0.24019315933E+02  0.96302706521E+02  0.91899417938E+02 0.  0.
         13    1    3    3    0    0  0.25740942970E+02 -0.40069928059E+02  0.62052634261E+01  0.48028238963E+02  0.10566000000E+00 0. -1.
         22    1    1    0    0    0 -0.15385726738E+02  0.38807397109E+01  0.24019315933E+02  0.28787293479E+02  0.00000000000E+00 0. -1.
</event>
<event>
 5    1  0.1264859E-009  0.9118800E+02  0.7815553E-02  0.1125453E+00
         25   -1    0    0    0    0  0.00000000000E+00  0.00000000000E+00  0.99999998245E-14  0.12509000000E+03  0.12509000000E+03 0.  0.
        -13    1    3    3    0    0  0.28644723858E+02  0.42116308516E+02  0.23279446676E+02  0.56002209328E+02  0.10566000000E+00 0.  1.
         23    2    1    0    0    0  0.12723224828E+02  0.53715723906E+01  0.25479193459E+02  0.96108565610E+02  0.91634779666E+02 0.  0.
         13    1    3    3    0    0 -0.15921499031E+02 -0.36744736126E+02  0.21997467826E+01  0.40106356283E+02  0.10566000000E+00 0. -1.
         22    1    1    0    0    0 -0.12723224828E+02 -0.53715723906E+01 -0.25479193459E+02  0.28981434390E+02  0.00000000000E+00 0.  1.
</event>
<event>
 4    1  0.1264859E-009  0.9118800E+02  0.7815553E-02  0.1125453E+00
         25   -1    0    0    0    0  0.00000000000E+00  0.00000000000E+00  0.99999998245E-14  0.12509000000E+03  0.12509000000E+03 0.  0.
        -13    1    1    0    0    0 -0.20272488330E+02  0.13750057562E+01  0.30815085219E+02  0.36911313510E+02  0.10566000000E+00 0.  1.
         13    1    1    0    0    0 -0.44612932277E+01  0.35406027139E+02 -0.29153475389E+01  0.35805031914E+02  0.10566000000E+00 0. -1.
         22    1    1    0    0    0  0.24733781558E+02 -0.36781032895E+02 -0.27899737681E+02  0.52373654576E+02  0.00000000000E+00 0.  1.
</event>
<event>
 5    1  0.1264859E-009  0.9118800E+02  0.7815553E-02  0.1125453E+00
         25   -1    0    0    0    0  0.00000000000E+00  0.00000000000E+00  0.99999998245E-14  0.12509000000E+03  0.12509000000E+03 0.  0.
        -13    1    3    3    0    0  0.45437532196E+02 -0.10093206013E+02 -0.32600762065E+02  0.56826604605E+02  0.10566000000E+00 0. -1.
         23    2    1    0    0    0  0.28342994379E+02 -0.95509364287E+01  0.16765620857E+01  0.95134089440E+02  0.90294730722E+02 0.  0.
         13    1    3    3    0    0 -0.17094537817E+02  0.54226958450E+00  0.34277324150E+02  0.38307484835E+02  0.10566000000E+00 0.  1.
         22    1    1    0    0    0 -0.28342994379E+02  0.95509364287E+01 -0.16765620857E+01  0.29955910560E+02  0.00000000000E+00 0. -1.
</event>
<event>
 5    1  0.1264859E-009  0.9118800E+02  0.7815553E-02  0.1125453E+00
         25   -1    0    0    0    0  0.00000000000E+00  0.00000000000E+00  0.99999998245E-14  0.12509000000E+03  0.12509000000E+03 0.  0.
        -13    1    3    3    0    0  0.13293274826E+02 -0.41603281811E+01  0.21492145345E+02  0.25611383441E+02  0.10566000000E+00 0.  1.
         23    2    1    0    0    0  0.27751397659E+02  0.28559800393E+02 -0.20109786783E+02  0.80478277381E+02  0.66981694031E+02 0.  0.
         13    1    3    3    0    0  0.14458122834E+02  0.32720128574E+02 -0.41601932129E+02  0.54866893940E+02  0.10566000000E+00 0. -1.
         22    1    1    0    0    0 -0.27751397659E+02 -0.28559800393E+02  0.20109786783E+02  0.44611722619E+02  0.00000000000E+00 0. -1.
</event>
<event>
 5    1  0.1264859E-009  0.9118800E+02  0.7815553E-02  0.1125453E+00
         25   -1    0    0    0    0  0.00000000000E+00  0.00000000000E+00  0.99999998245E-14  0.12509000000E+03  0.12509000000E+03 0.  0.
        -13    1    3    3    0    0 -0.22829880971E+02 -0.21358491153E+02  0.17038630136E+02  0.35604981258E+02  0.10566000000E+00 0.  1.
         23    2    1    0    0    0  0.94182034205E+01  0.25325585769E+02 -0.69239173008E+01  0.97196838096E+02  0.93108521923E+02 0.  0.
         13    1    3    3    0    0  0.32248084391E+02  0.46684076922E+02 -0.23962547437E+02  0.61591856837E+02  0.10566000000E+00 0. -1.
         22    1    1    0    0    0 -0.94182034205E+01 -0.25325585769E+02  0.69239173008E+01  0.27893161904E+02  0.00000000000E+00 0. -1.
</event>
<event>
 5    1  0.1264859E-009  0.9118800E+02  0.7815553E-02  0.1125453E+00
         25   -1    0    0    0    0  0.00000000000E+00  0.00000000000E+00  0.99999998245E-14  0.12509000000E+03  0.12509000000E+03 0.  0.
        -13    1    3    3    0    0 -0.52852815523E+02  0.26166748307E+02  0.14709387182E+02  0.60782366365E+02  0.10566000000E+00 0.  1.
         23    2    1    0    0    0 -0.24608698390E+02  0.58413998361E+01  0.15196735000E+02  0.95583208525E+02  0.90914789824E+02 0.  0.
         13    1    3    3    0    0  0.28244117133E+02 -0.20325348470E+02  0.48734781835E+00  0.34800842159E+02  0.10566000000E+00 0. -1.
         22    1    1    0    0    0  0.24608698390E+02 -0.58413998361E+01 -0.15196735000E+02  0.29506791475E+02  0.00000000000E+00 0.  1.
</event>
<event>
 5    1  0.1264859E-009  0.9118800E+02  0.7815553E-02  0.1125453E+00
         25   -1    0    0    0    0  0.00000000000E+00  0.00000000000E+00  0.99999998245E-14  0.12509000000E+03  0.12509000000E+03 0.  0.
        -13    1    3    3    0    0  0.34982942689E+02 -0.39859632003E+01 -0.16014802260E+02  0.38680476177E+02  0.10566000000E+00 0.  1.
         23    2    1    0    0    0 -0.17530490370E+02 -0.23074858850E+02 -0.39533705004E+01  0.95842840448E+02  0.91271319280E+02 0.  0.
         13    1    3    3    0    0 -0.52513433060E+02 -0.19088895650E+02  0.12061431759E+02  0.57162364270E+02  0.10566000000E+00 0. -1.
         22    1    1    0    0    0  0.17530490370E+02  0.23074858850E+02  0.39533705004E+01  0.29247159552E+02  0.00000000000E+00 0. -1.
</event>
<event>
 5    1  0.1264859E-009  0.9118800E+02  0.7815553E-02  0.1125453E+00
         25   -1    0    0    0    0  0.00000000000E+00  0.00000000000E+00  0.99999998245E-14  0.12509000000E+03  0.12509000000E+03 0.  0.
        -13    1    3    3    0    0  0.33554837219E+02  0.37613980246E+02 -0.30235648196E+02  0.58778773351E+02  0.10566000000E+00 0.  1.
         23    2    1    0    0    0  0.15620937636E+02  0.69655546808E+01 -0.25185220727E+02  0.94646150249E+02  0.89616213763E+02 0.  0.
         13    1    3    3    0    0 -0.17933899584E+02 -0.30648425565E+02  0.50504274695E+01  0.35867376898E+02  0.10566000000E+00 0. -1.
         22    1    1    0    0    0 -0.15620937636E+02 -0.69655546808E+01  0.25185220727E+02  0.30443849751E+02  0.00000000000E+00 0.  1.
</event>
<event>
 5    1  0.1264859E-009  0.9118800E+02  0.7815553E-02  0.1125453E+00
         25   -1    0    0    0    0  0.00000000000E+00  0.00000000000E+00  0.99999998245E-14  0.12509000000E+03  0.12509000000E+03 0.  0.
        -13    1    3    3    0    0  0.45752884504E+02 -0.41570109937E+02 -0.86943110947E+01  0.62425977686E+02  0.10566000000E+00 0. -1.
         23    2    1    0    0    0  0.22682964506E+02 -0.17075299667E+02 -0.32323241604E+01  0.96514999440E+02  0.92187930121E+02 0.  0.
         13    1    3    3    0    0 -0.23069919998E+02  0.24494810269E+02  0.54619869343E+01  0.34089021754E+02  0.10566000000E+00 0.  1.
         22    1    1    0    0    0 -0.22682964506E+02  0.17075299667E+02  0.32323241604E+01  0.28575000560E+02  0.00000000000E+00 0. -1.
</event>
<event>
 5    1  0.1264859E-009  0.9118800E+02  0.7815553E-02  0.1125453E+00
         25   -1    0    0    0    0  0.00000000000E+00  0.00000000000E+00  0.99999998245E-14  0.12509000000E+03  0.12509000000E+03 0.  0.
        -13    1    3    3    0    0  0.20148218937E+02  0.27093502479E+02  0.57299780286E+01  0.34246932931E+02  0.10566000000E+00 0. -1.
         23    2    1    0    0    0 -0.26804028350E+01 -0.29502819185E+02  0.12151696062E+01  0.95440758249E+02  0.90718580229E+02 0.  0.
         13    1    3    3    0    0 -0.22828621772E+02 -0.56596321664E+02 -0.45148084224E+01  0.61193825318E+02  0.10566000000E+00 0.  1.
         22    1    1    0    0    0  0.26804028350E+01  0.29502819185E+02 -0.12151696062E+01  0.29649241751E+02  0.00000000000E+00 0.  1.
</event>
<event>
 5    1  0.1264859E-009  0.9118800E+02  0.7815553E-02  0.1125453E+00
         25   -1    0    0    0    0  0.00000000000E+00  0.00000000000E+00  0.99999998245E-14  0.12509000000E+03  0.12509000000E+03 0.  0.
        -13    1    3    3    0    0 -0.11459549088E+00  0.14726027234E+02 -0.60278448748E+02  0.62051362255E+02  0.10566000000E+00 0. -1.
         23    2    1    0    0    0 -0.56052011358E+01  0.71190290526E+01 -0.28785935160E+02  0.94911714471E+02  0.89986135745E+02 0.  0.
         13    1    3    3    0    0 -0.54906056449E+01 -0.76069981816E+01  0.31492513587E+02  0.32860352216E+02  0.10566000000E+00 0.  1.
         22    1    1    0    0    0  0.56052011358E+01 -0.71190290526E+01  0.28785935160E+02  0.30178285529E+02  0.00000000000E+00 0. -1.
</event>
<event>
 5    1  0.1264859E-009  0.9118800E+02  0.7815553E-02  0.1125453E+00
         25   -1    0    0    0    0  0.00000000000E+00  0.00000000000E+00  0.99999998245E-14  0.12509000000E+03  0.12509000000E+03 0.  0.
        -13    1    3    3    0    0 -0.62245934002E+01 -0.45596192462E+02  0.22952231688E+02  0.51425425944E+02  0.10566000000E+00 0. -1.
         23    2    1    0    0    0 -0.25792875248E+02 -0.70862001977E+01  0.73964975459E+01  0.97337615909E+02  0.93297463245E+02 0.  0.
         13    1    3    3    0    0 -0.19568281848E+02  0.38509992264E+02 -0.15555734142E+02  0.45912189965E+02  0.10566000000E+00 0.  1.
         22    1    1    0    0    0  0.25792875248E+02  0.70862001977E+01 -0.73964975459E+01  0.27752384091E+02  0.00000000000E+00 0. -1.
</event>
<event>
 5    1  0.1264859E-009  0.9118800E+02  0.7815553E-02  0.1125453E+00
         25   -1    0    0    0    0  0.00000000000E+00  0.00000000000E+00  0.99999998245E-14  0.12509000000E+03  0.12509000000E+03 0.  0.
        -13    1    3    3    0    0  0.44814337860E+02 -0.18565657967E-01  0.23891891255E+02  0.50785419702E+02  0.10566000000E+00 0.  1.
         23    2    1    0    0    0  0.26021942639E+01  0.16529219073E+02  0.23641635199E+02  0.96125997980E+02  0.91658573383E+02 0.  0.
         13    1    3    3    0    0 -0.42212143596E+02  0.16547784731E+02 -0.25025605571E+00  0.45340578278E+02  0.10566000000E+00 0. -1.
         22    1    1    0    0    0 -0.26021942639E+01 -0.16529219073E+02 -0.23641635199E+02  0.28964002020E+02  0.00000000000E+00 0.  1.
</event>
<event>
 5    1  0.1264859E-009  0.9118800E+02  0.7815553E-02  0.1125453E+00
         25   -1    0    0    0    0  0.00000000000E+00  0.00000000000E+00  0.99999998245E-14  0.12509000000E+03  0.12509000000E+03 0.  0.
        -13    1    3    3    0    0  0.19169323849E+02  0.13744714786E+02 -0.24912469728E+02  0.34307761124E+02  0.10566000000E+00 0. -1.
         23    2    1    0    0    0 -0.23080046730E+02  0.61812373654E+01  0.18132657823E+02  0.95095174911E+02  0.90240804291E+02 0.  0.
         13    1    3    3    0    0 -0.42249370578E+02 -0.75634774205E+01  0.43045127551E+02  0.60787413787E+02  0.10566000000E+00 0.  1.
         22    1    1    0    0    0  0.23080046730E+02 -0.61812373654E+01 -0.18132657823E+02  0.29994825089E+02  0.00000000000E+00 0.  1.
</event>
<event>
 5    1  0.1264859E-009  0.9118800E+02  0.7815553E-02  0.1125453E+00
         25   -1    0    0    0    0  0.00000000000E+00  0.00000000000E+00  0.99999998245E-14  0.12509000000E+03  0.12509000000E+03 0.  0.
        -13    1    3    3    0    0  0.17116375842E+02 -0.38048252081E+02 -0.22995451190E+02  0.47638658124E+02  0.10566000000E+00 0.  1.
         23    2    1    0    0    0  0.29224177519E+02  0.27851352859E+01 -0.67074645476E+00  0.95725745693E+02  0.91110696175E+02 0.  0.
         13    1    3    3    0    0  0.12107801676E+02  0.40833387367E+02  0.22324704736E+02  0.48087087569E+02  0.10566000000E+00 0. -1.
         22    1    1    0    0    0 -0.29224177519E+02 -0.27851352859E+01  0.67074645476E+00  0.29364254307E+02  0.00000000000E+00 0.  1.
</event>
<event>
 5    1  0.1264859E-009  0.9118800E+02  0.7815553E-02  0.1125453E+00
         25   -1    0    0    0    0  0.00000000000E+00  0.00000000000E+00  0.99999998245E-14  0.12509000000E+03  0.12509000000E+03 0.  0.
        -13    1    3    3    0    0 -0.33294189474E+02 -0.11112183021E+02 -0.17175147774E+02  0.39076598231E+02  0.10566000000E+00 0. -1.
         23    2    1    0    0    0  0.18734826209E+02 -0.21711728787E+02  0.37894402259E+01  0.96163321358E+02  0.91709495895E+02 0.  0.
         13    1    3    3    0    0  0.52029015683E+02 -0.10599545767E+02  0.20964588000E+02  0.57086723127E+02  0.10566000000E+00 0.  1.
         22    1    1    0    0    0 -0.18734826209E+02  0.21711728787E+02 -0.37894402259E+01  0.28926678642E+02  0.00000000000E+00 0.  1.
</event>
<event>
 5    1  0.1264859E-009  0.9118800E+02  0.7815553E-02  0.1125453E+00
         25   -1    0    0    0    0  0.00000000000E+00  0.00000000000E+00  0.99999998245E-14  0.12509000000E+03  0.12509000000E+03 0.  0.
        -13    1    3    3    0    0  0.93831396771E+01  0.23272344397E+02  0.28102694429E+02  0.37675163200E+02  0.10566000000E+00 0. -1.
         23    2    1    0    0    0  0.18393952225E+01 -0.29036974386E+02  0.41498031525E+01  0.95700373897E+02  0.91075855425E+02 0.  0.
         13    1    3    3    0    0 -0.75437444546E+01 -0.52309318783E+02 -0.23952891276E+02  0.58025210697E+02  0.10566000000E+00 0.  1.
         22    1    1    0    0    0 -0.18393952225E+01  0.29036974386E+02 -0.41498031525E+01  0.29389626103E+02  0.00000000000E+00 0.  1.
</event>
<event>
 5    1  0.1264859E-009  0.9118800E+02  0.7815553E-02  0.1125453E+00
         25   -1    0    0    0    0  0.00000000000E+00  0.00000000000E+00  0.99999998245E-14  0.12509000000E+03  0.12509000000E+03 0.  0.
        -13    1    3    3    0    0 -0.44054021240E+01 -0.11617663182E+02 -0.33373468641E+02  0.35611476224E+02  0.10566000000E+00 0. -1.
         23    2    1    0    0    0  0.10877201685E+02 -0.97719873458E+01  0.25080420355E+02  0.96058418259E+02  0.91566298276E+02 0.  0.
         13    1    3    3    0    0  0.15282603809E+02  0.18456758364E+01  0.58453888997E+02  0.60446942035E+02  0.10566000000E+00 0.  1.
         22    1    1    0    0    0 -0.10877201685E+02  0.97719873458E+01 -0.25080420355E+02  0.29031581741E+02  0.00000000000E+00 0.  1.
</event>
<event>
 5    1  0.1264859E-009  0.9118800E+02  0.7815553E-02  0.1125453E+00
         25   -1    0    0    0    0  0.00000000000E+00  0.00000000000E+00  0.99999998245E-14  0.12509000000E+03  0.12509000000E+03 0.  0.
        -13    1    3    3    0    0  0.28982881785E+02 -0.19236166797E+02 -0.43830820348E+02  0.55957032856E+02  0.10566000000E+00 0.  1.
         23    2    1    0    0    0  0.27564385960E+02 -0.19156297800E+01 -0.71461800198E+01  0.96549977230E+02  0.92235379348E+02 0.  0.
         13    1    3    3    0    0 -0.14184958245E+01  0.17320537017E+02  0.36684640328E+02  0.40592944375E+02  0.10566000000E+00 0. -1.
         22    1    1    0    0    0 -0.27564385960E+02  0.19156297800E+01  0.71461800198E+01  0.28540022770E+02  0.00000000000E+00 0.  1.
</event>
<event>
 5    1  0.1264859E-009  0.9118800E+02  0.7815553E-02  0.1125453E+00
         25   -1    0    0    0    0  0.00000000000E+00  0.00000000000E+00  0.99999998245E-14  0.12509000000E+03  0.12509000000E+03 0.  0.
        -13    1    3    3    0    0 -0.42833399532E+02  0.58296066878E+00  0.11892195722E+02  0.44457569004E+02  0.10566000000E+00 0. -1.
         23    2    1    0    0    0 -0.56926488543E+01 -0.20090101928E+02 -0.18884256477E+02  0.96936250886E+02  0.92757765965E+02 0.  0.
         13    1    3    3    0    0  0.37140750678E+02 -0.20673062597E+02 -0.30776452199E+02  0.52478681882E+02  0.10566000000E+00 0.  1.
         22    1    1    0    0    0  0.56926488543E+01  0.20090101928E+02  0.18884256477E+02  0.28153749114E+02  0.00000000000E+00 0.  1.
</event>
<event>
 5    1  0.1264859E-009  0.9118800E+02  0.7815553E-02  0.1125453E+00
         25   -1    0    0    0    0  0.00000000000E+00  0.00000000000E+00  0.99999998245E-14  0.12509000000E+03  0.12509000000E+03 0.  0.
        -13    1    3    3    0    0  0.60517024156E+02  0.31677138343E+01  0.81973033091E+00  0.60605509201E+02  0.10566000000E+00 0.  1.
         23    2    1    0    0    0  0.29518345866E+02  0.66072144659E+01  0.10188691064E+02  0.93171393337E+02  0.87533485508E+02 0.  0.
         13    1    3    3    0    0 -0.30998678290E+02  0.34395006317E+01  0.93689607330E+01  0.32565884136E+02  0.10566000000E+00 0. -1.
         22    1    1    0    0    0 -0.29518345866E+02 -0.66072144659E+01 -0.10188691064E+02  0.31918606663E+02  0.00000000000E+00 0.  1.
</event>
<event>
 5    1  0.1264859E-009  0.9118800E+02  0.7815553E-02  0.1125453E+00
         25   -1    0    0    0    0  0.00000000000E+00  0.00000000000E+00  0.99999998245E-14  0.12509000000E+03  0.12509000000E+03 0.  0.
        -13    1    3    3    0    0 -0.11826690568E+02 -0.32428032957E+02 -0.32689139110E+02  0.47539866544E+02  0.10566000000E+00 0. -1.
         23    2    1    0    0    0 -0.50890025366E+01  0.14911828778E+02 -0.24362299868E+02  0.96076516252E+02  0.91591018861E+02 0.  0.
         13    1    3    3    0    0  0.67376880310E+01  0.47339861735E+02  0.83268392420E+01  0.48536649708E+02  0.10566000000E+00 0.  1.
         22    1    1    0    0    0  0.50890025366E+01 -0.14911828778E+02  0.24362299868E+02  0.29013483748E+02  0.00000000000E+00 0.  1.
</event>
<event>
 5    1  0.1264859E-009  0.9118800E+02  0.7815553E-02  0.1125453E+00
         25   -1    0    0    0    0  0.00000000000E+00  0.00000000000E+00  0.99999998245E-14  0.12509000000E+03  0.12509000000E+03 0.  0.
        -13    1    3    3    0    0  0.14555251797E+00  0.48361241096E+02 -0.17023053918E+02  0.51270131214E+02  0.10566000000E+00 0. -1.
         23    2    1    0    0    0  0.24233070503E+02  0.15052053474E+02  0.18518272636E+01  0.96502672668E+02  0.92171202379E+02 0.  0.
         13    1    3    3    0    0  0.24087517985E+02 -0.33309187622E+02  0.18874881182E+02  0.45232541454E+02  0.10566000000E+00 0.  1.
         22    1    1    0    0    0 -0.24233070503E+02 -0.15052053474E+02 -0.18518272636E+01  0.28587327332E+02  0.00000000000E+00 0. -1.
</event>
<event>
 5    1  0.1264859E-009  0.9118800E+02  0.7815553E-02  0.1125453E+00
         25   -1    0    0    0    0  0.00000000000E+00  0.00000000000E+00  0.99999998245E-14  0.12509000000E+03  0.12509000000E+03 0.  0.
        -13    1    3    3    0    0 -0.51908622417E+02  0.18504253093E+01  0.22658394213E+02  0.56668714008E+02  0.10566000000E+00 0. -1.
         23    2    1    0    0    0 -0.30881640187E+02  0.92920903816E-02 -0.73391569410E+01  0.93348244982E+02  0.87785852104E+02 0.  0.
         13    1    3    3    0    0  0.21026982230E+02 -0.18411332189E+01 -0.29997551154E+02  0.36679530974E+02  0.10566000000E+00 0.  1.
         22    1    1    0    0    0  0.30881640187E+02 -0.92920903816E-02  0.73391569410E+01  0.31741755018E+02  0.00000000000E+00 0. -1.
</event>
<event>
 5    1  0.1264859E-009  0.9118800E+02  0.7815553E-02  0.1125453E+00
         25   -1    0    0    0    0  0.00000000000E+00  0.00000000000E+00  0.99999998245E-14  0.12509000000E+03  0.12509000000E+03 0.  0.
        -13    1    3    3    0    0  0.22656257903E+02 -0.27778258926E+02  0.14665630459E+02  0.38730215232E+02  0.10566000000E+00 0. -1.
         23    2    1    0    0    0 -0.28695264623E+02 -0.60115633992E+01  0.43404323523E+01  0.95452246048E+02  0.90734419138E+02 0.  0.
         13    1    3    3    0    0 -0.51351522526E+02  0.21766695527E+02 -0.10325198107E+02  0.56722030816E+02  0.10566000000E+00 0.  1.
         22    1    1    0    0    0  0.28695264623E+02  0.60115633992E+01 -0.43404323523E+01  0.29637753952E+02  0.00000000000E+00 0.  1.
</event>
<event>
 5    1  0.1264859E-009  0.9118800E+02  0.7815553E-02  0.1125453E+00
         25   -1    0    0    0    0  0.00000000000E+00  0.00000000000E+00  0.99999998245E-14  0.12509000000E+03  0.12509000000E+03 0.  0.
        -13    1    3    3    0    0  0.19689942397E+02 -0.78863204652E+01  0.29979891845E+02  0.36724555289E+02  0.10566000000E+00 0. -1.
         23    2    1    0    0    0  0.11462995825E+02  0.27277791524E+01 -0.27193178829E+02  0.95453704226E+02  0.90736429416E+02 0.  0.
         13    1    3    3    0    0 -0.82269465714E+01  0.10614099618E+02 -0.57173070674E+02  0.58729148937E+02  0.10566000000E+00 0.  1.
         22    1    1    0    0    0 -0.11462995825E+02 -0.27277791524E+01  0.27193178829E+02  0.29636295774E+02  0.00000000000E+00 0.  1.
</event>
<event>
 5    1  0.1264859E-009  0.9118800E+02  0.7815553E-02  0.1125453E+00
         25   -1    0    0    0    0  0.00000000000E+00  0.00000000000E+00  0.99999998245E-14  0.12509000000E+03  0.12509000000E+03 0.  0.
        -13    1    3    3    0    0  0.39823966905E+02 -0.66472162562E+01 -0.33172484116E+01  0.40511098789E+02  0.10566000000E+00 0.  1.
         23    2    1    0    0    0 -0.33713123644E+01  0.23364901044E+02 -0.18321521390E+02  0.95207521959E+02  0.90396403378E+02 0.  0.
         13    1    3    3    0    0 -0.43195279269E+02  0.30012117300E+02 -0.15004272978E+02  0.54696423170E+02  0.10566000000E+00 0. -1.
         22    1    1    0    0    0  0.33713123644E+01 -0.23364901044E+02  0.18321521390E+02  0.29882478041E+02  0.00000000000E+00 0. -1.
</event>
<event>
 5    1  0.1264859E-009  0.9118800E+02  0.7815553E-02  0.1125453E+00
         25   -1    0    0    0    0  0.00000000000E+00  0.00000000000E+00  0.99999998245E-14  0.12509000000E+03  0.12509000000E+03 0.  0.
        -13    1    3    3    0    0 -0.30768671974E+02  0.59782854074E+01 -0.24441277607E+02  0.39747179606E+02  0.10566000000E+00 0. -1.
         23    2    1    0    0    0  0.23634987624E+02 -0.56766405050E+01 -0.15918320853E+02  0.96034366705E+02  0.91533435215E+02 0.  0.
         13    1    3    3    0    0  0.54403659598E+02 -0.11654925912E+02  0.85229567540E+01  0.56287187099E+02  0.10566000000E+00 0.  1.
         22    1    1    0    0    0 -0.23634987624E+02  0.56766405050E+01  0.15918320853E+02  0.29055633295E+02  0.00000000000E+00 0.  1.
</event>
<event>
 5    1  0.1264859E-009  0.9118800E+02  0.7815553E-02  0.1125453E+00
         25   -1    0    0    0    0  0.00000000000E+00  0.00000000000E+00  0.99999998245E-14  0.12509000000E+03  0.12509000000E+03 0.  0.
        -13    1    3    3    0    0 -0.73606295649E+01 -0.24625708773E+02  0.20485340805E+02  0.32867381279E+02  0.10566000000E+00 0.  1.
         23    2    1    0    0    0 -0.13947154549E+02  0.22394912148E+02 -0.17294458769E+02  0.93543946138E+02  0.88064273942E+02 0.  0.
         13    1    3    3    0    0 -0.65865249845E+01  0.47020620922E+02 -0.37779799574E+02  0.60676564859E+02  0.10566000000E+00 0. -1.
         22    1    1    0    0    0  0.13947154549E+02 -0.22394912148E+02  0.17294458769E+02  0.31546053862E+02  0.00000000000E+00 0. -1.
</event>
<event>
 5    1  0.1264859E-009  0.9118800E+02  0.7815553E-02  0.1125453E+00
         25   -1    0    0    0    0  0.00000000000E+00  0.00000000000E+00  0.99999998245E-14  0.12509000000E+03  0.12509000000E+03 0.  0.
        -13    1    3    3    0    0  0.12745569738E+02  0.12225365704E+02 -0.46010681266E+02  0.49283902739E+02  0.10566000000E+00 0. -1.
         23    2    1    0    0    0 -0.12096272558E+02  0.10018703538E+02  0.70197736442E+01  0.10788617913E+03  0.10650566274E+03 0.  0.
         13    1    3    3    0    0 -0.24841842296E+02 -0.22066621661E+01  0.53030454911E+02  0.58602276395E+02  0.10566000000E+00 0.  1.
         22    1    1    0    0    0  0.12096272558E+02 -0.10018703538E+02 -0.70197736442E+01  0.17203820866E+02  0.00000000000E+00 0.  1.
</event>
<event>
 5    1  0.1264859E-009  0.9118800E+02  0.7815553E-02  0.1125453E+00
         25   -1    0    0    0    0  0.00000000000E+00  0.00000000000E+00  0.99999998245E-14  0.12509000000E+03  0.12509000000E+03 0.  0.
        -13    1    3    3    0    0  0.17295638890E+02 -0.37870188161E+02 -0.23518213628E+02  0.47816396898E+02  0.10566000000E+00 0. -1.
         23    2    1    0    0    0 -0.80486621377E+01  0.48929820239E+01 -0.25846779754E+02  0.97580396969E+02  0.93622409783E+02 0.  0.
         13    1    3    3    0    0 -0.25344301028E+02  0.42763170185E+02 -0.23285661257E+01  0.49764000071E+02  0.10566000000E+00 0.  1.
         22    1    1    0    0    0  0.80486621377E+01 -0.48929820239E+01  0.25846779754E+02  0.27509603031E+02  0.00000000000E+00 0.  1.
</event>
<event>
 5    1  0.1264859E-009  0.9118800E+02  0.7815553E-02  0.1125453E+00
         25   -1    0    0    0    0  0.00000000000E+00  0.00000000000E+00  0.99999998245E-14  0.12509000000E+03  0.12509000000E+03 0.  0.
        -13    1    3    3    0    0 -0.10279465442E+02  0.32630767645E+02 -0.21867275100E+01  0.34281589055E+02  0.10566000000E+00 0. -1.
         23    2    1    0    0    0 -0.13581795238E+02 -0.26478184608E+02  0.78170234942E+01  0.94322073870E+02  0.89162707119E+02 0.  0.
         13    1    3    3    0    0 -0.33023297962E+01 -0.59108952254E+02  0.10003751004E+02  0.60040484815E+02  0.10566000000E+00 0.  1.
         22    1    1    0    0    0  0.13581795238E+02  0.26478184608E+02 -0.78170234942E+01  0.30767926130E+02  0.00000000000E+00 0.  1.
</event>
<event>
 5    1  0.1264859E-009  0.9118800E+02  0.7815553E-02  0.1125453E+00
         25   -1    0    0    0    0  0.00000000000E+00  0.00000000000E+00  0.99999998245E-14  0.12509000000E+03  0.12509000000E+03 0.  0.
        -13    1    3    3    0    0  0.22230909952E+02  0.40625439889E+01  0.24030455849E+02  0.32987749140E+02  0.10566000000E+00 0. -1.
         23    2    1    0    0    0 -0.26587196522E+02 -0.64158712549E+01 -0.12662582358E+02  0.94950600290E+02  0.90040174815E+02 0.  0.
         13    1    3    3    0    0 -0.48818106474E+02 -0.10478415244E+02 -0.36693038207E+02  0.61962851151E+02  0.10566000000E+00 0.  1.
         22    1    1    0    0    0  0.26587196522E+02  0.64158712549E+01  0.12662582358E+02  0.30139399710E+02  0.00000000000E+00 0.  1.
</event>
<event>
 5    1  0.1264859E-009  0.9118800E+02  0.7815553E-02  0.1125453E+00
         25   -1    0    0    0    0  0.00000000000E+00  0.00000000000E+00  0.99999998245E-14  0.12509000000E+03  0.12509000000E+03 0.  0.
        -13    1    3    3    0    0 -0.17926411436E+02 -0.38830137965E+02  0.10941001984E+02  0.44145809878E+02  0.10566000000E+00 0.  1.
         23    2    1    0    0    0 -0.28565154395E+02  0.98954463118E+01  0.60632187478E+01  0.94257378884E+02  0.89071897640E+02 0.  0.
         13    1    3    3    0    0 -0.10638742959E+02  0.48725584277E+02 -0.48777832362E+01  0.50111569006E+02  0.10566000000E+00 0. -1.
         22    1    1    0    0    0  0.28565154395E+02 -0.98954463118E+01 -0.60632187478E+01  0.30832621116E+02  0.00000000000E+00 0. -1.
</event>
<event>
 5    1  0.1264859E-009  0.9118800E+02  0.7815553E-02  0.1125453E+00
         25   -1    0    0    0    0  0.00000000000E+00  0.00000000000E+00  0.99999998245E-14  0.12509000000E+03  0.12509000000E+03 0.  0.
        -13    1    3    3    0    0 -0.15817044681E+02  0.29689830842E+02 -0.36511411442E+02  0.49646342135E+02  0.10566000000E+00 0. -1.
         23    2    1    0    0    0  0.18614713049E+02  0.25146334663E+02 -0.17677795529E+02  0.89154639370E+02  0.81591663652E+02 0.  0.
         13    1    3    3    0    0  0.34431757730E+02 -0.45434961796E+01  0.18833615913E+02  0.39508297234E+02  0.10566000000E+00 0.  1.
         22    1    1    0    0    0 -0.18614713049E+02 -0.25146334663E+02  0.17677795529E+02  0.35935360630E+02  0.00000000000E+00 0. -1.
</event>
<event>
 5    1  0.1264859E-009  0.9118800E+02  0.7815553E-02  0.1125453E+00
         25   -1    0    0    0    0  0.00000000000E+00  0.00000000000E+00  0.99999998245E-14  0.12509000000E+03  0.12509000000E+03 0.  0.
        -13    1    3    3    0    0 -0.30447692342E+02  0.22541393854E+02  0.15570633772E+02  0.40958908749E+02  0.10566000000E+00 0. -1.
         23    2    1    0    0    0 -0.69617232286E+01 -0.26163457163E+02  0.12908665041E+02  0.95096238746E+02  0.90242278947E+02 0.  0.
         13    1    3    3    0    0  0.23485969113E+02 -0.48704851016E+02 -0.26619687307E+01  0.54137329998E+02  0.10566000000E+00 0.  1.
         22    1    1    0    0    0  0.69617232286E+01  0.26163457163E+02 -0.12908665041E+02  0.29993761254E+02  0.00000000000E+00 0. -1.
</event>
<event>
 5    1  0.1264859E-009  0.9118800E+02  0.7815553E-02  0.1125453E+00
         25   -1    0    0    0    0  0.00000000000E+00  0.00000000000E+00  0.99999998245E-14  0.12509000000E+03  0.12509000000E+03 0.  0.
        -13    1    3    3    0    0  0.55222044055E+02  0.64134029613E+01  0.24277358153E+02  0.60663062650E+02  0.10566000000E+00 0. -1.
         23    2    1    0    0    0  0.29620419785E+02 -0.64056959454E+01  0.74169080567E+01  0.93890436960E+02  0.88555075623E+02 0.  0.
         13    1    3    3    0    0 -0.25601624270E+02 -0.12819098907E+02 -0.16860450096E+02  0.33227374310E+02  0.10566000000E+00 0.  1.
         22    1    1    0    0    0 -0.29620419785E+02  0.64056959454E+01 -0.74169080567E+01  0.31199563040E+02  0.00000000000E+00 0. -1.
</event>
<event>
 5    1  0.1264859E-009  0.9118800E+02  0.7815553E-02  0.1125453E+00
         25   -1    0    0    0    0  0.00000000000E+00  0.00000000000E+00  0.99999998245E-14  0.12509000000E+03  0.12509000000E+03 0.  0.
        -13    1    3    3    0    0 -0.13756515011E+02  0.35368976750E+02 -0.51171584940E+01  0.38293637810E+02  0.10566000000E+00 0.  1.
         23    2    1    0    0    0  0.30523452055E+02  0.91917577761E+00 -0.22656291202E+01  0.94468780482E+02  0.89368290803E+02 0.  0.
         13    1    3    3    0    0  0.44279967066E+02 -0.34449800973E+02  0.28515293738E+01  0.56175142672E+02  0.10566000000E+00 0. -1.
         22    1    1    0    0    0 -0.30523452055E+02 -0.91917577761E+00  0.22656291202E+01  0.30621219518E+02  0.00000000000E+00 0. -1.
</event>
<event>
 5    1  0.1264859E-009  0.9118800E+02  0.7815553E-02  0.1125453E+00
         25   -1    0    0    0    0  0.00000000000E+00  0.00000000000E+00  0.99999998245E-14  0.12509000000E+03  0.12509000000E+03 0.  0.
        -13    1    3    3    0    0  0.69244180395E+01 -0.40518427198E+02 -0.42124711198E+02  0.58857395162E+02  0.10566000000E+00 0. -1.
         23    2    1    0    0    0  0.17278520147E+02 -0.20289319430E+02 -0.14093500148E+02  0.94943184449E+02  0.90029871629E+02 0.  0.
         13    1    3    3    0    0  0.10354102108E+02  0.20229107767E+02  0.28031211049E+02  0.36085789287E+02  0.10566000000E+00 0.  1.
         22    1    1    0    0    0 -0.17278520147E+02  0.20289319430E+02  0.14093500148E+02  0.30146815551E+02  0.00000000000E+00 0. -1.
</event>
<event>
 5    1  0.1264859E-009  0.9118800E+02  0.7815553E-02  0.1125453E+00
         25   -1    0    0    0    0  0.00000000000E+00  0.00000000000E+00  0.99999998245E-14  0.12509000000E+03  0.12509000000E+03 0.  0.
        -13    1    3    3    0    0  0.37603258060E+02  0.74183962141E+01 -0.10513299626E+02  0.39743908366E+02  0.10566000000E+00 0.  1.
         23    2    1    0    0    0 -0.39605338816E+01  0.10900064143E+02  0.26913835923E+02  0.95783826742E+02  0.91190403411E+02 0.  0.
         13    1    3    3    0    0 -0.41563791942E+02  0.34816679291E+01  0.37427135549E+02  0.56039918376E+02  0.10566000000E+00 0. -1.
         22    1    1    0    0    0  0.39605338816E+01 -0.10900064143E+02 -0.26913835923E+02  0.29306173258E+02  0.00000000000E+00 0. -1.
</event>
<event>
 5    1  0.1264859E-009  0.9118800E+02  0.7815553E-02  0.1125453E+00
         25   -1    0    0    0    0  0.00000000000E+00  0.00000000000E+00  0.99999998245E-14  0.12509000000E+03  0.12509000000E+03 0.  0.
        -13    1    3    3    0    0  0.36737649025E+02 -0.44368171422E+02  0.15408483219E+02  0.59629036638E+02  0.10566000000E+00 0.  1.
         23    2    1    0    0    0  0.26599038016E+02 -0.11343956325E+02  0.47208503127E+01  0.95790160476E+02  0.91199091266E+02 0.  0.
         13    1    3    3    0    0 -0.10138611009E+02  0.33024215098E+02 -0.10687632906E+02  0.36161123837E+02  0.10566000000E+00 0. -1.
         22    1    1    0    0    0 -0.26599038016E+02  0.11343956325E+02 -0.47208503127E+01  0.29299839524E+02  0.00000000000E+00 0.  1.
</event>
<event>
 5    1  0.1264859E-009  0.9118800E+02  0.7815553E-02  0.1125453E+00
         25   -1    0    0    0    0  0.00000000000E+00  0.00000000000E+00  0.99999998245E-14  0.12509000000E+03  0.12509000000E+03 0.  0.
        -13    1    3    3    0    0 -0.33615589695E+02  0.31586549402E+02  0.27987392207E+02  0.53953899398E+02  0.10566000000E+00 0.  1.
         23    2    1    0    0    0 -0.28860914194E+02 -0.43059279369E+01  0.11796060818E+02  0.93615559030E+02  0.88165937063E+02 0.  0.
         13    1    3    3    0    0  0.47546755005E+01 -0.35892477339E+02 -0.16191331389E+02  0.39661659632E+02  0.10566000000E+00 0. -1.
         22    1    1    0    0    0  0.28860914194E+02  0.43059279369E+01 -0.11796060818E+02  0.31474440970E+02  0.00000000000E+00 0.  1.
</event>
<event>
 5    1  0.1264859E-009  0.9118800E+02  0.7815553E-02  0.1125453E+00
         25   -1    0    0    0    0  0.00000000000E+00  0.00000000000E+00  0.99999998245E-14  0.12509000000E+03  0.12509000000E+03 0.  0.
        -13    1    3    3    0    0  0.89923568370E+01 -0.56942738810E+02 -0.22562491691E+02  0.61906503535E+02  0.10566000000E+00 0. -1.
         23    2    1    0    0    0  0.10355878433E+02 -0.25917713939E+02 -0.93506479196E+01  0.95655212240E+02  0.91013806086E+02 0.  0.
         13    1    3    3    0    0  0.13635215961E+01  0.31025024871E+02  0.13211843772E+02  0.33748708705E+02  0.10566000000E+00 0.  1.
         22    1    1    0    0    0 -0.10355878433E+02  0.25917713939E+02  0.93506479196E+01  0.29434787760E+02  0.00000000000E+00 0. -1.
</event>
<event>
 5    1  0.1264859E-009  0.9118800E+02  0.7815553E-02  0.1125453E+00
         25   -1    0    0    0    0  0.00000000000E+00  0.00000000000E+00  0.99999998245E-14  0.12509000000E+03  0.12509000000E+03 0.  0.
        -13    1    3    3    0    0 -0.29670421179E+01  0.51808689691E+02 -0.14804258540E+02  0.53964070467E+02  0.10566000000E+00 0.  1.
         23    2    1    0    0    0  0.21455326210E+02  0.18950967152E+02 -0.58491265308E+01  0.95872155111E+02  0.91311487042E+02 0.  0.
         13    1    3    3    0    0  0.24422368328E+02 -0.32857722539E+02  0.89551320088E+01  0.41908084644E+02  0.10566000000E+00 0. -1.
         22    1    1    0    0    0 -0.21455326210E+02 -0.18950967152E+02  0.58491265308E+01  0.29217844889E+02  0.00000000000E+00 0. -1.
</event>
<event>
 5    1  0.1264859E-009  0.9118800E+02  0.7815553E-02  0.1125453E+00
         25   -1    0    0    0    0  0.00000000000E+00  0.00000000000E+00  0.99999998245E-14  0.12509000000E+03  0.12509000000E+03 0.  0.
        -13    1    3    3    0    0 -0.31622696946E+02 -0.72370990465E+01 -0.42332823658E+02  0.53333382488E+02  0.10566000000E+00 0.  1.
         23    2    1    0    0    0 -0.35690240110E+01 -0.24573316456E+02 -0.15820756797E+02  0.95647137373E+02  0.91002707257E+02 0.  0.
         13    1    3    3    0    0  0.28053672935E+02 -0.17336217409E+02  0.26512066861E+02  0.42313754885E+02  0.10566000000E+00 0. -1.
         22    1    1    0    0    0  0.35690240110E+01  0.24573316456E+02  0.15820756797E+02  0.29442862627E+02  0.00000000000E+00 0. -1.
</event>
<event>
 5    1  0.1264859E-009  0.9118800E+02  0.7815553E-02  0.1125453E+00
         25   -1    0    0    0    0  0.00000000000E+00  0.00000000000E+00  0.99999998245E-14  0.12509000000E+03  0.12509000000E+03 0.  0.
        -13    1    3    3    0    0  0.36382916707E+01 -0.29837779537E+01  0.36157731944E+02  0.36462759639E+02  0.10566000000E+00 0.  1.
         23    2    1    0    0    0 -0.93978046554E+01  0.13152557264E+02 -0.21759563086E+02  0.97983043686E+02  0.94158853909E+02 0.  0.
         13    1    3    3    0    0 -0.13036096326E+02  0.16136335217E+02 -0.57917295029E+02  0.61520284047E+02  0.10566000000E+00 0. -1.
         22    1    1    0    0    0  0.93978046554E+01 -0.13152557264E+02  0.21759563086E+02  0.27106956314E+02  0.00000000000E+00 0. -1.
</event>
<event>
 5    1  0.1264859E-009  0.9118800E+02  0.7815553E-02  0.1125453E+00
         25   -1    0    0    0    0  0.00000000000E+00  0.00000000000E+00  0.99999998245E-14  0.12509000000E+03  0.12509000000E+03 0.  0.
        -13    1    3    3    0    0 -0.48460419652E+02 -0.29991298858E+02 -0.14706549241E+01  0.57009334937E+02  0.10566000000E+00 0. -1.
         23    2    1    0    0    0 -0.78156890932E+01 -0.26083845128E+02 -0.28033896376E+00  0.97858941214E+02  0.93993839228E+02 0.  0.
         13    1    3    3    0    0  0.40644730559E+02  0.39074537295E+01  0.11903159603E+01  0.40849606277E+02  0.10566000000E+00 0.  1.
         22    1    1    0    0    0  0.78156890932E+01  0.26083845128E+02  0.28033896376E+00  0.27231058786E+02  0.00000000000E+00 0. -1.
</event>
<event>
 5    1  0.1264859E-009  0.9118800E+02  0.7815553E-02  0.1125453E+00
         25   -1    0    0    0    0  0.00000000000E+00  0.00000000000E+00  0.99999998245E-14  0.12509000000E+03  0.12509000000E+03 0.  0.
        -13    1    3    3    0    0  0.41418542663E+02 -0.26650255594E+02  0.88401426441E+01  0.50038895727E+02  0.10566000000E+00 0. -1.
         23    2    1    0    0    0  0.50957703866E+01 -0.31258295015E+02 -0.10850601256E+02  0.91611896250E+02  0.85275765044E+02 0.  0.
         13    1    3    3    0    0 -0.36322772276E+02 -0.46080394213E+01 -0.19690743900E+02  0.41573000523E+02  0.10566000000E+00 0.  1.
         22    1    1    0    0    0 -0.50957703866E+01  0.31258295015E+02  0.10850601256E+02  0.33478103750E+02  0.00000000000E+00 0. -1.
</event>
<event>
 5    1  0.1264859E-009  0.9118800E+02  0.7815553E-02  0.1125453E+00
         25   -1    0    0    0    0  0.00000000000E+00  0.00000000000E+00  0.99999998245E-14  0.12509000000E+03  0.12509000000E+03 0.  0.
        -13    1    3    3    0    0 -0.14004243246E+02 -0.38025320966E+02 -0.86112390668E+01  0.41427146483E+02  0.10566000000E+00 0.  1.
         23    2    1    0    0    0 -0.20970610461E+02  0.17028149123E+02 -0.79772253597E+01  0.96923344357E+02  0.92740359021E+02 0.  0.
         13    1    3    3    0    0 -0.69663672150E+01  0.55053470089E+02  0.63401370710E+00  0.55496197874E+02  0.10566000000E+00 0. -1.
         22    1    1    0    0    0  0.20970610461E+02 -0.17028149123E+02  0.79772253597E+01  0.28166655643E+02  0.00000000000E+00 0. -1.
</event>
<event>
 5    1  0.1264859E-009  0.9118800E+02  0.7815553E-02  0.1125453E+00
         25   -1    0    0    0    0  0.00000000000E+00  0.00000000000E+00  0.99999998245E-14  0.12509000000E+03  0.12509000000E+03 0.  0.
        -13    1    3    3    0    0 -0.16696832484E+02 -0.36962328783E+02 -0.34495073564E+02  0.53243959548E+02  0.10566000000E+00 0.  1.
         23    2    1    0    0    0  0.16726987048E+02 -0.17026189204E+02 -0.16168614205E+02  0.96261068354E+02  0.91842724159E+02 0.  0.
         13    1    3    3    0    0  0.33423819532E+02  0.19936139579E+02  0.18326459360E+02  0.43017108807E+02  0.10566000000E+00 0. -1.
         22    1    1    0    0    0 -0.16726987048E+02  0.17026189204E+02  0.16168614205E+02  0.28828931646E+02  0.00000000000E+00 0.  1.
</event>
<event>
 5    1  0.1264859E-009  0.9118800E+02  0.7815553E-02  0.1125453E+00
         25   -1    0    0    0    0  0.00000000000E+00  0.00000000000E+00  0.99999998245E-14  0.12509000000E+03  0.12509000000E+03 0.  0.
        -13    1    3    3    0    0 -0.21724617583E+02  0.28013359539E+02  0.19551402688E+02  0.40484266486E+02  0.10566000000E+00 0.  1.
         23    2    1    0    0    0  0.25702079451E+02  0.16800844956E+02  0.18523594185E+02  0.89229313714E+02  0.81706068348E+02 0.  0.
         13    1    3    3    0    0  0.47426697035E+02 -0.11212514583E+02 -0.10278085028E+01  0.48745047228E+02  0.10566000000E+00 0. -1.
         22    1    1    0    0    0 -0.25702079451E+02 -0.16800844956E+02 -0.18523594185E+02  0.35860686286E+02  0.00000000000E+00 0. -1.
</event>
<event>
 5    1  0.1264859E-009  0.9118800E+02  0.7815553E-02  0.1125453E+00
         25   -1    0    0    0    0  0.00000000000E+00  0.00000000000E+00  0.99999998245E-14  0.12509000000E+03  0.12509000000E+03 0.  0.
        -13    1    3    3    0    0  0.26978844283E+02  0.17811163671E+02 -0.39707618987E+02  0.51203532688E+02  0.10566000000E+00 0. -1.
         23    2    1    0    0    0  0.27988721009E+02  0.62159254733E+01  0.37337716288E+01  0.96177247039E+02  0.91728488292E+02 0.  0.
         13    1    3    3    0    0  0.10098767257E+01 -0.11595238197E+02  0.43441390615E+02  0.44973714351E+02  0.10566000000E+00 0.  1.
         22    1    1    0    0    0 -0.27988721009E+02 -0.62159254733E+01 -0.37337716288E+01  0.28912752961E+02  0.00000000000E+00 0.  1.
</event>
<event>
 5    1  0.1264859E-009  0.9118800E+02  0.7815553E-02  0.1125453E+00
         25   -1    0    0    0    0  0.00000000000E+00  0.00000000000E+00  0.99999998245E-14  0.12509000000E+03  0.12509000000E+03 0.  0.
        -13    1    3    3    0    0  0.10102551026E+02 -0.98760162075E+01 -0.38854179686E+02  0.41343145459E+02  0.10566000000E+00 0. -1.
         23    2    1    0    0    0  0.11049645056E+02 -0.24179529297E+02  0.13252124509E+02  0.95385402765E+02  0.90642219543E+02 0.  0.
         13    1    3    3    0    0  0.94709402964E+00 -0.14303513090E+02  0.52106304195E+02  0.54042257306E+02  0.10566000000E+00 0.  1.
         22    1    1    0    0    0 -0.11049645056E+02  0.24179529297E+02 -0.13252124509E+02  0.29704597235E+02  0.00000000000E+00 0.  1.
</event>
<event>
 5    1  0.1264859E-009  0.9118800E+02  0.7815553E-02  0.1125453E+00
         25   -1    0    0    0    0  0.00000000000E+00  0.00000000000E+00  0.99999998245E-14  0.12509000000E+03  0.12509000000E+03 0.  0.
        -13    1    3    3    0    0  0.15120026595E+02  0.44709772111E+02  0.21967072027E+02  0.52059027497E+02  0.10566000000E+00 0. -1.
         23    2    1    0    0    0 -0.14063983050E+02  0.13000546499E+02  0.22991613768E+02  0.95166361649E+02  0.90339428033E+02 0.  0.
         13    1    3    3    0    0 -0.29184009645E+02 -0.31709225612E+02  0.10245417412E+01  0.43107334152E+02  0.10566000000E+00 0.  1.
         22    1    1    0    0    0  0.14063983050E+02 -0.13000546499E+02 -0.22991613768E+02  0.29923638351E+02  0.00000000000E+00 0. -1.
</event>
<event>
 5    1  0.1264859E-009  0.9118800E+02  0.7815553E-02  0.1125453E+00
         25   -1    0    0    0    0  0.00000000000E+00  0.00000000000E+00  0.99999998245E-14  0.12509000000E+03  0.12509000000E+03 0.  0.
        -13    1    3    3    0    0 -0.15878584564E+02 -0.42477027613E+02  0.10813883981E+02  0.46619508506E+02  0.10566000000E+00 0. -1.
         23    2    1    0    0    0  0.98157056010E+01 -0.48100604878E+01  0.27754152626E+02  0.95260857432E+02  0.90470178580E+02 0.  0.
         13    1    3    3    0    0  0.25694290165E+02  0.37666967125E+02  0.16940268645E+02  0.48641348926E+02  0.10566000000E+00 0.  1.
         22    1    1    0    0    0 -0.98157056010E+01  0.48100604878E+01 -0.27754152626E+02  0.29829142568E+02  0.00000000000E+00 0. -1.
</event>
<event>
 5    1  0.1264859E-009  0.9118800E+02  0.7815553E-02  0.1125453E+00
         25   -1    0    0    0    0  0.00000000000E+00  0.00000000000E+00  0.99999998245E-14  0.12509000000E+03  0.12509000000E+03 0.  0.
        -13    1    3    3    0    0 -0.79223838183E+01 -0.21235318280E+02  0.53765545133E+02  0.58347647042E+02  0.10566000000E+00 0.  1.
         23    2    1    0    0    0  0.26881165878E+01 -0.22232282879E+02  0.16055121036E+02  0.97535194897E+02  0.93561995272E+02 0.  0.
         13    1    3    3    0    0  0.10610500406E+02 -0.99696459828E+00 -0.37710424097E+02  0.39187547855E+02  0.10566000000E+00 0. -1.
         22    1    1    0    0    0 -0.26881165878E+01  0.22232282879E+02 -0.16055121036E+02  0.27554805103E+02  0.00000000000E+00 0.  1.
</event>
<event>
 5    1  0.1264859E-009  0.9118800E+02  0.7815553E-02  0.1125453E+00
         25   -1    0    0    0    0  0.00000000000E+00  0.00000000000E+00  0.99999998245E-14  0.12509000000E+03  0.12509000000E+03 0.  0.
        -13    1    3    3    0    0 -0.27683761410E+02  0.57554968290E+01  0.42345863504E+02  0.50918559578E+02  0.10566000000E+00 0. -1.
         23    2    1    0    0    0 -0.58794025537E+01  0.27607717364E+02  0.11343282074E+02  0.94669226166E+02  0.89648418292E+02 0.  0.
         13    1    3    3    0    0  0.21804358857E+02  0.21852220535E+02 -0.31002581430E+02  0.43750666587E+02  0.10566000000E+00 0.  1.
         22    1    1    0    0    0  0.58794025537E+01 -0.27607717364E+02 -0.11343282074E+02  0.30420773834E+02  0.00000000000E+00 0. -1.
</event>
<event>
 5    1  0.1264859E-009  0.9118800E+02  0.7815553E-02  0.1125453E+00
         25   -1    0    0    0    0  0.00000000000E+00  0.00000000000E+00  0.99999998245E-14  0.12509000000E+03  0.12509000000E+03 0.  0.
        -13    1    3    3    0    0 -0.26346988813E+02 -0.39968285319E+02  0.10814086550E+02  0.49077319434E+02  0.10566000000E+00 0. -1.
         23    2    1    0    0    0 -0.17847393855E+02 -0.12644361816E+02 -0.22983700669E+02  0.93362096672E+02  0.87805587780E+02 0.  0.
         13    1    3    3    0    0  0.84995949586E+01  0.27323923503E+02 -0.33797787219E+02  0.44284777238E+02  0.10566000000E+00 0.  1.
         22    1    1    0    0    0  0.17847393855E+02  0.12644361816E+02  0.22983700669E+02  0.31727903328E+02  0.00000000000E+00 0.  1.
</event>
<event>
 5    1  0.1264859E-009  0.9118800E+02  0.7815553E-02  0.1125453E+00
         25   -1    0    0    0    0  0.00000000000E+00  0.00000000000E+00  0.99999998245E-14  0.12509000000E+03  0.12509000000E+03 0.  0.
        -13    1    3    3    0    0 -0.11435379786E+01 -0.91490127779E+01  0.42878827423E+02  0.43859059715E+02  0.10566000000E+00 0. -1.
         23    2    1    0    0    0  0.27148613097E+02  0.10540169592E+02  0.42037110869E+01  0.95665290060E+02  0.91027656057E+02 0.  0.
         13    1    3    3    0    0  0.28292151076E+02  0.19689182370E+02 -0.38675116336E+02  0.51806230345E+02  0.10566000000E+00 0.  1.
         22    1    1    0    0    0 -0.27148613097E+02 -0.10540169592E+02 -0.42037110869E+01  0.29424709940E+02  0.00000000000E+00 0. -1.
</event>
<event>
 5    1  0.1264859E-009  0.9118800E+02  0.7815553E-02  0.1125453E+00
         25   -1    0    0    0    0  0.00000000000E+00  0.00000000000E+00  0.99999998245E-14  0.12509000000E+03  0.12509000000E+03 0.  0.
        -13    1    3    3    0    0  0.10563093929E+02  0.43333596273E+01  0.40739364918E+02  0.42309147675E+02  0.10566000000E+00 0.  1.
         23    2    1    0    0    0  0.11231020326E+02  0.25534802831E+02 -0.85040592029E+01  0.95926992677E+02  0.91386579584E+02 0.  0.
         13    1    3    3    0    0  0.66792639684E+00  0.21201443204E+02 -0.49243424121E+02  0.53617845003E+02  0.10566000000E+00 0. -1.
         22    1    1    0    0    0 -0.11231020326E+02 -0.25534802831E+02  0.85040592029E+01  0.29163007323E+02  0.00000000000E+00 0. -1.
</event>
<event>
 5    1  0.1264859E-009  0.9118800E+02  0.7815553E-02  0.1125453E+00
         25   -1    0    0    0    0  0.00000000000E+00  0.00000000000E+00  0.99999998245E-14  0.12509000000E+03  0.12509000000E+03 0.  0.
        -13    1    3    3    0    0  0.27734865276E+02  0.55031620572E+02  0.13357879379E+01  0.61640064147E+02  0.10566000000E+00 0.  1.
         23    2    1    0    0    0  0.20277325399E+02  0.23577572447E+02  0.12691775837E+01  0.93966332807E+02  0.88662218794E+02 0.  0.
         13    1    3    3    0    0 -0.74575398771E+01 -0.31454048125E+02 -0.66610354296E-01  0.32326268659E+02  0.10566000000E+00 0. -1.
         22    1    1    0    0    0 -0.20277325399E+02 -0.23577572447E+02 -0.12691775837E+01  0.31123667193E+02  0.00000000000E+00 0.  1.
</event>
<event>
 5    1  0.1264859E-009  0.9118800E+02  0.7815553E-02  0.1125453E+00
         25   -1    0    0    0    0  0.00000000000E+00  0.00000000000E+00  0.99999998245E-14  0.12509000000E+03  0.12509000000E+03 0.  0.
        -13    1    3    3    0    0  0.97695610245E+00  0.71049372054E+00 -0.51795968225E+02  0.51810160519E+02  0.10566000000E+00 0. -1.
         23    2    1    0    0    0  0.24140377846E+02 -0.63789246434E+01 -0.14699612639E+02  0.96115405372E+02  0.91644116101E+02 0.  0.
         13    1    3    3    0    0  0.23163421743E+02 -0.70894183639E+01  0.37096355587E+02  0.44305244853E+02  0.10566000000E+00 0.  1.
         22    1    1    0    0    0 -0.24140377846E+02  0.63789246434E+01  0.14699612639E+02  0.28974594628E+02  0.00000000000E+00 0.  1.
</event>
<event>
 5    1  0.1264859E-009  0.9118800E+02  0.7815553E-02  0.1125453E+00
         25   -1    0    0    0    0  0.00000000000E+00  0.00000000000E+00  0.99999998245E-14  0.12509000000E+03  0.12509000000E+03 0.  0.
        -13    1    3    3    0    0  0.47891917155E+01 -0.13284373637E+02 -0.44804758375E+02  0.46977531622E+02  0.10566000000E+00 0.  1.
         23    2    1    0    0    0  0.18462898702E+02 -0.26016315593E+02 -0.26608000607E+01  0.93077390571E+02  0.87399047323E+02 0.  0.
         13    1    3    3    0    0  0.13673706986E+02 -0.12731941956E+02  0.42143958314E+02  0.46099858949E+02  0.10566000000E+00 0. -1.
         22    1    1    0    0    0 -0.18462898702E+02  0.26016315593E+02  0.26608000607E+01  0.32012609429E+02  0.00000000000E+00 0. -1.
</event>
<event>
 5    1  0.1264859E-009  0.9118800E+02  0.7815553E-02  0.1125453E+00
         25   -1    0    0    0    0  0.00000000000E+00  0.00000000000E+00  0.99999998245E-14  0.12509000000E+03  0.12509000000E+03 0.  0.
        -13    1    3    3    0    0  0.12203819675E+02  0.26627672432E+02  0.47917422570E+02  0.56160989161E+02  0.10566000000E+00 0.  1.
         23    2    1    0    0    0  0.61460442025E+01 -0.46661162720E+01  0.32717994331E+02  0.91474324290E+02  0.85073723034E+02 0.  0.
         13    1    3    3    0    0 -0.60577754722E+01 -0.31293788704E+02 -0.15199428239E+02  0.35313335129E+02  0.10566000000E+00 0. -1.
         22    1    1    0    0    0 -0.61460442025E+01  0.46661162720E+01 -0.32717994331E+02  0.33615675710E+02  0.00000000000E+00 0.  1.
</event>
<event>
 5    1  0.1264859E-009  0.9118800E+02  0.7815553E-02  0.1125453E+00
         25   -1    0    0    0    0  0.00000000000E+00  0.00000000000E+00  0.99999998245E-14  0.12509000000E+03  0.12509000000E+03 0.  0.
        -13    1    3    3    0    0 -0.57714903493E+01  0.40956894399E+02 -0.46393712510E+02  0.62154364482E+02  0.10566000000E+00 0.  1.
         23    2    1    0    0    0  0.13061341629E+01  0.18296129472E+02 -0.24778884590E+02  0.94260672054E+02  0.89076522352E+02 0.  0.
         13    1    3    3    0    0  0.70776245121E+01 -0.22660764927E+02  0.21614827921E+02  0.32106307572E+02  0.10566000000E+00 0. -1.
         22    1    1    0    0    0 -0.13061341629E+01 -0.18296129472E+02  0.24778884590E+02  0.30829327946E+02  0.00000000000E+00 0.  1.
</event>
<event>
 5    1  0.1264859E-009  0.9118800E+02  0.7815553E-02  0.1125453E+00
         25   -1    0    0    0    0  0.00000000000E+00  0.00000000000E+00  0.99999998245E-14  0.12509000000E+03  0.12509000000E+03 0.  0.
        -13    1    3    3    0    0 -0.39744304891E+02 -0.20424930775E+02 -0.88601293385E+01  0.45555467557E+02  0.10566000000E+00 0.  1.
         23    2    1    0    0    0  0.85120599404E+01 -0.17944229333E+02 -0.21821238195E+02  0.95583780873E+02  0.90915577317E+02 0.  0.
         13    1    3    3    0    0  0.48256364832E+02  0.24807014419E+01 -0.12961108857E+02  0.50028313316E+02  0.10566000000E+00 0. -1.
         22    1    1    0    0    0 -0.85120599404E+01  0.17944229333E+02  0.21821238195E+02  0.29506219127E+02  0.00000000000E+00 0. -1.
</event>
<event>
 5    1  0.1264859E-009  0.9118800E+02  0.7815553E-02  0.1125453E+00
         25   -1    0    0    0    0  0.00000000000E+00  0.00000000000E+00  0.99999998245E-14  0.12509000000E+03  0.12509000000E+03 0.  0.
        -13    1    3    3    0    0 -0.45976492501E+02 -0.35903374746E+02 -0.18192595509E+01  0.58362753963E+02  0.10566000000E+00 0.  1.
         23    2    1    0    0    0 -0.29359334229E+02 -0.48811467846E+01 -0.83992145030E+01  0.94165205666E+02  0.88942358039E+02 0.  0.
         13    1    3    3    0    0  0.16617158272E+02  0.31022227962E+02 -0.65799549521E+01  0.35802451703E+02  0.10566000000E+00 0. -1.
         22    1    1    0    0    0  0.29359334229E+02  0.48811467846E+01  0.83992145030E+01  0.30924794334E+02  0.00000000000E+00 0.  1.
</event>
<event>
 5    1  0.1264859E-009  0.9118800E+02  0.7815553E-02  0.1125453E+00
         25   -1    0    0    0    0  0.00000000000E+00  0.00000000000E+00  0.99999998245E-14  0.12509000000E+03  0.12509000000E+03 0.  0.
        -13    1    3    3    0    0  0.83033645088E+01 -0.26987462028E+02  0.24670601579E+02  0.37495582609E+02  0.10566000000E+00 0.  1.
         23    2    1    0    0    0  0.19168086725E+02  0.15022683318E+02 -0.15165256750E+02  0.96400601696E+02  0.92032572670E+02 0.  0.
         13    1    3    3    0    0  0.10864722216E+02  0.42010145346E+02 -0.39835858328E+02  0.58905019087E+02  0.10566000000E+00 0. -1.
         22    1    1    0    0    0 -0.19168086725E+02 -0.15022683318E+02  0.15165256750E+02  0.28689398304E+02  0.00000000000E+00 0. -1.
</event>
<event>
 5    1  0.1264859E-009  0.9118800E+02  0.7815553E-02  0.1125453E+00
         25   -1    0    0    0    0  0.00000000000E+00  0.00000000000E+00  0.99999998245E-14  0.12509000000E+03  0.12509000000E+03 0.  0.
        -13    1    3    3    0    0 -0.15726148942E+02  0.46133722294E+02  0.37882868276E+02  0.61731312688E+02  0.10566000000E+00 0. -1.
         23    2    1    0    0    0  0.21951895301E+00  0.21122030673E+02  0.15644106049E+02  0.98804520693E+02  0.95243933597E+02 0.  0.
         13    1    3    3    0    0  0.15945667895E+02 -0.25011691622E+02 -0.22238762227E+02  0.37073208005E+02  0.10566000000E+00 0.  1.
         22    1    1    0    0    0 -0.21951895301E+00 -0.21122030673E+02 -0.15644106049E+02  0.26285479307E+02  0.00000000000E+00 0. -1.
</event>
<event>
 5    1  0.1264859E-009  0.9118800E+02  0.7815553E-02  0.1125453E+00
         25   -1    0    0    0    0  0.00000000000E+00  0.00000000000E+00  0.99999998245E-14  0.12509000000E+03  0.12509000000E+03 0.  0.
        -13    1    3    3    0    0  0.16501955883E+01 -0.54831787666E+02  0.81481358600E+01  0.55458555392E+02  0.10566000000E+00 0. -1.
         23    2    1    0    0    0 -0.15656781042E+02 -0.20668547261E+02  0.16095141839E+02  0.94571526426E+02  0.89511990153E+02 0.  0.
         13    1    3    3    0    0 -0.17306976631E+02  0.34163240405E+02  0.79470059787E+01  0.39112971034E+02  0.10566000000E+00 0.  1.
         22    1    1    0    0    0  0.15656781042E+02  0.20668547261E+02 -0.16095141839E+02  0.30518473574E+02  0.00000000000E+00 0. -1.
</event>
<event>
 5    1  0.1264859E-009  0.9118800E+02  0.7815553E-02  0.1125453E+00
         25   -1    0    0    0    0  0.00000000000E+00  0.00000000000E+00  0.99999998245E-14  0.12509000000E+03  0.12509000000E+03 0.  0.
        -13    1    3    3    0    0 -0.18869191338E+02  0.33265244700E+02  0.33325749072E+02  0.50727109142E+02  0.10566000000E+00 0.  1.
         23    2    1    0    0    0  0.17304283290E+02  0.22810734147E+02  0.17203197220E+02  0.91687637702E+02  0.85386796990E+02 0.  0.
         13    1    3    3    0    0  0.36173474628E+02 -0.10454510553E+02 -0.16122551852E+02  0.40960528559E+02  0.10566000000E+00 0. -1.
         22    1    1    0    0    0 -0.17304283290E+02 -0.22810734147E+02 -0.17203197220E+02  0.33402362298E+02  0.00000000000E+00 0. -1.
</event>
<event>
 5    1  0.1264859E-009  0.9118800E+02  0.7815553E-02  0.1125453E+00
         25   -1    0    0    0    0  0.00000000000E+00  0.00000000000E+00  0.99999998245E-14  0.12509000000E+03  0.12509000000E+03 0.  0.
        -13    1    3    3    0    0 -0.28404927798E+02 -0.48803547732E+01 -0.24719065663E+02  0.37969740020E+02  0.10566000000E+00 0.  1.
         23    2    1    0    0    0 -0.60989375175E+01  0.16866629832E+02  0.23592208137E+02  0.95454336932E+02  0.90737301666E+02 0.  0.
         13    1    3    3    0    0  0.22305990280E+02  0.21746984605E+02  0.48311273800E+02  0.57484596911E+02  0.10566000000E+00 0. -1.
         22    1    1    0    0    0  0.60989375175E+01 -0.16866629832E+02 -0.23592208137E+02  0.29635663068E+02  0.00000000000E+00 0. -1.
</event>
<event>
 5    1  0.1264859E-009  0.9118800E+02  0.7815553E-02  0.1125453E+00
         25   -1    0    0    0    0  0.00000000000E+00  0.00000000000E+00  0.99999998245E-14  0.12509000000E+03  0.12509000000E+03 0.  0.
        -13    1    3    3    0    0  0.30237474585E+02 -0.26010205468E+02 -0.13932146218E+02  0.42248686607E+02  0.10566000000E+00 0.  1.
         23    2    1    0    0    0  0.43187801250E+01 -0.65517810904E+01  0.28435655885E+02  0.95591453886E+02  0.90926133939E+02 0.  0.
         13    1    3    3    0    0 -0.25918694460E+02  0.19458424378E+02  0.42367802103E+02  0.53342767278E+02  0.10566000000E+00 0. -1.
         22    1    1    0    0    0 -0.43187801250E+01  0.65517810904E+01 -0.28435655885E+02  0.29498546114E+02  0.00000000000E+00 0. -1.
</event>
<event>
 5    1  0.1264859E-009  0.9118800E+02  0.7815553E-02  0.1125453E+00
         25   -1    0    0    0    0  0.00000000000E+00  0.00000000000E+00  0.99999998245E-14  0.12509000000E+03  0.12509000000E+03 0.  0.
        -13    1    3    3    0    0 -0.86755345756E+01 -0.28497951358E+02 -0.18677827046E+02  0.35160638774E+02  0.10566000000E+00 0.  1.
         23    2    1    0    0    0  0.18068681305E+02  0.23246980266E+02 -0.96620858606E+01  0.94102014606E+02  0.88853440643E+02 0.  0.
         13    1    3    3    0    0  0.26744215881E+02  0.51744931624E+02  0.90157411849E+01  0.58941375832E+02  0.10566000000E+00 0. -1.
         22    1    1    0    0    0 -0.18068681305E+02 -0.23246980266E+02  0.96620858606E+01  0.30987985394E+02  0.00000000000E+00 0. -1.
</event>
<event>
 5    1  0.1264859E-009  0.9118800E+02  0.7815553E-02  0.1125453E+00
         25   -1    0    0    0    0  0.00000000000E+00  0.00000000000E+00  0.99999998245E-14  0.12509000000E+03  0.12509000000E+03 0.  0.
        -13    1    3    3    0    0  0.34118514046E+02 -0.29730638901E+02 -0.10378727848E+02  0.46429656966E+02  0.10566000000E+00 0.  1.
         23    2    1    0    0    0 -0.89526215228E+00 -0.25689761333E+01 -0.30052516084E+02  0.94914598500E+02  0.89990144754E+02 0.  0.
         13    1    3    3    0    0 -0.35013776199E+02  0.27161662768E+02 -0.19673788235E+02  0.48484941534E+02  0.10566000000E+00 0. -1.
         22    1    1    0    0    0  0.89526215228E+00  0.25689761333E+01  0.30052516084E+02  0.30175401500E+02  0.00000000000E+00 0.  1.
</event>
<event>
 5    1  0.1264859E-009  0.9118800E+02  0.7815553E-02  0.1125453E+00
         25   -1    0    0    0    0  0.00000000000E+00  0.00000000000E+00  0.99999998245E-14  0.12509000000E+03  0.12509000000E+03 0.  0.
        -13    1    3    3    0    0 -0.23292975311E+02 -0.30709947386E+02  0.10023990989E+01  0.38557483518E+02  0.10566000000E+00 0.  1.
         23    2    1    0    0    0 -0.10776824070E+02  0.14668444595E+02  0.27148606266E+02  0.92404375851E+02  0.86430426647E+02 0.  0.
         13    1    3    3    0    0  0.12516151240E+02  0.45378391981E+02  0.26146207167E+02  0.53846892332E+02  0.10566000000E+00 0. -1.
         22    1    1    0    0    0  0.10776824070E+02 -0.14668444595E+02 -0.27148606266E+02  0.32685624149E+02  0.00000000000E+00 0. -1.
</event>
<event>
 5    1  0.1264859E-009  0.9118800E+02  0.7815553E-02  0.1125453E+00
         25   -1    0    0    0    0  0.00000000000E+00  0.00000000000E+00  0.99999998245E-14  0.12509000000E+03  0.12509000000E+03 0.  0.
        -13    1    3    3    0    0 -0.16654002098E+02  0.51864431246E+02 -0.18090126117E+02  0.57398073499E+02  0.10566000000E+00 0.  1.
         23    2    1    0    0    0  0.25607413852E+01  0.36067202409E+02  0.12553020577E+01  0.88910222923E+02  0.81216078894E+02 0.  0.
         13    1    3    3    0    0  0.19214743483E+02 -0.15797228837E+02  0.19345428175E+02  0.31512149425E+02  0.10566000000E+00 0. -1.
         22    1    1    0    0    0 -0.25607413852E+01 -0.36067202409E+02 -0.12553020577E+01  0.36179777077E+02  0.00000000000E+00 0.  1.
</event>
<event>
 5    1  0.1264859E-009  0.9118800E+02  0.7815553E-02  0.1125453E+00
         25   -1    0    0    0    0  0.00000000000E+00  0.00000000000E+00  0.99999998245E-14  0.12509000000E+03  0.12509000000E+03 0.  0.
        -13    1    3    3    0    0 -0.27540855934E+02 -0.22488673346E+02  0.45896977372E+01  0.35851299332E+02  0.10566000000E+00 0.  1.
         23    2    1    0    0    0  0.61619430654E+01  0.24315570163E+02  0.16922700907E+02  0.94831211183E+02  0.89874158209E+02 0.  0.
         13    1    3    3    0    0  0.33702798999E+02  0.46804243509E+02  0.12333003169E+02  0.58979911851E+02  0.10566000000E+00 0. -1.
         22    1    1    0    0    0 -0.61619430654E+01 -0.24315570163E+02 -0.16922700907E+02  0.30258788817E+02  0.00000000000E+00 0. -1.
</event>
<event>
 5    1  0.1264859E-009  0.9118800E+02  0.7815553E-02  0.1125453E+00
         25   -1    0    0    0    0  0.00000000000E+00  0.00000000000E+00  0.99999998245E-14  0.12509000000E+03  0.12509000000E+03 0.  0.
        -13    1    3    3    0    0 -0.15625181649E+02 -0.50774752506E+02 -0.25026394056E+02  0.58724384689E+02  0.10566000000E+00 0.  1.
         23    2    1    0    0    0  0.18288825428E+01 -0.23470299407E+02 -0.24468088685E+02  0.91135808366E+02  0.84574514110E+02 0.  0.
         13    1    3    3    0    0  0.17454064192E+02  0.27304453099E+02  0.55830537050E+00  0.32411423677E+02  0.10566000000E+00 0. -1.
         22    1    1    0    0    0 -0.18288825428E+01  0.23470299407E+02  0.24468088685E+02  0.33954191634E+02  0.00000000000E+00 0.  1.
</event>
<event>
 5    1  0.1264859E-009  0.9118800E+02  0.7815553E-02  0.1125453E+00
         25   -1    0    0    0    0  0.00000000000E+00  0.00000000000E+00  0.99999998245E-14  0.12509000000E+03  0.12509000000E+03 0.  0.
        -13    1    3    3    0    0 -0.18677324195E+02 -0.41859981492E+02  0.27744389737E+02  0.53580433140E+02  0.10566000000E+00 0.  1.
         23    2    1    0    0    0 -0.18975485606E+02 -0.17561911442E+02 -0.90687053843E+01  0.97690525464E+02  0.93769438308E+02 0.  0.
         13    1    3    3    0    0 -0.29816141110E+00  0.24298070050E+02 -0.36813095121E+02  0.44110092324E+02  0.10566000000E+00 0. -1.
         22    1    1    0    0    0  0.18975485606E+02  0.17561911442E+02  0.90687053843E+01  0.27399474536E+02  0.00000000000E+00 0.  1.
</event>
<event>
 5    1  0.1264859E-009  0.9118800E+02  0.7815553E-02  0.1125453E+00
         25   -1    0    0    0    0  0.00000000000E+00  0.00000000000E+00  0.99999998245E-14  0.12509000000E+03  0.12509000000E+03 0.  0.
        -13    1    3    3    0    0 -0.10488813833E+02  0.43035930376E+02  0.43821838800E+01  0.44512034536E+02  0.10566000000E+00 0.  1.
         23    2    1    0    0    0 -0.19564453932E+01  0.49887560670E+01 -0.28851183640E+02  0.95745389539E+02  0.91137662110E+02 0.  0.
         13    1    3    3    0    0  0.85323684396E+01 -0.38047174309E+02 -0.33233367520E+02  0.51233355003E+02  0.10566000000E+00 0. -1.
         22    1    1    0    0    0  0.19564453932E+01 -0.49887560670E+01  0.28851183640E+02  0.29344610461E+02  0.00000000000E+00 0.  1.
</event>
<event>
 5    1  0.1264859E-009  0.9118800E+02  0.7815553E-02  0.1125453E+00
         25   -1    0    0    0    0  0.00000000000E+00  0.00000000000E+00  0.99999998245E-14  0.12509000000E+03  0.12509000000E+03 0.  0.
        -13    1    3    3    0    0 -0.18190024779E+02 -0.26955416258E+02  0.43933785477E+02  0.54659492657E+02  0.10566000000E+00 0.  1.
         23    2    1    0    0    0 -0.12508797956E+02 -0.26900270198E+02  0.38143004161E+01  0.95179409055E+02  0.90357492536E+02 0.  0.
         13    1    3    3    0    0  0.56812268229E+01  0.55146060388E-01 -0.40119485061E+02  0.40519916398E+02  0.10566000000E+00 0. -1.
         22    1    1    0    0    0  0.12508797956E+02  0.26900270198E+02 -0.38143004161E+01  0.29910590945E+02  0.00000000000E+00 0.  1.
</event>
<event>
 5    1  0.1264859E-009  0.9118800E+02  0.7815553E-02  0.1125453E+00
         25   -1    0    0    0    0  0.00000000000E+00  0.00000000000E+00  0.99999998245E-14  0.12509000000E+03  0.12509000000E+03 0.  0.
        -13    1    3    3    0    0 -0.11192224077E+02 -0.23292594638E+02  0.24330421959E+02  0.35493540842E+02  0.10566000000E+00 0.  1.
         23    2    1    0    0    0  0.22413194508E+02  0.15355691296E+02 -0.88478876451E+01  0.96516696743E+02  0.92190233166E+02 0.  0.
         13    1    3    3    0    0  0.33605418585E+02  0.38648285934E+02 -0.33178309604E+02  0.61023155901E+02  0.10566000000E+00 0. -1.
         22    1    1    0    0    0 -0.22413194508E+02 -0.15355691296E+02  0.88478876451E+01  0.28573303257E+02  0.00000000000E+00 0. -1.
</event>
<event>
 5    1  0.1264859E-009  0.9118800E+02  0.7815553E-02  0.1125453E+00
         25   -1    0    0    0    0  0.00000000000E+00  0.00000000000E+00  0.99999998245E-14  0.12509000000E+03  0.12509000000E+03 0.  0.
        -13    1    3    3    0    0  0.18901792799E+02  0.28078433999E+02  0.74800858039E+01  0.34664666081E+02  0.10566000000E+00 0.  1.
         23    2    1    0    0    0 -0.93169593754E+01 -0.20379131897E+02 -0.18086676567E+02  0.96293426973E+02  0.91886786101E+02 0.  0.
         13    1    3    3    0    0 -0.28218752174E+02 -0.48457565896E+02 -0.25566762371E+02  0.61628760891E+02  0.10566000000E+00 0. -1.
         22    1    1    0    0    0  0.93169593754E+01  0.20379131897E+02  0.18086676567E+02  0.28796573027E+02  0.00000000000E+00 0. -1.
</event>
<event>
 5    1  0.1264859E-009  0.9118800E+02  0.7815553E-02  0.1125453E+00
         25   -1    0    0    0    0  0.00000000000E+00  0.00000000000E+00  0.99999998245E-14  0.12509000000E+03  0.12509000000E+03 0.  0.
        -13    1    3    3    0    0 -0.19830802705E+02 -0.35881262761E+02 -0.40341665032E+01  0.41194798418E+02  0.10566000000E+00 0.  1.
         23    2    1    0    0    0  0.11954270902E+02 -0.25149748496E+01  0.26111812131E+02  0.96261950741E+02  0.91843925964E+02 0.  0.
         13    1    3    3    0    0  0.31785073606E+02  0.33366287912E+02  0.30145978634E+02  0.55067152324E+02  0.10566000000E+00 0. -1.
         22    1    1    0    0    0 -0.11954270902E+02  0.25149748496E+01 -0.26111812131E+02  0.28828049259E+02  0.00000000000E+00 0. -1.
</event>
<event>
 5    1  0.1264859E-009  0.9118800E+02  0.7815553E-02  0.1125453E+00
         25   -1    0    0    0    0  0.00000000000E+00  0.00000000000E+00  0.99999998245E-14  0.12509000000E+03  0.12509000000E+03 0.  0.
        -13    1    3    3    0    0 -0.22770754116E+02 -0.13106348641E+02  0.23687042004E+02  0.35374718947E+02  0.10566000000E+00 0.  1.
         23    2    1    0    0    0  0.27977551103E+02  0.31277704544E+01 -0.59093084771E+01  0.96324634708E+02  0.91929260908E+02 0.  0.
         13    1    3    3    0    0  0.50748305218E+02  0.16234119095E+02 -0.29596350481E+02  0.60949915760E+02  0.10566000000E+00 0. -1.
         22    1    1    0    0    0 -0.27977551103E+02 -0.31277704544E+01  0.59093084771E+01  0.28765365292E+02  0.00000000000E+00 0. -1.
</event>
<event>
 5    1  0.1264859E-009  0.9118800E+02  0.7815553E-02  0.1125453E+00
         25   -1    0    0    0    0  0.00000000000E+00  0.00000000000E+00  0.99999998245E-14  0.12509000000E+03  0.12509000000E+03 0.  0.
        -13    1    3    3    0    0 -0.47631361815E+02 -0.22263705387E+02 -0.27885920438E+01  0.52651748457E+02  0.10566000000E+00 0.  1.
         23    2    1    0    0    0 -0.59642081631E+01 -0.29228861610E+02 -0.44442249967E+01  0.94929607664E+02  0.90011005691E+02 0.  0.
         13    1    3    3    0    0  0.41667153652E+02 -0.69651562224E+01 -0.16556329529E+01  0.42277859208E+02  0.10566000000E+00 0. -1.
         22    1    1    0    0    0  0.59642081631E+01  0.29228861610E+02  0.44442249967E+01  0.30160392336E+02  0.00000000000E+00 0.  1.
</event>
<event>
 5    1  0.1264859E-009  0.9118800E+02  0.7815553E-02  0.1125453E+00
         25   -1    0    0    0    0  0.00000000000E+00  0.00000000000E+00  0.99999998245E-14  0.12509000000E+03  0.12509000000E+03 0.  0.
        -13    1    3    3    0    0 -0.22440626697E+02 -0.30054763834E+02 -0.91125470839E+01  0.38599484894E+02  0.10566000000E+00 0. -1.
         23    2    1    0    0    0  0.26059907979E+02  0.27285556579E+01 -0.97176049505E+01  0.97143700320E+02  0.93037104673E+02 0.  0.
         13    1    3    3    0    0  0.48500534676E+02  0.32783319492E+02 -0.60505786657E+00  0.58544215426E+02  0.10566000000E+00 0.  1.
         22    1    1    0    0    0 -0.26059907979E+02 -0.27285556579E+01  0.97176049505E+01  0.27946299680E+02  0.00000000000E+00 0.  1.
</event>
<event>
 5    1  0.1264859E-009  0.9118800E+02  0.7815553E-02  0.1125453E+00
         25   -1    0    0    0    0  0.00000000000E+00  0.00000000000E+00  0.99999998245E-14  0.12509000000E+03  0.12509000000E+03 0.  0.
        -13    1    3    3    0    0  0.30682608311E+02 -0.73991569387E+00 -0.20742437136E+02  0.37043620104E+02  0.10566000000E+00 0. -1.
         23    2    1    0    0    0 -0.43770163427E+01 -0.75311032730E+01  0.27031478709E+02  0.96689707224E+02  0.92424687467E+02 0.  0.
         13    1    3    3    0    0 -0.35059624654E+02 -0.67911875792E+01  0.47773915845E+02  0.59646087120E+02  0.10566000000E+00 0.  1.
         22    1    1    0    0    0  0.43770163427E+01  0.75311032730E+01 -0.27031478709E+02  0.28400292776E+02  0.00000000000E+00 0.  1.
</event>
<event>
 5    1  0.1264859E-009  0.9118800E+02  0.7815553E-02  0.1125453E+00
         25   -1    0    0    0    0  0.00000000000E+00  0.00000000000E+00  0.99999998245E-14  0.12509000000E+03  0.12509000000E+03 0.  0.
        -13    1    3    3    0    0 -0.64346748275E+01 -0.24303849942E+02 -0.32421400000E+02  0.41027314123E+02  0.10566000000E+00 0.  1.
         23    2    1    0    0    0  0.23763992343E+02 -0.19861202019E+02  0.93278877388E+01  0.92744920508E+02  0.86921896623E+02 0.  0.
         13    1    3    3    0    0  0.30198667170E+02  0.44426479235E+01  0.41749287739E+02  0.51717606385E+02  0.10566000000E+00 0. -1.
         22    1    1    0    0    0 -0.23763992343E+02  0.19861202019E+02 -0.93278877388E+01  0.32345079492E+02  0.00000000000E+00 0. -1.
</event>
<event>
 5    1  0.1264859E-009  0.9118800E+02  0.7815553E-02  0.1125453E+00
         25   -1    0    0    0    0  0.00000000000E+00  0.00000000000E+00  0.99999998245E-14  0.12509000000E+03  0.12509000000E+03 0.  0.
        -13    1    3    3    0    0  0.29255736066E+02  0.28755665994E+02 -0.19141961945E+01  0.41066552456E+02  0.10566000000E+00 0. -1.
         23    2    1    0    0    0 -0.19579070734E+02  0.11608903582E+02  0.17534116535E+02  0.96357581100E+02  0.91974080803E+02 0.  0.
         13    1    3    3    0    0 -0.48834806801E+02 -0.17146762412E+02  0.19448312729E+02  0.55291028644E+02  0.10566000000E+00 0.  1.
         22    1    1    0    0    0  0.19579070734E+02 -0.11608903582E+02 -0.17534116535E+02  0.28732418900E+02  0.00000000000E+00 0.  1.
</event>
<event>
 5    1  0.1264859E-009  0.9118800E+02  0.7815553E-02  0.1125453E+00
         25   -1    0    0    0    0  0.00000000000E+00  0.00000000000E+00  0.99999998245E-14  0.12509000000E+03  0.12509000000E+03 0.  0.
        -13    1    3    3    0    0 -0.30327325527E+02 -0.98449344102E+00 -0.15656212952E+02  0.34144458833E+02  0.10566000000E+00 0. -1.
         23    2    1    0    0    0  0.28733895105E+02  0.67374199008E+01 -0.65004654612E+00  0.95569632195E+02  0.90896108181E+02 0.  0.
         13    1    3    3    0    0  0.59061220633E+02  0.77219133419E+01  0.15006166406E+02  0.61425173362E+02  0.10566000000E+00 0.  1.
         22    1    1    0    0    0 -0.28733895105E+02 -0.67374199008E+01  0.65004654612E+00  0.29520367805E+02  0.00000000000E+00 0.  1.
</event>
<event>
 5    1  0.1264859E-009  0.9118800E+02  0.7815553E-02  0.1125453E+00
         25   -1    0    0    0    0  0.00000000000E+00  0.00000000000E+00  0.99999998245E-14  0.12509000000E+03  0.12509000000E+03 0.  0.
        -13    1    3    3    0    0  0.13597068268E+02  0.26086318120E+02 -0.54813286300E+01  0.29923776268E+02  0.10566000000E+00 0. -1.
         23    2    1    0    0    0 -0.25372774740E+02 -0.21635835974E+02 -0.34148713271E+01  0.91570625864E+02  0.85215204504E+02 0.  0.
         13    1    3    3    0    0 -0.38969843007E+02 -0.47722154094E+02  0.20664573029E+01  0.61646849597E+02  0.10566000000E+00 0.  1.
         22    1    1    0    0    0  0.25372774740E+02  0.21635835974E+02  0.34148713271E+01  0.33519374136E+02  0.00000000000E+00 0.  1.
</event>
<event>
 5    1  0.1264859E-009  0.9118800E+02  0.7815553E-02  0.1125453E+00
         25   -1    0    0    0    0  0.00000000000E+00  0.00000000000E+00  0.99999998245E-14  0.12509000000E+03  0.12509000000E+03 0.  0.
        -13    1    3    3    0    0 -0.42228251010E+02  0.12546056368E+02 -0.16678478631E+02  0.47104262304E+02  0.10566000000E+00 0. -1.
         23    2    1    0    0    0  0.16056310833E+01 -0.47103381383E+01 -0.28893897605E+02  0.95770677781E+02  0.91172364603E+02 0.  0.
         13    1    3    3    0    0  0.43833882093E+02 -0.17256394506E+02 -0.12215418974E+02  0.48666415478E+02  0.10566000000E+00 0.  1.
         22    1    1    0    0    0 -0.16056310833E+01  0.47103381383E+01  0.28893897605E+02  0.29319322219E+02  0.00000000000E+00 0. -1.
</event>
<event>
 5    1  0.1264859E-009  0.9118800E+02  0.7815553E-02  0.1125453E+00
         25   -1    0    0    0    0  0.00000000000E+00  0.00000000000E+00  0.99999998245E-14  0.12509000000E+03  0.12509000000E+03 0.  0.
        -13    1    3    3    0    0  0.36891745053E+01  0.30303944137E+02  0.23208697072E+02  0.38348322291E+02  0.10566000000E+00 0.  1.
         23    2    1    0    0    0 -0.90051488936E+01  0.46018369058E+01 -0.27052138011E+02  0.96209422090E+02  0.91772354870E+02 0.  0.
         13    1    3    3    0    0 -0.12694323399E+02 -0.25702107231E+02 -0.50260835082E+02  0.57861099798E+02  0.10566000000E+00 0. -1.
         22    1    1    0    0    0  0.90051488936E+01 -0.46018369058E+01  0.27052138011E+02  0.28880577910E+02  0.00000000000E+00 0.  1.
</event>
<event>
 5    1  0.1264859E-009  0.9118800E+02  0.7815553E-02  0.1125453E+00
         25   -1    0    0    0    0  0.00000000000E+00  0.00000000000E+00  0.99999998245E-14  0.12509000000E+03  0.12509000000E+03 0.  0.
        -13    1    3    3    0    0  0.30966937826E+02  0.27430524657E+02  0.41353229942E+02  0.58493467259E+02  0.10566000000E+00 0.  1.
         23    2    1    0    0    0  0.47653722093E+01  0.25214190099E+02  0.23653088290E+02  0.90191106890E+02  0.83165515821E+02 0.  0.
         13    1    3    3    0    0 -0.26201565617E+02 -0.22163345576E+01 -0.17700141652E+02  0.31697639631E+02  0.10566000000E+00 0. -1.
         22    1    1    0    0    0 -0.47653722093E+01 -0.25214190099E+02 -0.23653088290E+02  0.34898893110E+02  0.00000000000E+00 0.  1.
</event>
<event>
 5    1  0.1264859E-009  0.9118800E+02  0.7815553E-02  0.1125453E+00
         25   -1    0    0    0    0  0.00000000000E+00  0.00000000000E+00  0.99999998245E-14  0.12509000000E+03  0.12509000000E+03 0.  0.
        -13    1    3    3    0    0 -0.33064982135E+02 -0.30377549069E+02  0.35290797178E+02  0.57109894594E+02  0.10566000000E+00 0.  1.
         23    2    1    0    0    0 -0.28932273394E+02 -0.10027596194E+02  0.46590508238E+01  0.94116852214E+02  0.88874326929E+02 0.  0.
         13    1    3    3    0    0  0.41327087407E+01  0.20349952875E+02 -0.30631746355E+02  0.37006957621E+02  0.10566000000E+00 0. -1.
         22    1    1    0    0    0  0.28932273394E+02  0.10027596194E+02 -0.46590508238E+01  0.30973147786E+02  0.00000000000E+00 0.  1.
</event>
<event>
 5    1  0.1264859E-009  0.9118800E+02  0.7815553E-02  0.1125453E+00
         25   -1    0    0    0    0  0.00000000000E+00  0.00000000000E+00  0.99999998245E-14  0.12509000000E+03  0.12509000000E+03 0.  0.
        -13    1    3    3    0    0 -0.40875676302E+02 -0.22056362026E+02 -0.39197423677E+02  0.60776255281E+02  0.10566000000E+00 0.  1.
         23    2    1    0    0    0 -0.18875776232E+02  0.55739477542E+00 -0.10201365335E+02  0.10362669476E+03  0.10137957582E+03 0.  0.
         13    1    3    3    0    0  0.21999900070E+02  0.22613756802E+02  0.28996058342E+02  0.42850439475E+02  0.10566000000E+00 0. -1.
         22    1    1    0    0    0  0.18875776232E+02 -0.55739477542E+00  0.10201365335E+02  0.21463305244E+02  0.00000000000E+00 0.  1.
</event>
<event>
 5    1  0.1264859E-009  0.9118800E+02  0.7815553E-02  0.1125453E+00
         25   -1    0    0    0    0  0.00000000000E+00  0.00000000000E+00  0.99999998245E-14  0.12509000000E+03  0.12509000000E+03 0.  0.
        -13    1    3    3    0    0 -0.24793848470E+02 -0.24101140846E+02 -0.60490942278E+01  0.35102743725E+02  0.10566000000E+00 0.  1.
         23    2    1    0    0    0 -0.61684998736E+01  0.28640799529E+02  0.11335179044E+02  0.93676116567E+02  0.88251814388E+02 0.  0.
         13    1    3    3    0    0  0.18625348596E+02  0.52741940375E+02  0.17384273272E+02  0.58573372842E+02  0.10566000000E+00 0. -1.
         22    1    1    0    0    0  0.61684998736E+01 -0.28640799529E+02 -0.11335179044E+02  0.31413883433E+02  0.00000000000E+00 0. -1.
</event>
<event>
 5    1  0.1264859E-009  0.9118800E+02  0.7815553E-02  0.1125453E+00
         25   -1    0    0    0    0  0.00000000000E+00  0.00000000000E+00  0.99999998245E-14  0.12509000000E+03  0.12509000000E+03 0.  0.
        -13    1    3    3    0    0 -0.27433525740E+01 -0.35534921747E+02 -0.30660245621E+02  0.47014024210E+02  0.10566000000E+00 0. -1.
         23    2    1    0    0    0  0.25038482342E+02  0.31686049870E+00 -0.18454164163E+02  0.93984017079E+02  0.88687165322E+02 0.  0.
         13    1    3    3    0    0  0.27781834916E+02  0.35851782246E+02  0.12206081458E+02  0.46969992868E+02  0.10566000000E+00 0.  1.
         22    1    1    0    0    0 -0.25038482342E+02 -0.31686049870E+00  0.18454164163E+02  0.31105982921E+02  0.00000000000E+00 0.  1.
</event>
<event>
 5    1  0.1264859E-009  0.9118800E+02  0.7815553E-02  0.1125453E+00
         25   -1    0    0    0    0  0.00000000000E+00  0.00000000000E+00  0.99999998245E-14  0.12509000000E+03  0.12509000000E+03 0.  0.
        -13    1    3    3    0    0 -0.67158990580E+01 -0.28299563562E+02 -0.25958084949E+02  0.38984637182E+02  0.10566000000E+00 0. -1.
         23    2    1    0    0    0 -0.14870739985E+02 -0.40456535403E+01  0.24836602353E+02  0.95860510837E+02  0.91295533851E+02 0.  0.
         13    1    3    3    0    0 -0.81548409274E+01  0.24253910022E+02  0.50794687302E+02  0.56875873655E+02  0.10566000000E+00 0.  1.
         22    1    1    0    0    0  0.14870739985E+02  0.40456535403E+01 -0.24836602353E+02  0.29229489163E+02  0.00000000000E+00 0.  1.
</event>
<event>
 5    1  0.1264859E-009  0.9118800E+02  0.7815553E-02  0.1125453E+00
         25   -1    0    0    0    0  0.00000000000E+00  0.00000000000E+00  0.99999998245E-14  0.12509000000E+03  0.12509000000E+03 0.  0.
        -13    1    3    3    0    0 -0.23523824284E+02 -0.20081240020E+02 -0.28727708567E+02  0.42212781396E+02  0.10566000000E+00 0.  1.
         23    2    1    0    0    0  0.20149821791E+02  0.94871596942E+01 -0.18937790536E+02  0.95855407004E+02  0.91288540487E+02 0.  0.
         13    1    3    3    0    0  0.43673646074E+02  0.29568399714E+02  0.97899180307E+01  0.53642625608E+02  0.10566000000E+00 0. -1.
         22    1    1    0    0    0 -0.20149821791E+02 -0.94871596942E+01  0.18937790536E+02  0.29234592996E+02  0.00000000000E+00 0. -1.
</event>
<event>
 5    1  0.1264859E-009  0.9118800E+02  0.7815553E-02  0.1125453E+00
         25   -1    0    0    0    0  0.00000000000E+00  0.00000000000E+00  0.99999998245E-14  0.12509000000E+03  0.12509000000E+03 0.  0.
        -13    1    3    3    0    0  0.30821460562E+02 -0.28092958339E+02 -0.82534506809E+01  0.42512437611E+02  0.10566000000E+00 0. -1.
         23    2    1    0    0    0 -0.23058439449E+02 -0.70841607260E+01 -0.51344741692E+01  0.10042748212E+03  0.97352141104E+02 0.  0.
         13    1    3    3    0    0 -0.53879900011E+02  0.21008797613E+02  0.31189765117E+01  0.57915044513E+02  0.10566000000E+00 0.  1.
         22    1    1    0    0    0  0.23058439449E+02  0.70841607260E+01  0.51344741692E+01  0.24662517877E+02  0.00000000000E+00 0.  1.
</event>
<event>
 5    1  0.1264859E-009  0.9118800E+02  0.7815553E-02  0.1125453E+00
         25   -1    0    0    0    0  0.00000000000E+00  0.00000000000E+00  0.99999998245E-14  0.12509000000E+03  0.12509000000E+03 0.  0.
        -13    1    3    3    0    0  0.20874927634E+02 -0.36600996737E+02 -0.32039873936E+01  0.42257215539E+02  0.10566000000E+00 0.  1.
         23    2    1    0    0    0 -0.26169966961E+02 -0.10765445973E+02  0.43549308411E+01  0.96459117716E+02  0.92112072880E+02 0.  0.
         13    1    3    3    0    0 -0.47044894595E+02  0.25835550764E+02  0.75589182346E+01  0.54201902177E+02  0.10566000000E+00 0. -1.
         22    1    1    0    0    0  0.26169966961E+02  0.10765445973E+02 -0.43549308411E+01  0.28630882284E+02  0.00000000000E+00 0.  1.
</event>
<event>
 5    1  0.1264859E-009  0.9118800E+02  0.7815553E-02  0.1125453E+00
         25   -1    0    0    0    0  0.00000000000E+00  0.00000000000E+00  0.99999998245E-14  0.12509000000E+03  0.12509000000E+03 0.  0.
        -13    1    3    3    0    0  0.55012209346E+02  0.89836410056E+01  0.27212415021E+02  0.62028829411E+02  0.10566000000E+00 0. -1.
         23    2    1    0    0    0  0.23715452737E+02  0.99043548902E+00  0.16956205197E+02  0.95919525961E+02  0.91376358566E+02 0.  0.
         13    1    3    3    0    0 -0.31296756608E+02 -0.79932055166E+01 -0.10256209824E+02  0.33890696550E+02  0.10566000000E+00 0.  1.
         22    1    1    0    0    0 -0.23715452737E+02 -0.99043548902E+00 -0.16956205197E+02  0.29170474039E+02  0.00000000000E+00 0. -1.
</event>
<event>
 5    1  0.1264859E-009  0.9118800E+02  0.7815553E-02  0.1125453E+00
         25   -1    0    0    0    0  0.00000000000E+00  0.00000000000E+00  0.99999998245E-14  0.12509000000E+03  0.12509000000E+03 0.  0.
        -13    1    3    3    0    0  0.20228043149E+02  0.24071460439E+02 -0.16936374933E+02  0.35713595411E+02  0.10566000000E+00 0.  1.
         23    2    1    0    0    0  0.27707418690E+01 -0.30156215978E+02 -0.13459718929E+01  0.94776867319E+02  0.89798488661E+02 0.  0.
         13    1    3    3    0    0 -0.17457301280E+02 -0.54227676416E+02  0.15590403040E+02  0.59063271908E+02  0.10566000000E+00 0. -1.
         22    1    1    0    0    0 -0.27707418690E+01  0.30156215978E+02  0.13459718929E+01  0.30313132681E+02  0.00000000000E+00 0. -1.
</event>
<event>
 5    1  0.1264859E-009  0.9118800E+02  0.7815553E-02  0.1125453E+00
         25   -1    0    0    0    0  0.00000000000E+00  0.00000000000E+00  0.99999998245E-14  0.12509000000E+03  0.12509000000E+03 0.  0.
        -13    1    3    3    0    0  0.46490017943E+01  0.45096274926E+02  0.28905392761E+02  0.53766347510E+02  0.10566000000E+00 0. -1.
         23    2    1    0    0    0  0.11915369862E+02  0.28882103291E+01  0.25579053608E+02  0.96724426123E+02  0.92471664998E+02 0.  0.
         13    1    3    3    0    0  0.72663680680E+01 -0.42208064597E+02 -0.33263391523E+01  0.42958078613E+02  0.10566000000E+00 0.  1.
         22    1    1    0    0    0 -0.11915369862E+02 -0.28882103291E+01 -0.25579053608E+02  0.28365573877E+02  0.00000000000E+00 0. -1.
</event>
<event>
 5    1  0.1264859E-009  0.9118800E+02  0.7815553E-02  0.1125453E+00
         25   -1    0    0    0    0  0.00000000000E+00  0.00000000000E+00  0.99999998245E-14  0.12509000000E+03  0.12509000000E+03 0.  0.
        -13    1    3    3    0    0 -0.24824115415E+02 -0.36627776143E+02 -0.97623741476E+01  0.45311651971E+02  0.10566000000E+00 0. -1.
         23    2    1    0    0    0 -0.24665108715E+02  0.13954379237E+02 -0.43006569375E+00  0.96747853922E+02  0.92503351259E+02 0.  0.
         13    1    3    3    0    0  0.15900670052E+00  0.50582155380E+02  0.93323084538E+01  0.51436201951E+02  0.10566000000E+00 0.  1.
         22    1    1    0    0    0  0.24665108715E+02 -0.13954379237E+02  0.43006569375E+00  0.28342146078E+02  0.00000000000E+00 0. -1.
</event>
<event>
 5    1  0.1264859E-009  0.9118800E+02  0.7815553E-02  0.1125453E+00
         25   -1    0    0    0    0  0.00000000000E+00  0.00000000000E+00  0.99999998245E-14  0.12509000000E+03  0.12509000000E+03 0.  0.
        -13    1    3    3    0    0  0.22098562222E+02  0.23216351728E+02  0.10481967615E+02  0.33722814962E+02  0.10566000000E+00 0. -1.
         23    2    1    0    0    0 -0.10431304860E+02 -0.24442953667E+02 -0.12357990012E+02  0.95781468441E+02  0.91187168365E+02 0.  0.
         13    1    3    3    0    0 -0.32529867082E+02 -0.47659305395E+02 -0.22839957626E+02  0.62058653478E+02  0.10566000000E+00 0.  1.
         22    1    1    0    0    0  0.10431304860E+02  0.24442953667E+02  0.12357990012E+02  0.29308531559E+02  0.00000000000E+00 0.  1.
</event>
<event>
 5    1  0.1264859E-009  0.9118800E+02  0.7815553E-02  0.1125453E+00
         25   -1    0    0    0    0  0.00000000000E+00  0.00000000000E+00  0.99999998245E-14  0.12509000000E+03  0.12509000000E+03 0.  0.
        -13    1    3    3    0    0  0.20217410119E+02 -0.58098830255E+02 -0.84828718181E+01  0.62098212754E+02  0.10566000000E+00 0. -1.
         23    2    1    0    0    0  0.45515407896E+01 -0.29014634200E+02 -0.46433875114E+01  0.95355734095E+02  0.90601266304E+02 0.  0.
         13    1    3    3    0    0 -0.15665869330E+02  0.29084196054E+02  0.38394843067E+01  0.33257521341E+02  0.10566000000E+00 0.  1.
         22    1    1    0    0    0 -0.45515407896E+01  0.29014634200E+02  0.46433875114E+01  0.29734265905E+02  0.00000000000E+00 0. -1.
</event>
<event>
 5    1  0.1264859E-009  0.9118800E+02  0.7815553E-02  0.1125453E+00
         25   -1    0    0    0    0  0.00000000000E+00  0.00000000000E+00  0.99999998245E-14  0.12509000000E+03  0.12509000000E+03 0.  0.
        -13    1    3    3    0    0 -0.13612215207E+02 -0.15109710971E+01  0.45727595672E+02  0.47734679285E+02  0.10566000000E+00 0.  1.
         23    2    1    0    0    0 -0.21577772312E+02  0.24095595523E+02  0.12548734936E+02  0.90396070704E+02  0.83473234445E+02 0.  0.
         13    1    3    3    0    0 -0.79655571045E+01  0.25606566620E+02 -0.33178860736E+02  0.42661391419E+02  0.10566000000E+00 0. -1.
         22    1    1    0    0    0  0.21577772312E+02 -0.24095595523E+02 -0.12548734936E+02  0.34693929296E+02  0.00000000000E+00 0.  1.
</event>
<event>
 5    1  0.1264859E-009  0.9118800E+02  0.7815553E-02  0.1125453E+00
         25   -1    0    0    0    0  0.00000000000E+00  0.00000000000E+00  0.99999998245E-14  0.12509000000E+03  0.12509000000E+03 0.  0.
        -13    1    3    3    0    0 -0.34916275672E+02 -0.47895872243E+02 -0.14027938097E+01  0.59288615089E+02  0.10566000000E+00 0.  1.
         23    2    1    0    0    0 -0.27176866470E+02 -0.14917172380E+02 -0.61191204864E+01  0.93490194012E+02  0.87987889155E+02 0.  0.
         13    1    3    3    0    0  0.77394092016E+01  0.32978699863E+02 -0.47163266768E+01  0.34201578923E+02  0.10566000000E+00 0. -1.
         22    1    1    0    0    0  0.27176866470E+02  0.14917172380E+02  0.61191204864E+01  0.31599805988E+02  0.00000000000E+00 0.  1.
</event>
<event>
 5    1  0.1264859E-009  0.9118800E+02  0.7815553E-02  0.1125453E+00
         25   -1    0    0    0    0  0.00000000000E+00  0.00000000000E+00  0.99999998245E-14  0.12509000000E+03  0.12509000000E+03 0.  0.
        -13    1    3    3    0    0 -0.79875445336E+00  0.24545683532E+02 -0.32873109139E+02  0.41033901316E+02  0.10566000000E+00 0. -1.
         23    2    1    0    0    0 -0.18228358935E+02 -0.21464403282E+02 -0.11846318303E+02  0.94539567351E+02  0.89467317272E+02 0.  0.
         13    1    3    3    0    0 -0.17429604482E+02 -0.46010086813E+02  0.21026790836E+02  0.53505666035E+02  0.10566000000E+00 0.  1.
         22    1    1    0    0    0  0.18228358935E+02  0.21464403282E+02  0.11846318303E+02  0.30550432649E+02  0.00000000000E+00 0.  1.
</event>
<event>
 5    1  0.1264859E-009  0.9118800E+02  0.7815553E-02  0.1125453E+00
         25   -1    0    0    0    0  0.00000000000E+00  0.00000000000E+00  0.99999998245E-14  0.12509000000E+03  0.12509000000E+03 0.  0.
        -13    1    3    3    0    0  0.38713955971E+02 -0.41591038584E+02 -0.13733645266E+02  0.58456899112E+02  0.10566000000E+00 0. -1.
         23    2    1    0    0    0  0.87264304999E+01 -0.20516762440E+02 -0.19389209983E+02  0.95542925795E+02  0.90859347761E+02 0.  0.
         13    1    3    3    0    0 -0.29987525471E+02  0.21074276144E+02 -0.56555647169E+01  0.37086026684E+02  0.10566000000E+00 0.  1.
         22    1    1    0    0    0 -0.87264304999E+01  0.20516762440E+02  0.19389209983E+02  0.29547074205E+02  0.00000000000E+00 0. -1.
</event>
<event>
 5    1  0.1264859E-009  0.9118800E+02  0.7815553E-02  0.1125453E+00
         25   -1    0    0    0    0  0.00000000000E+00  0.00000000000E+00  0.99999998245E-14  0.12509000000E+03  0.12509000000E+03 0.  0.
        -13    1    3    3    0    0  0.30040429788E+02 -0.35909300759E+02 -0.39175272346E+02  0.61046035336E+02  0.10566000000E+00 0. -1.
         23    2    1    0    0    0  0.90131404588E+01 -0.12689089112E+02 -0.25473745427E+02  0.95237673633E+02  0.90438117459E+02 0.  0.
         13    1    3    3    0    0 -0.21027289329E+02  0.23220211647E+02  0.13701526919E+02  0.34191638297E+02  0.10566000000E+00 0.  1.
         22    1    1    0    0    0 -0.90131404588E+01  0.12689089112E+02  0.25473745427E+02  0.29852326367E+02  0.00000000000E+00 0. -1.
</event>
<event>
 5    1  0.1264859E-009  0.9118800E+02  0.7815553E-02  0.1125453E+00
         25   -1    0    0    0    0  0.00000000000E+00  0.00000000000E+00  0.99999998245E-14  0.12509000000E+03  0.12509000000E+03 0.  0.
        -13    1    3    3    0    0 -0.26312118611E+02 -0.14144550181E+02 -0.28063978274E+02  0.40987728972E+02  0.10566000000E+00 0.  1.
         23    2    1    0    0    0 -0.11847541381E+02  0.24003514855E+01  0.24395117470E+02  0.97864135820E+02  0.94000752121E+02 0.  0.
         13    1    3    3    0    0  0.14464577231E+02  0.16544901666E+02  0.52459095744E+02  0.56876406848E+02  0.10566000000E+00 0. -1.
         22    1    1    0    0    0  0.11847541381E+02 -0.24003514855E+01 -0.24395117470E+02  0.27225864180E+02  0.00000000000E+00 0.  1.
</event>
<event>
 5    1  0.1264859E-009  0.9118800E+02  0.7815553E-02  0.1125453E+00
         25   -1    0    0    0    0  0.00000000000E+00  0.00000000000E+00  0.99999998245E-14  0.12509000000E+03  0.12509000000E+03 0.  0.
        -13    1    3    3    0    0 -0.22755604293E+02  0.43564517291E+02  0.17514180499E+01  0.49180924379E+02  0.10566000000E+00 0. -1.
         23    2    1    0    0    0  0.14219314220E+02  0.20195607163E+02  0.16551498489E+02  0.95357802843E+02  0.90604122507E+02 0.  0.
         13    1    3    3    0    0  0.36974918514E+02 -0.23368910128E+02  0.14800080439E+02  0.46176878464E+02  0.10566000000E+00 0.  1.
         22    1    1    0    0    0 -0.14219314220E+02 -0.20195607163E+02 -0.16551498489E+02  0.29732197157E+02  0.00000000000E+00 0. -1.
</event>
<event>
 5    1  0.1264859E-009  0.9118800E+02  0.7815553E-02  0.1125453E+00
         25   -1    0    0    0    0  0.00000000000E+00  0.00000000000E+00  0.99999998245E-14  0.12509000000E+03  0.12509000000E+03 0.  0.
        -13    1    3    3    0    0  0.32390900052E+02  0.70422184881E+01 -0.23400487875E+02  0.40575328024E+02  0.10566000000E+00 0.  1.
         23    2    1    0    0    0 -0.10785899877E+02 -0.25068472292E+02 -0.99795614719E+01  0.96032202657E+02  0.91530477770E+02 0.  0.
         13    1    3    3    0    0 -0.43176799930E+02 -0.32110690780E+02  0.13420926403E+02  0.55456874633E+02  0.10566000000E+00 0. -1.
         22    1    1    0    0    0  0.10785899877E+02  0.25068472292E+02  0.99795614719E+01  0.29057797343E+02  0.00000000000E+00 0.  1.
</event>
<event>
 5    1  0.1264859E-009  0.9118800E+02  0.7815553E-02  0.1125453E+00
         25   -1    0    0    0    0  0.00000000000E+00  0.00000000000E+00  0.99999998245E-14  0.12509000000E+03  0.12509000000E+03 0.  0.
        -13    1    3    3    0    0  0.55152912850E+01  0.21963483157E+02 -0.27770984261E+02  0.35833667984E+02  0.10566000000E+00 0. -1.
         23    2    1    0    0    0  0.19916983694E+02 -0.12447055766E+02  0.18445461952E+02  0.95226133818E+02  0.90422154689E+02 0.  0.
         13    1    3    3    0    0  0.14401692409E+02 -0.34410538923E+02  0.46216446213E+02  0.59392465834E+02  0.10566000000E+00 0.  1.
         22    1    1    0    0    0 -0.19916983694E+02  0.12447055766E+02 -0.18445461952E+02  0.29863866182E+02  0.00000000000E+00 0.  1.
</event>
<event>
 5    1  0.1264859E-009  0.9118800E+02  0.7815553E-02  0.1125453E+00
         25   -1    0    0    0    0  0.00000000000E+00  0.00000000000E+00  0.99999998245E-14  0.12509000000E+03  0.12509000000E+03 0.  0.
        -13    1    3    3    0    0  0.33364785955E+02  0.30818162340E+02 -0.19426088337E+02  0.49399920485E+02  0.10566000000E+00 0.  1.
         23    2    1    0    0    0 -0.40269720809E+01  0.47998015796E+01 -0.28552204389E+02  0.95858459247E+02  0.91292722789E+02 0.  0.
         13    1    3    3    0    0 -0.37391758035E+02 -0.26018360760E+02 -0.91261160518E+01  0.46458538762E+02  0.10566000000E+00 0. -1.
         22    1    1    0    0    0  0.40269720809E+01 -0.47998015796E+01  0.28552204389E+02  0.29231540753E+02  0.00000000000E+00 0.  1.
</event>
<event>
 5    1  0.1264859E-009  0.9118800E+02  0.7815553E-02  0.1125453E+00
         25   -1    0    0    0    0  0.00000000000E+00  0.00000000000E+00  0.99999998245E-14  0.12509000000E+03  0.12509000000E+03 0.  0.
        -13    1    3    3    0    0 -0.33218458323E+02 -0.11911072245E+02 -0.14930454628E+02  0.38318001707E+02  0.10566000000E+00 0.  1.
         23    2    1    0    0    0  0.33119040912E+01  0.15621115801E+02  0.22551948168E+02  0.97457078805E+02  0.93457497696E+02 0.  0.
         13    1    3    3    0    0  0.36530362414E+02  0.27532188047E+02  0.37482402795E+02  0.59139077099E+02  0.10566000000E+00 0. -1.
         22    1    1    0    0    0 -0.33119040912E+01 -0.15621115801E+02 -0.22551948168E+02  0.27632921195E+02  0.00000000000E+00 0. -1.
</event>
<event>
 5    1  0.1264859E-009  0.9118800E+02  0.7815553E-02  0.1125453E+00
         25   -1    0    0    0    0  0.00000000000E+00  0.00000000000E+00  0.99999998245E-14  0.12509000000E+03  0.12509000000E+03 0.  0.
        -13    1    3    3    0    0  0.65952775775E+01  0.10770043210E+02 -0.47549223139E+02  0.49197879042E+02  0.10566000000E+00 0. -1.
         23    2    1    0    0    0  0.13148763520E+02 -0.22053110337E+02 -0.20259050329E+02  0.92384361681E+02  0.86401455458E+02 0.  0.
         13    1    3    3    0    0  0.65534859426E+01 -0.32823153546E+02  0.27290172809E+02  0.43186482639E+02  0.10566000000E+00 0.  1.
         22    1    1    0    0    0 -0.13148763520E+02  0.22053110337E+02  0.20259050329E+02  0.32705638319E+02  0.00000000000E+00 0. -1.
</event>
<event>
 5    1  0.1264859E-009  0.9118800E+02  0.7815553E-02  0.1125453E+00
         25   -1    0    0    0    0  0.00000000000E+00  0.00000000000E+00  0.99999998245E-14  0.12509000000E+03  0.12509000000E+03 0.  0.
        -13    1    3    3    0    0 -0.22494308483E+02 -0.28399410961E+02 -0.98152780085E+00  0.36242171815E+02  0.10566000000E+00 0.  1.
         23    2    1    0    0    0 -0.42663965485E+01  0.26877245584E+02  0.11120830562E+02  0.95691677904E+02  0.91063910953E+02 0.  0.
         13    1    3    3    0    0  0.18227911934E+02  0.55276656544E+02  0.12102358363E+02  0.59449506089E+02  0.10566000000E+00 0. -1.
         22    1    1    0    0    0  0.42663965485E+01 -0.26877245584E+02 -0.11120830562E+02  0.29398322096E+02  0.00000000000E+00 0. -1.
</event>
<event>
 5    1  0.1264859E-009  0.9118800E+02  0.7815553E-02  0.1125453E+00
         25   -1    0    0    0    0  0.00000000000E+00  0.00000000000E+00  0.99999998245E-14  0.12509000000E+03  0.12509000000E+03 0.  0.
        -13    1    3    3    0    0  0.29203680315E+02 -0.25644444100E+02  0.54901901516E+00  0.38869075665E+02  0.10566000000E+00 0.  1.
         23    2    1    0    0    0 -0.36534513089E+01  0.11090458583E+02 -0.27242713347E+02  0.95450306875E+02  0.90731745680E+02 0.  0.
         13    1    3    3    0    0 -0.32857131624E+02  0.36734902682E+02 -0.27791732362E+02  0.56581231211E+02  0.10566000000E+00 0. -1.
         22    1    1    0    0    0  0.36534513089E+01 -0.11090458583E+02  0.27242713347E+02  0.29639693125E+02  0.00000000000E+00 0. -1.
</event>
<event>
 5    1  0.1264859E-009  0.9118800E+02  0.7815553E-02  0.1125453E+00
         25   -1    0    0    0    0  0.00000000000E+00  0.00000000000E+00  0.99999998245E-14  0.12509000000E+03  0.12509000000E+03 0.  0.
        -13    1    3    3    0    0 -0.88529523258E+01 -0.40673676764E+02 -0.24088501439E+01  0.41695760809E+02  0.10566000000E+00 0.  1.
         23    2    1    0    0    0  0.11576905407E+02  0.43099645423E+01  0.24279196836E+02  0.97848855895E+02  0.93980416406E+02 0.  0.
         13    1    3    3    0    0  0.20429857733E+02  0.44983641306E+02  0.26688046980E+02  0.56153095086E+02  0.10566000000E+00 0. -1.
         22    1    1    0    0    0 -0.11576905407E+02 -0.43099645423E+01 -0.24279196836E+02  0.27241144105E+02  0.00000000000E+00 0. -1.
</event>
<event>
 5    1  0.1264859E-009  0.9118800E+02  0.7815553E-02  0.1125453E+00
         25   -1    0    0    0    0  0.00000000000E+00  0.00000000000E+00  0.99999998245E-14  0.12509000000E+03  0.12509000000E+03 0.  0.
        -13    1    3    3    0    0 -0.37643585873E+02 -0.10611976232E+01 -0.44832737811E+02  0.58550416236E+02  0.10566000000E+00 0. -1.
         23    2    1    0    0    0 -0.28320228848E+02 -0.54358806494E+01 -0.10490243843E+02  0.94404019873E+02  0.89277598488E+02 0.  0.
         13    1    3    3    0    0  0.93233570243E+01 -0.43746830261E+01  0.34342493968E+02  0.35853603637E+02  0.10566000000E+00 0.  1.
         22    1    1    0    0    0  0.28320228848E+02  0.54358806494E+01  0.10490243843E+02  0.30685980127E+02  0.00000000000E+00 0. -1.
</event>
<event>
 5    1  0.1264859E-009  0.9118800E+02  0.7815553E-02  0.1125453E+00
         25   -1    0    0    0    0  0.00000000000E+00  0.00000000000E+00  0.99999998245E-14  0.12509000000E+03  0.12509000000E+03 0.  0.
        -13    1    3    3    0    0  0.10163705547E+02  0.38264014212E+01 -0.44632544027E+02  0.45934925804E+02  0.10566000000E+00 0. -1.
         23    2    1    0    0    0 -0.24953065854E+02 -0.10952401405E+02 -0.17629029665E+02  0.92633979311E+02  0.86762093359E+02 0.  0.
         13    1    3    3    0    0 -0.35116771400E+02 -0.14778802826E+02  0.27003514361E+02  0.46699053507E+02  0.10566000000E+00 0.  1.
         22    1    1    0    0    0  0.24953065854E+02  0.10952401405E+02  0.17629029665E+02  0.32456020689E+02  0.00000000000E+00 0. -1.
</event>
<event>
 5    1  0.1264859E-009  0.9118800E+02  0.7815553E-02  0.1125453E+00
         25   -1    0    0    0    0  0.00000000000E+00  0.00000000000E+00  0.99999998245E-14  0.12509000000E+03  0.12509000000E+03 0.  0.
        -13    1    3    3    0    0  0.50414419652E+01  0.40236221006E+02 -0.14103128237E+02  0.42933425300E+02  0.10566000000E+00 0.  1.
         23    2    1    0    0    0  0.29502293140E+02 -0.34160503739E+01  0.15126370089E+01  0.95352098739E+02  0.90596246956E+02 0.  0.
         13    1    3    3    0    0  0.24460851175E+02 -0.43652271380E+02  0.15615765245E+02  0.52418673439E+02  0.10566000000E+00 0. -1.
         22    1    1    0    0    0 -0.29502293140E+02  0.34160503739E+01 -0.15126370089E+01  0.29737901261E+02  0.00000000000E+00 0. -1.
</event>
<event>
 5    1  0.1264859E-009  0.9118800E+02  0.7815553E-02  0.1125453E+00
         25   -1    0    0    0    0  0.00000000000E+00  0.00000000000E+00  0.99999998245E-14  0.12509000000E+03  0.12509000000E+03 0.  0.
        -13    1    3    3    0    0 -0.43596788156E+02  0.20156807252E+02  0.68004809591E+01  0.48510148643E+02  0.10566000000E+00 0. -1.
         23    2    1    0    0    0 -0.18305701882E+02 -0.19905883888E+02  0.10607269060E+02  0.96040781566E+02  0.91542201372E+02 0.  0.
         13    1    3    3    0    0  0.25291086274E+02 -0.40062691140E+02  0.38067881004E+01  0.47530632922E+02  0.10566000000E+00 0.  1.
         22    1    1    0    0    0  0.18305701882E+02  0.19905883888E+02 -0.10607269060E+02  0.29049218434E+02  0.00000000000E+00 0.  1.
</event>
<event>
 5    1  0.1264859E-009  0.9118800E+02  0.7815553E-02  0.1125453E+00
         25   -1    0    0    0    0  0.00000000000E+00  0.00000000000E+00  0.99999998245E-14  0.12509000000E+03  0.12509000000E+03 0.  0.
        -13    1    3    3    0    0 -0.22840842047E+02  0.50411291196E+01  0.41828513733E+02  0.47924448598E+02  0.10566000000E+00 0.  1.
         23    2    1    0    0    0  0.14695328294E+02  0.19464222216E+02  0.19076475494E+02  0.94126787353E+02  0.88888309468E+02 0.  0.
         13    1    3    3    0    0  0.37536170342E+02  0.14423093097E+02 -0.22752038240E+02  0.46202338756E+02  0.10566000000E+00 0. -1.
         22    1    1    0    0    0 -0.14695328294E+02 -0.19464222216E+02 -0.19076475494E+02  0.30963212647E+02  0.00000000000E+00 0.  1.
</event>
<event>
 5    1  0.1264859E-009  0.9118800E+02  0.7815553E-02  0.1125453E+00
         25   -1    0    0    0    0  0.00000000000E+00  0.00000000000E+00  0.99999998245E-14  0.12509000000E+03  0.12509000000E+03 0.  0.
        -13    1    3    3    0    0  0.14806845797E+02 -0.54892211370E+02 -0.15173926056E+02  0.58844343378E+02  0.10566000000E+00 0. -1.
         23    2    1    0    0    0 -0.39065917947E+01 -0.32927976172E+02  0.98566865643E+00  0.91916447025E+02  0.85721342831E+02 0.  0.
         13    1    3    3    0    0 -0.18713437592E+02  0.21964235198E+02  0.16159594713E+02  0.33072103647E+02  0.10566000000E+00 0.  1.
         22    1    1    0    0    0  0.39065917947E+01  0.32927976172E+02 -0.98566865643E+00  0.33173552975E+02  0.00000000000E+00 0. -1.
</event>
<event>
 5    1  0.1264859E-009  0.9118800E+02  0.7815553E-02  0.1125453E+00
         25   -1    0    0    0    0  0.00000000000E+00  0.00000000000E+00  0.99999998245E-14  0.12509000000E+03  0.12509000000E+03 0.  0.
        -13    1    3    3    0    0  0.52540861809E+02  0.25255381540E+02 -0.29716055359E+00  0.58296448646E+02  0.10566000000E+00 0. -1.
         23    2    1    0    0    0  0.50228471830E+01  0.14214152171E+02 -0.85273812015E+01  0.10776985722E+03  0.10636895590E+03 0.  0.
         13    1    3    3    0    0 -0.47518014626E+02 -0.11041229369E+02 -0.82302206480E+01  0.49473408574E+02  0.10566000000E+00 0.  1.
         22    1    1    0    0    0 -0.50228471830E+01 -0.14214152171E+02  0.85273812015E+01  0.17320142780E+02  0.00000000000E+00 0.  1.
</event>
<event>
 5    1  0.1264859E-009  0.9118800E+02  0.7815553E-02  0.1125453E+00
         25   -1    0    0    0    0  0.00000000000E+00  0.00000000000E+00  0.99999998245E-14  0.12509000000E+03  0.12509000000E+03 0.  0.
        -13    1    3    3    0    0  0.52839864175E+02  0.11065698791E+01  0.17718360791E+02  0.55742508161E+02  0.10566000000E+00 0.  1.
         23    2    1    0    0    0  0.17202762738E+02  0.20209482665E+02  0.85932853817E+01  0.97193713705E+02  0.93104324253E+02 0.  0.
         13    1    3    3    0    0 -0.35637101437E+02  0.19102912786E+02 -0.91250754088E+01  0.41451205544E+02  0.10566000000E+00 0. -1.
         22    1    1    0    0    0 -0.17202762738E+02 -0.20209482665E+02 -0.85932853817E+01  0.27896286295E+02  0.00000000000E+00 0.  1.
</event>
<event>
 5    1  0.1264859E-009  0.9118800E+02  0.7815553E-02  0.1125453E+00
         25   -1    0    0    0    0  0.00000000000E+00  0.00000000000E+00  0.99999998245E-14  0.12509000000E+03  0.12509000000E+03 0.  0.
        -13    1    3    3    0    0  0.11352234597E+02 -0.40661035914E+02  0.10688848118E+02  0.43548314664E+02  0.10566000000E+00 0.  1.
         23    2    1    0    0    0 -0.24487611694E+02 -0.28340535261E+01  0.15645893236E+02  0.95892928896E+02  0.91339941161E+02 0.  0.
         13    1    3    3    0    0 -0.35839846291E+02  0.37826982388E+02  0.49570451186E+01  0.52344614232E+02  0.10566000000E+00 0. -1.
         22    1    1    0    0    0  0.24487611694E+02  0.28340535261E+01 -0.15645893236E+02  0.29197071104E+02  0.00000000000E+00 0. -1.
</event>
<event>
 5    1  0.1264859E-009  0.9118800E+02  0.7815553E-02  0.1125453E+00
         25   -1    0    0    0    0  0.00000000000E+00  0.00000000000E+00  0.99999998245E-14  0.12509000000E+03  0.12509000000E+03 0.  0.
        -13    1    3    3    0    0 -0.31321503278E+02  0.44496166161E+02  0.70157554493E+00  0.54419194618E+02  0.10566000000E+00 0.  1.
         23    2    1    0    0    0 -0.10694254225E+02  0.14457510876E+02  0.22038427233E+02  0.96645686525E+02  0.92365089481E+02 0.  0.
         13    1    3    3    0    0  0.20627249053E+02 -0.30038655284E+02  0.21336851688E+02  0.42226491907E+02  0.10566000000E+00 0. -1.
         22    1    1    0    0    0  0.10694254225E+02 -0.14457510876E+02 -0.22038427233E+02  0.28444313475E+02  0.00000000000E+00 0.  1.
</event>
<event>
 5    1  0.1264859E-009  0.9118800E+02  0.7815553E-02  0.1125453E+00
         25   -1    0    0    0    0  0.00000000000E+00  0.00000000000E+00  0.99999998245E-14  0.12509000000E+03  0.12509000000E+03 0.  0.
        -13    1    3    3    0    0  0.84821500885E+01 -0.12139431310E+02 -0.10624520264E+02  0.18226471341E+02  0.10566000000E+00 0. -1.
         23    2    1    0    0    0 -0.24278571984E+02  0.12707911990E+02  0.35646929385E+02  0.80127308140E+02  0.66323011470E+02 0.  0.
         13    1    3    3    0    0 -0.32760722072E+02  0.24847343301E+02  0.46271449649E+02  0.61900836799E+02  0.10566000000E+00 0.  1.
         22    1    1    0    0    0  0.24278571984E+02 -0.12707911990E+02 -0.35646929385E+02  0.44962691860E+02  0.00000000000E+00 0.  1.
</event>
<event>
 5    1  0.1264859E-009  0.9118800E+02  0.7815553E-02  0.1125453E+00
         25   -1    0    0    0    0  0.00000000000E+00  0.00000000000E+00  0.99999998245E-14  0.12509000000E+03  0.12509000000E+03 0.  0.
        -13    1    3    3    0    0 -0.82020732324E+01  0.47627850202E+02  0.32116946380E+02  0.58027541125E+02  0.10566000000E+00 0.  1.
         23    2    1    0    0    0  0.88266797416E+01  0.15264128384E+02  0.23693367545E+02  0.95555620775E+02  0.90876823808E+02 0.  0.
         13    1    3    3    0    0  0.17028752974E+02 -0.32363721818E+02 -0.84235788352E+01  0.37528079650E+02  0.10566000000E+00 0. -1.
         22    1    1    0    0    0 -0.88266797416E+01 -0.15264128384E+02 -0.23693367545E+02  0.29534379225E+02  0.00000000000E+00 0.  1.
</event>
<event>
 5    1  0.1264859E-009  0.9118800E+02  0.7815553E-02  0.1125453E+00
         25   -1    0    0    0    0  0.00000000000E+00  0.00000000000E+00  0.99999998245E-14  0.12509000000E+03  0.12509000000E+03 0.  0.
        -13    1    3    3    0    0  0.48473200999E+02 -0.10841587714E+01  0.29040159237E+02  0.56516976457E+02  0.10566000000E+00 0. -1.
         23    2    1    0    0    0  0.13019205728E+02 -0.15541613547E+02  0.21495441501E+02  0.95541810973E+02  0.90857812924E+02 0.  0.
         13    1    3    3    0    0 -0.35453995271E+02 -0.14457454775E+02 -0.75447177357E+01  0.39024834516E+02  0.10566000000E+00 0.  1.
         22    1    1    0    0    0 -0.13019205728E+02  0.15541613547E+02 -0.21495441501E+02  0.29548189027E+02  0.00000000000E+00 0. -1.
</event>
<event>
 5    1  0.1264859E-009  0.9118800E+02  0.7815553E-02  0.1125453E+00
         25   -1    0    0    0    0  0.00000000000E+00  0.00000000000E+00  0.99999998245E-14  0.12509000000E+03  0.12509000000E+03 0.  0.
        -13    1    3    3    0    0  0.16240158149E+02  0.42086314299E+02  0.37640531392E+02  0.58752202984E+02  0.10566000000E+00 0.  1.
         23    2    1    0    0    0  0.20203232023E+02  0.19443658006E+02  0.86580183887E+01  0.95744000218E+02  0.91135755192E+02 0.  0.
         13    1    3    3    0    0  0.39630738743E+01 -0.22642656293E+02 -0.28982513004E+02  0.36991797234E+02  0.10566000000E+00 0. -1.
         22    1    1    0    0    0 -0.20203232023E+02 -0.19443658006E+02 -0.86580183887E+01  0.29345999782E+02  0.00000000000E+00 0.  1.
</event>
<event>
 5    1  0.1264859E-009  0.9118800E+02  0.7815553E-02  0.1125453E+00
         25   -1    0    0    0    0  0.00000000000E+00  0.00000000000E+00  0.99999998245E-14  0.12509000000E+03  0.12509000000E+03 0.  0.
        -13    1    3    3    0    0  0.19326687593E+02  0.44765587086E+02 -0.17930703168E+01  0.48792467715E+02  0.10566000000E+00 0.  1.
         23    2    1    0    0    0 -0.13474840283E+02  0.27768369399E+02 -0.18246741960E+02  0.89234773716E+02  0.81714427051E+02 0.  0.
         13    1    3    3    0    0 -0.32801527876E+02 -0.16997217688E+02 -0.16453671644E+02  0.40442306001E+02  0.10566000000E+00 0. -1.
         22    1    1    0    0    0  0.13474840283E+02 -0.27768369399E+02  0.18246741960E+02  0.35855226284E+02  0.00000000000E+00 0.  1.
</event>
<event>
 5    1  0.1264859E-009  0.9118800E+02  0.7815553E-02  0.1125453E+00
         25   -1    0    0    0    0  0.00000000000E+00  0.00000000000E+00  0.99999998245E-14  0.12509000000E+03  0.12509000000E+03 0.  0.
        -13    1    3    3    0    0  0.15197091514E+02  0.59208725073E+02  0.26844786144E+01  0.61186945542E+02  0.10566000000E+00 0.  1.
         23    2    1    0    0    0  0.13577875472E+02  0.23993083779E+02 -0.44777061291E+01  0.97160148161E+02  0.93059216454E+02 0.  0.
         13    1    3    3    0    0 -0.16192160419E+01 -0.35215641294E+02 -0.71621847435E+01  0.35973202619E+02  0.10566000000E+00 0. -1.
         22    1    1    0    0    0 -0.13577875472E+02 -0.23993083779E+02  0.44777061291E+01  0.27929851839E+02  0.00000000000E+00 0.  1.
</event>
<event>
 5    1  0.1264859E-009  0.9118800E+02  0.7815553E-02  0.1125453E+00
         25   -1    0    0    0    0  0.00000000000E+00  0.00000000000E+00  0.99999998245E-14  0.12509000000E+03  0.12509000000E+03 0.  0.
        -13    1    3    3    0    0 -0.41857680387E+02  0.24964004222E+02  0.24521758840E+02  0.54558177525E+02  0.10566000000E+00 0. -1.
         23    2    1    0    0    0 -0.77661827679E+01  0.29050891765E+02  0.35051909075E+01  0.94815352679E+02  0.89852083077E+02 0.  0.
         13    1    3    3    0    0  0.34091497619E+02  0.40868875423E+01 -0.21016567933E+02  0.40257175154E+02  0.10566000000E+00 0.  1.
         22    1    1    0    0    0  0.77661827679E+01 -0.29050891765E+02 -0.35051909075E+01  0.30274647321E+02  0.00000000000E+00 0.  1.
</event>
<event>
 5    1  0.1264859E-009  0.9118800E+02  0.7815553E-02  0.1125453E+00
         25   -1    0    0    0    0  0.00000000000E+00  0.00000000000E+00  0.99999998245E-14  0.12509000000E+03  0.12509000000E+03 0.  0.
        -13    1    3    3    0    0  0.48606531941E+02 -0.32886544011E+02  0.71794492891E+01  0.59124236827E+02  0.10566000000E+00 0.  1.
         23    2    1    0    0    0  0.26688612199E+02 -0.40457018228E+01  0.11777187561E+02  0.95639161792E+02  0.90991743565E+02 0.  0.
         13    1    3    3    0    0 -0.21917919742E+02  0.28840842188E+02  0.45977382714E+01  0.36514924965E+02  0.10566000000E+00 0. -1.
         22    1    1    0    0    0 -0.26688612199E+02  0.40457018228E+01 -0.11777187561E+02  0.29450838208E+02  0.00000000000E+00 0.  1.
</event>
<event>
 5    1  0.1264859E-009  0.9118800E+02  0.7815553E-02  0.1125453E+00
         25   -1    0    0    0    0  0.00000000000E+00  0.00000000000E+00  0.99999998245E-14  0.12509000000E+03  0.12509000000E+03 0.  0.
        -13    1    3    3    0    0  0.15149533609E+02  0.46317945227E+02  0.22073418661E+02  0.53498667217E+02  0.10566000000E+00 0.  1.
         23    2    1    0    0    0 -0.15033631788E+02  0.26369470285E+02  0.17727604508E+02  0.89938513411E+02  0.82784715891E+02 0.  0.
         13    1    3    3    0    0 -0.30183165397E+02 -0.19948474943E+02 -0.43458141528E+01  0.36439846193E+02  0.10566000000E+00 0. -1.
         22    1    1    0    0    0  0.15033631788E+02 -0.26369470285E+02 -0.17727604508E+02  0.35151486589E+02  0.00000000000E+00 0.  1.
</event>
<event>
 5    1  0.1264859E-009  0.9118800E+02  0.7815553E-02  0.1125453E+00
         25   -1    0    0    0    0  0.00000000000E+00  0.00000000000E+00  0.99999998245E-14  0.12509000000E+03  0.12509000000E+03 0.  0.
        -13    1    3    3    0    0  0.63806213815E+01 -0.67190136185E+01 -0.58585744151E+02  0.59314062877E+02  0.10566000000E+00 0.  1.
         23    2    1    0    0    0  0.36202245576E+01  0.11080099587E+02 -0.27129724146E+02  0.95562105308E+02  0.90885749191E+02 0.  0.
         13    1    3    3    0    0 -0.27603968239E+01  0.17799113206E+02  0.31456020005E+02  0.36248042431E+02  0.10566000000E+00 0. -1.
         22    1    1    0    0    0 -0.36202245576E+01 -0.11080099587E+02  0.27129724146E+02  0.29527894692E+02  0.00000000000E+00 0.  1.
</event>
<event>
 5    1  0.1264859E-009  0.9118800E+02  0.7815553E-02  0.1125453E+00
         25   -1    0    0    0    0  0.00000000000E+00  0.00000000000E+00  0.99999998245E-14  0.12509000000E+03  0.12509000000E+03 0.  0.
        -13    1    3    3    0    0  0.12477685837E+02  0.30230516475E+02 -0.15513163855E+02  0.36197322926E+02  0.10566000000E+00 0. -1.
         23    2    1    0    0    0 -0.84067117132E+01 -0.64577072308E+01  0.26983689041E+02  0.96098720988E+02  0.91621339854E+02 0.  0.
         13    1    3    3    0    0 -0.20884397550E+02 -0.36688223705E+02  0.42496852896E+02  0.59901398062E+02  0.10566000000E+00 0.  1.
         22    1    1    0    0    0  0.84067117132E+01  0.64577072308E+01 -0.26983689041E+02  0.28991279012E+02  0.00000000000E+00 0.  1.
</event>
<event>
 5    1  0.1264859E-009  0.9118800E+02  0.7815553E-02  0.1125453E+00
         25   -1    0    0    0    0  0.00000000000E+00  0.00000000000E+00  0.99999998245E-14  0.12509000000E+03  0.12509000000E+03 0.  0.
        -13    1    3    3    0    0 -0.49441582559E+02  0.14450476162E+02 -0.33457227400E+02  0.61422174958E+02  0.10566000000E+00 0.  1.
         23    2    1    0    0    0 -0.27929038319E+02  0.41274447946E+01 -0.93296353915E+01  0.95356028208E+02  0.90601672375E+02 0.  0.
         13    1    3    3    0    0  0.21512544239E+02 -0.10323031367E+02  0.24127592009E+02  0.33933853251E+02  0.10566000000E+00 0. -1.
         22    1    1    0    0    0  0.27929038319E+02 -0.41274447946E+01  0.93296353915E+01  0.29733971792E+02  0.00000000000E+00 0.  1.
</event>
<event>
 5    1  0.1264859E-009  0.9118800E+02  0.7815553E-02  0.1125453E+00
         25   -1    0    0    0    0  0.00000000000E+00  0.00000000000E+00  0.99999998245E-14  0.12509000000E+03  0.12509000000E+03 0.  0.
        -13    1    3    3    0    0  0.91175523813E+01  0.15059077261E+02  0.31941777566E+02  0.36471823199E+02  0.10566000000E+00 0.  1.
         23    2    1    0    0    0  0.38980562558E+02  0.12713462303E+02 -0.47228850646E+01  0.83817466465E+02  0.72951666603E+02 0.  0.
         13    1    3    3    0    0  0.29863010177E+02 -0.23456149578E+01 -0.36664662631E+02  0.47345643265E+02  0.10566000000E+00 0. -1.
         22    1    1    0    0    0 -0.38980562558E+02 -0.12713462303E+02  0.47228850646E+01  0.41272533535E+02  0.00000000000E+00 0. -1.
</event>
<event>
 5    1  0.1264859E-009  0.9118800E+02  0.7815553E-02  0.1125453E+00
         25   -1    0    0    0    0  0.00000000000E+00  0.00000000000E+00  0.99999998245E-14  0.12509000000E+03  0.12509000000E+03 0.  0.
        -13    1    3    3    0    0 -0.25879310120E+02 -0.38235498050E+02  0.15750348549E+02  0.48782954470E+02  0.10566000000E+00 0. -1.
         23    2    1    0    0    0 -0.29052871310E+02  0.57174482759E+01  0.30652854870E+00  0.95478304576E+02  0.90770337329E+02 0.  0.
         13    1    3    3    0    0 -0.31735611899E+01  0.43952946326E+02 -0.15443820000E+02  0.46695350106E+02  0.10566000000E+00 0.  1.
         22    1    1    0    0    0  0.29052871310E+02 -0.57174482759E+01 -0.30652854870E+00  0.29611695424E+02  0.00000000000E+00 0. -1.
</event>
<event>
 5    1  0.1264859E-009  0.9118800E+02  0.7815553E-02  0.1125453E+00
         25   -1    0    0    0    0  0.00000000000E+00  0.00000000000E+00  0.99999998245E-14  0.12509000000E+03  0.12509000000E+03 0.  0.
        -13    1    3    3    0    0 -0.28641893487E+02  0.29359763960E+02  0.28989496163E+02  0.50227043055E+02  0.10566000000E+00 0.  1.
         23    2    1    0    0    0  0.11768303232E+02  0.21722339624E+02  0.27878360248E+00  0.10038310380E+03  0.97295101664E+02 0.  0.
         13    1    3    3    0    0  0.40410196719E+02 -0.76374243364E+01 -0.28710712560E+02  0.50156060741E+02  0.10566000000E+00 0. -1.
         22    1    1    0    0    0 -0.11768303232E+02 -0.21722339624E+02 -0.27878360248E+00  0.24706896203E+02  0.00000000000E+00 0.  1.
</event>
<event>
 5    1  0.1264859E-009  0.9118800E+02  0.7815553E-02  0.1125453E+00
         25   -1    0    0    0    0  0.00000000000E+00  0.00000000000E+00  0.99999998245E-14  0.12509000000E+03  0.12509000000E+03 0.  0.
        -13    1    3    3    0    0  0.39628307894E+02  0.66688561978E+01 -0.39906419292E+02  0.56633999455E+02  0.10566000000E+00 0. -1.
         23    2    1    0    0    0  0.75330165206E+01  0.18533621767E+02 -0.22352123884E+02  0.95092351496E+02  0.90236890445E+02 0.  0.
         13    1    3    3    0    0 -0.32095291373E+02  0.11864765569E+02  0.17554295408E+02  0.38458352041E+02  0.10566000000E+00 0.  1.
         22    1    1    0    0    0 -0.75330165206E+01 -0.18533621767E+02  0.22352123884E+02  0.29997648504E+02  0.00000000000E+00 0. -1.
</event>
<event>
 5    1  0.1264859E-009  0.9118800E+02  0.7815553E-02  0.1125453E+00
         25   -1    0    0    0    0  0.00000000000E+00  0.00000000000E+00  0.99999998245E-14  0.12509000000E+03  0.12509000000E+03 0.  0.
        -13    1    3    3    0    0  0.23370066749E+02  0.10793440290E+02 -0.35072191060E+02  0.43505495319E+02  0.10566000000E+00 0.  1.
         23    2    1    0    0    0  0.53111270533E-01  0.34719873178E+02 -0.23171813358E+01  0.90292848627E+02  0.83318405947E+02 0.  0.
         13    1    3    3    0    0 -0.23316955479E+02  0.23926432888E+02  0.32755009724E+02  0.46787353308E+02  0.10566000000E+00 0. -1.
         22    1    1    0    0    0 -0.53111270533E-01 -0.34719873178E+02  0.23171813358E+01  0.34797151373E+02  0.00000000000E+00 0.  1.
</event>
<event>
 5    1  0.1264859E-009  0.9118800E+02  0.7815553E-02  0.1125453E+00
         25   -1    0    0    0    0  0.00000000000E+00  0.00000000000E+00  0.99999998245E-14  0.12509000000E+03  0.12509000000E+03 0.  0.
        -13    1    3    3    0    0 -0.53069856025E+02 -0.23030190569E+02  0.70074874891E+01  0.58274482761E+02  0.10566000000E+00 0. -1.
         23    2    1    0    0    0 -0.28372705123E+02  0.22753489290E+01 -0.60895679035E+01  0.95982089632E+02  0.91461965233E+02 0.  0.
         13    1    3    3    0    0  0.24697150902E+02  0.25305539498E+02 -0.13097055393E+02  0.37707606871E+02  0.10566000000E+00 0.  1.
         22    1    1    0    0    0  0.28372705123E+02 -0.22753489290E+01  0.60895679035E+01  0.29107910368E+02  0.00000000000E+00 0. -1.
</event>
<event>
 5    1  0.1264859E-009  0.9118800E+02  0.7815553E-02  0.1125453E+00
         25   -1    0    0    0    0  0.00000000000E+00  0.00000000000E+00  0.99999998245E-14  0.12509000000E+03  0.12509000000E+03 0.  0.
        -13    1    3    3    0    0  0.22652067197E+02  0.47404301375E+01  0.46410484049E+02  0.51860698220E+02  0.10566000000E+00 0. -1.
         23    2    1    0    0    0  0.51646543516E+01  0.26651794312E+02  0.14585989486E+02  0.94272101241E+02  0.89092570894E+02 0.  0.
         13    1    3    3    0    0 -0.17487412845E+02  0.21911364175E+02 -0.31824494563E+02  0.42411403021E+02  0.10566000000E+00 0.  1.
         22    1    1    0    0    0 -0.51646543516E+01 -0.26651794312E+02 -0.14585989486E+02  0.30817898759E+02  0.00000000000E+00 0.  1.
</event>
<event>
 5    1  0.1264859E-009  0.9118800E+02  0.7815553E-02  0.1125453E+00
         25   -1    0    0    0    0  0.00000000000E+00  0.00000000000E+00  0.99999998245E-14  0.12509000000E+03  0.12509000000E+03 0.  0.
        -13    1    3    3    0    0  0.20968431183E+02 -0.16427420196E+02 -0.33307035138E+02  0.42648622420E+02  0.10566000000E+00 0.  1.
         23    2    1    0    0    0 -0.14407865747E+02 -0.24910270981E+02  0.54466939322E+01  0.95802209531E+02  0.91215616429E+02 0.  0.
         13    1    3    3    0    0 -0.35376296930E+02 -0.84828507852E+01  0.38753729071E+02  0.53153587112E+02  0.10566000000E+00 0. -1.
         22    1    1    0    0    0  0.14407865747E+02  0.24910270981E+02 -0.54466939322E+01  0.29287790469E+02  0.00000000000E+00 0. -1.
</event>
<event>
 5    1  0.1264859E-009  0.9118800E+02  0.7815553E-02  0.1125453E+00
         25   -1    0    0    0    0  0.00000000000E+00  0.00000000000E+00  0.99999998245E-14  0.12509000000E+03  0.12509000000E+03 0.  0.
        -13    1    3    3    0    0 -0.40817963936E+02 -0.87820638648E+01  0.23222669435E+02  0.47775876395E+02  0.10566000000E+00 0.  1.
         23    2    1    0    0    0  0.21414030451E+01 -0.28375734769E+01  0.32724150580E+02  0.92173325481E+02  0.86095380066E+02 0.  0.
         13    1    3    3    0    0  0.42959366981E+02  0.59444903878E+01  0.95014811443E+01  0.44397449086E+02  0.10566000000E+00 0. -1.
         22    1    1    0    0    0 -0.21414030451E+01  0.28375734769E+01 -0.32724150580E+02  0.32916674519E+02  0.00000000000E+00 0.  1.
</event>
<event>
 5    1  0.1264859E-009  0.9118800E+02  0.7815553E-02  0.1125453E+00
         25   -1    0    0    0    0  0.00000000000E+00  0.00000000000E+00  0.99999998245E-14  0.12509000000E+03  0.12509000000E+03 0.  0.
        -13    1    3    3    0    0 -0.94921792037E+01  0.71804962076E+01 -0.37382358159E+02  0.39231528868E+02  0.10566000000E+00 0. -1.
         23    2    1    0    0    0  0.27495182360E+02 -0.11919074549E+02 -0.87320198781E-01  0.95122400565E+02  0.90278536061E+02 0.  0.
         13    1    3    3    0    0  0.36987361563E+02 -0.19099570757E+02  0.37295037960E+02  0.55890871696E+02  0.10566000000E+00 0.  1.
         22    1    1    0    0    0 -0.27495182360E+02  0.11919074549E+02  0.87320198781E-01  0.29967599435E+02  0.00000000000E+00 0.  1.
</event>
<event>
 5    1  0.1264859E-009  0.9118800E+02  0.7815553E-02  0.1125453E+00
         25   -1    0    0    0    0  0.00000000000E+00  0.00000000000E+00  0.99999998245E-14  0.12509000000E+03  0.12509000000E+03 0.  0.
        -13    1    3    3    0    0  0.30879622917E+02  0.25661270717E+02  0.35826523599E+02  0.53810806383E+02  0.10566000000E+00 0. -1.
         23    2    1    0    0    0  0.16809111288E+01 -0.27149894398E+01  0.29975369701E+02  0.94945026645E+02  0.90032431191E+02 0.  0.
         13    1    3    3    0    0 -0.29198711788E+02 -0.28376260157E+02 -0.58511538987E+01  0.41134220262E+02  0.10566000000E+00 0.  1.
         22    1    1    0    0    0 -0.16809111288E+01  0.27149894398E+01 -0.29975369701E+02  0.30144973355E+02  0.00000000000E+00 0. -1.
</event>
<event>
 5    1  0.1264859E-009  0.9118800E+02  0.7815553E-02  0.1125453E+00
         25   -1    0    0    0    0  0.00000000000E+00  0.00000000000E+00  0.99999998245E-14  0.12509000000E+03  0.12509000000E+03 0.  0.
        -13    1    3    3    0    0 -0.19909874310E+02 -0.37765090352E+02  0.40049267238E+02  0.58536826995E+02  0.10566000000E+00 0. -1.
         23    2    1    0    0    0  0.42459159609E+01 -0.25061638025E+02  0.15040647715E+02  0.95554689158E+02  0.90875541449E+02 0.  0.
         13    1    3    3    0    0  0.24155790271E+02  0.12703452327E+02 -0.25008619523E+02  0.37017862163E+02  0.10566000000E+00 0.  1.
         22    1    1    0    0    0 -0.42459159609E+01  0.25061638025E+02 -0.15040647715E+02  0.29535310842E+02  0.00000000000E+00 0. -1.
</event>
<event>
 5    1  0.1264859E-009  0.9118800E+02  0.7815553E-02  0.1125453E+00
         25   -1    0    0    0    0  0.00000000000E+00  0.00000000000E+00  0.99999998245E-14  0.12509000000E+03  0.12509000000E+03 0.  0.
        -13    1    3    3    0    0  0.27947641412E+02 -0.21952797644E+02  0.61976628003E+01  0.36075173917E+02  0.10566000000E+00 0.  1.
         23    2    1    0    0    0 -0.73856940955E+01  0.27241628688E+02  0.24187389796E+01  0.96761478875E+02  0.92521774113E+02 0.  0.
         13    1    3    3    0    0 -0.35333335508E+02  0.49194426332E+02 -0.37789238206E+01  0.60686304959E+02  0.10566000000E+00 0. -1.
         22    1    1    0    0    0  0.73856940955E+01 -0.27241628688E+02 -0.24187389796E+01  0.28328521125E+02  0.00000000000E+00 0. -1.
</event>
<event>
 5    1  0.1264859E-009  0.9118800E+02  0.7815553E-02  0.1125453E+00
         25   -1    0    0    0    0  0.00000000000E+00  0.00000000000E+00  0.99999998245E-14  0.12509000000E+03  0.12509000000E+03 0.  0.
        -13    1    3    3    0    0 -0.10819295821E+02  0.23053611531E+02 -0.20642910891E+02  0.32782115562E+02  0.10566000000E+00 0.  1.
         23    2    1    0    0    0 -0.31973053808E+02 -0.21120728313E+02  0.19524004761E+01  0.86721090687E+02  0.77771295270E+02 0.  0.
         13    1    3    3    0    0 -0.21153757987E+02 -0.44174339844E+02  0.22595311367E+02  0.53938975124E+02  0.10566000000E+00 0. -1.
         22    1    1    0    0    0  0.31973053808E+02  0.21120728313E+02 -0.19524004761E+01  0.38368909313E+02  0.00000000000E+00 0. -1.
</event>
<event>
 5    1  0.1264859E-009  0.9118800E+02  0.7815553E-02  0.1125453E+00
         25   -1    0    0    0    0  0.00000000000E+00  0.00000000000E+00  0.99999998245E-14  0.12509000000E+03  0.12509000000E+03 0.  0.
        -13    1    3    3    0    0 -0.50947116485E+02  0.93136025878E+01 -0.20429751274E+02  0.55675288706E+02  0.10566000000E+00 0.  1.
         23    2    1    0    0    0 -0.26920492219E+02 -0.49972754963E+00  0.10622303495E+02  0.96145294777E+02  0.91684904686E+02 0.  0.
         13    1    3    3    0    0  0.24026624267E+02 -0.98133301374E+01  0.31052054768E+02  0.40470006071E+02  0.10566000000E+00 0. -1.
         22    1    1    0    0    0  0.26920492219E+02  0.49972754963E+00 -0.10622303495E+02  0.28944705223E+02  0.00000000000E+00 0.  1.
</event>
<event>
 5    1  0.1264859E-009  0.9118800E+02  0.7815553E-02  0.1125453E+00
         25   -1    0    0    0    0  0.00000000000E+00  0.00000000000E+00  0.99999998245E-14  0.12509000000E+03  0.12509000000E+03 0.  0.
        -13    1    3    3    0    0  0.28611312885E+02  0.10681055959E+02  0.25217534826E+02  0.39605901178E+02  0.10566000000E+00 0. -1.
         23    2    1    0    0    0  0.52567397683E+01 -0.30929893435E+02 -0.29514300209E+00  0.93715189558E+02  0.88307179910E+02 0.  0.
         13    1    3    3    0    0 -0.23354573116E+02 -0.41610949394E+02 -0.25512677829E+02  0.54109288380E+02  0.10566000000E+00 0.  1.
         22    1    1    0    0    0 -0.52567397683E+01  0.30929893435E+02  0.29514300209E+00  0.31374810442E+02  0.00000000000E+00 0.  1.
</event>
<event>
 5    1  0.1264859E-009  0.9118800E+02  0.7815553E-02  0.1125453E+00
         25   -1    0    0    0    0  0.00000000000E+00  0.00000000000E+00  0.99999998245E-14  0.12509000000E+03  0.12509000000E+03 0.  0.
        -13    1    3    3    0    0  0.32879093537E+02 -0.18926373815E+02  0.47574807136E+02  0.60849123705E+02  0.10566000000E+00 0. -1.
         23    2    1    0    0    0  0.66418889138E+01 -0.12082907417E+02  0.26595826282E+02  0.95132541570E+02  0.90292586351E+02 0.  0.
         13    1    3    3    0    0 -0.26237204624E+02  0.68434663982E+01 -0.20978980854E+02  0.34283417865E+02  0.10566000000E+00 0.  1.
         22    1    1    0    0    0 -0.66418889138E+01  0.12082907417E+02 -0.26595826282E+02  0.29957458430E+02  0.00000000000E+00 0. -1.
</event>
<event>
 5    1  0.1264859E-009  0.9118800E+02  0.7815553E-02  0.1125453E+00
         25   -1    0    0    0    0  0.00000000000E+00  0.00000000000E+00  0.99999998245E-14  0.12509000000E+03  0.12509000000E+03 0.  0.
        -13    1    3    3    0    0 -0.73796790118E+01  0.36616967128E+02 -0.25977197873E+02  0.45498218837E+02  0.10566000000E+00 0.  1.
         23    2    1    0    0    0 -0.26838277661E+02 -0.67688966555E+01 -0.99883922464E+01  0.95664176488E+02  0.91026125775E+02 0.  0.
         13    1    3    3    0    0 -0.19458598649E+02 -0.43385863784E+02  0.15988805626E+02  0.50165957651E+02  0.10566000000E+00 0. -1.
         22    1    1    0    0    0  0.26838277661E+02  0.67688966555E+01  0.99883922464E+01  0.29425823512E+02  0.00000000000E+00 0.  1.
</event>
<event>
 5    1  0.1264859E-009  0.9118800E+02  0.7815553E-02  0.1125453E+00
         25   -1    0    0    0    0  0.00000000000E+00  0.00000000000E+00  0.99999998245E-14  0.12509000000E+03  0.12509000000E+03 0.  0.
        -13    1    3    3    0    0  0.31197434689E+02 -0.28966855808E+02 -0.37918921337E+02  0.57010651864E+02  0.10566000000E+00 0.  1.
         23    2    1    0    0    0  0.27641647745E+02 -0.43888571751E+01 -0.78240062984E+01  0.96029066912E+02  0.91526192208E+02 0.  0.
         13    1    3    3    0    0 -0.35557869437E+01  0.24577998633E+02  0.30094915039E+02  0.39018415048E+02  0.10566000000E+00 0. -1.
         22    1    1    0    0    0 -0.27641647745E+02  0.43888571751E+01  0.78240062984E+01  0.29060933088E+02  0.00000000000E+00 0.  1.
</event>
<event>
 5    1  0.1264859E-009  0.9118800E+02  0.7815553E-02  0.1125453E+00
         25   -1    0    0    0    0  0.00000000000E+00  0.00000000000E+00  0.99999998245E-14  0.12509000000E+03  0.12509000000E+03 0.  0.
        -13    1    3    3    0    0 -0.59733061400E+02  0.72497038279E+01  0.16307567597E+02  0.62342158727E+02  0.10566000000E+00 0.  1.
         23    2    1    0    0    0 -0.24634763936E+02  0.22109944762E+01  0.31794966352E+01  0.10015269282E+03  0.96998415392E+02 0.  0.
         13    1    3    3    0    0  0.35098297464E+02 -0.50387093517E+01 -0.13128070962E+02  0.37810534088E+02  0.10566000000E+00 0. -1.
         22    1    1    0    0    0  0.24634763936E+02 -0.22109944762E+01 -0.31794966352E+01  0.24937307185E+02  0.00000000000E+00 0.  1.
</event>
<event>
 5    1  0.1264859E-009  0.9118800E+02  0.7815553E-02  0.1125453E+00
         25   -1    0    0    0    0  0.00000000000E+00  0.00000000000E+00  0.99999998245E-14  0.12509000000E+03  0.12509000000E+03 0.  0.
        -13    1    3    3    0    0  0.21209505878E+02  0.43428186111E+02  0.22557543821E+02  0.53335770696E+02  0.10566000000E+00 0.  1.
         23    2    1    0    0    0  0.27021562260E+02  0.37287487772E+01  0.14268960485E+02  0.94305724343E+02  0.89139766749E+02 0.  0.
         13    1    3    3    0    0  0.58120563822E+01 -0.39699437334E+02 -0.82885833362E+01  0.40969953646E+02  0.10566000000E+00 0. -1.
         22    1    1    0    0    0 -0.27021562260E+02 -0.37287487772E+01 -0.14268960485E+02  0.30784275657E+02  0.00000000000E+00 0. -1.
</event>
<event>
 5    1  0.1264859E-009  0.9118800E+02  0.7815553E-02  0.1125453E+00
         25   -1    0    0    0    0  0.00000000000E+00  0.00000000000E+00  0.99999998245E-14  0.12509000000E+03  0.12509000000E+03 0.  0.
        -13    1    3    3    0    0  0.15153143175E+02 -0.17604064809E+02  0.28646204433E+02  0.36880035769E+02  0.10566000000E+00 0. -1.
         23    2    1    0    0    0  0.31546014163E+01 -0.80617403960E+01 -0.28113553495E+02  0.95673761994E+02  0.91039297426E+02 0.  0.
         13    1    3    3    0    0 -0.11998541759E+02  0.95423244126E+01 -0.56759757927E+02  0.58793726226E+02  0.10566000000E+00 0.  1.
         22    1    1    0    0    0 -0.31546014163E+01  0.80617403960E+01  0.28113553495E+02  0.29416238006E+02  0.00000000000E+00 0.  1.
</event>
<event>
 5    1  0.1264859E-009  0.9118800E+02  0.7815553E-02  0.1125453E+00
         25   -1    0    0    0    0  0.00000000000E+00  0.00000000000E+00  0.99999998245E-14  0.12509000000E+03  0.12509000000E+03 0.  0.
        -13    1    3    3    0    0 -0.24252323250E+02 -0.21221988012E+02 -0.23323021176E+02  0.39780930595E+02  0.10566000000E+00 0.  1.
         23    2    1    0    0    0  0.55872524957E+01  0.24859017303E+02 -0.15584914823E+02  0.95222330158E+02  0.90416892553E+02 0.  0.
         13    1    3    3    0    0  0.29839575746E+02  0.46081005315E+02  0.77381063525E+01  0.55441399563E+02  0.10566000000E+00 0. -1.
         22    1    1    0    0    0 -0.55872524957E+01 -0.24859017303E+02  0.15584914823E+02  0.29867669842E+02  0.00000000000E+00 0. -1.
</event>
<event>
 5    1  0.1264859E-009  0.9118800E+02  0.7815553E-02  0.1125453E+00
         25   -1    0    0    0    0  0.00000000000E+00  0.00000000000E+00  0.99999998245E-14  0.12509000000E+03  0.12509000000E+03 0.  0.
        -13    1    3    3    0    0 -0.19164883300E+02 -0.60423467564E+01  0.53061346729E+02  0.56739055217E+02  0.10566000000E+00 0.  1.
         23    2    1    0    0    0 -0.23557035150E+02 -0.89446343650E+01  0.13783074274E+02  0.96368692136E+02  0.91989191206E+02 0.  0.
         13    1    3    3    0    0 -0.43921518496E+01 -0.29022876086E+01 -0.39278272455E+02  0.39629636919E+02  0.10566000000E+00 0. -1.
         22    1    1    0    0    0  0.23557035150E+02  0.89446343650E+01 -0.13783074274E+02  0.28721307864E+02  0.00000000000E+00 0.  1.
</event>
<event>
 5    1  0.1264859E-009  0.9118800E+02  0.7815553E-02  0.1125453E+00
         25   -1    0    0    0    0  0.00000000000E+00  0.00000000000E+00  0.99999998245E-14  0.12509000000E+03  0.12509000000E+03 0.  0.
        -13    1    3    3    0    0  0.13730085845E+02 -0.41755499033E+02  0.10847146329E+02  0.45273708754E+02  0.10566000000E+00 0.  1.
         23    2    1    0    0    0 -0.88298530851E+01 -0.11302431598E+02 -0.24242244391E+02  0.96922684213E+02  0.92739468601E+02 0.  0.
         13    1    3    3    0    0 -0.22559938930E+02  0.30453067436E+02 -0.35089390720E+02  0.51648975459E+02  0.10566000000E+00 0. -1.
         22    1    1    0    0    0  0.88298530851E+01  0.11302431598E+02  0.24242244391E+02  0.28167315787E+02  0.00000000000E+00 0.  1.
</event>
<event>
 5    1  0.1264859E-009  0.9118800E+02  0.7815553E-02  0.1125453E+00
         25   -1    0    0    0    0  0.00000000000E+00  0.00000000000E+00  0.99999998245E-14  0.12509000000E+03  0.12509000000E+03 0.  0.
        -13    1    3    3    0    0 -0.85998636847E+01  0.32973778443E+02  0.37251405384E+01  0.34279958522E+02  0.10566000000E+00 0. -1.
         23    2    1    0    0    0  0.53208236388E+01 -0.26886746652E+02  0.96728452110E+01  0.96025034075E+02  0.91520680313E+02 0.  0.
         13    1    3    3    0    0  0.13920687323E+02 -0.59860525095E+02  0.59477046726E+01  0.61745075553E+02  0.10566000000E+00 0.  1.
         22    1    1    0    0    0 -0.53208236388E+01  0.26886746652E+02 -0.96728452110E+01  0.29064965925E+02  0.00000000000E+00 0.  1.
</event>
<event>
 5    1  0.1264859E-009  0.9118800E+02  0.7815553E-02  0.1125453E+00
         25   -1    0    0    0    0  0.00000000000E+00  0.00000000000E+00  0.99999998245E-14  0.12509000000E+03  0.12509000000E+03 0.  0.
        -13    1    3    3    0    0 -0.33885652576E+02  0.24499055605E+01  0.20817609760E+02  0.39844993762E+02  0.10566000000E+00 0.  1.
         23    2    1    0    0    0  0.19969507624E+02  0.16306503160E+02  0.13660802827E+02  0.95912940280E+02  0.91367342629E+02 0.  0.
         13    1    3    3    0    0  0.53855160199E+02  0.13856597600E+02 -0.71568069330E+01  0.56067946517E+02  0.10566000000E+00 0. -1.
         22    1    1    0    0    0 -0.19969507624E+02 -0.16306503160E+02 -0.13660802827E+02  0.29177059720E+02  0.00000000000E+00 0. -1.
</event>
<event>
 5    1  0.1264859E-009  0.9118800E+02  0.7815553E-02  0.1125453E+00
         25   -1    0    0    0    0  0.00000000000E+00  0.00000000000E+00  0.99999998245E-14  0.12509000000E+03  0.12509000000E+03 0.  0.
        -13    1    3    3    0    0 -0.13887346347E+01  0.35475424571E+02 -0.33463508041E+02  0.48787824985E+02  0.10566000000E+00 0.  1.
         23    2    1    0    0    0 -0.47453193046E+01 -0.13910379634E+02 -0.20335900785E+02  0.99998854598E+02  0.96799820988E+02 0.  0.
         13    1    3    3    0    0 -0.33565846699E+01 -0.49385804205E+02  0.13127607256E+02  0.51211029612E+02  0.10566000000E+00 0. -1.
         22    1    1    0    0    0  0.47453193046E+01  0.13910379634E+02  0.20335900785E+02  0.25091145402E+02  0.00000000000E+00 0. -1.
</event>
<event>
 5    1  0.1264859E-009  0.9118800E+02  0.7815553E-02  0.1125453E+00
         25   -1    0    0    0    0  0.00000000000E+00  0.00000000000E+00  0.99999998245E-14  0.12509000000E+03  0.12509000000E+03 0.  0.
        -13    1    3    3    0    0  0.58833669416E+02 -0.12567682186E+02 -0.23147400425E+01  0.60205618326E+02  0.10566000000E+00 0.  1.
         23    2    1    0    0    0  0.27223062049E+02  0.14611428260E+01 -0.10719186090E+02  0.95796126987E+02  0.91207274652E+02 0.  0.
         13    1    3    3    0    0 -0.31610607367E+02  0.14028825012E+02 -0.84044460476E+01  0.35590508661E+02  0.10566000000E+00 0. -1.
         22    1    1    0    0    0 -0.27223062049E+02 -0.14611428260E+01  0.10719186090E+02  0.29293873013E+02  0.00000000000E+00 0.  1.
</event>
<event>
 5    1  0.1264859E-009  0.9118800E+02  0.7815553E-02  0.1125453E+00
         25   -1    0    0    0    0  0.00000000000E+00  0.00000000000E+00  0.99999998245E-14  0.12509000000E+03  0.12509000000E+03 0.  0.
        -13    1    3    3    0    0  0.32127132041E+02  0.16963862140E+02 -0.15926340837E+02  0.39668434912E+02  0.10566000000E+00 0. -1.
         23    2    1    0    0    0  0.21242845069E+02 -0.27180495294E+02 -0.19825722966E+02  0.85301847464E+02  0.75454013138E+02 0.  0.
         13    1    3    3    0    0 -0.10884286972E+02 -0.44144357434E+02 -0.38993821285E+01  0.45633412552E+02  0.10566000000E+00 0.  1.
         22    1    1    0    0    0 -0.21242845069E+02  0.27180495294E+02  0.19825722966E+02  0.39788152536E+02  0.00000000000E+00 0. -1.
</event>
<event>
 5    1  0.1264859E-009  0.9118800E+02  0.7815553E-02  0.1125453E+00
         25   -1    0    0    0    0  0.00000000000E+00  0.00000000000E+00  0.99999998245E-14  0.12509000000E+03  0.12509000000E+03 0.  0.
        -13    1    3    3    0    0 -0.27881369039E+02 -0.31710266523E+02  0.21328348419E+02  0.47305616503E+02  0.10566000000E+00 0. -1.
         23    2    1    0    0    0  0.98790619024E+01 -0.27484133897E+02 -0.74251175836E+01  0.94955205306E+02  0.90046572192E+02 0.  0.
         13    1    3    3    0    0  0.37760430941E+02  0.42261326262E+01 -0.28753466003E+02  0.47649588803E+02  0.10566000000E+00 0.  1.
         22    1    1    0    0    0 -0.98790619024E+01  0.27484133897E+02  0.74251175836E+01  0.30134794694E+02  0.00000000000E+00 0. -1.
</event>
<event>
 5    1  0.1264859E-009  0.9118800E+02  0.7815553E-02  0.1125453E+00
         25   -1    0    0    0    0  0.00000000000E+00  0.00000000000E+00  0.99999998245E-14  0.12509000000E+03  0.12509000000E+03 0.  0.
        -13    1    3    3    0    0 -0.58512443041E+01  0.37571256522E+02 -0.16525152654E+02  0.41459959127E+02  0.10566000000E+00 0.  1.
         23    2    1    0    0    0 -0.23512306938E+02 -0.83600662746E+01  0.10970851167E+02  0.97830527133E+02  0.93956017253E+02 0.  0.
         13    1    3    3    0    0 -0.17661062634E+02 -0.45931322796E+02  0.27496003821E+02  0.56370568006E+02  0.10566000000E+00 0. -1.
         22    1    1    0    0    0  0.23512306938E+02  0.83600662746E+01 -0.10970851167E+02  0.27259472867E+02  0.00000000000E+00 0. -1.
</event>
<event>
 5    1  0.1264859E-009  0.9118800E+02  0.7815553E-02  0.1125453E+00
         25   -1    0    0    0    0  0.00000000000E+00  0.00000000000E+00  0.99999998245E-14  0.12509000000E+03  0.12509000000E+03 0.  0.
        -13    1    3    3    0    0  0.51705462168E+01  0.21550674851E+02 -0.27312560655E+02  0.35173189623E+02  0.10566000000E+00 0.  1.
         23    2    1    0    0    0  0.25959385926E+01 -0.24722672165E+02  0.13390196133E+02  0.96854441415E+02  0.92647374777E+02 0.  0.
         13    1    3    3    0    0 -0.25746076242E+01 -0.46273347015E+02  0.40702756788E+02  0.61681251792E+02  0.10566000000E+00 0. -1.
         22    1    1    0    0    0 -0.25959385926E+01  0.24722672165E+02 -0.13390196133E+02  0.28235558585E+02  0.00000000000E+00 0. -1.
</event>
<event>
 5    1  0.1264859E-009  0.9118800E+02  0.7815553E-02  0.1125453E+00
         25   -1    0    0    0    0  0.00000000000E+00  0.00000000000E+00  0.99999998245E-14  0.12509000000E+03  0.12509000000E+03 0.  0.
        -13    1    3    3    0    0  0.36317450670E+02  0.19947037970E+02 -0.10651217882E+02  0.42782019042E+02  0.10566000000E+00 0. -1.
         23    2    1    0    0    0 -0.14677534197E+02  0.25579569036E+02 -0.95213427676E+01  0.94099673602E+02  0.88850144861E+02 0.  0.
         13    1    3    3    0    0 -0.50994984866E+02  0.56325310663E+01  0.11298751140E+01  0.51317654560E+02  0.10566000000E+00 0.  1.
         22    1    1    0    0    0  0.14677534197E+02 -0.25579569036E+02  0.95213427676E+01  0.30990326398E+02  0.00000000000E+00 0.  1.
</event>
<event>
 5    1  0.1264859E-009  0.9118800E+02  0.7815553E-02  0.1125453E+00
         25   -1    0    0    0    0  0.00000000000E+00  0.00000000000E+00  0.99999998245E-14  0.12509000000E+03  0.12509000000E+03 0.  0.
        -13    1    3    3    0    0  0.33291928092E+02 -0.57221494911E+01 -0.14271606947E+01  0.33810404058E+02  0.10566000000E+00 0.  1.
         23    2    1    0    0    0 -0.20521706673E+02 -0.25039541550E+02  0.79584516608E+01  0.91751493156E+02  0.85480292803E+02 0.  0.
         13    1    3    3    0    0 -0.53813634764E+02 -0.19317392058E+02  0.93856123556E+01  0.57941089098E+02  0.10566000000E+00 0. -1.
         22    1    1    0    0    0  0.20521706673E+02  0.25039541550E+02 -0.79584516608E+01  0.33338506844E+02  0.00000000000E+00 0. -1.
</event>
<event>
 5    1  0.1264859E-009  0.9118800E+02  0.7815553E-02  0.1125453E+00
         25   -1    0    0    0    0  0.00000000000E+00  0.00000000000E+00  0.99999998245E-14  0.12509000000E+03  0.12509000000E+03 0.  0.
        -13    1    3    3    0    0  0.11140471191E+02 -0.12781477848E+02 -0.43113003543E+02  0.46327297707E+02  0.10566000000E+00 0.  1.
         23    2    1    0    0    0 -0.23651577069E+02 -0.15056103876E+02 -0.77205836185E+01  0.96009237060E+02  0.91499086485E+02 0.  0.
         13    1    3    3    0    0 -0.34792048260E+02 -0.22746260281E+01  0.35392419924E+02  0.49681939353E+02  0.10566000000E+00 0. -1.
         22    1    1    0    0    0  0.23651577069E+02  0.15056103876E+02  0.77205836185E+01  0.29080762940E+02  0.00000000000E+00 0. -1.
</event>
<event>
 5    1  0.1264859E-009  0.9118800E+02  0.7815553E-02  0.1125453E+00
         25   -1    0    0    0    0  0.00000000000E+00  0.00000000000E+00  0.99999998245E-14  0.12509000000E+03  0.12509000000E+03 0.  0.
        -13    1    3    3    0    0 -0.34830049200E+01 -0.32791894636E+02 -0.30913574634E+02  0.45200663024E+02  0.10566000000E+00 0.  1.
         23    2    1    0    0    0 -0.55485157530E+01  0.12865371815E+02 -0.31181307701E+02  0.90905533222E+02  0.84233236916E+02 0.  0.
         13    1    3    3    0    0 -0.20655108330E+01  0.45657266451E+02 -0.26773306665E+00  0.45704870198E+02  0.10566000000E+00 0. -1.
         22    1    1    0    0    0  0.55485157530E+01 -0.12865371815E+02  0.31181307701E+02  0.34184466778E+02  0.00000000000E+00 0. -1.
</event>
<event>
 5    1  0.1264859E-009  0.9118800E+02  0.7815553E-02  0.1125453E+00
         25   -1    0    0    0    0  0.00000000000E+00  0.00000000000E+00  0.99999998245E-14  0.12509000000E+03  0.12509000000E+03 0.  0.
        -13    1    3    3    0    0 -0.13803146245E+02  0.29345588884E+02  0.46522810461E+02  0.56710435463E+02  0.10566000000E+00 0.  1.
         23    2    1    0    0    0 -0.85986505185E+01 -0.55641631687E+01  0.25055918177E+02  0.98021646925E+02  0.94210124338E+02 0.  0.
         13    1    3    3    0    0  0.52044957265E+01 -0.34909752052E+02 -0.21466892284E+02  0.41311211462E+02  0.10566000000E+00 0. -1.
         22    1    1    0    0    0  0.85986505185E+01  0.55641631687E+01 -0.25055918177E+02  0.27068353075E+02  0.00000000000E+00 0.  1.
</event>
<event>
 5    1  0.1264859E-009  0.9118800E+02  0.7815553E-02  0.1125453E+00
         25   -1    0    0    0    0  0.00000000000E+00  0.00000000000E+00  0.99999998245E-14  0.12509000000E+03  0.12509000000E+03 0.  0.
        -13    1    3    3    0    0  0.29622487758E+02 -0.22351259698E+02 -0.18342902850E+02  0.41394973609E+02  0.10566000000E+00 0.  1.
         23    2    1    0    0    0 -0.13067663787E+02  0.97873632229E+01 -0.24987008111E+02  0.95241936578E+02  0.90444013583E+02 0.  0.
         13    1    3    3    0    0 -0.42690151545E+02  0.32138622921E+02 -0.66441052617E+01  0.53846962969E+02  0.10566000000E+00 0. -1.
         22    1    1    0    0    0  0.13067663787E+02 -0.97873632229E+01  0.24987008111E+02  0.29848063422E+02  0.00000000000E+00 0. -1.
</event>
<event>
 5    1  0.1264859E-009  0.9118800E+02  0.7815553E-02  0.1125453E+00
         25   -1    0    0    0    0  0.00000000000E+00  0.00000000000E+00  0.99999998245E-14  0.12509000000E+03  0.12509000000E+03 0.  0.
        -13    1    3    3    0    0 -0.11293651985E+02  0.32311054644E+02  0.18260095317E+02  0.38794240197E+02  0.10566000000E+00 0.  1.
         23    2    1    0    0    0 -0.54304751556E+01 -0.17238082781E+02 -0.17305529696E+02  0.10006755175E+03  0.96888554519E+02 0.  0.
         13    1    3    3    0    0  0.58631768296E+01 -0.49549137425E+02 -0.35565625013E+02  0.61273311553E+02  0.10566000000E+00 0. -1.
         22    1    1    0    0    0  0.54304751556E+01  0.17238082781E+02  0.17305529696E+02  0.25022448250E+02  0.00000000000E+00 0. -1.
</event>
<event>
 5    1  0.1264859E-009  0.9118800E+02  0.7815553E-02  0.1125453E+00
         25   -1    0    0    0    0  0.00000000000E+00  0.00000000000E+00  0.99999998245E-14  0.12509000000E+03  0.12509000000E+03 0.  0.
        -13    1    3    3    0    0  0.10772203718E+02  0.20793450445E+02 -0.31694171270E+02  0.39407354781E+02  0.10566000000E+00 0.  1.
         23    2    1    0    0    0 -0.21923697021E+02 -0.16679021897E+02 -0.16850435960E+01  0.97491492171E+02  0.93503547587E+02 0.  0.
         13    1    3    3    0    0 -0.32695900739E+02 -0.37472472342E+02  0.30009127674E+02  0.58084137389E+02  0.10566000000E+00 0. -1.
         22    1    1    0    0    0  0.21923697021E+02  0.16679021897E+02  0.16850435960E+01  0.27598507829E+02  0.00000000000E+00 0. -1.
</event>
<event>
 5    1  0.1264859E-009  0.9118800E+02  0.7815553E-02  0.1125453E+00
         25   -1    0    0    0    0  0.00000000000E+00  0.00000000000E+00  0.99999998245E-14  0.12509000000E+03  0.12509000000E+03 0.  0.
        -13    1    3    3    0    0 -0.30018514253E+02  0.12285691418E+02  0.19335613663E+02  0.37761442389E+02  0.10566000000E+00 0.  1.
         23    2    1    0    0    0  0.73295250334E+01  0.11111659884E+02 -0.25619643284E+02  0.96218612008E+02  0.91784880302E+02 0.  0.
         13    1    3    3    0    0  0.37348039287E+02 -0.11740315343E+01 -0.44955256947E+02  0.58457169618E+02  0.10566000000E+00 0. -1.
         22    1    1    0    0    0 -0.73295250334E+01 -0.11111659884E+02  0.25619643284E+02  0.28871387992E+02  0.00000000000E+00 0. -1.
</event>
<event>
 5    1  0.1264859E-009  0.9118800E+02  0.7815553E-02  0.1125453E+00
         25   -1    0    0    0    0  0.00000000000E+00  0.00000000000E+00  0.99999998245E-14  0.12509000000E+03  0.12509000000E+03 0.  0.
        -13    1    3    3    0    0 -0.13123673800E+02  0.30206653987E+02 -0.20410701883E+02  0.38746363372E+02  0.10566000000E+00 0.  1.
         23    2    1    0    0    0 -0.17058712489E+02 -0.23178062769E+02  0.73632288245E+00  0.96301730916E+02  0.91898089972E+02 0.  0.
         13    1    3    3    0    0 -0.39350386889E+01 -0.53384716756E+02  0.21147024766E+02  0.57555367544E+02  0.10566000000E+00 0. -1.
         22    1    1    0    0    0  0.17058712489E+02  0.23178062769E+02 -0.73632288245E+00  0.28788269084E+02  0.00000000000E+00 0. -1.
</event>
<event>
 5    1  0.1264859E-009  0.9118800E+02  0.7815553E-02  0.1125453E+00
         25   -1    0    0    0    0  0.00000000000E+00  0.00000000000E+00  0.99999998245E-14  0.12509000000E+03  0.12509000000E+03 0.  0.
        -13    1    3    3    0    0  0.17258863623E+01  0.30330713706E+02 -0.48844760022E+02  0.57521757825E+02  0.10566000000E+00 0.  1.
         23    2    1    0    0    0  0.45938003700E+01  0.28143388644E+02 -0.12652894356E+02  0.93893060057E+02  0.88558780847E+02 0.  0.
         13    1    3    3    0    0  0.28679140077E+01 -0.21873250625E+01  0.36191865666E+02  0.36371302232E+02  0.10566000000E+00 0. -1.
         22    1    1    0    0    0 -0.45938003700E+01 -0.28143388644E+02  0.12652894356E+02  0.31196939943E+02  0.00000000000E+00 0.  1.
</event>
<event>
 5    1  0.1264859E-009  0.9118800E+02  0.7815553E-02  0.1125453E+00
         25   -1    0    0    0    0  0.00000000000E+00  0.00000000000E+00  0.99999998245E-14  0.12509000000E+03  0.12509000000E+03 0.  0.
        -13    1    3    3    0    0  0.12184846869E+02  0.38531494299E+02 -0.35468277853E+02  0.53769475021E+02  0.10566000000E+00 0.  1.
         23    2    1    0    0    0  0.26179613615E+02  0.14173778021E+02 -0.55545151988E+01  0.94805997762E+02  0.89839058433E+02 0.  0.
         13    1    3    3    0    0  0.13994766746E+02 -0.24357716278E+02  0.29913762654E+02  0.41036522741E+02  0.10566000000E+00 0. -1.
         22    1    1    0    0    0 -0.26179613615E+02 -0.14173778021E+02  0.55545151988E+01  0.30284002238E+02  0.00000000000E+00 0.  1.
</event>
<event>
 5    1  0.1264859E-009  0.9118800E+02  0.7815553E-02  0.1125453E+00
         25   -1    0    0    0    0  0.00000000000E+00  0.00000000000E+00  0.99999998245E-14  0.12509000000E+03  0.12509000000E+03 0.  0.
        -13    1    3    3    0    0 -0.24924574362E+02 -0.37523473076E+01  0.45513450572E+02  0.52026914808E+02  0.10566000000E+00 0.  1.
         23    2    1    0    0    0 -0.52732529202E+01  0.21914052182E+02  0.29102709224E+02  0.88279667707E+02  0.80239012748E+02 0.  0.
         13    1    3    3    0    0  0.19651321442E+02  0.25666399489E+02 -0.16410741348E+02  0.36252752899E+02  0.10566000000E+00 0. -1.
         22    1    1    0    0    0  0.52732529202E+01 -0.21914052182E+02 -0.29102709224E+02  0.36810332293E+02  0.00000000000E+00 0.  1.
</event>
<event>
 5    1  0.1264859E-009  0.9118800E+02  0.7815553E-02  0.1125453E+00
         25   -1    0    0    0    0  0.00000000000E+00  0.00000000000E+00  0.99999998245E-14  0.12509000000E+03  0.12509000000E+03 0.  0.
        -13    1    3    3    0    0 -0.30499310209E+02  0.27390621187E+02  0.67221332207E+01  0.41540971237E+02  0.10566000000E+00 0.  1.
         23    2    1    0    0    0  0.15293846621E+02  0.19264026395E+02  0.23585371957E+02  0.91012526095E+02  0.84391976386E+02 0.  0.
         13    1    3    3    0    0  0.45793156830E+02 -0.81265947915E+01  0.16863238736E+02  0.49471554858E+02  0.10566000000E+00 0. -1.
         22    1    1    0    0    0 -0.15293846621E+02 -0.19264026395E+02 -0.23585371957E+02  0.34077473905E+02  0.00000000000E+00 0. -1.
</event>
<event>
 5    1  0.1264859E-009  0.9118800E+02  0.7815553E-02  0.1125453E+00
         25   -1    0    0    0    0  0.00000000000E+00  0.00000000000E+00  0.99999998245E-14  0.12509000000E+03  0.12509000000E+03 0.  0.
        -13    1    3    3    0    0 -0.52517368354E+02 -0.94339539222E+01  0.28816170514E+01  0.53435833916E+02  0.10566000000E+00 0.  1.
         23    2    1    0    0    0 -0.13598904559E+02 -0.25528279878E+02  0.55598468111E+01  0.95636049920E+02  0.90987465450E+02 0.  0.
         13    1    3    3    0    0  0.38918463795E+02 -0.16094325956E+02  0.26782297597E+01  0.42200216005E+02  0.10566000000E+00 0. -1.
         22    1    1    0    0    0  0.13598904559E+02  0.25528279878E+02 -0.55598468111E+01  0.29453950080E+02  0.00000000000E+00 0.  1.
</event>
<event>
 5    1  0.1264859E-009  0.9118800E+02  0.7815553E-02  0.1125453E+00
         25   -1    0    0    0    0  0.00000000000E+00  0.00000000000E+00  0.99999998245E-14  0.12509000000E+03  0.12509000000E+03 0.  0.
        -13    1    3    3    0    0 -0.16269985051E+02 -0.15037315291E+02  0.26184334542E+02  0.34299618134E+02  0.10566000000E+00 0.  1.
         23    2    1    0    0    0  0.85033299858E+01  0.22658360233E+02 -0.16015294622E+02  0.96069359567E+02  0.91581244131E+02 0.  0.
         13    1    3    3    0    0  0.24773315037E+02  0.37695675524E+02 -0.42199629164E+02  0.61769741433E+02  0.10566000000E+00 0. -1.
         22    1    1    0    0    0 -0.85033299858E+01 -0.22658360233E+02  0.16015294622E+02  0.29020640433E+02  0.00000000000E+00 0. -1.
</event>
<event>
 5    1  0.1264859E-009  0.9118800E+02  0.7815553E-02  0.1125453E+00
         25   -1    0    0    0    0  0.00000000000E+00  0.00000000000E+00  0.99999998245E-14  0.12509000000E+03  0.12509000000E+03 0.  0.
        -13    1    3    3    0    0 -0.14440741845E+02  0.23344702790E+02 -0.18511595078E+02  0.33108918583E+02  0.10566000000E+00 0. -1.
         23    2    1    0    0    0  0.39951115383E+01 -0.20855458617E+02  0.21022294898E+02  0.95209438541E+02  0.90399055494E+02 0.  0.
         13    1    3    3    0    0  0.18435853383E+02 -0.44200161407E+02  0.39533889976E+02  0.62100519958E+02  0.10566000000E+00 0.  1.
         22    1    1    0    0    0 -0.39951115383E+01  0.20855458617E+02 -0.21022294898E+02  0.29880561459E+02  0.00000000000E+00 0.  1.
</event>
<event>
 5    1  0.1264859E-009  0.9118800E+02  0.7815553E-02  0.1125453E+00
         25   -1    0    0    0    0  0.00000000000E+00  0.00000000000E+00  0.99999998245E-14  0.12509000000E+03  0.12509000000E+03 0.  0.
        -13    1    3    3    0    0 -0.24823520768E+02  0.68020849357E+01 -0.55918114500E+02  0.61557471001E+02  0.10566000000E+00 0.  1.
         23    2    1    0    0    0 -0.11349170263E+02 -0.48508043747E+01 -0.23222922150E+02  0.98790987054E+02  0.95226157337E+02 0.  0.
         13    1    3    3    0    0  0.13474350506E+02 -0.11652889310E+02  0.32695192350E+02  0.37233516053E+02  0.10566000000E+00 0. -1.
         22    1    1    0    0    0  0.11349170263E+02  0.48508043747E+01  0.23222922150E+02  0.26299012946E+02  0.00000000000E+00 0.  1.
</event>
<event>
 5    1  0.1264859E-009  0.9118800E+02  0.7815553E-02  0.1125453E+00
         25   -1    0    0    0    0  0.00000000000E+00  0.00000000000E+00  0.99999998245E-14  0.12509000000E+03  0.12509000000E+03 0.  0.
        -13    1    3    3    0    0 -0.23319507233E+02 -0.56518871469E+02 -0.45649428777E+01  0.61310946145E+02  0.10566000000E+00 0. -1.
         23    2    1    0    0    0 -0.19467225857E+02 -0.26539060764E+02  0.15103271061E+01  0.92141923929E+02  0.86049743920E+02 0.  0.
         13    1    3    3    0    0  0.38522813762E+01  0.29979810705E+02  0.60752699838E+01  0.30830977784E+02  0.10566000000E+00 0.  1.
         22    1    1    0    0    0  0.19467225857E+02  0.26539060764E+02 -0.15103271061E+01  0.32948076071E+02  0.00000000000E+00 0. -1.
</event>
<event>
 5    1  0.1264859E-009  0.9118800E+02  0.7815553E-02  0.1125453E+00
         25   -1    0    0    0    0  0.00000000000E+00  0.00000000000E+00  0.99999998245E-14  0.12509000000E+03  0.12509000000E+03 0.  0.
        -13    1    3    3    0    0  0.10511904877E+02 -0.20934028076E+02 -0.35193272114E+02  0.42276603953E+02  0.10566000000E+00 0.  1.
         23    2    1    0    0    0  0.31200447842E+02  0.10129219635E+02 -0.19974104997E+01  0.92225753703E+02  0.86171520593E+02 0.  0.
         13    1    3    3    0    0  0.20688542966E+02  0.31063247712E+02  0.33195861614E+02  0.49949149750E+02  0.10566000000E+00 0. -1.
         22    1    1    0    0    0 -0.31200447842E+02 -0.10129219635E+02  0.19974104997E+01  0.32864246297E+02  0.00000000000E+00 0. -1.
</event>
<event>
 5    1  0.1264859E-009  0.9118800E+02  0.7815553E-02  0.1125453E+00
         25   -1    0    0    0    0  0.00000000000E+00  0.00000000000E+00  0.99999998245E-14  0.12509000000E+03  0.12509000000E+03 0.  0.
        -13    1    3    3    0    0  0.43081328953E+02  0.12069767252E+02  0.27457540264E+02  0.52493884094E+02  0.10566000000E+00 0. -1.
         23    2    1    0    0    0  0.11272205477E+02  0.20038067761E+02 -0.79589407042E+01  0.10076035732E+03  0.97778924590E+02 0.  0.
         13    1    3    3    0    0 -0.31809123476E+02  0.79683005090E+01 -0.35416480968E+02  0.48266473225E+02  0.10566000000E+00 0.  1.
         22    1    1    0    0    0 -0.11272205477E+02 -0.20038067761E+02  0.79589407042E+01  0.24329642682E+02  0.00000000000E+00 0. -1.
</event>
<event>
 5    1  0.1264859E-009  0.9118800E+02  0.7815553E-02  0.1125453E+00
         25   -1    0    0    0    0  0.00000000000E+00  0.00000000000E+00  0.99999998245E-14  0.12509000000E+03  0.12509000000E+03 0.  0.
        -13    1    3    3    0    0 -0.22171490332E+02 -0.22698383788E+02 -0.13716933591E+02  0.34568150678E+02  0.10566000000E+00 0. -1.
         23    2    1    0    0    0  0.16374977584E+02  0.22778971725E+02  0.39802711979E+01  0.96755145094E+02  0.92513210407E+02 0.  0.
         13    1    3    3    0    0  0.38546467916E+02  0.45477355513E+02  0.17697204789E+02  0.62186994417E+02  0.10566000000E+00 0.  1.
         22    1    1    0    0    0 -0.16374977584E+02 -0.22778971725E+02 -0.39802711979E+01  0.28334854906E+02  0.00000000000E+00 0.  1.
</event>
<event>
 5    1  0.1264859E-009  0.9118800E+02  0.7815553E-02  0.1125453E+00
         25   -1    0    0    0    0  0.00000000000E+00  0.00000000000E+00  0.99999998245E-14  0.12509000000E+03  0.12509000000E+03 0.  0.
        -13    1    3    3    0    0  0.46302989194E+01 -0.27677606899E+02  0.14238134513E+02  0.31467844384E+02  0.10566000000E+00 0. -1.
         23    2    1    0    0    0 -0.61467549044E+01  0.25956323564E+02 -0.16010502556E+02  0.93979720012E+02  0.88681104259E+02 0.  0.
         13    1    3    3    0    0 -0.10777053824E+02  0.53633930463E+02 -0.30248637069E+02  0.62511875628E+02  0.10566000000E+00 0.  1.
         22    1    1    0    0    0  0.61467549044E+01 -0.25956323564E+02  0.16010502556E+02  0.31110279988E+02  0.00000000000E+00 0.  1.
</event>
<event>
 5    1  0.1264859E-009  0.9118800E+02  0.7815553E-02  0.1125453E+00
         25   -1    0    0    0    0  0.00000000000E+00  0.00000000000E+00  0.99999998245E-14  0.12509000000E+03  0.12509000000E+03 0.  0.
        -13    1    3    3    0    0  0.30882415924E+02  0.17964994931E+02 -0.35209955656E+02  0.50161905840E+02  0.10566000000E+00 0. -1.
         23    2    1    0    0    0 -0.11777808966E+02  0.10665715189E+02 -0.26319726798E+02  0.94345857741E+02  0.89196068240E+02 0.  0.
         13    1    3    3    0    0 -0.42660224890E+02 -0.72992797415E+01  0.88902288576E+01  0.44183951901E+02  0.10566000000E+00 0.  1.
         22    1    1    0    0    0  0.11777808966E+02 -0.10665715189E+02  0.26319726798E+02  0.30744142259E+02  0.00000000000E+00 0. -1.
</event>
<event>
 5    1  0.1264859E-009  0.9118800E+02  0.7815553E-02  0.1125453E+00
         25   -1    0    0    0    0  0.00000000000E+00  0.00000000000E+00  0.99999998245E-14  0.12509000000E+03  0.12509000000E+03 0.  0.
        -13    1    3    3    0    0 -0.18434033835E-01  0.14022571476E+02 -0.43636798613E+02  0.45834639825E+02  0.10566000000E+00 0. -1.
         23    2    1    0    0    0  0.88836062877E+01 -0.24536112660E+02 -0.12680109962E+02  0.96077511761E+02  0.91592378463E+02 0.  0.
         13    1    3    3    0    0  0.89020403215E+01 -0.38558684136E+02  0.30956688651E+02  0.50242871937E+02  0.10566000000E+00 0.  1.
         22    1    1    0    0    0 -0.88836062877E+01  0.24536112660E+02  0.12680109962E+02  0.29012488239E+02  0.00000000000E+00 0. -1.
</event>
<event>
 5    1  0.1264859E-009  0.9118800E+02  0.7815553E-02  0.1125453E+00
         25   -1    0    0    0    0  0.00000000000E+00  0.00000000000E+00  0.99999998245E-14  0.12509000000E+03  0.12509000000E+03 0.  0.
        -13    1    3    3    0    0  0.56098557177E+02 -0.14541837355E+02 -0.12911445811E+02  0.59373645231E+02  0.10566000000E+00 0.  1.
         23    2    1    0    0    0  0.29116035078E+02 -0.14596240686E+02 -0.19473006153E+02  0.87142777315E+02  0.78446618338E+02 0.  0.
         13    1    3    3    0    0 -0.26982522099E+02 -0.54403331510E-01 -0.65615603421E+01  0.27769132084E+02  0.10566000000E+00 0. -1.
         22    1    1    0    0    0 -0.29116035078E+02  0.14596240686E+02  0.19473006153E+02  0.37947222685E+02  0.00000000000E+00 0.  1.
</event>
<event>
 5    1  0.1264859E-009  0.9118800E+02  0.7815553E-02  0.1125453E+00
         25   -1    0    0    0    0  0.00000000000E+00  0.00000000000E+00  0.99999998245E-14  0.12509000000E+03  0.12509000000E+03 0.  0.
        -13    1    3    3    0    0  0.12628729682E+02  0.37862641525E+02  0.17769356985E+00  0.39913746700E+02  0.10566000000E+00 0. -1.
         23    2    1    0    0    0  0.14334361524E+02 -0.14162102824E+02  0.21008500780E+02  0.95979929891E+02  0.91459011367E+02 0.  0.
         13    1    3    3    0    0  0.17056318421E+01 -0.52024744349E+02  0.20830807211E+02  0.56066183191E+02  0.10566000000E+00 0.  1.
         22    1    1    0    0    0 -0.14334361524E+02  0.14162102824E+02 -0.21008500780E+02  0.29110070109E+02  0.00000000000E+00 0.  1.
</event>
<event>
 5    1  0.1264859E-009  0.9118800E+02  0.7815553E-02  0.1125453E+00
         25   -1    0    0    0    0  0.00000000000E+00  0.00000000000E+00  0.99999998245E-14  0.12509000000E+03  0.12509000000E+03 0.  0.
        -13    1    3    3    0    0  0.19401053367E+02  0.30373000122E+02  0.46002371639E+01  0.36333088970E+02  0.10566000000E+00 0. -1.
         23    2    1    0    0    0 -0.30466822841E+02  0.58100623085E+01  0.10755975600E+02  0.92262037389E+02  0.86224175346E+02 0.  0.
         13    1    3    3    0    0 -0.49867876208E+02 -0.24562937813E+02  0.61557384359E+01  0.55928948419E+02  0.10566000000E+00 0.  1.
         22    1    1    0    0    0  0.30466822841E+02 -0.58100623085E+01 -0.10755975600E+02  0.32827962611E+02  0.00000000000E+00 0.  1.
</event>
<event>
 5    1  0.1264859E-009  0.9118800E+02  0.7815553E-02  0.1125453E+00
         25   -1    0    0    0    0  0.00000000000E+00  0.00000000000E+00  0.99999998245E-14  0.12509000000E+03  0.12509000000E+03 0.  0.
        -13    1    3    3    0    0 -0.60040510661E+02  0.41008833653E+01  0.77629632326E+01  0.60679114421E+02  0.10566000000E+00 0. -1.
         23    2    1    0    0    0 -0.27299261925E+02  0.42390744660E+01 -0.69929054726E+01  0.96592277618E+02  0.92292729478E+02 0.  0.
         13    1    3    3    0    0  0.32741248735E+02  0.13819110067E+00 -0.14755868705E+02  0.35913163197E+02  0.10566000000E+00 0.  1.
         22    1    1    0    0    0  0.27299261925E+02 -0.42390744660E+01  0.69929054726E+01  0.28497722382E+02  0.00000000000E+00 0. -1.
</event>
<event>
 5    1  0.1264859E-009  0.9118800E+02  0.7815553E-02  0.1125453E+00
         25   -1    0    0    0    0  0.00000000000E+00  0.00000000000E+00  0.99999998245E-14  0.12509000000E+03  0.12509000000E+03 0.  0.
        -13    1    3    3    0    0 -0.34370643677E+02  0.11595621684E+02 -0.62064567309E+01  0.36801234466E+02  0.10566000000E+00 0. -1.
         23    2    1    0    0    0  0.87435878677E+01 -0.24799396078E+02  0.12134677590E+02  0.96129496295E+02  0.91663347545E+02 0.  0.
         13    1    3    3    0    0  0.43114231545E+02 -0.36395017762E+02  0.18341134321E+02  0.59328261830E+02  0.10566000000E+00 0.  1.
         22    1    1    0    0    0 -0.87435878677E+01  0.24799396078E+02 -0.12134677590E+02  0.28960503705E+02  0.00000000000E+00 0.  1.
</event>
<event>
 5    1  0.1264859E-009  0.9118800E+02  0.7815553E-02  0.1125453E+00
         25   -1    0    0    0    0  0.00000000000E+00  0.00000000000E+00  0.99999998245E-14  0.12509000000E+03  0.12509000000E+03 0.  0.
        -13    1    3    3    0    0  0.19781691282E+02  0.18328528478E+02 -0.48360437357E+02  0.55371412584E+02  0.10566000000E+00 0. -1.
         23    2    1    0    0    0  0.15380147726E+02 -0.11858219352E+02 -0.15211946065E+02  0.10042079626E+03  0.97343549901E+02 0.  0.
         13    1    3    3    0    0 -0.44015435560E+01 -0.30186747830E+02  0.33148491292E+02  0.45049383672E+02  0.10566000000E+00 0.  1.
         22    1    1    0    0    0 -0.15380147726E+02  0.11858219352E+02  0.15211946065E+02  0.24669203744E+02  0.00000000000E+00 0. -1.
</event>
<event>
 5    1  0.1264859E-009  0.9118800E+02  0.7815553E-02  0.1125453E+00
         25   -1    0    0    0    0  0.00000000000E+00  0.00000000000E+00  0.99999998245E-14  0.12509000000E+03  0.12509000000E+03 0.  0.
        -13    1    3    3    0    0 -0.81782712960E+01  0.48482718461E+02  0.23569760427E+02  0.54525249943E+02  0.10566000000E+00 0.  1.
         23    2    1    0    0    0  0.10787282480E+02  0.21656060520E+02 -0.75168009041E+01  0.99755187658E+02  0.96484427491E+02 0.  0.
         13    1    3    3    0    0  0.18965553776E+02 -0.26826657941E+02 -0.31086561331E+02  0.45229937715E+02  0.10566000000E+00 0. -1.
         22    1    1    0    0    0 -0.10787282480E+02 -0.21656060520E+02  0.75168009041E+01  0.25334812342E+02  0.00000000000E+00 0.  1.
</event>
<event>
 5    1  0.1264859E-009  0.9118800E+02  0.7815553E-02  0.1125453E+00
         25   -1    0    0    0    0  0.00000000000E+00  0.00000000000E+00  0.99999998245E-14  0.12509000000E+03  0.12509000000E+03 0.  0.
        -13    1    3    3    0    0  0.45311949840E+01  0.39890047915E+02  0.33618356153E+02  0.52363658057E+02  0.10566000000E+00 0.  1.
         23    2    1    0    0    0 -0.11484957713E+02  0.26487946159E+02 -0.45413634831E+01  0.95864334435E+02  0.91300772664E+02 0.  0.
         13    1    3    3    0    0 -0.16016152697E+02 -0.13402101755E+02 -0.38159719636E+02  0.43500676379E+02  0.10566000000E+00 0. -1.
         22    1    1    0    0    0  0.11484957713E+02 -0.26487946159E+02  0.45413634831E+01  0.29225665565E+02  0.00000000000E+00 0.  1.
</event>
<event>
 5    1  0.1264859E-009  0.9118800E+02  0.7815553E-02  0.1125453E+00
         25   -1    0    0    0    0  0.00000000000E+00  0.00000000000E+00  0.99999998245E-14  0.12509000000E+03  0.12509000000E+03 0.  0.
        -13    1    3    3    0    0 -0.17135720451E+02 -0.37209934912E+02 -0.17931167150E+02  0.44718565394E+02  0.10566000000E+00 0.  1.
         23    2    1    0    0    0 -0.30131782923E+02  0.62436330719E+01  0.19850533696E+01  0.94254181007E+02  0.89067406521E+02 0.  0.
         13    1    3    3    0    0 -0.12996062473E+02  0.43453567984E+02  0.19916220520E+02  0.49535615613E+02  0.10566000000E+00 0. -1.
         22    1    1    0    0    0  0.30131782923E+02 -0.62436330719E+01 -0.19850533696E+01  0.30835818993E+02  0.00000000000E+00 0.  1.
</event>
<event>
 5    1  0.1264859E-009  0.9118800E+02  0.7815553E-02  0.1125453E+00
         25   -1    0    0    0    0  0.00000000000E+00  0.00000000000E+00  0.99999998245E-14  0.12509000000E+03  0.12509000000E+03 0.  0.
        -13    1    3    3    0    0  0.28832859985E+02  0.21282282271E+02  0.27140776211E+02  0.44954446398E+02  0.10566000000E+00 0. -1.
         23    2    1    0    0    0  0.12168616707E+02 -0.25556606005E+01 -0.20699887654E+02  0.10094270238E+03  0.98011923665E+02 0.  0.
         13    1    3    3    0    0 -0.16664243278E+02 -0.23837942871E+02 -0.47840663865E+02  0.55988255978E+02  0.10566000000E+00 0.  1.
         22    1    1    0    0    0 -0.12168616707E+02  0.25556606005E+01  0.20699887654E+02  0.24147297624E+02  0.00000000000E+00 0.  1.
</event>
<event>
 5    1  0.1264859E-009  0.9118800E+02  0.7815553E-02  0.1125453E+00
         25   -1    0    0    0    0  0.00000000000E+00  0.00000000000E+00  0.99999998245E-14  0.12509000000E+03  0.12509000000E+03 0.  0.
        -13    1    3    3    0    0 -0.20986306421E+02 -0.31808291824E+02  0.38012630833E+02  0.53825307736E+02  0.10566000000E+00 0.  1.
         23    2    1    0    0    0  0.19090841429E+00 -0.30746749079E+02  0.37550241467E+01  0.94114215404E+02  0.88870615559E+02 0.  0.
         13    1    3    3    0    0  0.21177214835E+02  0.10615427447E+01 -0.34257606687E+02  0.40288907668E+02  0.10566000000E+00 0. -1.
         22    1    1    0    0    0 -0.19090841429E+00  0.30746749079E+02 -0.37550241467E+01  0.30975784596E+02  0.00000000000E+00 0.  1.
</event>
<event>
 5    1  0.1264859E-009  0.9118800E+02  0.7815553E-02  0.1125453E+00
         25   -1    0    0    0    0  0.00000000000E+00  0.00000000000E+00  0.99999998245E-14  0.12509000000E+03  0.12509000000E+03 0.  0.
        -13    1    3    3    0    0 -0.50564031958E+02 -0.57637241346E+01 -0.32294730768E+02  0.60273565044E+02  0.10566000000E+00 0. -1.
         23    2    1    0    0    0 -0.28103635505E+02  0.21421062092E+01 -0.50521292984E+01  0.96455633269E+02  0.92107340811E+02 0.  0.
         13    1    3    3    0    0  0.22460396452E+02  0.79058303438E+01  0.27242601469E+02  0.36182068226E+02  0.10566000000E+00 0.  1.
         22    1    1    0    0    0  0.28103635505E+02 -0.21421062092E+01  0.50521292984E+01  0.28634366731E+02  0.00000000000E+00 0. -1.
</event>
<event>
 5    1  0.1264859E-009  0.9118800E+02  0.7815553E-02  0.1125453E+00
         25   -1    0    0    0    0  0.00000000000E+00  0.00000000000E+00  0.99999998245E-14  0.12509000000E+03  0.12509000000E+03 0.  0.
        -13    1    3    3    0    0  0.47135050434E+01  0.19815743439E+01 -0.46700146980E+02  0.46979342893E+02  0.10566000000E+00 0.  1.
         23    2    1    0    0    0  0.28596471146E+02  0.11708846743E+01 -0.36227003863E+01  0.96241202954E+02  0.91815663451E+02 0.  0.
         13    1    3    3    0    0  0.23882966103E+02 -0.81068966963E+00  0.43077446594E+02  0.49261860061E+02  0.10566000000E+00 0. -1.
         22    1    1    0    0    0 -0.28596471146E+02 -0.11708846743E+01  0.36227003863E+01  0.28848797046E+02  0.00000000000E+00 0. -1.
</event>
<event>
 5    1  0.1264859E-009  0.9118800E+02  0.7815553E-02  0.1125453E+00
         25   -1    0    0    0    0  0.00000000000E+00  0.00000000000E+00  0.99999998245E-14  0.12509000000E+03  0.12509000000E+03 0.  0.
        -13    1    3    3    0    0 -0.31413164914E+02 -0.48346364854E+01 -0.38349200781E+02  0.49807961255E+02  0.10566000000E+00 0.  1.
         23    2    1    0    0    0  0.86660112453E+00 -0.26051950793E+02 -0.13546422419E+02  0.95713807292E+02  0.91094303930E+02 0.  0.
         13    1    3    3    0    0  0.32279766038E+02 -0.21217314308E+02  0.24802778362E+02  0.45905846037E+02  0.10566000000E+00 0. -1.
         22    1    1    0    0    0 -0.86660112453E+00  0.26051950793E+02  0.13546422419E+02  0.29376192708E+02  0.00000000000E+00 0.  1.
</event>
<event>
 5    1  0.1264859E-009  0.9118800E+02  0.7815553E-02  0.1125453E+00
         25   -1    0    0    0    0  0.00000000000E+00  0.00000000000E+00  0.99999998245E-14  0.12509000000E+03  0.12509000000E+03 0.  0.
        -13    1    3    3    0    0  0.34581132990E+02 -0.30831246708E+02 -0.27657831312E+02  0.53957273183E+02  0.10566000000E+00 0. -1.
         23    2    1    0    0    0 -0.64918772911E+01 -0.14320911731E+02 -0.21203480149E+02  0.98692641155E+02  0.95096881463E+02 0.  0.
         13    1    3    3    0    0 -0.41073010281E+02  0.16510334977E+02  0.64543511631E+01  0.44735367971E+02  0.10566000000E+00 0.  1.
         22    1    1    0    0    0  0.64918772911E+01  0.14320911731E+02  0.21203480149E+02  0.26397358845E+02  0.00000000000E+00 0.  1.
</event>
<event>
 5    1  0.1264859E-009  0.9118800E+02  0.7815553E-02  0.1125453E+00
         25   -1    0    0    0    0  0.00000000000E+00  0.00000000000E+00  0.99999998245E-14  0.12509000000E+03  0.12509000000E+03 0.  0.
        -13    1    3    3    0    0  0.35405933442E+01 -0.47912722383E+02  0.20107589307E+02  0.52081580997E+02  0.10566000000E+00 0.  1.
         23    2    1    0    0    0 -0.29711699055E+01 -0.23431272421E+02 -0.16269095877E+02  0.96410114042E+02  0.92045500874E+02 0.  0.
         13    1    3    3    0    0 -0.65117632497E+01  0.24481449962E+02 -0.36376685185E+02  0.44328533045E+02  0.10566000000E+00 0. -1.
         22    1    1    0    0    0  0.29711699055E+01  0.23431272421E+02  0.16269095877E+02  0.28679885958E+02  0.00000000000E+00 0.  1.
</event>
<event>
 5    1  0.1264859E-009  0.9118800E+02  0.7815553E-02  0.1125453E+00
         25   -1    0    0    0    0  0.00000000000E+00  0.00000000000E+00  0.99999998245E-14  0.12509000000E+03  0.12509000000E+03 0.  0.
        -13    1    3    3    0    0 -0.46454555319E+02 -0.20818100260E+02 -0.22244607542E+01  0.50954670031E+02  0.10566000000E+00 0. -1.
         23    2    1    0    0    0 -0.37470644858E+01 -0.27671205359E+02  0.91960847949E+01  0.95690951140E+02  0.91062912628E+02 0.  0.
         13    1    3    3    0    0  0.42707490833E+02 -0.68531050992E+01  0.11420545549E+02  0.44736281109E+02  0.10566000000E+00 0.  1.
         22    1    1    0    0    0  0.37470644858E+01  0.27671205359E+02 -0.91960847949E+01  0.29399048860E+02  0.00000000000E+00 0.  1.
</event>
<event>
 5    1  0.1264859E-009  0.9118800E+02  0.7815553E-02  0.1125453E+00
         25   -1    0    0    0    0  0.00000000000E+00  0.00000000000E+00  0.99999998245E-14  0.12509000000E+03  0.12509000000E+03 0.  0.
        -13    1    3    3    0    0 -0.49060504221E+02  0.18891057803E+01  0.12386071111E+01  0.49112596212E+02  0.10566000000E+00 0.  1.
         23    2    1    0    0    0 -0.12460370889E+02 -0.13465048008E+02  0.24011483676E+02  0.94872129313E+02  0.89931091462E+02 0.  0.
         13    1    3    3    0    0  0.36600133333E+02 -0.15354153788E+02  0.22772876565E+02  0.45759533101E+02  0.10566000000E+00 0. -1.
         22    1    1    0    0    0  0.12460370889E+02  0.13465048008E+02 -0.24011483676E+02  0.30217870687E+02  0.00000000000E+00 0. -1.
</event>
<event>
 5    1  0.1264859E-009  0.9118800E+02  0.7815553E-02  0.1125453E+00
         25   -1    0    0    0    0  0.00000000000E+00  0.00000000000E+00  0.99999998245E-14  0.12509000000E+03  0.12509000000E+03 0.  0.
        -13    1    3    3    0    0  0.32798176198E+02  0.11275159590E+02  0.31049367860E+02  0.46550230872E+02  0.10566000000E+00 0. -1.
         23    2    1    0    0    0  0.16025565721E+02 -0.23208557519E+02 -0.14968207776E+01  0.96846480899E+02  0.92636626078E+02 0.  0.
         13    1    3    3    0    0 -0.16772610477E+02 -0.34483717109E+02 -0.32546188638E+02  0.50296250026E+02  0.10566000000E+00 0.  1.
         22    1    1    0    0    0 -0.16025565721E+02  0.23208557519E+02  0.14968207776E+01  0.28243519101E+02  0.00000000000E+00 0. -1.
</event>
<event>
 5    1  0.1264859E-009  0.9118800E+02  0.7815553E-02  0.1125453E+00
         25   -1    0    0    0    0  0.00000000000E+00  0.00000000000E+00  0.99999998245E-14  0.12509000000E+03  0.12509000000E+03 0.  0.
        -13    1    3    3    0    0  0.10421005841E+02 -0.36028138293E+02  0.17992286697E+02  0.41597567912E+02  0.10566000000E+00 0.  1.
         23    2    1    0    0    0 -0.22348908760E+02 -0.94521794096E+01 -0.16207519865E+02  0.95909507912E+02  0.91362643292E+02 0.  0.
         13    1    3    3    0    0 -0.32769914601E+02  0.26575958883E+02 -0.34199806562E+02  0.54311939999E+02  0.10566000000E+00 0. -1.
         22    1    1    0    0    0  0.22348908760E+02  0.94521794096E+01  0.16207519865E+02  0.29180492088E+02  0.00000000000E+00 0. -1.
</event>
<event>
 5    1  0.1264859E-009  0.9118800E+02  0.7815553E-02  0.1125453E+00
         25   -1    0    0    0    0  0.00000000000E+00  0.00000000000E+00  0.99999998245E-14  0.12509000000E+03  0.12509000000E+03 0.  0.
        -13    1    3    3    0    0  0.22538507369E+02  0.25052978513E+02  0.17971193737E+02  0.38191766327E+02  0.10566000000E+00 0. -1.
         23    2    1    0    0    0 -0.28392039869E+02  0.89078550193E+01 -0.20846096320E+01  0.95260427319E+02  0.90469583876E+02 0.  0.
         13    1    3    3    0    0 -0.50930547239E+02 -0.16145123493E+02 -0.20055803369E+02  0.57068660992E+02  0.10566000000E+00 0.  1.
         22    1    1    0    0    0  0.28392039869E+02 -0.89078550193E+01  0.20846096320E+01  0.29829572681E+02  0.00000000000E+00 0.  1.
</event>
<event>
 5    1  0.1264859E-009  0.9118800E+02  0.7815553E-02  0.1125453E+00
         25   -1    0    0    0    0  0.00000000000E+00  0.00000000000E+00  0.99999998245E-14  0.12509000000E+03  0.12509000000E+03 0.  0.
        -13    1    3    3    0    0 -0.25324664993E+02 -0.42089894954E+02 -0.30936186328E+02  0.58051328174E+02  0.10566000000E+00 0. -1.
         23    2    1    0    0    0 -0.92194795904E+01 -0.83125636088E+01 -0.26617363681E+02  0.95720261033E+02  0.91103165726E+02 0.  0.
         13    1    3    3    0    0  0.16105185402E+02  0.33777331345E+02  0.43188226472E+01  0.37668932859E+02  0.10566000000E+00 0.  1.
         22    1    1    0    0    0  0.92194795904E+01  0.83125636088E+01  0.26617363681E+02  0.29369738967E+02  0.00000000000E+00 0. -1.
</event>
<event>
 5    1  0.1264859E-009  0.9118800E+02  0.7815553E-02  0.1125453E+00
         25   -1    0    0    0    0  0.00000000000E+00  0.00000000000E+00  0.99999998245E-14  0.12509000000E+03  0.12509000000E+03 0.  0.
        -13    1    3    3    0    0 -0.23981745640E+02  0.89910505283E+01 -0.51434920256E+02  0.57458900958E+02  0.10566000000E+00 0.  1.
         23    2    1    0    0    0  0.59199813064E+01  0.29888548967E+01 -0.29055423775E+02  0.95287364496E+02  0.90506821563E+02 0.  0.
         13    1    3    3    0    0  0.29901726947E+02 -0.60021956316E+01  0.22379496481E+02  0.37828463537E+02  0.10566000000E+00 0. -1.
         22    1    1    0    0    0 -0.59199813064E+01 -0.29888548967E+01  0.29055423775E+02  0.29802635504E+02  0.00000000000E+00 0.  1.
</event>
<event>
 5    1  0.1264859E-009  0.9118800E+02  0.7815553E-02  0.1125453E+00
         25   -1    0    0    0    0  0.00000000000E+00  0.00000000000E+00  0.99999998245E-14  0.12509000000E+03  0.12509000000E+03 0.  0.
        -13    1    3    3    0    0  0.33813983033E+02  0.45522691694E+02 -0.14170296410E+02  0.58450914210E+02  0.10566000000E+00 0. -1.
         23    2    1    0    0    0  0.15722082632E+02  0.22956096733E+02  0.93567947847E+01  0.95735002672E+02  0.91123404615E+02 0.  0.
         13    1    3    3    0    0 -0.18091900401E+02 -0.22566594962E+02  0.23527091195E+02  0.37284088462E+02  0.10566000000E+00 0.  1.
         22    1    1    0    0    0 -0.15722082632E+02 -0.22956096733E+02 -0.93567947847E+01  0.29354997328E+02  0.00000000000E+00 0. -1.
</event>
<event>
 5    1  0.1264859E-009  0.9118800E+02  0.7815553E-02  0.1125453E+00
         25   -1    0    0    0    0  0.00000000000E+00  0.00000000000E+00  0.99999998245E-14  0.12509000000E+03  0.12509000000E+03 0.  0.
        -13    1    3    3    0    0 -0.14262900392E+02  0.15178486277E+02  0.50414475140E+02  0.54547660270E+02  0.10566000000E+00 0. -1.
         23    2    1    0    0    0 -0.40139078210E+01  0.27836295478E+02  0.15730364309E+02  0.92865550227E+02  0.87095322812E+02 0.  0.
         13    1    3    3    0    0  0.10248992571E+02  0.12657809201E+02 -0.34684110832E+02  0.38317889956E+02  0.10566000000E+00 0.  1.
         22    1    1    0    0    0  0.40139078210E+01 -0.27836295478E+02 -0.15730364309E+02  0.32224449773E+02  0.00000000000E+00 0. -1.
</event>
<event>
 5    1  0.1264859E-009  0.9118800E+02  0.7815553E-02  0.1125453E+00
         25   -1    0    0    0    0  0.00000000000E+00  0.00000000000E+00  0.99999998245E-14  0.12509000000E+03  0.12509000000E+03 0.  0.
        -13    1    3    3    0    0 -0.41656784867E+02 -0.40228872835E+02 -0.10069845838E+02  0.58779783040E+02  0.10566000000E+00 0.  1.
         23    2    1    0    0    0 -0.16295222570E+02 -0.25668807099E+02  0.86216089375E+01  0.93486929308E+02  0.87983247691E+02 0.  0.
         13    1    3    3    0    0  0.25361562297E+02  0.14560065736E+02  0.18691454776E+02  0.34707146268E+02  0.10566000000E+00 0. -1.
         22    1    1    0    0    0  0.16295222570E+02  0.25668807099E+02 -0.86216089375E+01  0.31603070692E+02  0.00000000000E+00 0.  1.
</event>
<event>
 5    1  0.1264859E-009  0.9118800E+02  0.7815553E-02  0.1125453E+00
         25   -1    0    0    0    0  0.00000000000E+00  0.00000000000E+00  0.99999998245E-14  0.12509000000E+03  0.12509000000E+03 0.  0.
        -13    1    3    3    0    0  0.49950907790E+02  0.31971761889E+01 -0.90881762777E+01  0.50871615236E+02  0.10566000000E+00 0. -1.
         23    2    1    0    0    0  0.92127880235E+01 -0.75349078670E+01 -0.26177444405E+02  0.96333976365E+02  0.91941971411E+02 0.  0.
         13    1    3    3    0    0 -0.40738119766E+02 -0.10732084056E+02 -0.17089268127E+02  0.45462361129E+02  0.10566000000E+00 0.  1.
         22    1    1    0    0    0 -0.92127880235E+01  0.75349078670E+01  0.26177444405E+02  0.28756023635E+02  0.00000000000E+00 0. -1.
</event>
<event>
 5    1  0.1264859E-009  0.9118800E+02  0.7815553E-02  0.1125453E+00
         25   -1    0    0    0    0  0.00000000000E+00  0.00000000000E+00  0.99999998245E-14  0.12509000000E+03  0.12509000000E+03 0.  0.
        -13    1    3    3    0    0 -0.39461295063E+02 -0.14882235707E+02  0.23918506348E+02  0.48484851837E+02  0.10566000000E+00 0.  1.
         23    2    1    0    0    0  0.82285866757E+01 -0.20778373116E+02  0.16950619552E+02  0.97040509252E+02  0.92898258889E+02 0.  0.
         13    1    3    3    0    0  0.47689881739E+02 -0.58961374090E+01 -0.69678867956E+01  0.48555657415E+02  0.10566000000E+00 0. -1.
         22    1    1    0    0    0 -0.82285866757E+01  0.20778373116E+02 -0.16950619552E+02  0.28049490748E+02  0.00000000000E+00 0. -1.
</event>
<event>
 5    1  0.1264859E-009  0.9118800E+02  0.7815553E-02  0.1125453E+00
         25   -1    0    0    0    0  0.00000000000E+00  0.00000000000E+00  0.99999998245E-14  0.12509000000E+03  0.12509000000E+03 0.  0.
        -13    1    3    3    0    0 -0.32390490909E+02 -0.18389519093E+02 -0.79093417692E+01  0.38077383905E+02  0.10566000000E+00 0. -1.
         23    2    1    0    0    0 -0.15009175186E+02  0.39203142786E+01  0.33470915810E+02  0.88198992845E+02  0.80113144551E+02 0.  0.
         13    1    3    3    0    0  0.17381315724E+02  0.22309833371E+02  0.41380257579E+02  0.50121608939E+02  0.10566000000E+00 0.  1.
         22    1    1    0    0    0  0.15009175186E+02 -0.39203142786E+01 -0.33470915810E+02  0.36891007155E+02  0.00000000000E+00 0. -1.
</event>
<event>
 5    1  0.1264859E-009  0.9118800E+02  0.7815553E-02  0.1125453E+00
         25   -1    0    0    0    0  0.00000000000E+00  0.00000000000E+00  0.99999998245E-14  0.12509000000E+03  0.12509000000E+03 0.  0.
        -13    1    3    3    0    0  0.21031420095E+02  0.20833915949E+02 -0.19872014305E+02  0.35655024913E+02  0.10566000000E+00 0. -1.
         23    2    1    0    0    0 -0.29874612451E+02  0.47782119413E+01  0.47966869728E+01  0.94457794980E+02  0.89352912924E+02 0.  0.
         13    1    3    3    0    0 -0.50906032546E+02 -0.16055704008E+02  0.24668701278E+02  0.58802770067E+02  0.10566000000E+00 0.  1.
         22    1    1    0    0    0  0.29874612451E+02 -0.47782119413E+01 -0.47966869728E+01  0.30632205020E+02  0.00000000000E+00 0.  1.
</event>
<event>
 5    1  0.1264859E-009  0.9118800E+02  0.7815553E-02  0.1125453E+00
         25   -1    0    0    0    0  0.00000000000E+00  0.00000000000E+00  0.99999998245E-14  0.12509000000E+03  0.12509000000E+03 0.  0.
        -13    1    3    3    0    0  0.16986656920E+02  0.35283095407E+02 -0.15016408219E+02  0.41939802272E+02  0.10566000000E+00 0. -1.
         23    2    1    0    0    0  0.12135875928E+02 -0.16499952912E+02 -0.22701180782E+02  0.94514330922E+02  0.89432025641E+02 0.  0.
         13    1    3    3    0    0 -0.48507809919E+01 -0.51783048319E+02 -0.76847725626E+01  0.52574528650E+02  0.10566000000E+00 0.  1.
         22    1    1    0    0    0 -0.12135875928E+02  0.16499952912E+02  0.22701180782E+02  0.30575669078E+02  0.00000000000E+00 0.  1.
</event>
<event>
 5    1  0.1264859E-009  0.9118800E+02  0.7815553E-02  0.1125453E+00
         25   -1    0    0    0    0  0.00000000000E+00  0.00000000000E+00  0.99999998245E-14  0.12509000000E+03  0.12509000000E+03 0.  0.
        -13    1    3    3    0    0 -0.16635526038E+02  0.43221982818E+01 -0.53994789165E+02  0.56664543990E+02  0.10566000000E+00 0. -1.
         23    2    1    0    0    0 -0.24679647728E+02 -0.18825292901E+01 -0.16915188886E+02  0.95110798150E+02  0.90262458316E+02 0.  0.
         13    1    3    3    0    0 -0.80441216905E+01 -0.62047275719E+01  0.37079600280E+02  0.38446254160E+02  0.10566000000E+00 0.  1.
         22    1    1    0    0    0  0.24679647728E+02  0.18825292901E+01  0.16915188886E+02  0.29979201850E+02  0.00000000000E+00 0. -1.
</event>
<event>
 5    1  0.1264859E-009  0.9118800E+02  0.7815553E-02  0.1125453E+00
         25   -1    0    0    0    0  0.00000000000E+00  0.00000000000E+00  0.99999998245E-14  0.12509000000E+03  0.12509000000E+03 0.  0.
        -13    1    3    3    0    0 -0.53612870870E+02  0.40077643844E+01  0.16490234116E+02  0.56234696439E+02  0.10566000000E+00 0.  1.
         23    2    1    0    0    0 -0.24028775591E+02 -0.17907899338E+02  0.58780994330E+01  0.94551058171E+02  0.89483381883E+02 0.  0.
         13    1    3    3    0    0  0.29584095280E+02 -0.21915663722E+02 -0.10612134682E+02  0.38316361733E+02  0.10566000000E+00 0. -1.
         22    1    1    0    0    0  0.24028775591E+02  0.17907899338E+02 -0.58780994330E+01  0.30538941829E+02  0.00000000000E+00 0.  1.
</event>
<event>
 5    1  0.1264859E-009  0.9118800E+02  0.7815553E-02  0.1125453E+00
         25   -1    0    0    0    0  0.00000000000E+00  0.00000000000E+00  0.99999998245E-14  0.12509000000E+03  0.12509000000E+03 0.  0.
        -13    1    3    3    0    0  0.89437036289E+01 -0.15655148421E+02 -0.35535205487E+02  0.39847653629E+02  0.10566000000E+00 0.  1.
         23    2    1    0    0    0 -0.14204291741E+02  0.25324846953E+02 -0.59183715952E+01  0.95456625245E+02  0.90740456269E+02 0.  0.
         13    1    3    3    0    0 -0.23147995369E+02  0.40979995374E+02  0.29616833891E+02  0.55608971617E+02  0.10566000000E+00 0. -1.
         22    1    1    0    0    0  0.14204291741E+02 -0.25324846953E+02  0.59183715952E+01  0.29633374755E+02  0.00000000000E+00 0. -1.
</event>
<event>
 5    1  0.1264859E-009  0.9118800E+02  0.7815553E-02  0.1125453E+00
         25   -1    0    0    0    0  0.00000000000E+00  0.00000000000E+00  0.99999998245E-14  0.12509000000E+03  0.12509000000E+03 0.  0.
        -13    1    3    3    0    0 -0.10286423920E+02  0.88442754141E+01  0.27999806771E+02  0.31113213719E+02  0.10566000000E+00 0. -1.
         23    2    1    0    0    0 -0.29733528411E+02  0.10104629208E+02 -0.23297787509E+02  0.85987913789E+02  0.76582949615E+02 0.  0.
         13    1    3    3    0    0 -0.19447104492E+02  0.12603537943E+01 -0.51297594280E+02  0.54874700070E+02  0.10566000000E+00 0.  1.
         22    1    1    0    0    0  0.29733528411E+02 -0.10104629208E+02  0.23297787509E+02  0.39102086211E+02  0.00000000000E+00 0.  1.
</event>
<event>
 5    1  0.1264859E-009  0.9118800E+02  0.7815553E-02  0.1125453E+00
         25   -1    0    0    0    0  0.00000000000E+00  0.00000000000E+00  0.99999998245E-14  0.12509000000E+03  0.12509000000E+03 0.  0.
        -13    1    3    3    0    0 -0.20318224490E+02 -0.95658056307E+01  0.46234765682E+02  0.51400385266E+02  0.10566000000E+00 0.  1.
         23    2    1    0    0    0 -0.32431563748E+01  0.21599809474E+02  0.17869401840E+02  0.96869699599E+02  0.92667973678E+02 0.  0.
         13    1    3    3    0    0  0.17075068115E+02  0.31165615105E+02 -0.28365363842E+02  0.45469314333E+02  0.10566000000E+00 0. -1.
         22    1    1    0    0    0  0.32431563748E+01 -0.21599809474E+02 -0.17869401840E+02  0.28220300401E+02  0.00000000000E+00 0. -1.
</event>
<event>
 5    1  0.1264859E-009  0.9118800E+02  0.7815553E-02  0.1125453E+00
         25   -1    0    0    0    0  0.00000000000E+00  0.00000000000E+00  0.99999998245E-14  0.12509000000E+03  0.12509000000E+03 0.  0.
        -13    1    3    3    0    0  0.12051698304E+02  0.25576238288E+02  0.19331018999E+01  0.28339644387E+02  0.10566000000E+00 0. -1.
         23    2    1    0    0    0 -0.35341673068E+02 -0.96724224067E+01  0.75779150453E+01  0.87673233612E+02  0.79287965576E+02 0.  0.
         13    1    3    3    0    0 -0.47393371373E+02 -0.35248660695E+02  0.56448131454E+01  0.59333589225E+02  0.10566000000E+00 0.  1.
         22    1    1    0    0    0  0.35341673068E+02  0.96724224067E+01 -0.75779150453E+01  0.37416766388E+02  0.00000000000E+00 0.  1.
</event>
<event>
 5    1  0.1264859E-009  0.9118800E+02  0.7815553E-02  0.1125453E+00
         25   -1    0    0    0    0  0.00000000000E+00  0.00000000000E+00  0.99999998245E-14  0.12509000000E+03  0.12509000000E+03 0.  0.
        -13    1    3    3    0    0  0.50445286118E+02 -0.27810607944E+02  0.18743219893E+01  0.57634026865E+02  0.10566000000E+00 0. -1.
         23    2    1    0    0    0  0.19014809727E+02 -0.15114288119E+02 -0.16047010743E+02  0.95977953557E+02  0.91456308262E+02 0.  0.
         13    1    3    3    0    0 -0.31430476391E+02  0.12696319825E+02 -0.17921332732E+02  0.38343926693E+02  0.10566000000E+00 0.  1.
         22    1    1    0    0    0 -0.19014809727E+02  0.15114288119E+02  0.16047010743E+02  0.29112046443E+02  0.00000000000E+00 0. -1.
</event>
<event>
 5    1  0.1264859E-009  0.9118800E+02  0.7815553E-02  0.1125453E+00
         25   -1    0    0    0    0  0.00000000000E+00  0.00000000000E+00  0.99999998245E-14  0.12509000000E+03  0.12509000000E+03 0.  0.
        -13    1    3    3    0    0  0.27998904220E+02 -0.13168727409E+02  0.18015516238E+02  0.35803966379E+02  0.10566000000E+00 0.  1.
         23    2    1    0    0    0 -0.26026516649E+02  0.10929933879E+02  0.74293840116E+01  0.95900296845E+02  0.91350031005E+02 0.  0.
         13    1    3    3    0    0 -0.54025420869E+02  0.24098661288E+02 -0.10586132227E+02  0.60096330466E+02  0.10566000000E+00 0. -1.
         22    1    1    0    0    0  0.26026516649E+02 -0.10929933879E+02 -0.74293840116E+01  0.29189703155E+02  0.00000000000E+00 0. -1.
</event>
<event>
 5    1  0.1264859E-009  0.9118800E+02  0.7815553E-02  0.1125453E+00
         25   -1    0    0    0    0  0.00000000000E+00  0.00000000000E+00  0.99999998245E-14  0.12509000000E+03  0.12509000000E+03 0.  0.
        -13    1    3    3    0    0 -0.29472406941E+02 -0.90405903829E+01 -0.15598802188E+02  0.34549802302E+02  0.10566000000E+00 0.  1.
         23    2    1    0    0    0  0.14879211578E+02  0.10128340965E+02  0.22639650718E+02  0.96167206004E+02  0.91714794325E+02 0.  0.
         13    1    3    3    0    0  0.44351618519E+02  0.19168931348E+02  0.38238452906E+02  0.61617403702E+02  0.10566000000E+00 0. -1.
         22    1    1    0    0    0 -0.14879211578E+02 -0.10128340965E+02 -0.22639650718E+02  0.28922793996E+02  0.00000000000E+00 0. -1.
</event>
<event>
 5    1  0.1264859E-009  0.9118800E+02  0.7815553E-02  0.1125453E+00
         25   -1    0    0    0    0  0.00000000000E+00  0.00000000000E+00  0.99999998245E-14  0.12509000000E+03  0.12509000000E+03 0.  0.
        -13    1    3    3    0    0 -0.25278066478E+02  0.41274783824E+01 -0.30375139045E+02  0.39732567986E+02  0.10566000000E+00 0.  1.
         23    2    1    0    0    0 -0.23894144522E+02  0.10875853400E+01  0.22225367584E+02  0.92439120248E+02  0.86480697290E+02 0.  0.
         13    1    3    3    0    0  0.13839219560E+01 -0.30398930425E+01  0.52600506629E+02  0.52706552262E+02  0.10566000000E+00 0. -1.
         22    1    1    0    0    0  0.23894144522E+02 -0.10875853400E+01 -0.22225367584E+02  0.32650879752E+02  0.00000000000E+00 0.  1.
</event>
<event>
 5    1  0.1264859E-009  0.9118800E+02  0.7815553E-02  0.1125453E+00
         25   -1    0    0    0    0  0.00000000000E+00  0.00000000000E+00  0.99999998245E-14  0.12509000000E+03  0.12509000000E+03 0.  0.
        -13    1    3    3    0    0  0.17499798097E+02 -0.35108036645E+01 -0.54622367421E+02  0.57464622704E+02  0.10566000000E+00 0. -1.
         23    2    1    0    0    0  0.12283537612E+02  0.15323437844E+02 -0.21125376492E+02  0.96246030517E+02  0.91822240305E+02 0.  0.
         13    1    3    3    0    0 -0.52162604846E+01  0.18834241509E+02  0.33496990929E+02  0.38781407813E+02  0.10566000000E+00 0.  1.
         22    1    1    0    0    0 -0.12283537612E+02 -0.15323437844E+02  0.21125376492E+02  0.28843969483E+02  0.00000000000E+00 0. -1.
</event>
<event>
 5    1  0.1264859E-009  0.9118800E+02  0.7815553E-02  0.1125453E+00
         25   -1    0    0    0    0  0.00000000000E+00  0.00000000000E+00  0.99999998245E-14  0.12509000000E+03  0.12509000000E+03 0.  0.
        -13    1    3    3    0    0 -0.16384284162E+02  0.31720149407E+02  0.17955509088E+02  0.39962784144E+02  0.10566000000E+00 0. -1.
         23    2    1    0    0    0  0.21771159796E+02  0.10506909666E+02 -0.16705557926E+02  0.95705408541E+02  0.91082770098E+02 0.  0.
         13    1    3    3    0    0  0.38155443959E+02 -0.21213239741E+02 -0.34661067014E+02  0.55742624396E+02  0.10566000000E+00 0.  1.
         22    1    1    0    0    0 -0.21771159796E+02 -0.10506909666E+02  0.16705557926E+02  0.29384591459E+02  0.00000000000E+00 0.  1.
</event>
<event>
 5    1  0.1264859E-009  0.9118800E+02  0.7815553E-02  0.1125453E+00
         25   -1    0    0    0    0  0.00000000000E+00  0.00000000000E+00  0.99999998245E-14  0.12509000000E+03  0.12509000000E+03 0.  0.
        -13    1    3    3    0    0 -0.27009959852E+02 -0.43153999175E+02 -0.80721102731E+01  0.51545860205E+02  0.10566000000E+00 0.  1.
         23    2    1    0    0    0  0.40269480307E+00 -0.15343532848E+02 -0.26298717994E+02  0.94639897677E+02  0.89607485741E+02 0.  0.
         13    1    3    3    0    0  0.27412654655E+02  0.27810466327E+02 -0.18226607721E+02  0.43094037472E+02  0.10566000000E+00 0. -1.
         22    1    1    0    0    0 -0.40269480307E+00  0.15343532848E+02  0.26298717994E+02  0.30450102323E+02  0.00000000000E+00 0.  1.
</event>
<event>
 5    1  0.1264859E-009  0.9118800E+02  0.7815553E-02  0.1125453E+00
         25   -1    0    0    0    0  0.00000000000E+00  0.00000000000E+00  0.99999998245E-14  0.12509000000E+03  0.12509000000E+03 0.  0.
        -13    1    3    3    0    0  0.47131087786E+02  0.16691196323E+02 -0.12362179176E+02  0.51505049351E+02  0.10566000000E+00 0. -1.
         23    2    1    0    0    0  0.24342670622E+02 -0.40977639946E+01  0.17807107085E+02  0.94652353154E+02  0.89624871616E+02 0.  0.
         13    1    3    3    0    0 -0.22788417165E+02 -0.20788960318E+02  0.30169286261E+02  0.43147303804E+02  0.10566000000E+00 0.  1.
         22    1    1    0    0    0 -0.24342670622E+02  0.40977639946E+01 -0.17807107085E+02  0.30437646846E+02  0.00000000000E+00 0. -1.
</event>
<event>
 5    1  0.1264859E-009  0.9118800E+02  0.7815553E-02  0.1125453E+00
         25   -1    0    0    0    0  0.00000000000E+00  0.00000000000E+00  0.99999998245E-14  0.12509000000E+03  0.12509000000E+03 0.  0.
        -13    1    3    3    0    0 -0.14930216998E+02  0.28712854561E+02  0.17808470261E+02  0.36939033200E+02  0.10566000000E+00 0.  1.
         23    2    1    0    0    0 -0.38879292148E+01 -0.27909762523E+02  0.10169017539E+02  0.95132033524E+02  0.90291882510E+02 0.  0.
         13    1    3    3    0    0  0.11042287783E+02 -0.56622617084E+02 -0.76394527221E+01  0.58193000325E+02  0.10566000000E+00 0. -1.
         22    1    1    0    0    0  0.38879292148E+01  0.27909762523E+02 -0.10169017539E+02  0.29957966476E+02  0.00000000000E+00 0. -1.
</event>
<event>
 5    1  0.1264859E-009  0.9118800E+02  0.7815553E-02  0.1125453E+00
         25   -1    0    0    0    0  0.00000000000E+00  0.00000000000E+00  0.99999998245E-14  0.12509000000E+03  0.12509000000E+03 0.  0.
        -13    1    3    3    0    0  0.15209993540E+02  0.42922942526E+02 -0.36458148278E+02  0.58334643553E+02  0.10566000000E+00 0. -1.
         23    2    1    0    0    0 -0.66954000195E+01  0.17551810682E+02 -0.25126106458E+02  0.93717788325E+02  0.88310861071E+02 0.  0.
         13    1    3    3    0    0 -0.21905393559E+02 -0.25371131845E+02  0.11332041820E+02  0.35383144771E+02  0.10566000000E+00 0.  1.
         22    1    1    0    0    0  0.66954000195E+01 -0.17551810682E+02  0.25126106458E+02  0.31372211675E+02  0.00000000000E+00 0. -1.
</event>
<event>
 5    1  0.1264859E-009  0.9118800E+02  0.7815553E-02  0.1125453E+00
         25   -1    0    0    0    0  0.00000000000E+00  0.00000000000E+00  0.99999998245E-14  0.12509000000E+03  0.12509000000E+03 0.  0.
        -13    1    3    3    0    0  0.55464995150E+02 -0.14555483899E+02 -0.19863571180E+02  0.60686080962E+02  0.10566000000E+00 0. -1.
         23    2    1    0    0    0  0.26094071137E+02  0.39535447948E+01 -0.10858544522E+02  0.96551621383E+02  0.92237609128E+02 0.  0.
         13    1    3    3    0    0 -0.29370924013E+02  0.18509028693E+02  0.90050266580E+01  0.35865540421E+02  0.10566000000E+00 0.  1.
         22    1    1    0    0    0 -0.26094071137E+02 -0.39535447948E+01  0.10858544522E+02  0.28538378617E+02  0.00000000000E+00 0. -1.
</event>
<event>
 5    1  0.1264859E-009  0.9118800E+02  0.7815553E-02  0.1125453E+00
         25   -1    0    0    0    0  0.00000000000E+00  0.00000000000E+00  0.99999998245E-14  0.12509000000E+03  0.12509000000E+03 0.  0.
        -13    1    3    3    0    0  0.51331936258E+02  0.26188599994E+02  0.20060147249E+02  0.61018285139E+02  0.10566000000E+00 0. -1.
         23    2    1    0    0    0  0.25519700020E+02  0.13873794229E+02 -0.15748597455E+00  0.96042417360E+02  0.91544436615E+02 0.  0.
         13    1    3    3    0    0 -0.25812236238E+02 -0.12314805765E+02 -0.20217633223E+02  0.35024132221E+02  0.10566000000E+00 0.  1.
         22    1    1    0    0    0 -0.25519700020E+02 -0.13873794229E+02  0.15748597455E+00  0.29047582640E+02  0.00000000000E+00 0. -1.
</event>
<event>
 5    1  0.1264859E-009  0.9118800E+02  0.7815553E-02  0.1125453E+00
         25   -1    0    0    0    0  0.00000000000E+00  0.00000000000E+00  0.99999998245E-14  0.12509000000E+03  0.12509000000E+03 0.  0.
        -13    1    3    3    0    0  0.15072660708E+02  0.21386537517E+02  0.38813002098E+02  0.46808432826E+02  0.10566000000E+00 0. -1.
         23    2    1    0    0    0 -0.41822697946E+01 -0.19920045716E+02  0.21291012012E+02  0.95634834164E+02  0.90985794007E+02 0.  0.
         13    1    3    3    0    0 -0.19254930503E+02 -0.41306583232E+02 -0.17521990086E+02  0.48826401338E+02  0.10566000000E+00 0.  1.
         22    1    1    0    0    0  0.41822697946E+01  0.19920045716E+02 -0.21291012012E+02  0.29455165836E+02  0.00000000000E+00 0. -1.
</event>
<event>
 5    1  0.1264859E-009  0.9118800E+02  0.7815553E-02  0.1125453E+00
         25   -1    0    0    0    0  0.00000000000E+00  0.00000000000E+00  0.99999998245E-14  0.12509000000E+03  0.12509000000E+03 0.  0.
        -13    1    3    3    0    0 -0.15246801832E+02 -0.32338472786E+02 -0.45103108471E+01  0.36036035523E+02  0.10566000000E+00 0.  1.
         23    2    1    0    0    0  0.28019957328E+02  0.81000632805E+01  0.31554340636E+01  0.95752552975E+02  0.91147493675E+02 0.  0.
         13    1    3    3    0    0  0.43266759161E+02  0.40438536067E+02  0.76657449107E+01  0.59716517452E+02  0.10566000000E+00 0. -1.
         22    1    1    0    0    0 -0.28019957328E+02 -0.81000632805E+01 -0.31554340636E+01  0.29337447025E+02  0.00000000000E+00 0. -1.
</event>
<event>
 5    1  0.1264859E-009  0.9118800E+02  0.7815553E-02  0.1125453E+00
         25   -1    0    0    0    0  0.00000000000E+00  0.00000000000E+00  0.99999998245E-14  0.12509000000E+03  0.12509000000E+03 0.  0.
        -13    1    3    3    0    0 -0.53762103660E+01  0.28951880253E+02  0.22846030880E+02  0.37270193172E+02  0.10566000000E+00 0.  1.
         23    2    1    0    0    0 -0.18364728165E+01 -0.27819439356E+02  0.86936114214E+01  0.95886015375E+02  0.91330472606E+02 0.  0.
         13    1    3    3    0    0  0.35397375495E+01 -0.56771319608E+02 -0.14152419458E+02  0.58615822203E+02  0.10566000000E+00 0. -1.
         22    1    1    0    0    0  0.18364728165E+01  0.27819439356E+02 -0.86936114214E+01  0.29203984625E+02  0.00000000000E+00 0. -1.
</event>
<event>
 5    1  0.1264859E-009  0.9118800E+02  0.7815553E-02  0.1125453E+00
         25   -1    0    0    0    0  0.00000000000E+00  0.00000000000E+00  0.99999998245E-14  0.12509000000E+03  0.12509000000E+03 0.  0.
        -13    1    3    3    0    0 -0.52627390053E+02 -0.52561946259E+01 -0.23790207005E+02  0.57993576189E+02  0.10566000000E+00 0.  1.
         23    2    1    0    0    0 -0.32681669343E+02 -0.10488442857E+02  0.16323694662E+01  0.90727759464E+02  0.83968820182E+02 0.  0.
         13    1    3    3    0    0  0.19945720711E+02 -0.52322482311E+01  0.25422576471E+02  0.32734183275E+02  0.10566000000E+00 0. -1.
         22    1    1    0    0    0  0.32681669343E+02  0.10488442857E+02 -0.16323694662E+01  0.34362240536E+02  0.00000000000E+00 0.  1.
</event>
<event>
 5    1  0.1264859E-009  0.9118800E+02  0.7815553E-02  0.1125453E+00
         25   -1    0    0    0    0  0.00000000000E+00  0.00000000000E+00  0.99999998245E-14  0.12509000000E+03  0.12509000000E+03 0.  0.
        -13    1    3    3    0    0  0.53990852618E+02 -0.25260270010E+02  0.11596953477E+01  0.59619203825E+02  0.10566000000E+00 0. -1.
         23    2    1    0    0    0  0.29304808142E+02  0.56063722551E+00 -0.31931662603E+01  0.95606404475E+02  0.90946699619E+02 0.  0.
         13    1    3    3    0    0 -0.24686044477E+02  0.25820907236E+02 -0.43528616080E+01  0.35987200650E+02  0.10566000000E+00 0.  1.
         22    1    1    0    0    0 -0.29304808142E+02 -0.56063722551E+00  0.31931662603E+01  0.29483595525E+02  0.00000000000E+00 0. -1.
</event>
<event>
 5    1  0.1264859E-009  0.9118800E+02  0.7815553E-02  0.1125453E+00
         25   -1    0    0    0    0  0.00000000000E+00  0.00000000000E+00  0.99999998245E-14  0.12509000000E+03  0.12509000000E+03 0.  0.
        -13    1    3    3    0    0  0.20107477729E+02 -0.33383627278E+02 -0.12560923698E+02  0.40945881344E+02  0.10566000000E+00 0.  1.
         23    2    1    0    0    0 -0.44502210798E+01 -0.53980586352E+01  0.28131505281E+02  0.96101638644E+02  0.91625323225E+02 0.  0.
         13    1    3    3    0    0 -0.24557698809E+02  0.27985568642E+02  0.40692428980E+02  0.55155757300E+02  0.10566000000E+00 0. -1.
         22    1    1    0    0    0  0.44502210798E+01  0.53980586352E+01 -0.28131505281E+02  0.28988361356E+02  0.00000000000E+00 0. -1.
</event>
<event>
 5    1  0.1264859E-009  0.9118800E+02  0.7815553E-02  0.1125453E+00
         25   -1    0    0    0    0  0.00000000000E+00  0.00000000000E+00  0.99999998245E-14  0.12509000000E+03  0.12509000000E+03 0.  0.
        -13    1    3    3    0    0 -0.21517371384E+02 -0.13573280779E+02  0.38062347741E+02  0.45781925495E+02  0.10566000000E+00 0. -1.
         23    2    1    0    0    0  0.21504042557E+02  0.59012669459E+01  0.10755592713E+02  0.10033254511E+03  0.97230077838E+02 0.  0.
         13    1    3    3    0    0  0.43021413941E+02  0.19474547725E+02 -0.27306755028E+02  0.54550619619E+02  0.10566000000E+00 0.  1.
         22    1    1    0    0    0 -0.21504042557E+02 -0.59012669459E+01 -0.10755592713E+02  0.24757454887E+02  0.00000000000E+00 0.  1.
</event>
<event>
 5    1  0.1264859E-009  0.9118800E+02  0.7815553E-02  0.1125453E+00
         25   -1    0    0    0    0  0.00000000000E+00  0.00000000000E+00  0.99999998245E-14  0.12509000000E+03  0.12509000000E+03 0.  0.
        -13    1    3    3    0    0  0.45969222565E+02 -0.99258573192E+01  0.10565227791E+00  0.47028867658E+02  0.10566000000E+00 0. -1.
         23    2    1    0    0    0  0.10756047383E+02  0.21833376051E+02 -0.14638623634E+02  0.96687919671E+02  0.92422268114E+02 0.  0.
         13    1    3    3    0    0 -0.35213175182E+02  0.31759233370E+02 -0.14744275912E+02  0.49659052013E+02  0.10566000000E+00 0.  1.
         22    1    1    0    0    0 -0.10756047383E+02 -0.21833376051E+02  0.14638623634E+02  0.28402080329E+02  0.00000000000E+00 0.  1.
</event>
<event>
 5    1  0.1264859E-009  0.9118800E+02  0.7815553E-02  0.1125453E+00
         25   -1    0    0    0    0  0.00000000000E+00  0.00000000000E+00  0.99999998245E-14  0.12509000000E+03  0.12509000000E+03 0.  0.
        -13    1    3    3    0    0 -0.50080218024E+01  0.31323905543E+02 -0.50646993508E+02  0.59761161771E+02  0.10566000000E+00 0.  1.
         23    2    1    0    0    0 -0.13847224956E+02  0.19721650777E+02 -0.19731453946E+02  0.93944865176E+02  0.88631925793E+02 0.  0.
         13    1    3    3    0    0 -0.88392031541E+01 -0.11602254765E+02  0.30915539562E+02  0.34183703405E+02  0.10566000000E+00 0. -1.
         22    1    1    0    0    0  0.13847224956E+02 -0.19721650777E+02  0.19731453946E+02  0.31145134824E+02  0.00000000000E+00 0.  1.
</event>
<event>
 5    1  0.1264859E-009  0.9118800E+02  0.7815553E-02  0.1125453E+00
         25   -1    0    0    0    0  0.00000000000E+00  0.00000000000E+00  0.99999998245E-14  0.12509000000E+03  0.12509000000E+03 0.  0.
        -13    1    3    3    0    0  0.97689031842E+01  0.26973844645E+02  0.51293519465E+02  0.58771218019E+02  0.10566000000E+00 0.  1.
         23    2    1    0    0    0  0.18912082920E+02  0.16277070184E+02  0.19900981096E+02  0.93173563126E+02  0.87536586196E+02 0.  0.
         13    1    3    3    0    0  0.91431797362E+01 -0.10696774461E+02 -0.31392538369E+02  0.34402345107E+02  0.10566000000E+00 0. -1.
         22    1    1    0    0    0 -0.18912082920E+02 -0.16277070184E+02 -0.19900981096E+02  0.31916436874E+02  0.00000000000E+00 0.  1.
</event>
<event>
 5    1  0.1264859E-009  0.9118800E+02  0.7815553E-02  0.1125453E+00
         25   -1    0    0    0    0  0.00000000000E+00  0.00000000000E+00  0.99999998245E-14  0.12509000000E+03  0.12509000000E+03 0.  0.
        -13    1    3    3    0    0  0.19065522312E+02  0.27872942820E+02  0.10218832395E+02  0.35282159543E+02  0.10566000000E+00 0. -1.
         23    2    1    0    0    0 -0.15350738899E+02 -0.79660834688E+01 -0.23923405384E+02  0.95569956034E+02  0.90896553843E+02 0.  0.
         13    1    3    3    0    0 -0.34416261212E+02 -0.35839026289E+02 -0.34142237779E+02  0.60287796491E+02  0.10566000000E+00 0.  1.
         22    1    1    0    0    0  0.15350738899E+02  0.79660834688E+01  0.23923405384E+02  0.29520043966E+02  0.00000000000E+00 0.  1.
</event>
<event>
 5    1  0.1264859E-009  0.9118800E+02  0.7815553E-02  0.1125453E+00
         25   -1    0    0    0    0  0.00000000000E+00  0.00000000000E+00  0.99999998245E-14  0.12509000000E+03  0.12509000000E+03 0.  0.
        -13    1    3    3    0    0  0.28724065752E+02  0.59404268425E+01 -0.18263430522E+02  0.34553215232E+02  0.10566000000E+00 0.  1.
         23    2    1    0    0    0 -0.14239435511E+02  0.18188574769E+02  0.20880918700E+02  0.93951622689E+02  0.88641462445E+02 0.  0.
         13    1    3    3    0    0 -0.42963501263E+02  0.12248147926E+02  0.39144349222E+02  0.59398407457E+02  0.10566000000E+00 0. -1.
         22    1    1    0    0    0  0.14239435511E+02 -0.18188574769E+02 -0.20880918700E+02  0.31138377311E+02  0.00000000000E+00 0. -1.
</event>
<event>
 5    1  0.1264859E-009  0.9118800E+02  0.7815553E-02  0.1125453E+00
         25   -1    0    0    0    0  0.00000000000E+00  0.00000000000E+00  0.99999998245E-14  0.12509000000E+03  0.12509000000E+03 0.  0.
        -13    1    3    3    0    0  0.36295193518E+02  0.12893153202E+02 -0.89467951984E-01  0.38517445924E+02  0.10566000000E+00 0. -1.
         23    2    1    0    0    0 -0.77189641391E+01 -0.25611907131E+02  0.70373203844E+01  0.97429991460E+02  0.93421235077E+02 0.  0.
         13    1    3    3    0    0 -0.44014157657E+02 -0.38505060333E+02  0.71267883364E+01  0.58912545536E+02  0.10566000000E+00 0.  1.
         22    1    1    0    0    0  0.77189641391E+01  0.25611907131E+02 -0.70373203844E+01  0.27660008540E+02  0.00000000000E+00 0.  1.
</event>
<event>
 4    1  0.1264859E-009  0.9118800E+02  0.7815553E-02  0.1125453E+00
         25   -1    0    0    0    0  0.00000000000E+00  0.00000000000E+00  0.99999998245E-14  0.12509000000E+03  0.12509000000E+03 0.  0.
        -13    1    1    0    0    0  0.16290408610E+02 -0.24809811894E+02 -0.30271616790E+02  0.42394411495E+02  0.10566000000E+00 0.  1.
         13    1    1    0    0    0  0.22300984841E+02 -0.46913897977E+01 -0.41447956021E+01  0.23163194031E+02  0.10566000000E+00 0. -1.
         22    1    1    0    0    0 -0.38591393451E+02  0.29501201692E+02  0.34416412392E+02  0.59532394473E+02  0.00000000000E+00 0. -1.
</event>
<event>
 5    1  0.1264859E-009  0.9118800E+02  0.7815553E-02  0.1125453E+00
         25   -1    0    0    0    0  0.00000000000E+00  0.00000000000E+00  0.99999998245E-14  0.12509000000E+03  0.12509000000E+03 0.  0.
        -13    1    3    3    0    0 -0.25614021604E+02  0.26145868208E+02  0.26670062438E+02  0.45287834145E+02  0.10566000000E+00 0. -1.
         23    2    1    0    0    0  0.57183988684E+01  0.22856457340E+02 -0.14723550642E+02  0.97306899538E+02  0.93256270708E+02 0.  0.
         13    1    3    3    0    0  0.31332420472E+02 -0.32894108678E+01 -0.41393613080E+02  0.52019065393E+02  0.10566000000E+00 0.  1.
         22    1    1    0    0    0 -0.57183988684E+01 -0.22856457340E+02  0.14723550642E+02  0.27783100462E+02  0.00000000000E+00 0.  1.
</event>
<event>
 5    1  0.1264859E-009  0.9118800E+02  0.7815553E-02  0.1125453E+00
         25   -1    0    0    0    0  0.00000000000E+00  0.00000000000E+00  0.99999998245E-14  0.12509000000E+03  0.12509000000E+03 0.  0.
        -13    1    3    3    0    0  0.20552459117E+02  0.52640905111E+02 -0.14623038125E+02  0.58372192649E+02  0.10566000000E+00 0.  1.
         23    2    1    0    0    0  0.10933727004E+02  0.26052629415E+02  0.92321689461E+01  0.95365955372E+02  0.90615377364E+02 0.  0.
         13    1    3    3    0    0 -0.96187321128E+01 -0.26588275696E+02  0.23855207071E+02  0.36993762723E+02  0.10566000000E+00 0. -1.
         22    1    1    0    0    0 -0.10933727004E+02 -0.26052629415E+02 -0.92321689461E+01  0.29724044628E+02  0.00000000000E+00 0.  1.
</event>
<event>
 5    1  0.1264859E-009  0.9118800E+02  0.7815553E-02  0.1125453E+00
         25   -1    0    0    0    0  0.00000000000E+00  0.00000000000E+00  0.99999998245E-14  0.12509000000E+03  0.12509000000E+03 0.  0.
        -13    1    3    3    0    0 -0.48378068296E+02 -0.12455394650E+02  0.23171996750E+02  0.55068384263E+02  0.10566000000E+00 0.  1.
         23    2    1    0    0    0 -0.85136336322E+01 -0.76091848933E+00  0.26981291524E+02  0.96787154792E+02  0.92556481598E+02 0.  0.
         13    1    3    3    0    0  0.39864434664E+02  0.11694476161E+02  0.38092947735E+01  0.41718770529E+02  0.10566000000E+00 0. -1.
         22    1    1    0    0    0  0.85136336322E+01  0.76091848933E+00 -0.26981291524E+02  0.28302845208E+02  0.00000000000E+00 0. -1.
</event>
<event>
 5    1  0.1264859E-009  0.9118800E+02  0.7815553E-02  0.1125453E+00
         25   -1    0    0    0    0  0.00000000000E+00  0.00000000000E+00  0.99999998245E-14  0.12509000000E+03  0.12509000000E+03 0.  0.
        -13    1    3    3    0    0 -0.37125279941E+02  0.10950012367E+02 -0.13142464386E+02  0.40876946017E+02  0.10566000000E+00 0.  1.
         23    2    1    0    0    0  0.17523862253E+02  0.21273993454E+02 -0.40040700480E+01  0.97238588497E+02  0.93164596120E+02 0.  0.
         13    1    3    3    0    0  0.54649142193E+02  0.10323981087E+02  0.91383943377E+01  0.56361642480E+02  0.10566000000E+00 0. -1.
         22    1    1    0    0    0 -0.17523862253E+02 -0.21273993454E+02  0.40040700480E+01  0.27851411503E+02  0.00000000000E+00 0. -1.
</event>
<event>
 5    1  0.1264859E-009  0.9118800E+02  0.7815553E-02  0.1125453E+00
         25   -1    0    0    0    0  0.00000000000E+00  0.00000000000E+00  0.99999998245E-14  0.12509000000E+03  0.12509000000E+03 0.  0.
        -13    1    3    3    0    0 -0.20471426710E+02 -0.69826626988E+01 -0.39026716843E+02  0.44619868685E+02  0.10566000000E+00 0. -1.
         23    2    1    0    0    0  0.11763224596E+02 -0.27492469686E+02 -0.72340375571E+01  0.94324099368E+02  0.89165548727E+02 0.  0.
         13    1    3    3    0    0  0.32234651306E+02 -0.20509806987E+02  0.31792679286E+02  0.49704230682E+02  0.10566000000E+00 0.  1.
         22    1    1    0    0    0 -0.11763224596E+02  0.27492469686E+02  0.72340375571E+01  0.30765900632E+02  0.00000000000E+00 0.  1.
</event>
<event>
 5    1  0.1264859E-009  0.9118800E+02  0.7815553E-02  0.1125453E+00
         25   -1    0    0    0    0  0.00000000000E+00  0.00000000000E+00  0.99999998245E-14  0.12509000000E+03  0.12509000000E+03 0.  0.
        -13    1    3    3    0    0  0.18654834619E+02  0.11252778327E+02 -0.18554873441E+02  0.28616819656E+02  0.10566000000E+00 0. -1.
         23    2    1    0    0    0 -0.12126644704E+02 -0.14891457285E+02  0.28561055493E+02  0.90672781886E+02  0.83886879023E+02 0.  0.
         13    1    3    3    0    0 -0.30781479323E+02 -0.26144235612E+02  0.47115928933E+02  0.62055962231E+02  0.10566000000E+00 0.  1.
         22    1    1    0    0    0  0.12126644704E+02  0.14891457285E+02 -0.28561055493E+02  0.34417218114E+02  0.00000000000E+00 0.  1.
</event>
<event>
 5    1  0.1264859E-009  0.9118800E+02  0.7815553E-02  0.1125453E+00
         25   -1    0    0    0    0  0.00000000000E+00  0.00000000000E+00  0.99999998245E-14  0.12509000000E+03  0.12509000000E+03 0.  0.
        -13    1    3    3    0    0  0.37852107971E+02  0.16160227118E+02  0.45074803269E+02  0.61038381958E+02  0.10566000000E+00 0.  1.
         23    2    1    0    0    0  0.79464197951E+01  0.99415490532E+01  0.23265938375E+02  0.98570500125E+02  0.94936081768E+02 0.  0.
         13    1    3    3    0    0 -0.29905688175E+02 -0.62186780645E+01 -0.21808864894E+02  0.37532118167E+02  0.10566000000E+00 0. -1.
         22    1    1    0    0    0 -0.79464197951E+01 -0.99415490532E+01 -0.23265938375E+02  0.26519499875E+02  0.00000000000E+00 0.  1.
</event>
<event>
 5    1  0.1264859E-009  0.9118800E+02  0.7815553E-02  0.1125453E+00
         25   -1    0    0    0    0  0.00000000000E+00  0.00000000000E+00  0.99999998245E-14  0.12509000000E+03  0.12509000000E+03 0.  0.
        -13    1    3    3    0    0  0.44966742650E+02 -0.14004380661E+02 -0.37926383062E+01  0.47249612608E+02  0.10566000000E+00 0. -1.
         23    2    1    0    0    0  0.17188383244E+02  0.23202807059E+02  0.79409831631E+01  0.95142212309E+02  0.90305983055E+02 0.  0.
         13    1    3    3    0    0 -0.27778359406E+02  0.37207187720E+02  0.11733621469E+02  0.47892599701E+02  0.10566000000E+00 0.  1.
         22    1    1    0    0    0 -0.17188383244E+02 -0.23202807059E+02 -0.79409831631E+01  0.29947787691E+02  0.00000000000E+00 0.  1.
</event>
<event>
 5    1  0.1264859E-009  0.9118800E+02  0.7815553E-02  0.1125453E+00
         25   -1    0    0    0    0  0.00000000000E+00  0.00000000000E+00  0.99999998245E-14  0.12509000000E+03  0.12509000000E+03 0.  0.
        -13    1    3    3    0    0  0.62224198520E+00  0.28435464163E+01 -0.45226340660E+02  0.45320039660E+02  0.10566000000E+00 0.  1.
         23    2    1    0    0    0  0.26720095886E+02  0.11327516601E+02 -0.26857968388E+01  0.95943994078E+02  0.91409848149E+02 0.  0.
         13    1    3    3    0    0  0.26097853901E+02  0.84839701846E+01  0.42540543821E+02  0.50623954418E+02  0.10566000000E+00 0. -1.
         22    1    1    0    0    0 -0.26720095886E+02 -0.11327516601E+02  0.26857968388E+01  0.29146005922E+02  0.00000000000E+00 0. -1.
</event>
<event>
 5    1  0.1264859E-009  0.9118800E+02  0.7815553E-02  0.1125453E+00
         25   -1    0    0    0    0  0.00000000000E+00  0.00000000000E+00  0.99999998245E-14  0.12509000000E+03  0.12509000000E+03 0.  0.
        -13    1    3    3    0    0 -0.23517740985E+01  0.21506107440E+02  0.27590672667E+02  0.35061373061E+02  0.10566000000E+00 0. -1.
         23    2    1    0    0    0 -0.31224697856E+00 -0.74324192566E+01 -0.27109488339E+02  0.96978388303E+02  0.92814573670E+02 0.  0.
         13    1    3    3    0    0  0.20395271199E+01 -0.28938526697E+02 -0.54700161007E+02  0.61917015242E+02  0.10566000000E+00 0.  1.
         22    1    1    0    0    0  0.31224697856E+00  0.74324192566E+01  0.27109488339E+02  0.28111611697E+02  0.00000000000E+00 0.  1.
</event>
<event>
 5    1  0.1264859E-009  0.9118800E+02  0.7815553E-02  0.1125453E+00
         25   -1    0    0    0    0  0.00000000000E+00  0.00000000000E+00  0.99999998245E-14  0.12509000000E+03  0.12509000000E+03 0.  0.
        -13    1    3    3    0    0  0.54154868431E+02  0.22167561848E+01 -0.29500105295E+02  0.61708436694E+02  0.10566000000E+00 0.  1.
         23    2    1    0    0    0  0.25450982002E+02  0.66089580406E+01 -0.88304980430E+01  0.97351786162E+02  0.93316460295E+02 0.  0.
         13    1    3    3    0    0 -0.28703886430E+02  0.43922018558E+01  0.20669607252E+02  0.35643349468E+02  0.10566000000E+00 0. -1.
         22    1    1    0    0    0 -0.25450982002E+02 -0.66089580406E+01  0.88304980430E+01  0.27738213838E+02  0.00000000000E+00 0.  1.
</event>
<event>
 5    1  0.1264859E-009  0.9118800E+02  0.7815553E-02  0.1125453E+00
         25   -1    0    0    0    0  0.00000000000E+00  0.00000000000E+00  0.99999998245E-14  0.12509000000E+03  0.12509000000E+03 0.  0.
        -13    1    3    3    0    0  0.44649646773E+02  0.34023202280E+02 -0.26202982133E+02  0.61949791663E+02  0.10566000000E+00 0. -1.
         23    2    1    0    0    0  0.24227042777E+02  0.11013748785E+02 -0.13683616656E+02  0.95165200438E+02  0.90337820128E+02 0.  0.
         13    1    3    3    0    0 -0.20422603996E+02 -0.23009453495E+02  0.12519365477E+02  0.33215408775E+02  0.10566000000E+00 0.  1.
         22    1    1    0    0    0 -0.24227042777E+02 -0.11013748785E+02  0.13683616656E+02  0.29924799562E+02  0.00000000000E+00 0. -1.
</event>
<event>
 5    1  0.1264859E-009  0.9118800E+02  0.7815553E-02  0.1125453E+00
         25   -1    0    0    0    0  0.00000000000E+00  0.00000000000E+00  0.99999998245E-14  0.12509000000E+03  0.12509000000E+03 0.  0.
        -13    1    3    3    0    0  0.14010627452E+01 -0.22106844852E+02  0.57404779457E+01  0.22883177603E+02  0.10566000000E+00 0. -1.
         23    2    1    0    0    0  0.20269583754E+02  0.35252521755E+02 -0.46737821190E+01  0.84157854260E+02  0.73533012169E+02 0.  0.
         13    1    3    3    0    0  0.18868521009E+02  0.57359366607E+02 -0.10414260065E+02  0.61274676656E+02  0.10566000000E+00 0.  1.
         22    1    1    0    0    0 -0.20269583754E+02 -0.35252521755E+02  0.46737821190E+01  0.40932145740E+02  0.00000000000E+00 0.  1.
</event>
<event>
 5    1  0.1264859E-009  0.9118800E+02  0.7815553E-02  0.1125453E+00
         25   -1    0    0    0    0  0.00000000000E+00  0.00000000000E+00  0.99999998245E-14  0.12509000000E+03  0.12509000000E+03 0.  0.
        -13    1    3    3    0    0  0.33840088862E+02 -0.26094713970E+01  0.11343928905E+01  0.33959666760E+02  0.10566000000E+00 0.  1.
         23    2    1    0    0    0 -0.28095089945E+02 -0.37239468165E+01  0.60878441151E+01  0.96102697523E+02  0.91626768830E+02 0.  0.
         13    1    3    3    0    0 -0.61935178807E+02 -0.11144754194E+01  0.49534512247E+01  0.62143030763E+02  0.10566000000E+00 0. -1.
         22    1    1    0    0    0  0.28095089945E+02  0.37239468165E+01 -0.60878441151E+01  0.28987302477E+02  0.00000000000E+00 0. -1.
</event>
<event>
 5    1  0.1264859E-009  0.9118800E+02  0.7815553E-02  0.1125453E+00
         25   -1    0    0    0    0  0.00000000000E+00  0.00000000000E+00  0.99999998245E-14  0.12509000000E+03  0.12509000000E+03 0.  0.
        -13    1    3    3    0    0 -0.45830377247E+02  0.25477635175E+02  0.25261619723E+02  0.58203899937E+02  0.10566000000E+00 0.  1.
         23    2    1    0    0    0 -0.13524457049E+02  0.25775440340E+02  0.76789121725E+01  0.94986014295E+02  0.90089360949E+02 0.  0.
         13    1    3    3    0    0  0.32305920199E+02  0.29780516499E+00 -0.17582707551E+02  0.36782114358E+02  0.10566000000E+00 0. -1.
         22    1    1    0    0    0  0.13524457049E+02 -0.25775440340E+02 -0.76789121725E+01  0.30103985705E+02  0.00000000000E+00 0.  1.
</event>
<event>
 5    1  0.1264859E-009  0.9118800E+02  0.7815553E-02  0.1125453E+00
         25   -1    0    0    0    0  0.00000000000E+00  0.00000000000E+00  0.99999998245E-14  0.12509000000E+03  0.12509000000E+03 0.  0.
        -13    1    3    3    0    0  0.33807721422E+02 -0.66834384962E+01 -0.11012013474E+02  0.36178805711E+02  0.10566000000E+00 0.  1.
         23    2    1    0    0    0 -0.25022099617E+02  0.58810577140E+01 -0.12827899699E+02  0.96362881805E+02  0.91981289782E+02 0.  0.
         13    1    3    3    0    0 -0.58829821039E+02  0.12564496210E+02 -0.18158862251E+01  0.60184076094E+02  0.10566000000E+00 0. -1.
         22    1    1    0    0    0  0.25022099617E+02 -0.58810577140E+01  0.12827899699E+02  0.28727118195E+02  0.00000000000E+00 0. -1.
</event>
<event>
 5    1  0.1264859E-009  0.9118800E+02  0.7815553E-02  0.1125453E+00
         25   -1    0    0    0    0  0.00000000000E+00  0.00000000000E+00  0.99999998245E-14  0.12509000000E+03  0.12509000000E+03 0.  0.
        -13    1    3    3    0    0  0.12703366201E+02 -0.18094004921E+02  0.45817531071E+02  0.50872643380E+02  0.10566000000E+00 0.  1.
         23    2    1    0    0    0 -0.10905118985E+02  0.14497374125E+02  0.14484212674E+02  0.10187604098E+03  0.99195966815E+02 0.  0.
         13    1    3    3    0    0 -0.23608485187E+02  0.32591379046E+02 -0.31333318397E+02  0.51003397600E+02  0.10566000000E+00 0. -1.
         22    1    1    0    0    0  0.10905118985E+02 -0.14497374125E+02 -0.14484212674E+02  0.23213959020E+02  0.00000000000E+00 0.  1.
</event>
<event>
 5    1  0.1264859E-009  0.9118800E+02  0.7815553E-02  0.1125453E+00
         25   -1    0    0    0    0  0.00000000000E+00  0.00000000000E+00  0.99999998245E-14  0.12509000000E+03  0.12509000000E+03 0.  0.
        -13    1    3    3    0    0 -0.80890376344E+01  0.11088149837E+02  0.60623312427E+02  0.62157676681E+02  0.10566000000E+00 0.  1.
         23    2    1    0    0    0  0.49691612832E+00  0.31649641197E+01  0.29753341288E+02  0.95164672244E+02  0.90337088740E+02 0.  0.
         13    1    3    3    0    0  0.85859537627E+01 -0.79231857177E+01 -0.30869971139E+02  0.33006995563E+02  0.10566000000E+00 0. -1.
         22    1    1    0    0    0 -0.49691612832E+00 -0.31649641197E+01 -0.29753341288E+02  0.29925327756E+02  0.00000000000E+00 0.  1.
</event>
<event>
 5    1  0.1264859E-009  0.9118800E+02  0.7815553E-02  0.1125453E+00
         25   -1    0    0    0    0  0.00000000000E+00  0.00000000000E+00  0.99999998245E-14  0.12509000000E+03  0.12509000000E+03 0.  0.
        -13    1    3    3    0    0  0.15110697176E+02  0.56831370928E+02 -0.14472374057E+00  0.58806207152E+02  0.10566000000E+00 0.  1.
         23    2    1    0    0    0 -0.18420890148E+01  0.26037317031E+02 -0.12607484646E+02  0.96102350230E+02  0.91626294700E+02 0.  0.
         13    1    3    3    0    0 -0.16952786191E+02 -0.30794053897E+02 -0.12462760906E+02  0.37296143078E+02  0.10566000000E+00 0. -1.
         22    1    1    0    0    0  0.18420890148E+01 -0.26037317031E+02  0.12607484646E+02  0.28987649770E+02  0.00000000000E+00 0. -1.
</event>
<event>
 5    1  0.1264859E-009  0.9118800E+02  0.7815553E-02  0.1125453E+00
         25   -1    0    0    0    0  0.00000000000E+00  0.00000000000E+00  0.99999998245E-14  0.12509000000E+03  0.12509000000E+03 0.  0.
        -13    1    3    3    0    0  0.24175158668E+02  0.37620699140E+02  0.14486754827E+02  0.47006728559E+02  0.10566000000E+00 0. -1.
         23    2    1    0    0    0 -0.20419824098E+02  0.15432272900E+02  0.11844425238E+02  0.96886903144E+02  0.92691193370E+02 0.  0.
         13    1    3    3    0    0 -0.44594982766E+02 -0.22188426239E+02 -0.26423295883E+01  0.49880174585E+02  0.10566000000E+00 0.  1.
         22    1    1    0    0    0  0.20419824098E+02 -0.15432272900E+02 -0.11844425238E+02  0.28203096856E+02  0.00000000000E+00 0.  1.
</event>
<event>
 5    1  0.1264859E-009  0.9118800E+02  0.7815553E-02  0.1125453E+00
         25   -1    0    0    0    0  0.00000000000E+00  0.00000000000E+00  0.99999998245E-14  0.12509000000E+03  0.12509000000E+03 0.  0.
        -13    1    3    3    0    0 -0.26725917466E+02 -0.37519060397E+02  0.39465872518E+02  0.60659053860E+02  0.10566000000E+00 0. -1.
         23    2    1    0    0    0 -0.19957711304E+02 -0.95715549776E+01  0.18426655555E+02  0.96289539238E+02  0.91881493384E+02 0.  0.
         13    1    3    3    0    0  0.67682061621E+01  0.27947505420E+02 -0.21039216963E+02  0.35630485378E+02  0.10566000000E+00 0.  1.
         22    1    1    0    0    0  0.19957711304E+02  0.95715549776E+01 -0.18426655555E+02  0.28800460762E+02  0.00000000000E+00 0. -1.
</event>
<event>
 5    1  0.1264859E-009  0.9118800E+02  0.7815553E-02  0.1125453E+00
         25   -1    0    0    0    0  0.00000000000E+00  0.00000000000E+00  0.99999998245E-14  0.12509000000E+03  0.12509000000E+03 0.  0.
        -13    1    3    3    0    0 -0.35437595625E+02 -0.42119721544E+02 -0.21359188372E+02  0.59043375738E+02  0.10566000000E+00 0.  1.
         23    2    1    0    0    0 -0.18562087873E+01 -0.23303230241E+02 -0.12648281161E+02  0.98510589415E+02  0.94857109168E+02 0.  0.
         13    1    3    3    0    0  0.33581386837E+02  0.18816491303E+02  0.87109072109E+01  0.39467213676E+02  0.10566000000E+00 0. -1.
         22    1    1    0    0    0  0.18562087873E+01  0.23303230241E+02  0.12648281161E+02  0.26579410585E+02  0.00000000000E+00 0.  1.
</event>
<event>
 5    1  0.1264859E-009  0.9118800E+02  0.7815553E-02  0.1125453E+00
         25   -1    0    0    0    0  0.00000000000E+00  0.00000000000E+00  0.99999998245E-14  0.12509000000E+03  0.12509000000E+03 0.  0.
        -13    1    3    3    0    0  0.29379894302E+01 -0.52136168699E+02  0.19888477905E+02  0.55878212086E+02  0.10566000000E+00 0. -1.
         23    2    1    0    0    0  0.20774169575E+02 -0.26213729641E+02  0.32160112424E+01  0.91488385879E+02  0.85094396285E+02 0.  0.
         13    1    3    3    0    0  0.17836180145E+02  0.25922439058E+02 -0.16672466663E+02  0.35610173793E+02  0.10566000000E+00 0.  1.
         22    1    1    0    0    0 -0.20774169575E+02  0.26213729641E+02 -0.32160112424E+01  0.33601614121E+02  0.00000000000E+00 0. -1.
</event>
<event>
 5    1  0.1264859E-009  0.9118800E+02  0.7815553E-02  0.1125453E+00
         25   -1    0    0    0    0  0.00000000000E+00  0.00000000000E+00  0.99999998245E-14  0.12509000000E+03  0.12509000000E+03 0.  0.
        -13    1    3    3    0    0  0.51409286358E+02  0.18255621571E+02 -0.96235949794E+01  0.55396815677E+02  0.10566000000E+00 0.  1.
         23    2    1    0    0    0  0.34942758534E+02 -0.85692746567E+01  0.22590319676E+01  0.89040976885E+02  0.81417218677E+02 0.  0.
         13    1    3    3    0    0 -0.16466527824E+02 -0.26824896228E+02  0.11882626947E+02  0.33644161208E+02  0.10566000000E+00 0. -1.
         22    1    1    0    0    0 -0.34942758534E+02  0.85692746567E+01 -0.22590319676E+01  0.36049023115E+02  0.00000000000E+00 0.  1.
</event>
<event>
 5    1  0.1264859E-009  0.9118800E+02  0.7815553E-02  0.1125453E+00
         25   -1    0    0    0    0  0.00000000000E+00  0.00000000000E+00  0.99999998245E-14  0.12509000000E+03  0.12509000000E+03 0.  0.
        -13    1    3    3    0    0 -0.15625394535E+02 -0.25225314070E+01  0.20936145217E+02  0.26245941775E+02  0.10566000000E+00 0.  1.
         23    2    1    0    0    0 -0.23579573341E+02  0.10014906864E+02 -0.33640034821E+02  0.82805882637E+02  0.71195980351E+02 0.  0.
         13    1    3    3    0    0 -0.79541788058E+01  0.12537438271E+02 -0.54576180037E+02  0.56559940863E+02  0.10566000000E+00 0. -1.
         22    1    1    0    0    0  0.23579573341E+02 -0.10014906864E+02  0.33640034821E+02  0.42284117363E+02  0.00000000000E+00 0. -1.
</event>
<event>
 5    1  0.1264859E-009  0.9118800E+02  0.7815553E-02  0.1125453E+00
         25   -1    0    0    0    0  0.00000000000E+00  0.00000000000E+00  0.99999998245E-14  0.12509000000E+03  0.12509000000E+03 0.  0.
        -13    1    3    3    0    0  0.72404850891E+01 -0.62561203871E+01  0.34751209494E+02  0.36044713787E+02  0.10566000000E+00 0. -1.
         23    2    1    0    0    0 -0.58139900034E+01  0.22814196084E+02 -0.16461361642E+02  0.96362548845E+02  0.91980836972E+02 0.  0.
         13    1    3    3    0    0 -0.13054475092E+02  0.29070316471E+02 -0.51212571137E+02  0.60317835058E+02  0.10566000000E+00 0.  1.
         22    1    1    0    0    0  0.58139900034E+01 -0.22814196084E+02  0.16461361642E+02  0.28727451155E+02  0.00000000000E+00 0.  1.
</event>
<event>
 5    1  0.1264859E-009  0.9118800E+02  0.7815553E-02  0.1125453E+00
         25   -1    0    0    0    0  0.00000000000E+00  0.00000000000E+00  0.99999998245E-14  0.12509000000E+03  0.12509000000E+03 0.  0.
        -13    1    3    3    0    0 -0.41598031816E+02 -0.38172587586E+01  0.31369058589E+01  0.41890560485E+02  0.10566000000E+00 0.  1.
         23    2    1    0    0    0  0.60650880020E+01 -0.26156203863E+02  0.12695164409E+02  0.95389840197E+02  0.90648343175E+02 0.  0.
         13    1    3    3    0    0  0.47663119818E+02 -0.22338945104E+02  0.95582585496E+01  0.53499279712E+02  0.10566000000E+00 0. -1.
         22    1    1    0    0    0 -0.60650880020E+01  0.26156203863E+02 -0.12695164409E+02  0.29700159803E+02  0.00000000000E+00 0. -1.
</event>
<event>
 5    1  0.1264859E-009  0.9118800E+02  0.7815553E-02  0.1125453E+00
         25   -1    0    0    0    0  0.00000000000E+00  0.00000000000E+00  0.99999998245E-14  0.12509000000E+03  0.12509000000E+03 0.  0.
        -13    1    3    3    0    0  0.14971865954E+02  0.48156272274E+02 -0.30653016652E+02  0.59015268562E+02  0.10566000000E+00 0. -1.
         23    2    1    0    0    0  0.86203285564E+01  0.12204524480E+02 -0.25008655250E+02  0.95957658528E+02  0.91428545381E+02 0.  0.
         13    1    3    3    0    0 -0.63515373973E+01 -0.35951747794E+02  0.56443614014E+01  0.36942389966E+02  0.10566000000E+00 0.  1.
         22    1    1    0    0    0 -0.86203285564E+01 -0.12204524480E+02  0.25008655250E+02  0.29132341472E+02  0.00000000000E+00 0. -1.
</event>
<event>
 5    1  0.1264859E-009  0.9118800E+02  0.7815553E-02  0.1125453E+00
         25   -1    0    0    0    0  0.00000000000E+00  0.00000000000E+00  0.99999998245E-14  0.12509000000E+03  0.12509000000E+03 0.  0.
        -13    1    3    3    0    0  0.46035636535E+02  0.54602027551E+01 -0.41326483617E+02  0.62104613818E+02  0.10566000000E+00 0.  1.
         23    2    1    0    0    0  0.25379042086E+02 -0.20993851158E+01 -0.23866948198E+02  0.90188217648E+02  0.83161169972E+02 0.  0.
         13    1    3    3    0    0 -0.20656594449E+02 -0.75595878709E+01  0.17459535419E+02  0.28083603830E+02  0.10566000000E+00 0. -1.
         22    1    1    0    0    0 -0.25379042086E+02  0.20993851158E+01  0.23866948198E+02  0.34901782352E+02  0.00000000000E+00 0.  1.
</event>
<event>
 5    1  0.1264859E-009  0.9118800E+02  0.7815553E-02  0.1125453E+00
         25   -1    0    0    0    0  0.00000000000E+00  0.00000000000E+00  0.99999998245E-14  0.12509000000E+03  0.12509000000E+03 0.  0.
        -13    1    3    3    0    0  0.24027629018E+02  0.16939787636E+02 -0.22901913901E+02  0.37266502193E+02  0.10566000000E+00 0. -1.
         23    2    1    0    0    0 -0.24191547129E+02  0.16168328907E+02  0.84541579928E+01  0.94789528065E+02  0.89816123448E+02 0.  0.
         13    1    3    3    0    0 -0.48219176146E+02 -0.77145872915E+00  0.31356071894E+02  0.57523025872E+02  0.10566000000E+00 0.  1.
         22    1    1    0    0    0  0.24191547129E+02 -0.16168328907E+02 -0.84541579928E+01  0.30300471935E+02  0.00000000000E+00 0.  1.
</event>
<event>
 5    1  0.1264859E-009  0.9118800E+02  0.7815553E-02  0.1125453E+00
         25   -1    0    0    0    0  0.00000000000E+00  0.00000000000E+00  0.99999998245E-14  0.12509000000E+03  0.12509000000E+03 0.  0.
        -13    1    3    3    0    0  0.15039723186E+02 -0.22996730135E+02 -0.37170780993E+02  0.46224679492E+02  0.10566000000E+00 0. -1.
         23    2    1    0    0    0  0.90097353022E+01  0.22183613521E+02 -0.13938296515E+02  0.97385051908E+02  0.93361042123E+02 0.  0.
         13    1    3    3    0    0 -0.60299878837E+01  0.45180343655E+02  0.23232484479E+02  0.51160372416E+02  0.10566000000E+00 0.  1.
         22    1    1    0    0    0 -0.90097353022E+01 -0.22183613521E+02  0.13938296515E+02  0.27704948092E+02  0.00000000000E+00 0. -1.
</event>
<event>
 5    1  0.1264859E-009  0.9118800E+02  0.7815553E-02  0.1125453E+00
         25   -1    0    0    0    0  0.00000000000E+00  0.00000000000E+00  0.99999998245E-14  0.12509000000E+03  0.12509000000E+03 0.  0.
        -13    1    3    3    0    0 -0.12088633198E+02 -0.58244780080E+01  0.45263579911E+02  0.47210829553E+02  0.10566000000E+00 0.  1.
         23    2    1    0    0    0  0.91783558362E+01  0.24475991891E+02  0.21920467478E+02  0.90975145620E+02  0.84336550980E+02 0.  0.
         13    1    3    3    0    0  0.21266989034E+02  0.30300469899E+02 -0.23343112433E+02  0.43764316067E+02  0.10566000000E+00 0. -1.
         22    1    1    0    0    0 -0.91783558362E+01 -0.24475991891E+02 -0.21920467478E+02  0.34114854380E+02  0.00000000000E+00 0.  1.
</event>
<event>
 5    1  0.1264859E-009  0.9118800E+02  0.7815553E-02  0.1125453E+00
         25   -1    0    0    0    0  0.00000000000E+00  0.00000000000E+00  0.99999998245E-14  0.12509000000E+03  0.12509000000E+03 0.  0.
        -13    1    3    3    0    0 -0.99226434778E+01  0.26254834630E+02  0.54905470495E+02  0.61663579602E+02  0.10566000000E+00 0.  1.
         23    2    1    0    0    0 -0.41251709070E+01  0.55934726875E+01  0.28830268348E+02  0.95433831253E+02  0.90709028233E+02 0.  0.
         13    1    3    3    0    0  0.57974725707E+01 -0.20661361943E+02 -0.26075202147E+02  0.33770251651E+02  0.10566000000E+00 0. -1.
         22    1    1    0    0    0  0.41251709070E+01 -0.55934726875E+01 -0.28830268348E+02  0.29656168747E+02  0.00000000000E+00 0.  1.
</event>
<event>
 5    1  0.1264859E-009  0.9118800E+02  0.7815553E-02  0.1125453E+00
         25   -1    0    0    0    0  0.00000000000E+00  0.00000000000E+00  0.99999998245E-14  0.12509000000E+03  0.12509000000E+03 0.  0.
        -13    1    3    3    0    0 -0.24718657567E+02  0.18635310715E+02  0.14626377980E+02  0.34237828994E+02  0.10566000000E+00 0. -1.
         23    2    1    0    0    0  0.19020972022E+02 -0.91593175468E+01 -0.19550490304E+02  0.96316537474E+02  0.91918242179E+02 0.  0.
         13    1    3    3    0    0  0.43739629590E+02 -0.27794628262E+02 -0.34176868284E+02  0.62078708480E+02  0.10566000000E+00 0.  1.
         22    1    1    0    0    0 -0.19020972022E+02  0.91593175468E+01  0.19550490304E+02  0.28773462526E+02  0.00000000000E+00 0.  1.
</event>
<event>
 5    1  0.1264859E-009  0.9118800E+02  0.7815553E-02  0.1125453E+00
         25   -1    0    0    0    0  0.00000000000E+00  0.00000000000E+00  0.99999998245E-14  0.12509000000E+03  0.12509000000E+03 0.  0.
        -13    1    3    3    0    0  0.47430918198E+01 -0.42746878243E+02  0.17297788417E+02  0.46357493113E+02  0.10566000000E+00 0.  1.
         23    2    1    0    0    0 -0.15046046313E+02  0.24886744329E+01  0.24476220021E+02  0.96251443230E+02  0.91829613781E+02 0.  0.
         13    1    3    3    0    0 -0.19789138133E+02  0.45235552676E+02  0.71784316033E+01  0.49893950117E+02  0.10566000000E+00 0. -1.
         22    1    1    0    0    0  0.15046046313E+02 -0.24886744329E+01 -0.24476220021E+02  0.28838556770E+02  0.00000000000E+00 0.  1.
</event>
<event>
 5    1  0.1264859E-009  0.9118800E+02  0.7815553E-02  0.1125453E+00
         25   -1    0    0    0    0  0.00000000000E+00  0.00000000000E+00  0.99999998245E-14  0.12509000000E+03  0.12509000000E+03 0.  0.
        -13    1    3    3    0    0  0.33437557519E+02 -0.27356425045E+02 -0.38701926928E+02  0.58002539220E+02  0.10566000000E+00 0. -1.
         23    2    1    0    0    0  0.96099704615E+01 -0.19164554930E+00 -0.27692461769E+02  0.95776851088E+02  0.91180834090E+02 0.  0.
         13    1    3    3    0    0 -0.23827587057E+02  0.27164779495E+02  0.11009465159E+02  0.37774311868E+02  0.10566000000E+00 0.  1.
         22    1    1    0    0    0 -0.96099704615E+01  0.19164554930E+00  0.27692461769E+02  0.29313148912E+02  0.00000000000E+00 0. -1.
</event>
<event>
 5    1  0.1264859E-009  0.9118800E+02  0.7815553E-02  0.1125453E+00
         25   -1    0    0    0    0  0.00000000000E+00  0.00000000000E+00  0.99999998245E-14  0.12509000000E+03  0.12509000000E+03 0.  0.
        -13    1    3    3    0    0 -0.23775777979E+02  0.35456425859E+02  0.34015227328E+02  0.54584728702E+02  0.10566000000E+00 0. -1.
         23    2    1    0    0    0  0.38633674835E+01  0.29103325014E+02  0.47274927214E+01  0.95353182372E+02  0.90597743161E+02 0.  0.
         13    1    3    3    0    0  0.27639145463E+02 -0.63531008447E+01 -0.29287734607E+02  0.40768453671E+02  0.10566000000E+00 0.  1.
         22    1    1    0    0    0 -0.38633674835E+01 -0.29103325014E+02 -0.47274927214E+01  0.29736817628E+02  0.00000000000E+00 0. -1.
</event>
<event>
 5    1  0.1264859E-009  0.9118800E+02  0.7815553E-02  0.1125453E+00
         25   -1    0    0    0    0  0.00000000000E+00  0.00000000000E+00  0.99999998245E-14  0.12509000000E+03  0.12509000000E+03 0.  0.
        -13    1    3    3    0    0  0.33480753641E+02  0.45399370842E+02  0.86149642472E+01  0.57063933533E+02  0.10566000000E+00 0.  1.
         23    2    1    0    0    0  0.94319661486E+01  0.24122406056E+02 -0.13333505975E+02  0.95958662218E+02  0.91429918592E+02 0.  0.
         13    1    3    3    0    0 -0.24048787493E+02 -0.21276964786E+02 -0.21948470222E+02  0.38894728685E+02  0.10566000000E+00 0. -1.
         22    1    1    0    0    0 -0.94319661486E+01 -0.24122406056E+02  0.13333505975E+02  0.29131337782E+02  0.00000000000E+00 0.  1.
</event>
<event>
 5    1  0.1264859E-009  0.9118800E+02  0.7815553E-02  0.1125453E+00
         25   -1    0    0    0    0  0.00000000000E+00  0.00000000000E+00  0.99999998245E-14  0.12509000000E+03  0.12509000000E+03 0.  0.
        -13    1    3    3    0    0 -0.15416258432E+02  0.52888954502E+02  0.29576191851E+02  0.62527312598E+02  0.10566000000E+00 0. -1.
         23    2    1    0    0    0 -0.71696685737E+01  0.27104254180E+02  0.15933744117E+02  0.92842070706E+02  0.87061593997E+02 0.  0.
         13    1    3    3    0    0  0.82465898580E+01 -0.25784700321E+02 -0.13642447734E+02  0.30314758108E+02  0.10566000000E+00 0.  1.
         22    1    1    0    0    0  0.71696685737E+01 -0.27104254180E+02 -0.15933744117E+02  0.32247929294E+02  0.00000000000E+00 0. -1.
</event>
<event>
 5    1  0.1264859E-009  0.9118800E+02  0.7815553E-02  0.1125453E+00
         25   -1    0    0    0    0  0.00000000000E+00  0.00000000000E+00  0.99999998245E-14  0.12509000000E+03  0.12509000000E+03 0.  0.
        -13    1    3    3    0    0 -0.38462674534E+01 -0.48697165336E+02  0.54593523977E+01  0.49153060716E+02  0.10566000000E+00 0. -1.
         23    2    1    0    0    0 -0.10841354714E+02 -0.13239783221E+02 -0.23885552674E+02  0.95707242160E+02  0.91085288294E+02 0.  0.
         13    1    3    3    0    0 -0.69950872602E+01  0.35457382115E+02 -0.29344905071E+02  0.46554181444E+02  0.10566000000E+00 0.  1.
         22    1    1    0    0    0  0.10841354714E+02  0.13239783221E+02  0.23885552674E+02  0.29382757840E+02  0.00000000000E+00 0. -1.
</event>
<event>
 5    1  0.1264859E-009  0.9118800E+02  0.7815553E-02  0.1125453E+00
         25   -1    0    0    0    0  0.00000000000E+00  0.00000000000E+00  0.99999998245E-14  0.12509000000E+03  0.12509000000E+03 0.  0.
        -13    1    3    3    0    0 -0.15710698156E+02  0.29142657858E+02  0.72984374586E+01  0.33902785977E+02  0.10566000000E+00 0.  1.
         23    2    1    0    0    0 -0.34610287509E+00 -0.24579844369E+02 -0.17377809099E+02  0.94985568673E+02  0.90088742197E+02 0.  0.
         13    1    3    3    0    0  0.15364595281E+02 -0.53722502228E+02 -0.24676246557E+02  0.61082782697E+02  0.10566000000E+00 0. -1.
         22    1    1    0    0    0  0.34610287509E+00  0.24579844369E+02  0.17377809099E+02  0.30104431327E+02  0.00000000000E+00 0. -1.
</event>
<event>
 5    1  0.1264859E-009  0.9118800E+02  0.7815553E-02  0.1125453E+00
         25   -1    0    0    0    0  0.00000000000E+00  0.00000000000E+00  0.99999998245E-14  0.12509000000E+03  0.12509000000E+03 0.  0.
        -13    1    3    3    0    0  0.19721474479E+02 -0.26736594356E+02  0.11425498406E+02  0.35133107053E+02  0.10566000000E+00 0.  1.
         23    2    1    0    0    0 -0.26700670759E+01  0.21066516039E+02 -0.19455442413E+02  0.96289972297E+02  0.91882082961E+02 0.  0.
         13    1    3    3    0    0 -0.22391541554E+02  0.47803110395E+02 -0.30880940818E+02  0.61156865244E+02  0.10566000000E+00 0. -1.
         22    1    1    0    0    0  0.26700670759E+01 -0.21066516039E+02  0.19455442413E+02  0.28800027703E+02  0.00000000000E+00 0. -1.
</event>
<event>
 5    1  0.1264859E-009  0.9118800E+02  0.7815553E-02  0.1125453E+00
         25   -1    0    0    0    0  0.00000000000E+00  0.00000000000E+00  0.99999998245E-14  0.12509000000E+03  0.12509000000E+03 0.  0.
        -13    1    3    3    0    0 -0.51380237499E+02  0.66595247271E+01  0.24644927485E+02  0.57373004888E+02  0.10566000000E+00 0.  1.
         23    2    1    0    0    0 -0.26589348212E+02 -0.12670213630E+02  0.20775022940E+02  0.89046563289E+02  0.81425801216E+02 0.  0.
         13    1    3    3    0    0  0.24790889287E+02 -0.19329738357E+02 -0.38699045452E+01  0.31673558402E+02  0.10566000000E+00 0. -1.
         22    1    1    0    0    0  0.26589348212E+02  0.12670213630E+02 -0.20775022940E+02  0.36043436711E+02  0.00000000000E+00 0.  1.
</event>
<event>
 5    1  0.1264859E-009  0.9118800E+02  0.7815553E-02  0.1125453E+00
         25   -1    0    0    0    0  0.00000000000E+00  0.00000000000E+00  0.99999998245E-14  0.12509000000E+03  0.12509000000E+03 0.  0.
        -13    1    3    3    0    0 -0.84686520644E+01 -0.37414376088E+01 -0.40769648998E+02  0.41807796720E+02  0.10566000000E+00 0. -1.
         23    2    1    0    0    0  0.28044660490E+02 -0.95538388463E+01 -0.19785290507E+01  0.95396677588E+02  0.90657777928E+02 0.  0.
         13    1    3    3    0    0  0.36513312554E+02 -0.58124012375E+01  0.38791119947E+02  0.53588880867E+02  0.10566000000E+00 0.  1.
         22    1    1    0    0    0 -0.28044660490E+02  0.95538388463E+01  0.19785290507E+01  0.29693322412E+02  0.00000000000E+00 0.  1.
</event>
<event>
 5    1  0.1264859E-009  0.9118800E+02  0.7815553E-02  0.1125453E+00
         25   -1    0    0    0    0  0.00000000000E+00  0.00000000000E+00  0.99999998245E-14  0.12509000000E+03  0.12509000000E+03 0.  0.
        -13    1    3    3    0    0  0.37168964096E+02 -0.23999924828E+02  0.81680953602E+01  0.44991746238E+02  0.10566000000E+00 0.  1.
         23    2    1    0    0    0  0.30770035046E+02 -0.91965582886E+01 -0.26646130088E+02  0.83360058834E+02  0.72163089035E+02 0.  0.
         13    1    3    3    0    0 -0.63989290504E+01  0.14803366539E+02 -0.34814225448E+02  0.38368312596E+02  0.10566000000E+00 0. -1.
         22    1    1    0    0    0 -0.30770035046E+02  0.91965582886E+01  0.26646130088E+02  0.41729941166E+02  0.00000000000E+00 0. -1.
</event>
<event>
 5    1  0.1264859E-009  0.9118800E+02  0.7815553E-02  0.1125453E+00
         25   -1    0    0    0    0  0.00000000000E+00  0.00000000000E+00  0.99999998245E-14  0.12509000000E+03  0.12509000000E+03 0.  0.
        -13    1    3    3    0    0 -0.74901782571E+01 -0.10684088339E+02  0.36405163539E+02  0.38672982951E+02  0.10566000000E+00 0.  1.
         23    2    1    0    0    0  0.28026094309E+02  0.89976343173E+01 -0.33073982570E+01  0.95469765890E+02  0.90758569459E+02 0.  0.
         13    1    3    3    0    0  0.35516272566E+02  0.19681722656E+02 -0.39712561796E+02  0.56796782939E+02  0.10566000000E+00 0. -1.
         22    1    1    0    0    0 -0.28026094309E+02 -0.89976343173E+01  0.33073982570E+01  0.29620234110E+02  0.00000000000E+00 0. -1.
</event>
<event>
 5    1  0.1264859E-009  0.9118800E+02  0.7815553E-02  0.1125453E+00
         25   -1    0    0    0    0  0.00000000000E+00  0.00000000000E+00  0.99999998245E-14  0.12509000000E+03  0.12509000000E+03 0.  0.
        -13    1    3    3    0    0 -0.44377737325E+02 -0.26326899314E+02 -0.19149413730E+02  0.55038172279E+02  0.10566000000E+00 0.  1.
         23    2    1    0    0    0 -0.14978734846E+02 -0.24234895990E+02  0.84050019196E+01  0.95385846444E+02  0.90642831837E+02 0.  0.
         13    1    3    3    0    0  0.29399002479E+02  0.20920033239E+01  0.27554415650E+02  0.40347674165E+02  0.10566000000E+00 0. -1.
         22    1    1    0    0    0  0.14978734846E+02  0.24234895990E+02 -0.84050019196E+01  0.29704153556E+02  0.00000000000E+00 0.  1.
</event>
<event>
 5    1  0.1264859E-009  0.9118800E+02  0.7815553E-02  0.1125453E+00
         25   -1    0    0    0    0  0.00000000000E+00  0.00000000000E+00  0.99999998245E-14  0.12509000000E+03  0.12509000000E+03 0.  0.
        -13    1    3    3    0    0 -0.15034388139E+02  0.23683046140E+00 -0.54341790593E+02  0.56383776782E+02  0.10566000000E+00 0. -1.
         23    2    1    0    0    0 -0.23272093191E+02  0.65161704488E+01 -0.15985070461E+02  0.96114609123E+02  0.91643029252E+02 0.  0.
         13    1    3    3    0    0 -0.82377050520E+01  0.62793399874E+01  0.38356720131E+02  0.39730832341E+02  0.10566000000E+00 0.  1.
         22    1    1    0    0    0  0.23272093191E+02 -0.65161704488E+01  0.15985070461E+02  0.28975390877E+02  0.00000000000E+00 0. -1.
</event>
<event>
 5    1  0.1264859E-009  0.9118800E+02  0.7815553E-02  0.1125453E+00
         25   -1    0    0    0    0  0.00000000000E+00  0.00000000000E+00  0.99999998245E-14  0.12509000000E+03  0.12509000000E+03 0.  0.
        -13    1    3    3    0    0  0.29826980698E+02  0.26806314192E+01 -0.54549321308E+02  0.62229206821E+02  0.10566000000E+00 0. -1.
         23    2    1    0    0    0  0.11747470088E+02  0.17528401211E+01 -0.30708172797E+02  0.92164821512E+02  0.86083023564E+02 0.  0.
         13    1    3    3    0    0 -0.18079510610E+02 -0.92779129807E+00  0.23841148511E+02  0.29935614691E+02  0.10566000000E+00 0.  1.
         22    1    1    0    0    0 -0.11747470088E+02 -0.17528401211E+01  0.30708172797E+02  0.32925178488E+02  0.00000000000E+00 0. -1.
</event>
<event>
 5    1  0.1264859E-009  0.9118800E+02  0.7815553E-02  0.1125453E+00
         25   -1    0    0    0    0  0.00000000000E+00  0.00000000000E+00  0.99999998245E-14  0.12509000000E+03  0.12509000000E+03 0.  0.
        -13    1    3    3    0    0  0.31460096967E+01 -0.54273328950E+02  0.17116395694E+01  0.54391474391E+02  0.10566000000E+00 0.  1.
         23    2    1    0    0    0 -0.23618047124E+01 -0.19432659398E+02 -0.21028841258E+02  0.96359901889E+02  0.91977237155E+02 0.  0.
         13    1    3    3    0    0 -0.55078144092E+01  0.34840669552E+02 -0.22740480827E+02  0.41968427499E+02  0.10566000000E+00 0. -1.
         22    1    1    0    0    0  0.23618047124E+01  0.19432659398E+02  0.21028841258E+02  0.28730098111E+02  0.00000000000E+00 0.  1.
</event>
<event>
 5    1  0.1264859E-009  0.9118800E+02  0.7815553E-02  0.1125453E+00
         25   -1    0    0    0    0  0.00000000000E+00  0.00000000000E+00  0.99999998245E-14  0.12509000000E+03  0.12509000000E+03 0.  0.
        -13    1    3    3    0    0  0.23647582545E+02 -0.27703232621E+02  0.16096403594E+02  0.39821886326E+02  0.10566000000E+00 0.  1.
         23    2    1    0    0    0 -0.21187144010E+02  0.93816150736E+01  0.13944643724E+02  0.98046278709E+02  0.94242824169E+02 0.  0.
         13    1    3    3    0    0 -0.44834726555E+02  0.37084847695E+02 -0.21517598700E+01  0.58224392383E+02  0.10566000000E+00 0. -1.
         22    1    1    0    0    0  0.21187144010E+02 -0.93816150736E+01 -0.13944643724E+02  0.27043721291E+02  0.00000000000E+00 0. -1.
</event>
<event>
 5    1  0.1264859E-009  0.9118800E+02  0.7815553E-02  0.1125453E+00
         25   -1    0    0    0    0  0.00000000000E+00  0.00000000000E+00  0.99999998245E-14  0.12509000000E+03  0.12509000000E+03 0.  0.
        -13    1    3    3    0    0  0.10742444703E+02  0.27119470815E+02  0.51489898941E+02  0.59178430804E+02  0.10566000000E+00 0.  1.
         23    2    1    0    0    0  0.16906641900E+02  0.16061984767E+02  0.16133340164E+02  0.96733227267E+02  0.92483569879E+02 0.  0.
         13    1    3    3    0    0  0.61641971974E+01 -0.11057486047E+02 -0.35356558777E+02  0.37554796463E+02  0.10566000000E+00 0. -1.
         22    1    1    0    0    0 -0.16906641900E+02 -0.16061984767E+02 -0.16133340164E+02  0.28356772733E+02  0.00000000000E+00 0.  1.
</event>
<event>
 5    1  0.1264859E-009  0.9118800E+02  0.7815553E-02  0.1125453E+00
         25   -1    0    0    0    0  0.00000000000E+00  0.00000000000E+00  0.99999998245E-14  0.12509000000E+03  0.12509000000E+03 0.  0.
        -13    1    3    3    0    0 -0.59776433795E+02 -0.13909856014E+02 -0.61270035516E+01  0.61678662989E+02  0.10566000000E+00 0. -1.
         23    2    1    0    0    0 -0.28760466397E+02 -0.36374317064E+01 -0.96392109275E+01  0.94539881766E+02  0.89467756875E+02 0.  0.
         13    1    3    3    0    0  0.31015967398E+02  0.10272424307E+02 -0.35122073759E+01  0.32861218777E+02  0.10566000000E+00 0.  1.
         22    1    1    0    0    0  0.28760466397E+02  0.36374317064E+01  0.96392109275E+01  0.30550118234E+02  0.00000000000E+00 0. -1.
</event>
<event>
 5    1  0.1264859E-009  0.9118800E+02  0.7815553E-02  0.1125453E+00
         25   -1    0    0    0    0  0.00000000000E+00  0.00000000000E+00  0.99999998245E-14  0.12509000000E+03  0.12509000000E+03 0.  0.
        -13    1    3    3    0    0  0.47830995197E+02 -0.93145836089E+01 -0.35618075523E+02  0.60359125552E+02  0.10566000000E+00 0.  1.
         23    2    1    0    0    0  0.24830699471E+02  0.69681993431E+01 -0.15267278145E+02  0.95119861190E+02  0.90275017433E+02 0.  0.
         13    1    3    3    0    0 -0.23000295726E+02  0.16282782952E+02  0.20350797378E+02  0.34760735638E+02  0.10566000000E+00 0. -1.
         22    1    1    0    0    0 -0.24830699471E+02 -0.69681993431E+01  0.15267278145E+02  0.29970138810E+02  0.00000000000E+00 0.  1.
</event>
<event>
 5    1  0.1264859E-009  0.9118800E+02  0.7815553E-02  0.1125453E+00
         25   -1    0    0    0    0  0.00000000000E+00  0.00000000000E+00  0.99999998245E-14  0.12509000000E+03  0.12509000000E+03 0.  0.
        -13    1    3    3    0    0  0.50015170106E+01  0.35961074061E+02 -0.15409450801E+01  0.36340056354E+02  0.10566000000E+00 0.  1.
         23    2    1    0    0    0 -0.10782342612E+02 -0.16138153208E+02 -0.23124018370E+02  0.94900281108E+02  0.89970240789E+02 0.  0.
         13    1    3    3    0    0 -0.15783859622E+02 -0.52099227269E+02 -0.21583073290E+02  0.58560224755E+02  0.10566000000E+00 0. -1.
         22    1    1    0    0    0  0.10782342612E+02  0.16138153208E+02  0.23124018370E+02  0.30189718892E+02  0.00000000000E+00 0. -1.
</event>
<event>
 5    1  0.1264859E-009  0.9118800E+02  0.7815553E-02  0.1125453E+00
         25   -1    0    0    0    0  0.00000000000E+00  0.00000000000E+00  0.99999998245E-14  0.12509000000E+03  0.12509000000E+03 0.  0.
        -13    1    3    3    0    0  0.26097829553E+02  0.21029454964E+02  0.24118132434E+02  0.41292010845E+02  0.10566000000E+00 0.  1.
         23    2    1    0    0    0 -0.20288267122E+02  0.17912930806E+02 -0.68742078817E+01  0.97166146274E+02  0.93067278755E+02 0.  0.
         13    1    3    3    0    0 -0.46386096676E+02 -0.31165241579E+01 -0.30992340316E+02  0.55874135429E+02  0.10566000000E+00 0. -1.
         22    1    1    0    0    0  0.20288267122E+02 -0.17912930806E+02  0.68742078817E+01  0.27923853726E+02  0.00000000000E+00 0. -1.
</event>
<event>
 5    1  0.1264859E-009  0.9118800E+02  0.7815553E-02  0.1125453E+00
         25   -1    0    0    0    0  0.00000000000E+00  0.00000000000E+00  0.99999998245E-14  0.12509000000E+03  0.12509000000E+03 0.  0.
        -13    1    3    3    0    0 -0.32449865953E+02  0.11643140109E+02 -0.49843257034E+02  0.60604603355E+02  0.10566000000E+00 0.  1.
         23    2    1    0    0    0 -0.66929120796E+01  0.11539837724E+01 -0.28854837073E+02  0.95446647066E+02  0.90726699836E+02 0.  0.
         13    1    3    3    0    0  0.25756953874E+02 -0.10489156337E+02  0.20988419961E+02  0.34842043712E+02  0.10566000000E+00 0. -1.
         22    1    1    0    0    0  0.66929120796E+01 -0.11539837724E+01  0.28854837073E+02  0.29643352934E+02  0.00000000000E+00 0.  1.
</event>
<event>
 5    1  0.1264859E-009  0.9118800E+02  0.7815553E-02  0.1125453E+00
         25   -1    0    0    0    0  0.00000000000E+00  0.00000000000E+00  0.99999998245E-14  0.12509000000E+03  0.12509000000E+03 0.  0.
        -13    1    3    3    0    0 -0.20178038386E+02  0.34858969531E+02  0.29702523259E+02  0.50045499716E+02  0.10566000000E+00 0. -1.
         23    2    1    0    0    0  0.88023475502E+01 -0.53218869502E-01  0.28313166804E+02  0.95440049425E+02  0.90717602840E+02 0.  0.
         13    1    3    3    0    0  0.28980385936E+02 -0.34912188400E+02 -0.13893564543E+01  0.45394549709E+02  0.10566000000E+00 0.  1.
         22    1    1    0    0    0 -0.88023475502E+01  0.53218869502E-01 -0.28313166804E+02  0.29649950575E+02  0.00000000000E+00 0. -1.
</event>
<event>
 5    1  0.1264859E-009  0.9118800E+02  0.7815553E-02  0.1125453E+00
         25   -1    0    0    0    0  0.00000000000E+00  0.00000000000E+00  0.99999998245E-14  0.12509000000E+03  0.12509000000E+03 0.  0.
        -13    1    3    3    0    0  0.51413824991E+01  0.35553797627E+01  0.54535087688E+02  0.54892271700E+02  0.10566000000E+00 0.  1.
         23    2    1    0    0    0  0.20646156105E+02  0.11692705000E+02  0.18338530219E+02  0.95101922324E+02  0.90250156936E+02 0.  0.
         13    1    3    3    0    0  0.15504773606E+02  0.81373252370E+01 -0.36196557470E+02  0.40209650624E+02  0.10566000000E+00 0. -1.
         22    1    1    0    0    0 -0.20646156105E+02 -0.11692705000E+02 -0.18338530219E+02  0.29988077676E+02  0.00000000000E+00 0.  1.
</event>
<event>
 5    1  0.1264859E-009  0.9118800E+02  0.7815553E-02  0.1125453E+00
         25   -1    0    0    0    0  0.00000000000E+00  0.00000000000E+00  0.99999998245E-14  0.12509000000E+03  0.12509000000E+03 0.  0.
        -13    1    3    3    0    0 -0.10164714021E+02 -0.33823075213E+02  0.51394100193E+02  0.62359333918E+02  0.10566000000E+00 0.  1.
         23    2    1    0    0    0 -0.41811441300E+01 -0.12410466149E+02  0.24983276830E+02  0.96882452119E+02  0.92685186363E+02 0.  0.
         13    1    3    3    0    0  0.59835698913E+01  0.21412609064E+02 -0.26410823362E+02  0.34523118201E+02  0.10566000000E+00 0. -1.
         22    1    1    0    0    0  0.41811441300E+01  0.12410466149E+02 -0.24983276830E+02  0.28207547881E+02  0.00000000000E+00 0.  1.
</event>
<event>
 5    1  0.1264859E-009  0.9118800E+02  0.7815553E-02  0.1125453E+00
         25   -1    0    0    0    0  0.00000000000E+00  0.00000000000E+00  0.99999998245E-14  0.12509000000E+03  0.12509000000E+03 0.  0.
        -13    1    3    3    0    0 -0.23752018704E+02  0.34579094816E+02  0.16240084851E+02  0.44984705299E+02  0.10566000000E+00 0. -1.
         23    2    1    0    0    0  0.14962614223E+02  0.20524546329E+02 -0.14006218766E+02  0.96084638590E+02  0.91602111234E+02 0.  0.
         13    1    3    3    0    0  0.38714632927E+02 -0.14054548487E+02 -0.30246303617E+02  0.51099933291E+02  0.10566000000E+00 0.  1.
         22    1    1    0    0    0 -0.14962614223E+02 -0.20524546329E+02  0.14006218766E+02  0.29005361410E+02  0.00000000000E+00 0.  1.
</event>
<event>
 5    1  0.1264859E-009  0.9118800E+02  0.7815553E-02  0.1125453E+00
         25   -1    0    0    0    0  0.00000000000E+00  0.00000000000E+00  0.99999998245E-14  0.12509000000E+03  0.12509000000E+03 0.  0.
        -13    1    3    3    0    0  0.11400627217E+02 -0.13546646967E+02 -0.34169898202E+02  0.38484789880E+02  0.10566000000E+00 0.  1.
         23    2    1    0    0    0 -0.53278792832E+01 -0.18636177836E+00  0.24018620542E+02  0.10048684652E+03  0.97428389921E+02 0.  0.
         13    1    3    3    0    0 -0.16728506500E+02  0.13360285188E+02  0.58188518744E+02  0.62002056641E+02  0.10566000000E+00 0. -1.
         22    1    1    0    0    0  0.53278792832E+01  0.18636177836E+00 -0.24018620542E+02  0.24603153479E+02  0.00000000000E+00 0. -1.
</event>
<event>
 5    1  0.1264859E-009  0.9118800E+02  0.7815553E-02  0.1125453E+00
         25   -1    0    0    0    0  0.00000000000E+00  0.00000000000E+00  0.99999998245E-14  0.12509000000E+03  0.12509000000E+03 0.  0.
        -13    1    3    3    0    0  0.18544121583E+02 -0.88898204613E+01  0.56998503875E+02  0.60594999473E+02  0.10566000000E+00 0.  1.
         23    2    1    0    0    0 -0.16709568642E+01 -0.12417806002E+01  0.29240943748E+02  0.95775039533E+02  0.91178348803E+02 0.  0.
         13    1    3    3    0    0 -0.20215078448E+02  0.76480398611E+01 -0.27757560127E+02  0.35180040060E+02  0.10566000000E+00 0. -1.
         22    1    1    0    0    0  0.16709568642E+01  0.12417806002E+01 -0.29240943748E+02  0.29314960467E+02  0.00000000000E+00 0.  1.
</event>
<event>
 5    1  0.1264859E-009  0.9118800E+02  0.7815553E-02  0.1125453E+00
         25   -1    0    0    0    0  0.00000000000E+00  0.00000000000E+00  0.99999998245E-14  0.12509000000E+03  0.12509000000E+03 0.  0.
        -13    1    3    3    0    0  0.19666359587E+02 -0.54263622515E+01 -0.57658010731E+02  0.61161004506E+02  0.10566000000E+00 0.  1.
         23    2    1    0    0    0  0.16648446918E+02  0.24766139152E+01 -0.24610798166E+02  0.95273967607E+02  0.90488303752E+02 0.  0.
         13    1    3    3    0    0 -0.30179126690E+01  0.79029761667E+01  0.33047212565E+02  0.34112963101E+02  0.10566000000E+00 0. -1.
         22    1    1    0    0    0 -0.16648446918E+02 -0.24766139152E+01  0.24610798166E+02  0.29816032393E+02  0.00000000000E+00 0.  1.
</event>
<event>
 5    1  0.1264859E-009  0.9118800E+02  0.7815553E-02  0.1125453E+00
         25   -1    0    0    0    0  0.00000000000E+00  0.00000000000E+00  0.99999998245E-14  0.12509000000E+03  0.12509000000E+03 0.  0.
        -13    1    3    3    0    0 -0.48405499206E+02  0.28765938413E+02 -0.13426983836E+02  0.57886670530E+02  0.10566000000E+00 0. -1.
         23    2    1    0    0    0 -0.23409041335E+02  0.48422580179E+01 -0.20960258452E+02  0.93297499103E+02  0.87713512218E+02 0.  0.
         13    1    3    3    0    0  0.24996457871E+02 -0.23923680395E+02 -0.75332746157E+01  0.35410828573E+02  0.10566000000E+00 0.  1.
         22    1    1    0    0    0  0.23409041335E+02 -0.48422580179E+01  0.20960258452E+02  0.31792500897E+02  0.00000000000E+00 0. -1.
</event>
<event>
 5    1  0.1264859E-009  0.9118800E+02  0.7815553E-02  0.1125453E+00
         25   -1    0    0    0    0  0.00000000000E+00  0.00000000000E+00  0.99999998245E-14  0.12509000000E+03  0.12509000000E+03 0.  0.
        -13    1    3    3    0    0  0.31699392345E+02 -0.35812476432E+02  0.30022225267E+02  0.56468842004E+02  0.10566000000E+00 0.  1.
         23    2    1    0    0    0  0.28368022633E+02 -0.38924017634E+01  0.81086500710E+01  0.95330199840E+02  0.90566005190E+02 0.  0.
         13    1    3    3    0    0 -0.33313697122E+01  0.31920074668E+02 -0.21913575196E+02  0.38861357836E+02  0.10566000000E+00 0. -1.
         22    1    1    0    0    0 -0.28368022633E+02  0.38924017634E+01 -0.81086500710E+01  0.29759800160E+02  0.00000000000E+00 0. -1.
</event>
<event>
 5    1  0.1264859E-009  0.9118800E+02  0.7815553E-02  0.1125453E+00
         25   -1    0    0    0    0  0.00000000000E+00  0.00000000000E+00  0.99999998245E-14  0.12509000000E+03  0.12509000000E+03 0.  0.
        -13    1    3    3    0    0 -0.72011793971E+01 -0.37978833907E+02  0.26172178045E+02  0.46682361523E+02  0.10566000000E+00 0.  1.
         23    2    1    0    0    0 -0.34339850768E+01 -0.14416576663E+02 -0.20906920262E+02  0.99463270770E+02  0.96105218283E+02 0.  0.
         13    1    3    3    0    0  0.37671943203E+01  0.23562257244E+02 -0.47079098307E+02  0.52780909247E+02  0.10566000000E+00 0. -1.
         22    1    1    0    0    0  0.34339850768E+01  0.14416576663E+02  0.20906920262E+02  0.25626729230E+02  0.00000000000E+00 0. -1.
</event>
<event>
 5    1  0.1264859E-009  0.9118800E+02  0.7815553E-02  0.1125453E+00
         25   -1    0    0    0    0  0.00000000000E+00  0.00000000000E+00  0.99999998245E-14  0.12509000000E+03  0.12509000000E+03 0.  0.
        -13    1    3    3    0    0 -0.34448955334E+02 -0.12757272734E+02 -0.15919325188E+02  0.40036416044E+02  0.10566000000E+00 0. -1.
         23    2    1    0    0    0  0.61761780253E+01 -0.29150279017E+02  0.13053847919E+02  0.92558678366E+02  0.86653459559E+02 0.  0.
         13    1    3    3    0    0  0.40625133359E+02 -0.16393006283E+02  0.28973173107E+02  0.52522262321E+02  0.10566000000E+00 0.  1.
         22    1    1    0    0    0 -0.61761780253E+01  0.29150279017E+02 -0.13053847919E+02  0.32531321634E+02  0.00000000000E+00 0.  1.
</event>
<event>
 5    1  0.1264859E-009  0.9118800E+02  0.7815553E-02  0.1125453E+00
         25   -1    0    0    0    0  0.00000000000E+00  0.00000000000E+00  0.99999998245E-14  0.12509000000E+03  0.12509000000E+03 0.  0.
        -13    1    3    3    0    0  0.20157394964E+02  0.38572561403E+02  0.25465351455E+02  0.50424779163E+02  0.10566000000E+00 0. -1.
         23    2    1    0    0    0  0.29515434500E+02  0.18544770267E+01  0.10574605532E+01  0.95497464090E+02  0.90796737089E+02 0.  0.
         13    1    3    3    0    0  0.93580395360E+01 -0.36718084376E+02 -0.24407890902E+02  0.45072684927E+02  0.10566000000E+00 0.  1.
         22    1    1    0    0    0 -0.29515434500E+02 -0.18544770267E+01 -0.10574605532E+01  0.29592535910E+02  0.00000000000E+00 0. -1.
</event>
<event>
 5    1  0.1264859E-009  0.9118800E+02  0.7815553E-02  0.1125453E+00
         25   -1    0    0    0    0  0.00000000000E+00  0.00000000000E+00  0.99999998245E-14  0.12509000000E+03  0.12509000000E+03 0.  0.
        -13    1    3    3    0    0 -0.21978554522E+02 -0.23554174656E+02  0.17026939357E+02  0.36438768236E+02  0.10566000000E+00 0.  1.
         23    2    1    0    0    0  0.82010003795E+01  0.26801455430E+02  0.87595250470E+01  0.95724991921E+02  0.91109661282E+02 0.  0.
         13    1    3    3    0    0  0.30179554902E+02  0.50355630087E+02 -0.82674143100E+01  0.59286223686E+02  0.10566000000E+00 0. -1.
         22    1    1    0    0    0 -0.82010003795E+01 -0.26801455430E+02 -0.87595250470E+01  0.29365008079E+02  0.00000000000E+00 0. -1.
</event>
<event>
 5    1  0.1264859E-009  0.9118800E+02  0.7815553E-02  0.1125453E+00
         25   -1    0    0    0    0  0.00000000000E+00  0.00000000000E+00  0.99999998245E-14  0.12509000000E+03  0.12509000000E+03 0.  0.
        -13    1    3    3    0    0  0.23565144994E+02 -0.25775785957E+02  0.98402575757E+01  0.36284280804E+02  0.10566000000E+00 0.  1.
         23    2    1    0    0    0 -0.28739777113E+02 -0.16770949406E+02  0.12791675535E+02  0.89440785486E+02  0.82029187567E+02 0.  0.
         13    1    3    3    0    0 -0.52304922107E+02  0.90048365513E+01  0.29514179595E+01  0.53156504682E+02  0.10566000000E+00 0. -1.
         22    1    1    0    0    0  0.28739777113E+02  0.16770949406E+02 -0.12791675535E+02  0.35649214514E+02  0.00000000000E+00 0. -1.
</event>
<event>
 5    1  0.1264859E-009  0.9118800E+02  0.7815553E-02  0.1125453E+00
         25   -1    0    0    0    0  0.00000000000E+00  0.00000000000E+00  0.99999998245E-14  0.12509000000E+03  0.12509000000E+03 0.  0.
        -13    1    3    3    0    0 -0.10014378282E+01  0.30266796714E+02 -0.35723273330E+02  0.46832096712E+02  0.10566000000E+00 0.  1.
         23    2    1    0    0    0  0.45851381914E+01  0.25610967106E+02  0.12937041161E+02  0.96032949869E+02  0.91531498940E+02 0.  0.
         13    1    3    3    0    0  0.55865760196E+01 -0.46558296082E+01  0.48660314490E+02  0.49200853156E+02  0.10566000000E+00 0. -1.
         22    1    1    0    0    0 -0.45851381914E+01 -0.25610967106E+02 -0.12937041161E+02  0.29057050131E+02  0.00000000000E+00 0.  1.
</event>
<event>
 5    1  0.1264859E-009  0.9118800E+02  0.7815553E-02  0.1125453E+00
         25   -1    0    0    0    0  0.00000000000E+00  0.00000000000E+00  0.99999998245E-14  0.12509000000E+03  0.12509000000E+03 0.  0.
        -13    1    3    3    0    0 -0.10478718036E+02  0.26471853562E+02 -0.24865456695E+02  0.37800326234E+02  0.10566000000E+00 0. -1.
         23    2    1    0    0    0  0.22514220805E+02 -0.16465151184E+02 -0.46392231353E+00  0.97193646011E+02  0.93104233303E+02 0.  0.
         13    1    3    3    0    0  0.32992938841E+02 -0.42937004746E+02  0.24401534382E+02  0.59393319777E+02  0.10566000000E+00 0.  1.
         22    1    1    0    0    0 -0.22514220805E+02  0.16465151184E+02  0.46392231353E+00  0.27896353989E+02  0.00000000000E+00 0.  1.
</event>
<event>
 5    1  0.1264859E-009  0.9118800E+02  0.7815553E-02  0.1125453E+00
         25   -1    0    0    0    0  0.00000000000E+00  0.00000000000E+00  0.99999998245E-14  0.12509000000E+03  0.12509000000E+03 0.  0.
        -13    1    3    3    0    0 -0.27538294110E+02 -0.10408243444E+01 -0.21445188261E+02  0.34919166963E+02  0.10566000000E+00 0. -1.
         23    2    1    0    0    0  0.78769539327E+01 -0.87984389941E+01  0.27111774792E+02  0.95517931010E+02  0.90824929838E+02 0.  0.
         13    1    3    3    0    0  0.35415248043E+02 -0.77576146498E+01  0.48556963053E+02  0.60598764047E+02  0.10566000000E+00 0.  1.
         22    1    1    0    0    0 -0.78769539327E+01  0.87984389941E+01 -0.27111774792E+02  0.29572068990E+02  0.00000000000E+00 0.  1.
</event>
<event>
 5    1  0.1264859E-009  0.9118800E+02  0.7815553E-02  0.1125453E+00
         25   -1    0    0    0    0  0.00000000000E+00  0.00000000000E+00  0.99999998245E-14  0.12509000000E+03  0.12509000000E+03 0.  0.
        -13    1    3    3    0    0 -0.26478374575E+02 -0.66997638533E+01 -0.27749674584E+02  0.38936445130E+02  0.10566000000E+00 0.  1.
         23    2    1    0    0    0  0.26324290972E+02  0.59671629633E+01 -0.12539666425E+02  0.95327295770E+02  0.90561993992E+02 0.  0.
         13    1    3    3    0    0  0.52802665546E+02  0.12666926817E+02  0.15210008158E+02  0.56390850641E+02  0.10566000000E+00 0. -1.
         22    1    1    0    0    0 -0.26324290972E+02 -0.59671629633E+01  0.12539666425E+02  0.29762704230E+02  0.00000000000E+00 0. -1.
</event>
<event>
 5    1  0.1264859E-009  0.9118800E+02  0.7815553E-02  0.1125453E+00
         25   -1    0    0    0    0  0.00000000000E+00  0.00000000000E+00  0.99999998245E-14  0.12509000000E+03  0.12509000000E+03 0.  0.
        -13    1    3    3    0    0  0.17493223767E+02 -0.26585454306E+02 -0.11834893120E+02  0.33954014750E+02  0.10566000000E+00 0.  1.
         23    2    1    0    0    0 -0.31242559381E+01  0.29575564949E+02  0.17335842807E+01  0.95299391888E+02  0.90523443165E+02 0.  0.
         13    1    3    3    0    0 -0.20617479705E+02  0.56161019255E+02  0.13568477401E+02  0.61345377138E+02  0.10566000000E+00 0. -1.
         22    1    1    0    0    0  0.31242559381E+01 -0.29575564949E+02 -0.17335842807E+01  0.29790608112E+02  0.00000000000E+00 0. -1.
</event>
<event>
 5    1  0.1264859E-009  0.9118800E+02  0.7815553E-02  0.1125453E+00
         25   -1    0    0    0    0  0.00000000000E+00  0.00000000000E+00  0.99999998245E-14  0.12509000000E+03  0.12509000000E+03 0.  0.
        -13    1    3    3    0    0  0.22796659973E+02  0.17985800653E+02  0.17822615642E+02  0.34071007080E+02  0.10566000000E+00 0.  1.
         23    2    1    0    0    0 -0.29593261979E+02  0.88007032001E+01 -0.79987898787E+01  0.93196518363E+02  0.87569383143E+02 0.  0.
         13    1    3    3    0    0 -0.52389921953E+02 -0.91850974525E+01 -0.25821405521E+02  0.59125511284E+02  0.10566000000E+00 0. -1.
         22    1    1    0    0    0  0.29593261979E+02 -0.88007032001E+01  0.79987898787E+01  0.31893481637E+02  0.00000000000E+00 0. -1.
</event>
<event>
 5    1  0.1264859E-009  0.9118800E+02  0.7815553E-02  0.1125453E+00
         25   -1    0    0    0    0  0.00000000000E+00  0.00000000000E+00  0.99999998245E-14  0.12509000000E+03  0.12509000000E+03 0.  0.
        -13    1    3    3    0    0  0.56076314151E+02  0.85299195488E+01  0.19990310444E+02  0.60140969496E+02  0.10566000000E+00 0.  1.
         23    2    1    0    0    0  0.23098881250E+02 -0.40998158835E+01  0.18017988260E+02  0.95509352505E+02  0.90813114195E+02 0.  0.
         13    1    3    3    0    0 -0.32977432901E+02 -0.12629735432E+02 -0.19723221842E+01  0.35368383009E+02  0.10566000000E+00 0. -1.
         22    1    1    0    0    0 -0.23098881250E+02  0.40998158835E+01 -0.18017988260E+02  0.29580647495E+02  0.00000000000E+00 0.  1.
</event>
<event>
 5    1  0.1264859E-009  0.9118800E+02  0.7815553E-02  0.1125453E+00
         25   -1    0    0    0    0  0.00000000000E+00  0.00000000000E+00  0.99999998245E-14  0.12509000000E+03  0.12509000000E+03 0.  0.
        -13    1    3    3    0    0 -0.45405389021E+02  0.17260772086E+02  0.33763651594E+02  0.59157239102E+02  0.10566000000E+00 0. -1.
         23    2    1    0    0    0 -0.22988590097E+02 -0.65662344221E+01  0.14838037874E+02  0.96951803948E+02  0.92778737929E+02 0.  0.
         13    1    3    3    0    0  0.22416798925E+02 -0.23827006508E+02 -0.18925613720E+02  0.37794564846E+02  0.10566000000E+00 0.  1.
         22    1    1    0    0    0  0.22988590097E+02  0.65662344221E+01 -0.14838037874E+02  0.28138196052E+02  0.00000000000E+00 0. -1.
</event>
<event>
 5    1  0.1264859E-009  0.9118800E+02  0.7815553E-02  0.1125453E+00
         25   -1    0    0    0    0  0.00000000000E+00  0.00000000000E+00  0.99999998245E-14  0.12509000000E+03  0.12509000000E+03 0.  0.
        -13    1    3    3    0    0 -0.17056689064E+02  0.18442872606E+02 -0.35540627664E+02  0.43522609877E+02  0.10566000000E+00 0.  1.
         23    2    1    0    0    0 -0.12463771545E+02 -0.25773516170E+02 -0.10163362539E+02  0.94710505682E+02  0.89705998749E+02 0.  0.
         13    1    3    3    0    0  0.45929175186E+01 -0.44216388776E+02  0.25377265124E+02  0.51187895805E+02  0.10566000000E+00 0. -1.
         22    1    1    0    0    0  0.12463771545E+02  0.25773516170E+02  0.10163362539E+02  0.30379494318E+02  0.00000000000E+00 0. -1.
</event>
<event>
 5    1  0.1264859E-009  0.9118800E+02  0.7815553E-02  0.1125453E+00
         25   -1    0    0    0    0  0.00000000000E+00  0.00000000000E+00  0.99999998245E-14  0.12509000000E+03  0.12509000000E+03 0.  0.
        -13    1    3    3    0    0  0.26059478627E+02 -0.33302631977E+02 -0.22171649922E+02  0.47746779443E+02  0.10566000000E+00 0.  1.
         23    2    1    0    0    0  0.23884770390E+02  0.27283264678E+01  0.12669886229E+02  0.97915525967E+02  0.94069113882E+02 0.  0.
         13    1    3    3    0    0 -0.21747082373E+01  0.36030958445E+02  0.34841536151E+02  0.50168746524E+02  0.10566000000E+00 0. -1.
         22    1    1    0    0    0 -0.23884770390E+02 -0.27283264678E+01 -0.12669886229E+02  0.27174474033E+02  0.00000000000E+00 0. -1.
</event>
<event>
 5    1  0.1264859E-009  0.9118800E+02  0.7815553E-02  0.1125453E+00
         25   -1    0    0    0    0  0.00000000000E+00  0.00000000000E+00  0.99999998245E-14  0.12509000000E+03  0.12509000000E+03 0.  0.
        -13    1    3    3    0    0 -0.20332294225E+02  0.26449119828E+02  0.22744369459E+00  0.33361969708E+02  0.10566000000E+00 0. -1.
         23    2    1    0    0    0  0.15659357862E+02 -0.21141744825E+02  0.14963481990E+02  0.94822944376E+02  0.89862651441E+02 0.  0.
         13    1    3    3    0    0  0.35991652087E+02 -0.47590864653E+02  0.14736038295E+02  0.61460974668E+02  0.10566000000E+00 0.  1.
         22    1    1    0    0    0 -0.15659357862E+02  0.21141744825E+02 -0.14963481990E+02  0.30267055624E+02  0.00000000000E+00 0.  1.
</event>
<event>
 5    1  0.1264859E-009  0.9118800E+02  0.7815553E-02  0.1125453E+00
         25   -1    0    0    0    0  0.00000000000E+00  0.00000000000E+00  0.99999998245E-14  0.12509000000E+03  0.12509000000E+03 0.  0.
        -13    1    3    3    0    0 -0.29792184925E+01 -0.26511198098E+02 -0.27401975691E+02  0.38243938123E+02  0.10566000000E+00 0. -1.
         23    2    1    0    0    0 -0.24103867767E+02  0.10192408752E+02  0.12192191228E+02  0.96219060208E+02  0.91785491135E+02 0.  0.
         13    1    3    3    0    0 -0.21124649275E+02  0.36703606850E+02  0.39594166919E+02  0.57975122085E+02  0.10566000000E+00 0.  1.
         22    1    1    0    0    0  0.24103867767E+02 -0.10192408752E+02 -0.12192191228E+02  0.28870939792E+02  0.00000000000E+00 0.  1.
</event>
<event>
 5    1  0.1264859E-009  0.9118800E+02  0.7815553E-02  0.1125453E+00
         25   -1    0    0    0    0  0.00000000000E+00  0.00000000000E+00  0.99999998245E-14  0.12509000000E+03  0.12509000000E+03 0.  0.
        -13    1    3    3    0    0 -0.15305270049E+02 -0.57208139607E+02  0.15119554136E+02  0.61119838104E+02  0.10566000000E+00 0.  1.
         23    2    1    0    0    0 -0.13719647161E+01 -0.28931730975E+02 -0.10208669602E+00  0.96125577581E+02  0.91657999646E+02 0.  0.
         13    1    3    3    0    0  0.13933305333E+02  0.28276408632E+02 -0.15221640832E+02  0.35005739477E+02  0.10566000000E+00 0. -1.
         22    1    1    0    0    0  0.13719647161E+01  0.28931730975E+02  0.10208669602E+00  0.28964422419E+02  0.00000000000E+00 0.  1.
</event>
<event>
 5    1  0.1264859E-009  0.9118800E+02  0.7815553E-02  0.1125453E+00
         25   -1    0    0    0    0  0.00000000000E+00  0.00000000000E+00  0.99999998245E-14  0.12509000000E+03  0.12509000000E+03 0.  0.
        -13    1    3    3    0    0 -0.17863766353E+02 -0.31310264662E+02 -0.41354303803E+02  0.54860153377E+02  0.10566000000E+00 0. -1.
         23    2    1    0    0    0  0.20067675892E+01 -0.31500171154E+02 -0.10002790703E+02  0.91978918460E+02  0.85812456674E+02 0.  0.
         13    1    3    3    0    0  0.19870533942E+02 -0.18990649159E+00  0.31351513099E+02  0.37118765083E+02  0.10566000000E+00 0.  1.
         22    1    1    0    0    0 -0.20067675892E+01  0.31500171154E+02  0.10002790703E+02  0.33111081540E+02  0.00000000000E+00 0. -1.
</event>
<event>
 5    1  0.1264859E-009  0.9118800E+02  0.7815553E-02  0.1125453E+00
         25   -1    0    0    0    0  0.00000000000E+00  0.00000000000E+00  0.99999998245E-14  0.12509000000E+03  0.12509000000E+03 0.  0.
        -13    1    3    3    0    0  0.21209844020E+02  0.26633098523E+02 -0.17800771324E+01  0.34093390253E+02  0.10566000000E+00 0.  1.
         23    2    1    0    0    0  0.36085845402E+01 -0.20927145875E+02 -0.27006649927E+02  0.90734120487E+02  0.83978295787E+02 0.  0.
         13    1    3    3    0    0 -0.17601259480E+02 -0.47560244398E+02 -0.25226572795E+02  0.56640730234E+02  0.10566000000E+00 0. -1.
         22    1    1    0    0    0 -0.36085845402E+01  0.20927145875E+02  0.27006649927E+02  0.34355879513E+02  0.00000000000E+00 0. -1.
</event>
<event>
 5    1  0.1264859E-009  0.9118800E+02  0.7815553E-02  0.1125453E+00
         25   -1    0    0    0    0  0.00000000000E+00  0.00000000000E+00  0.99999998245E-14  0.12509000000E+03  0.12509000000E+03 0.  0.
        -13    1    3    3    0    0 -0.25035112244E+02 -0.25403563722E+02  0.30353489593E+02  0.46834211740E+02  0.10566000000E+00 0. -1.
         23    2    1    0    0    0 -0.27794664374E+02  0.13820327594E+02  0.49257559561E+01  0.93660588707E+02  0.88229802124E+02 0.  0.
         13    1    3    3    0    0 -0.27595521300E+01  0.39223891316E+02 -0.25427733636E+02  0.46826376967E+02  0.10566000000E+00 0.  1.
         22    1    1    0    0    0  0.27794664374E+02 -0.13820327594E+02 -0.49257559561E+01  0.31429411293E+02  0.00000000000E+00 0. -1.
</event>
<event>
 5    1  0.1264859E-009  0.9118800E+02  0.7815553E-02  0.1125453E+00
         25   -1    0    0    0    0  0.00000000000E+00  0.00000000000E+00  0.99999998245E-14  0.12509000000E+03  0.12509000000E+03 0.  0.
        -13    1    3    3    0    0  0.29859589203E+02  0.52953027050E+02 -0.98334391719E+01  0.61581862843E+02  0.10566000000E+00 0. -1.
         23    2    1    0    0    0  0.73705285632E+01  0.27761164596E+02 -0.17029462650E+01  0.96316627291E+02  0.91918364410E+02 0.  0.
         13    1    3    3    0    0 -0.22489060640E+02 -0.25191862454E+02  0.81304929069E+01  0.34734764449E+02  0.10566000000E+00 0.  1.
         22    1    1    0    0    0 -0.73705285632E+01 -0.27761164596E+02  0.17029462650E+01  0.28773372709E+02  0.00000000000E+00 0. -1.
</event>
<event>
 5    1  0.1264859E-009  0.9118800E+02  0.7815553E-02  0.1125453E+00
         25   -1    0    0    0    0  0.00000000000E+00  0.00000000000E+00  0.99999998245E-14  0.12509000000E+03  0.12509000000E+03 0.  0.
        -13    1    3    3    0    0  0.30552395098E+02 -0.11058750695E+02 -0.12002347191E+02  0.34638307050E+02  0.10566000000E+00 0. -1.
         23    2    1    0    0    0 -0.25572336686E+02  0.51359969452E+01 -0.18058008217E+02  0.93365962915E+02  0.87811095552E+02 0.  0.
         13    1    3    3    0    0 -0.56124731784E+02  0.16194747640E+02 -0.60556610261E+01  0.58727655865E+02  0.10566000000E+00 0.  1.
         22    1    1    0    0    0  0.25572336686E+02 -0.51359969452E+01  0.18058008217E+02  0.31724037085E+02  0.00000000000E+00 0.  1.
</event>
<event>
 5    1  0.1264859E-009  0.9118800E+02  0.7815553E-02  0.1125453E+00
         25   -1    0    0    0    0  0.00000000000E+00  0.00000000000E+00  0.99999998245E-14  0.12509000000E+03  0.12509000000E+03 0.  0.
        -13    1    3    3    0    0 -0.17980310411E+02  0.39377270640E+02  0.50563635332E+01  0.43582553639E+02  0.10566000000E+00 0.  1.
         23    2    1    0    0    0  0.25318705086E+02  0.12481983229E+02 -0.70960793550E+01  0.95983453060E+02  0.91463829936E+02 0.  0.
         13    1    3    3    0    0  0.43299015497E+02 -0.26895287411E+02 -0.12152442888E+02  0.52400899421E+02  0.10566000000E+00 0. -1.
         22    1    1    0    0    0 -0.25318705086E+02 -0.12481983229E+02  0.70960793550E+01  0.29106546940E+02  0.00000000000E+00 0. -1.
</event>
<event>
 5    1  0.1264859E-009  0.9118800E+02  0.7815553E-02  0.1125453E+00
         25   -1    0    0    0    0  0.00000000000E+00  0.00000000000E+00  0.99999998245E-14  0.12509000000E+03  0.12509000000E+03 0.  0.
        -13    1    3    3    0    0  0.33231691130E+02  0.83025105371E+01  0.74237409537E+00  0.34261337684E+02  0.10566000000E+00 0. -1.
         23    2    1    0    0    0 -0.22472159575E+02 -0.98631162347E+01 -0.16714011030E+02  0.95397624169E+02  0.90659084015E+02 0.  0.
         13    1    3    3    0    0 -0.55703850705E+02 -0.18165626772E+02 -0.17456385125E+02  0.61136286484E+02  0.10566000000E+00 0.  1.
         22    1    1    0    0    0  0.22472159575E+02  0.98631162347E+01  0.16714011030E+02  0.29692375831E+02  0.00000000000E+00 0.  1.
</event>
<event>
 5    1  0.1264859E-009  0.9118800E+02  0.7815553E-02  0.1125453E+00
         25   -1    0    0    0    0  0.00000000000E+00  0.00000000000E+00  0.99999998245E-14  0.12509000000E+03  0.12509000000E+03 0.  0.
        -13    1    3    3    0    0  0.42203747936E+02 -0.14110819537E+00  0.40448831764E+02  0.58457637709E+02  0.10566000000E+00 0. -1.
         23    2    1    0    0    0  0.28422434453E+02  0.10024657695E+02  0.10101267142E+02  0.93303774367E+02  0.87722461041E+02 0.  0.
         13    1    3    3    0    0 -0.13781313483E+02  0.10165765891E+02 -0.30347564622E+02  0.34846136658E+02  0.10566000000E+00 0.  1.
         22    1    1    0    0    0 -0.28422434453E+02 -0.10024657695E+02 -0.10101267142E+02  0.31786225633E+02  0.00000000000E+00 0. -1.
</event>
<event>
 5    1  0.1264859E-009  0.9118800E+02  0.7815553E-02  0.1125453E+00
         25   -1    0    0    0    0  0.00000000000E+00  0.00000000000E+00  0.99999998245E-14  0.12509000000E+03  0.12509000000E+03 0.  0.
        -13    1    3    3    0    0 -0.13826743484E+02  0.16043139877E+01  0.59377206729E+02  0.60987019125E+02  0.10566000000E+00 0.  1.
         23    2    1    0    0    0  0.27084287439E+01  0.20429825032E+01  0.31540773173E+02  0.93367299357E+02  0.87812999340E+02 0.  0.
         13    1    3    3    0    0  0.16535172228E+02  0.43866851545E+00 -0.27836433557E+02  0.32380280231E+02  0.10566000000E+00 0. -1.
         22    1    1    0    0    0 -0.27084287439E+01 -0.20429825032E+01 -0.31540773173E+02  0.31722700643E+02  0.00000000000E+00 0.  1.
</event>
<event>
 5    1  0.1264859E-009  0.9118800E+02  0.7815553E-02  0.1125453E+00
         25   -1    0    0    0    0  0.00000000000E+00  0.00000000000E+00  0.99999998245E-14  0.12509000000E+03  0.12509000000E+03 0.  0.
        -13    1    3    3    0    0  0.23166257448E+02  0.57469320446E+01  0.34662957973E+02  0.42086037252E+02  0.10566000000E+00 0. -1.
         23    2    1    0    0    0 -0.86373868299E+01  0.27455133653E+02 -0.32514244191E+01  0.96125183828E+02  0.91657462271E+02 0.  0.
         13    1    3    3    0    0 -0.31803644278E+02  0.21708201608E+02 -0.37914382393E+02  0.54039146576E+02  0.10566000000E+00 0.  1.
         22    1    1    0    0    0  0.86373868299E+01 -0.27455133653E+02  0.32514244191E+01  0.28964816172E+02  0.00000000000E+00 0.  1.
</event>
<event>
 5    1  0.1264859E-009  0.9118800E+02  0.7815553E-02  0.1125453E+00
         25   -1    0    0    0    0  0.00000000000E+00  0.00000000000E+00  0.99999998245E-14  0.12509000000E+03  0.12509000000E+03 0.  0.
        -13    1    3    3    0    0 -0.25248945340E+02  0.48262806238E+02  0.13769901207E+02  0.56182106137E+02  0.10566000000E+00 0.  1.
         23    2    1    0    0    0 -0.22739949936E+02  0.17147418896E+02 -0.94445577935E+01  0.95084351035E+02  0.90225799203E+02 0.  0.
         13    1    3    3    0    0  0.25089954035E+01 -0.31115387341E+02 -0.23214459001E+02  0.38902244897E+02  0.10566000000E+00 0. -1.
         22    1    1    0    0    0  0.22739949936E+02 -0.17147418896E+02  0.94445577935E+01  0.30005648965E+02  0.00000000000E+00 0.  1.
</event>
<event>
 5    1  0.1264859E-009  0.9118800E+02  0.7815553E-02  0.1125453E+00
         25   -1    0    0    0    0  0.00000000000E+00  0.00000000000E+00  0.99999998245E-14  0.12509000000E+03  0.12509000000E+03 0.  0.
        -13    1    3    3    0    0 -0.21559928605E+02  0.41796745384E+00  0.45813691446E+02  0.50635073873E+02  0.10566000000E+00 0. -1.
         23    2    1    0    0    0 -0.28675369503E+02  0.33971171372E+01  0.90673197455E+00  0.96199873939E+02  0.91759339372E+02 0.  0.
         13    1    3    3    0    0 -0.71154408975E+01  0.29791496834E+01 -0.44906959471E+02  0.45564800065E+02  0.10566000000E+00 0.  1.
         22    1    1    0    0    0  0.28675369503E+02 -0.33971171372E+01 -0.90673197455E+00  0.28890126061E+02  0.00000000000E+00 0. -1.
</event>
<event>
 5    1  0.1264859E-009  0.9118800E+02  0.7815553E-02  0.1125453E+00
         25   -1    0    0    0    0  0.00000000000E+00  0.00000000000E+00  0.99999998245E-14  0.12509000000E+03  0.12509000000E+03 0.  0.
        -13    1    3    3    0    0 -0.54976947003E+02 -0.28350608710E+02 -0.48153887544E+01  0.62043701122E+02  0.10566000000E+00 0. -1.
         23    2    1    0    0    0 -0.23979259668E+02 -0.15405366948E+02 -0.71125639896E+01  0.95714520573E+02  0.91095283396E+02 0.  0.
         13    1    3    3    0    0  0.30997687335E+02  0.12945241762E+02 -0.22971752352E+01  0.33670819451E+02  0.10566000000E+00 0.  1.
         22    1    1    0    0    0  0.23979259668E+02  0.15405366948E+02  0.71125639896E+01  0.29375479427E+02  0.00000000000E+00 0. -1.
</event>
<event>
 5    1  0.1264859E-009  0.9118800E+02  0.7815553E-02  0.1125453E+00
         25   -1    0    0    0    0  0.00000000000E+00  0.00000000000E+00  0.99999998245E-14  0.12509000000E+03  0.12509000000E+03 0.  0.
        -13    1    3    3    0    0 -0.41605283667E+02  0.23810488675E+01  0.11034779769E+01  0.41688102024E+02  0.10566000000E+00 0.  1.
         23    2    1    0    0    0 -0.23119499850E+01 -0.17338500549E+02  0.27153328040E+02  0.92790279604E+02  0.86987148771E+02 0.  0.
         13    1    3    3    0    0  0.39293333682E+02 -0.19719549416E+02  0.26049850063E+02  0.51102177580E+02  0.10566000000E+00 0. -1.
         22    1    1    0    0    0  0.23119499850E+01  0.17338500549E+02 -0.27153328040E+02  0.32299720396E+02  0.00000000000E+00 0. -1.
</event>
<event>
 5    1  0.1264859E-009  0.9118800E+02  0.7815553E-02  0.1125453E+00
         25   -1    0    0    0    0  0.00000000000E+00  0.00000000000E+00  0.99999998245E-14  0.12509000000E+03  0.12509000000E+03 0.  0.
        -13    1    3    3    0    0 -0.27544715391E+02  0.50821700599E+02  0.88915124887E+01  0.58486124475E+02  0.10566000000E+00 0.  1.
         23    2    1    0    0    0  0.62899636902E+00  0.27217788229E+02  0.11928979889E+02  0.95366201560E+02  0.90615717214E+02 0.  0.
         13    1    3    3    0    0  0.28173711760E+02 -0.23603912370E+02  0.30374674006E+01  0.36880077084E+02  0.10566000000E+00 0. -1.
         22    1    1    0    0    0 -0.62899636902E+00 -0.27217788229E+02 -0.11928979889E+02  0.29723798440E+02  0.00000000000E+00 0.  1.
</event>
<event>
 5    1  0.1264859E-009  0.9118800E+02  0.7815553E-02  0.1125453E+00
         25   -1    0    0    0    0  0.00000000000E+00  0.00000000000E+00  0.99999998245E-14  0.12509000000E+03  0.12509000000E+03 0.  0.
        -13    1    3    3    0    0  0.51020441740E+01  0.49829754374E+02  0.83825898199E+01  0.50786949622E+02  0.10566000000E+00 0.  1.
         23    2    1    0    0    0 -0.78897344114E+01  0.12892212765E+02 -0.20626808172E+02  0.99518095995E+02  0.96176552008E+02 0.  0.
         13    1    3    3    0    0 -0.12991778585E+02 -0.36937541610E+02 -0.29009397992E+02  0.48731146374E+02  0.10566000000E+00 0. -1.
         22    1    1    0    0    0  0.78897344114E+01 -0.12892212765E+02  0.20626808172E+02  0.25571904005E+02  0.00000000000E+00 0. -1.
</event>
<event>
 5    1  0.1264859E-009  0.9118800E+02  0.7815553E-02  0.1125453E+00
         25   -1    0    0    0    0  0.00000000000E+00  0.00000000000E+00  0.99999998245E-14  0.12509000000E+03  0.12509000000E+03 0.  0.
        -13    1    3    3    0    0 -0.29698576095E+02 -0.10219923965E+02 -0.18922448337E+02  0.36667730814E+02  0.10566000000E+00 0.  1.
         23    2    1    0    0    0 -0.19177434475E+00  0.12755294192E+02  0.26604707698E+02  0.95585004169E+02  0.90917260424E+02 0.  0.
         13    1    3    3    0    0  0.29506801750E+02  0.22975218156E+02  0.45527156035E+02  0.58917273355E+02  0.10566000000E+00 0. -1.
         22    1    1    0    0    0  0.19177434475E+00 -0.12755294192E+02 -0.26604707698E+02  0.29504995831E+02  0.00000000000E+00 0. -1.
</event>
<event>
 5    1  0.1264859E-009  0.9118800E+02  0.7815553E-02  0.1125453E+00
         25   -1    0    0    0    0  0.00000000000E+00  0.00000000000E+00  0.99999998245E-14  0.12509000000E+03  0.12509000000E+03 0.  0.
        -13    1    3    3    0    0  0.13341332030E+02  0.28959796086E+02 -0.32040952229E+01  0.32045878361E+02  0.10566000000E+00 0. -1.
         23    2    1    0    0    0 -0.24391047912E+02 -0.19359620922E+02  0.36587929226E+01  0.93735496238E+02  0.88335940301E+02 0.  0.
         13    1    3    3    0    0 -0.37732379942E+02 -0.48319417008E+02  0.68628881455E+01  0.61689617877E+02  0.10566000000E+00 0.  1.
         22    1    1    0    0    0  0.24391047912E+02  0.19359620922E+02 -0.36587929226E+01  0.31354503762E+02  0.00000000000E+00 0.  1.
</event>
<event>
 5    1  0.1264859E-009  0.9118800E+02  0.7815553E-02  0.1125453E+00
         25   -1    0    0    0    0  0.00000000000E+00  0.00000000000E+00  0.99999998245E-14  0.12509000000E+03  0.12509000000E+03 0.  0.
        -13    1    3    3    0    0  0.75356860284E+01  0.32881040897E+02 -0.48034137169E+02  0.58696157557E+02  0.10566000000E+00 0.  1.
         23    2    1    0    0    0  0.53718863999E+01  0.60785335284E+01 -0.36055031867E+02  0.88133660134E+02  0.80011067936E+02 0.  0.
         13    1    3    3    0    0 -0.21637996285E+01 -0.26802507369E+02  0.11979105302E+02  0.29437502577E+02  0.10566000000E+00 0. -1.
         22    1    1    0    0    0 -0.53718863999E+01 -0.60785335284E+01  0.36055031867E+02  0.36956339866E+02  0.00000000000E+00 0.  1.
</event>
<event>
 5    1  0.1264859E-009  0.9118800E+02  0.7815553E-02  0.1125453E+00
         25   -1    0    0    0    0  0.00000000000E+00  0.00000000000E+00  0.99999998245E-14  0.12509000000E+03  0.12509000000E+03 0.  0.
        -13    1    3    3    0    0  0.52021602661E+02  0.64019639359E+00 -0.24309426673E+01  0.52082412014E+02  0.10566000000E+00 0.  1.
         23    2    1    0    0    0  0.15685566498E+02 -0.22099783997E+02  0.91534861049E+01  0.96485389236E+02  0.92147743212E+02 0.  0.
         13    1    3    3    0    0 -0.36336036163E+02 -0.22739980390E+02  0.11584428772E+02  0.44402977222E+02  0.10566000000E+00 0. -1.
         22    1    1    0    0    0 -0.15685566498E+02  0.22099783997E+02 -0.91534861049E+01  0.28604610764E+02  0.00000000000E+00 0. -1.
</event>
<event>
 5    1  0.1264859E-009  0.9118800E+02  0.7815553E-02  0.1125453E+00
         25   -1    0    0    0    0  0.00000000000E+00  0.00000000000E+00  0.99999998245E-14  0.12509000000E+03  0.12509000000E+03 0.  0.
        -13    1    3    3    0    0 -0.22548886603E+02  0.48147151330E+02  0.55854543891E+01  0.53458478588E+02  0.10566000000E+00 0. -1.
         23    2    1    0    0    0 -0.29158180385E+02  0.11487830306E+02 -0.73662268205E+01  0.92896351153E+02  0.87139549180E+02 0.  0.
         13    1    3    3    0    0 -0.66092937829E+01 -0.36659321024E+02 -0.12951681210E+02  0.39437872565E+02  0.10566000000E+00 0.  1.
         22    1    1    0    0    0  0.29158180385E+02 -0.11487830306E+02  0.73662268205E+01  0.32193648847E+02  0.00000000000E+00 0.  1.
</event>
<event>
 5    1  0.1264859E-009  0.9118800E+02  0.7815553E-02  0.1125453E+00
         25   -1    0    0    0    0  0.00000000000E+00  0.00000000000E+00  0.99999998245E-14  0.12509000000E+03  0.12509000000E+03 0.  0.
        -13    1    3    3    0    0  0.30098501215E+02 -0.22072538684E+02 -0.15889185342E+02  0.40565923066E+02  0.10566000000E+00 0.  1.
         23    2    1    0    0    0 -0.17624311461E+02  0.62583704702E+01 -0.21786312980E+02  0.96377163347E+02  0.92000709922E+02 0.  0.
         13    1    3    3    0    0 -0.47722812676E+02  0.28330909155E+02 -0.58971276375E+01  0.55811240280E+02  0.10566000000E+00 0. -1.
         22    1    1    0    0    0  0.17624311461E+02 -0.62583704702E+01  0.21786312980E+02  0.28712836653E+02  0.00000000000E+00 0. -1.
</event>
<event>
 5    1  0.1264859E-009  0.9118800E+02  0.7815553E-02  0.1125453E+00
         25   -1    0    0    0    0  0.00000000000E+00  0.00000000000E+00  0.99999998245E-14  0.12509000000E+03  0.12509000000E+03 0.  0.
        -13    1    3    3    0    0 -0.84113721173E+01 -0.38341784594E+02  0.25401342728E+02  0.46755566548E+02  0.10566000000E+00 0.  1.
         23    2    1    0    0    0  0.34728476316E+01  0.77807298809E+01  0.29330948478E+02  0.94546506965E+02  0.89477019466E+02 0.  0.
         13    1    3    3    0    0  0.11884219749E+02  0.46122514475E+02  0.39296057501E+01  0.47790940417E+02  0.10566000000E+00 0. -1.
         22    1    1    0    0    0 -0.34728476316E+01 -0.77807298809E+01 -0.29330948478E+02  0.30543493035E+02  0.00000000000E+00 0.  1.
</event>
<event>
 5    1  0.1264859E-009  0.9118800E+02  0.7815553E-02  0.1125453E+00
         25   -1    0    0    0    0  0.00000000000E+00  0.00000000000E+00  0.99999998245E-14  0.12509000000E+03  0.12509000000E+03 0.  0.
        -13    1    3    3    0    0  0.55649834509E+02 -0.32677602425E+01  0.12907507746E+02  0.57220601693E+02  0.10566000000E+00 0.  1.
         23    2    1    0    0    0  0.25753366452E+02  0.15041694405E+02 -0.17393528314E+01  0.95215030503E+02  0.90406793059E+02 0.  0.
         13    1    3    3    0    0 -0.29896468057E+02  0.18309454647E+02 -0.14646860577E+02  0.37994428809E+02  0.10566000000E+00 0. -1.
         22    1    1    0    0    0 -0.25753366452E+02 -0.15041694405E+02  0.17393528314E+01  0.29874969497E+02  0.00000000000E+00 0.  1.
</event>
<event>
 5    1  0.1264859E-009  0.9118800E+02  0.7815553E-02  0.1125453E+00
         25   -1    0    0    0    0  0.00000000000E+00  0.00000000000E+00  0.99999998245E-14  0.12509000000E+03  0.12509000000E+03 0.  0.
        -13    1    3    3    0    0 -0.34993209347E+01  0.23588804994E+02 -0.42338501344E+02  0.48592559391E+02  0.10566000000E+00 0. -1.
         23    2    1    0    0    0  0.13675824835E+02  0.25973319095E+02  0.14612781737E+01  0.95699919639E+02  0.91075231514E+02 0.  0.
         13    1    3    3    0    0  0.17175145769E+02  0.23845141012E+01  0.43799779518E+02  0.47107360248E+02  0.10566000000E+00 0.  1.
         22    1    1    0    0    0 -0.13675824835E+02 -0.25973319095E+02 -0.14612781737E+01  0.29390080361E+02  0.00000000000E+00 0.  1.
</event>
<event>
 5    1  0.1264859E-009  0.9118800E+02  0.7815553E-02  0.1125453E+00
         25   -1    0    0    0    0  0.00000000000E+00  0.00000000000E+00  0.99999998245E-14  0.12509000000E+03  0.12509000000E+03 0.  0.
        -13    1    3    3    0    0 -0.71438727360E+01 -0.25684570834E+02  0.26122915911E+02  0.37324924599E+02  0.10566000000E+00 0.  1.
         23    2    1    0    0    0 -0.14972841839E+02  0.18106648209E+01 -0.24996917372E+02  0.95895644758E+02  0.91343660457E+02 0.  0.
         13    1    3    3    0    0 -0.78289691034E+01  0.27495235655E+02 -0.51119833284E+02  0.58570720159E+02  0.10566000000E+00 0. -1.
         22    1    1    0    0    0  0.14972841839E+02 -0.18106648209E+01  0.24996917372E+02  0.29194355242E+02  0.00000000000E+00 0. -1.
</event>
<event>
 5    1  0.1264859E-009  0.9118800E+02  0.7815553E-02  0.1125453E+00
         25   -1    0    0    0    0  0.00000000000E+00  0.00000000000E+00  0.99999998245E-14  0.12509000000E+03  0.12509000000E+03 0.  0.
        -13    1    3    3    0    0 -0.12165705602E+02  0.51921607606E+02  0.91942220199E+01  0.54114717146E+02  0.10566000000E+00 0.  1.
         23    2    1    0    0    0  0.15680933993E+02  0.25130883562E+02 -0.45350221039E+01  0.95123027764E+02  0.90279405105E+02 0.  0.
         13    1    3    3    0    0  0.27846639595E+02 -0.26790724044E+02 -0.13729244124E+02  0.41008310618E+02  0.10566000000E+00 0. -1.
         22    1    1    0    0    0 -0.15680933993E+02 -0.25130883562E+02  0.45350221039E+01  0.29966972236E+02  0.00000000000E+00 0. -1.
</event>
<event>
 5    1  0.1264859E-009  0.9118800E+02  0.7815553E-02  0.1125453E+00
         25   -1    0    0    0    0  0.00000000000E+00  0.00000000000E+00  0.99999998245E-14  0.12509000000E+03  0.12509000000E+03 0.  0.
        -13    1    3    3    0    0 -0.11049710106E+02  0.43960773601E+02  0.35918437639E+02  0.57834168408E+02  0.10566000000E+00 0. -1.
         23    2    1    0    0    0 -0.16818767659E+02  0.91440234196E+01  0.22394254954E+02  0.95628384891E+02  0.90976926921E+02 0.  0.
         13    1    3    3    0    0 -0.57690575529E+01 -0.34816750181E+02 -0.13524182685E+02  0.37794216483E+02  0.10566000000E+00 0.  1.
         22    1    1    0    0    0  0.16818767659E+02 -0.91440234196E+01 -0.22394254954E+02  0.29461615109E+02  0.00000000000E+00 0. -1.
</event>
<event>
 5    1  0.1264859E-009  0.9118800E+02  0.7815553E-02  0.1125453E+00
         25   -1    0    0    0    0  0.00000000000E+00  0.00000000000E+00  0.99999998245E-14  0.12509000000E+03  0.12509000000E+03 0.  0.
        -13    1    3    3    0    0 -0.28372386764E+02 -0.47455561993E+01  0.22898853273E+02  0.36767938201E+02  0.10566000000E+00 0. -1.
         23    2    1    0    0    0  0.31122303102E+01 -0.13840065256E+02 -0.25905636017E+02  0.95554676044E+02  0.90875523397E+02 0.  0.
         13    1    3    3    0    0  0.31484617074E+02 -0.90945090563E+01 -0.48804489290E+02  0.58786737842E+02  0.10566000000E+00 0.  1.
         22    1    1    0    0    0 -0.31122303102E+01  0.13840065256E+02  0.25905636017E+02  0.29535323956E+02  0.00000000000E+00 0.  1.
</event>
<event>
 5    1  0.1264859E-009  0.9118800E+02  0.7815553E-02  0.1125453E+00
         25   -1    0    0    0    0  0.00000000000E+00  0.00000000000E+00  0.99999998245E-14  0.12509000000E+03  0.12509000000E+03 0.  0.
        -13    1    3    3    0    0 -0.36442130397E+02  0.13144021905E+02 -0.37131483175E+02  0.53661460906E+02  0.10566000000E+00 0. -1.
         23    2    1    0    0    0 -0.19816330932E+02 -0.17256401335E+02 -0.17964707034E+02  0.93259180697E+02  0.87658848537E+02 0.  0.
         13    1    3    3    0    0  0.16625799466E+02 -0.30400423241E+02  0.19166776140E+02  0.39597719792E+02  0.10566000000E+00 0.  1.
         22    1    1    0    0    0  0.19816330932E+02  0.17256401335E+02  0.17964707034E+02  0.31830819303E+02  0.00000000000E+00 0. -1.
</event>
<event>
 5    1  0.1264859E-009  0.9118800E+02  0.7815553E-02  0.1125453E+00
         25   -1    0    0    0    0  0.00000000000E+00  0.00000000000E+00  0.99999998245E-14  0.12509000000E+03  0.12509000000E+03 0.  0.
        -13    1    3    3    0    0 -0.18018228801E+02  0.37544572552E+02  0.22884124224E+02  0.47517847203E+02  0.10566000000E+00 0.  1.
         23    2    1    0    0    0 -0.76559612772E+01  0.26530833746E+02 -0.18682776100E+02  0.91750158891E+02  0.85478340247E+02 0.  0.
         13    1    3    3    0    0  0.10362267524E+02 -0.11013738806E+02 -0.41566900324E+02  0.44232311688E+02  0.10566000000E+00 0. -1.
         22    1    1    0    0    0  0.76559612772E+01 -0.26530833746E+02  0.18682776100E+02  0.33339841109E+02  0.00000000000E+00 0.  1.
</event>
<event>
 5    1  0.1264859E-009  0.9118800E+02  0.7815553E-02  0.1125453E+00
         25   -1    0    0    0    0  0.00000000000E+00  0.00000000000E+00  0.99999998245E-14  0.12509000000E+03  0.12509000000E+03 0.  0.
        -13    1    3    3    0    0  0.54705178964E+01 -0.38643846514E+02 -0.11783844801E+02  0.40769395406E+02  0.10566000000E+00 0.  1.
         23    2    1    0    0    0  0.24779226730E+02 -0.55537281509E+01  0.21727532093E+02  0.91669353319E+02  0.85360006521E+02 0.  0.
         13    1    3    3    0    0  0.19308708833E+02  0.33090118363E+02  0.33511376894E+02  0.50899957913E+02  0.10566000000E+00 0. -1.
         22    1    1    0    0    0 -0.24779226730E+02  0.55537281509E+01 -0.21727532093E+02  0.33420646681E+02  0.00000000000E+00 0. -1.
</event>
<event>
 5    1  0.1264859E-009  0.9118800E+02  0.7815553E-02  0.1125453E+00
         25   -1    0    0    0    0  0.00000000000E+00  0.00000000000E+00  0.99999998245E-14  0.12509000000E+03  0.12509000000E+03 0.  0.
        -13    1    3    3    0    0 -0.12444496281E+02 -0.44051129517E+01  0.55797877178E+02  0.57338335949E+02  0.10566000000E+00 0. -1.
         23    2    1    0    0    0 -0.13338402519E+02 -0.15946281161E+02  0.15799252304E+02  0.98978446274E+02  0.95472088009E+02 0.  0.
         13    1    3    3    0    0 -0.89390623802E+00 -0.11541168210E+02 -0.39998624874E+02  0.41640110325E+02  0.10566000000E+00 0.  1.
         22    1    1    0    0    0  0.13338402519E+02  0.15946281161E+02 -0.15799252304E+02  0.26111553726E+02  0.00000000000E+00 0. -1.
</event>
<event>
 5    1  0.1264859E-009  0.9118800E+02  0.7815553E-02  0.1125453E+00
         25   -1    0    0    0    0  0.00000000000E+00  0.00000000000E+00  0.99999998245E-14  0.12509000000E+03  0.12509000000E+03 0.  0.
        -13    1    3    3    0    0  0.49998587819E+02  0.33212895329E+01  0.12280518766E+02  0.51591782808E+02  0.10566000000E+00 0. -1.
         23    2    1    0    0    0  0.12772363806E+02  0.35348186624E+01  0.29606204200E+02  0.92653052744E+02  0.86789588290E+02 0.  0.
         13    1    3    3    0    0 -0.37226224014E+02  0.21352912942E+00  0.17325685434E+02  0.41061269936E+02  0.10566000000E+00 0.  1.
         22    1    1    0    0    0 -0.12772363806E+02 -0.35348186624E+01 -0.29606204200E+02  0.32436947256E+02  0.00000000000E+00 0. -1.
</event>
<event>
 5    1  0.1264859E-009  0.9118800E+02  0.7815553E-02  0.1125453E+00
         25   -1    0    0    0    0  0.00000000000E+00  0.00000000000E+00  0.99999998245E-14  0.12509000000E+03  0.12509000000E+03 0.  0.
        -13    1    3    3    0    0 -0.24139054727E+02  0.22315652863E+02 -0.98134085630E+01  0.34307382259E+02  0.10566000000E+00 0. -1.
         23    2    1    0    0    0  0.15919168285E+02 -0.18801464551E+02 -0.20912537877E+02  0.92775154672E+02  0.86965395967E+02 0.  0.
         13    1    3    3    0    0  0.40058223012E+02 -0.41117117414E+02 -0.11099129314E+02  0.58467772413E+02  0.10566000000E+00 0.  1.
         22    1    1    0    0    0 -0.15919168285E+02  0.18801464551E+02  0.20912537877E+02  0.32314845328E+02  0.00000000000E+00 0.  1.
</event>
<event>
 5    1  0.1264859E-009  0.9118800E+02  0.7815553E-02  0.1125453E+00
         25   -1    0    0    0    0  0.00000000000E+00  0.00000000000E+00  0.99999998245E-14  0.12509000000E+03  0.12509000000E+03 0.  0.
        -13    1    3    3    0    0  0.22928098258E+02 -0.24657794842E+02  0.40233296559E+02  0.52463643147E+02  0.10566000000E+00 0.  1.
         23    2    1    0    0    0  0.16408971035E+02  0.12696228244E+02  0.23000678870E+02  0.94114529535E+02  0.88871057713E+02 0.  0.
         13    1    3    3    0    0 -0.65191272233E+01  0.37354023086E+02 -0.17232617689E+02  0.41650886388E+02  0.10566000000E+00 0. -1.
         22    1    1    0    0    0 -0.16408971035E+02 -0.12696228244E+02 -0.23000678870E+02  0.30975470465E+02  0.00000000000E+00 0.  1.
</event>
<event>
 5    1  0.1264859E-009  0.9118800E+02  0.7815553E-02  0.1125453E+00
         25   -1    0    0    0    0  0.00000000000E+00  0.00000000000E+00  0.99999998245E-14  0.12509000000E+03  0.12509000000E+03 0.  0.
        -13    1    3    3    0    0 -0.38864122912E+02 -0.12130785315E+01 -0.47585777955E+02  0.61451680505E+02  0.10566000000E+00 0.  1.
         23    2    1    0    0    0 -0.19140958830E+02 -0.84506276100E+01 -0.19827213119E+02  0.96264528764E+02  0.91847437123E+02 0.  0.
         13    1    3    3    0    0  0.19723164082E+02 -0.72375490785E+01  0.27758564837E+02  0.34812848259E+02  0.10566000000E+00 0. -1.
         22    1    1    0    0    0  0.19140958830E+02  0.84506276100E+01  0.19827213119E+02  0.28825471236E+02  0.00000000000E+00 0.  1.
</event>
<event>
 5    1  0.1264859E-009  0.9118800E+02  0.7815553E-02  0.1125453E+00
         25   -1    0    0    0    0  0.00000000000E+00  0.00000000000E+00  0.99999998245E-14  0.12509000000E+03  0.12509000000E+03 0.  0.
        -13    1    3    3    0    0 -0.85075521401E+01  0.37260891877E+02 -0.33231140237E+02  0.50646543341E+02  0.10566000000E+00 0.  1.
         23    2    1    0    0    0 -0.47829862005E+01  0.58974891371E+00 -0.37072003767E+02  0.87706069975E+02  0.79339753506E+02 0.  0.
         13    1    3    3    0    0  0.37245659396E+01 -0.36671142963E+02 -0.38408635304E+01  0.37059526635E+02  0.10566000000E+00 0. -1.
         22    1    1    0    0    0  0.47829862005E+01 -0.58974891371E+00  0.37072003767E+02  0.37383930025E+02  0.00000000000E+00 0.  1.
</event>
<event>
 5    1  0.1264859E-009  0.9118800E+02  0.7815553E-02  0.1125453E+00
         25   -1    0    0    0    0  0.00000000000E+00  0.00000000000E+00  0.99999998245E-14  0.12509000000E+03  0.12509000000E+03 0.  0.
        -13    1    3    3    0    0 -0.32647698650E+02  0.29728081844E+02 -0.48481025787E+01  0.44420111885E+02  0.10566000000E+00 0. -1.
         23    2    1    0    0    0 -0.10500976697E+02 -0.54755784528E+01  0.26210651212E+02  0.96328033656E+02  0.91933885810E+02 0.  0.
         13    1    3    3    0    0  0.22146721953E+02 -0.35203660296E+02  0.31058753791E+02  0.51907921771E+02  0.10566000000E+00 0.  1.
         22    1    1    0    0    0  0.10500976697E+02  0.54755784528E+01 -0.26210651212E+02  0.28761966344E+02  0.00000000000E+00 0. -1.
</event>
<event>
 5    1  0.1264859E-009  0.9118800E+02  0.7815553E-02  0.1125453E+00
         25   -1    0    0    0    0  0.00000000000E+00  0.00000000000E+00  0.99999998245E-14  0.12509000000E+03  0.12509000000E+03 0.  0.
        -13    1    3    3    0    0 -0.12342396711E+02 -0.83764473504E+00  0.50762884201E+02  0.52248617032E+02  0.10566000000E+00 0. -1.
         23    2    1    0    0    0 -0.10089654733E+00  0.23615533090E+02  0.15627867547E+02  0.96771563827E+02  0.92535408024E+02 0.  0.
         13    1    3    3    0    0  0.12241500164E+02  0.24453177825E+02 -0.35135016654E+02  0.44522946795E+02  0.10566000000E+00 0.  1.
         22    1    1    0    0    0  0.10089654733E+00 -0.23615533090E+02 -0.15627867547E+02  0.28318436173E+02  0.00000000000E+00 0.  1.
</event>
<event>
 5    1  0.1264859E-009  0.9118800E+02  0.7815553E-02  0.1125453E+00
         25   -1    0    0    0    0  0.00000000000E+00  0.00000000000E+00  0.99999998245E-14  0.12509000000E+03  0.12509000000E+03 0.  0.
        -13    1    3    3    0    0  0.73906295552E+01 -0.30713422241E+02 -0.43269414801E+02  0.53574146117E+02  0.10566000000E+00 0.  1.
         23    2    1    0    0    0  0.26008605610E+02 -0.14983282527E+02 -0.13150364555E+02  0.92319915945E+02  0.86308102001E+02 0.  0.
         13    1    3    3    0    0  0.18617976054E+02  0.15730139713E+02  0.30119050246E+02  0.38745769827E+02  0.10566000000E+00 0. -1.
         22    1    1    0    0    0 -0.26008605610E+02  0.14983282527E+02  0.13150364555E+02  0.32770084055E+02  0.00000000000E+00 0. -1.
</event>
<event>
 5    1  0.1264859E-009  0.9118800E+02  0.7815553E-02  0.1125453E+00
         25   -1    0    0    0    0  0.00000000000E+00  0.00000000000E+00  0.99999998245E-14  0.12509000000E+03  0.12509000000E+03 0.  0.
        -13    1    3    3    0    0  0.32314159691E+02 -0.33292411260E+01  0.20023575101E+02  0.38160758468E+02  0.10566000000E+00 0.  1.
         23    2    1    0    0    0  0.12114572530E+00  0.28774563090E+02 -0.12146995025E+02  0.93856369961E+02  0.88506940614E+02 0.  0.
         13    1    3    3    0    0 -0.32193013966E+02  0.32103804216E+02 -0.32170570126E+02  0.55695611493E+02  0.10566000000E+00 0. -1.
         22    1    1    0    0    0 -0.12114572530E+00 -0.28774563090E+02  0.12146995025E+02  0.31233630039E+02  0.00000000000E+00 0. -1.
</event>
<event>
 5    1  0.1264859E-009  0.9118800E+02  0.7815553E-02  0.1125453E+00
         25   -1    0    0    0    0  0.00000000000E+00  0.00000000000E+00  0.99999998245E-14  0.12509000000E+03  0.12509000000E+03 0.  0.
        -13    1    3    3    0    0 -0.38008032396E+02  0.41042477035E+02  0.22096864347E+02  0.60144642536E+02  0.10566000000E+00 0. -1.
         23    2    1    0    0    0 -0.25391110762E+02  0.97934756281E+01  0.12186091054E+02  0.95271859787E+02  0.90485389879E+02 0.  0.
         13    1    3    3    0    0  0.12616921635E+02 -0.31249001407E+02 -0.99107732929E+01  0.35127217251E+02  0.10566000000E+00 0.  1.
         22    1    1    0    0    0  0.25391110762E+02 -0.97934756281E+01 -0.12186091054E+02  0.29818140213E+02  0.00000000000E+00 0. -1.
</event>
<event>
 5    1  0.1264859E-009  0.9118800E+02  0.7815553E-02  0.1125453E+00
         25   -1    0    0    0    0  0.00000000000E+00  0.00000000000E+00  0.99999998245E-14  0.12509000000E+03  0.12509000000E+03 0.  0.
        -13    1    3    3    0    0  0.98190322679E+01  0.12437354827E+02  0.58018724252E+02  0.60143866833E+02  0.10566000000E+00 0.  1.
         23    2    1    0    0    0 -0.72730878517E+01  0.93012681722E+01  0.23744844445E+02  0.98571534089E+02  0.94937444133E+02 0.  0.
         13    1    3    3    0    0 -0.17092120120E+02 -0.31360866544E+01 -0.34273879807E+02  0.38427667256E+02  0.10566000000E+00 0. -1.
         22    1    1    0    0    0  0.72730878517E+01 -0.93012681722E+01 -0.23744844445E+02  0.26518465911E+02  0.00000000000E+00 0.  1.
</event>
<event>
 5    1  0.1264859E-009  0.9118800E+02  0.7815553E-02  0.1125453E+00
         25   -1    0    0    0    0  0.00000000000E+00  0.00000000000E+00  0.99999998245E-14  0.12509000000E+03  0.12509000000E+03 0.  0.
        -13    1    3    3    0    0  0.19806121670E+02  0.58482136468E+01  0.54469446533E+02  0.58253032781E+02  0.10566000000E+00 0. -1.
         23    2    1    0    0    0 -0.60233900180E+01 -0.27300793865E+01  0.28361883882E+02  0.95967310940E+02  0.91441750590E+02 0.  0.
         13    1    3    3    0    0 -0.25829511688E+02 -0.85782930334E+01 -0.26107562652E+02  0.37714278159E+02  0.10566000000E+00 0.  1.
         22    1    1    0    0    0  0.60233900180E+01  0.27300793865E+01 -0.28361883882E+02  0.29122689060E+02  0.00000000000E+00 0. -1.
</event>
<event>
 5    1  0.1264859E-009  0.9118800E+02  0.7815553E-02  0.1125453E+00
         25   -1    0    0    0    0  0.00000000000E+00  0.00000000000E+00  0.99999998245E-14  0.12509000000E+03  0.12509000000E+03 0.  0.
        -13    1    3    3    0    0 -0.21126895882E+01 -0.36830631415E+02  0.29891563075E+02  0.47481318166E+02  0.10566000000E+00 0. -1.
         23    2    1    0    0    0  0.25864488452E+01 -0.22142459747E+02 -0.17135368656E+02  0.96972405860E+02  0.92806510536E+02 0.  0.
         13    1    3    3    0    0  0.46991384334E+01  0.14688171668E+02 -0.47026931731E+02  0.49491087693E+02  0.10566000000E+00 0.  1.
         22    1    1    0    0    0 -0.25864488452E+01  0.22142459747E+02  0.17135368656E+02  0.28117594140E+02  0.00000000000E+00 0. -1.
</event>
<event>
 5    1  0.1264859E-009  0.9118800E+02  0.7815553E-02  0.1125453E+00
         25   -1    0    0    0    0  0.00000000000E+00  0.00000000000E+00  0.99999998245E-14  0.12509000000E+03  0.12509000000E+03 0.  0.
        -13    1    3    3    0    0 -0.56504405837E+02 -0.10972181911E+02 -0.17075386632E+02  0.60039292531E+02  0.10566000000E+00 0. -1.
         23    2    1    0    0    0 -0.19658351347E+02 -0.10411086668E+02 -0.17330939595E+02  0.96890656559E+02  0.92696258597E+02 0.  0.
         13    1    3    3    0    0  0.36846054490E+02  0.56109524349E+00 -0.25555296233E+00  0.36851364028E+02  0.10566000000E+00 0.  1.
         22    1    1    0    0    0  0.19658351347E+02  0.10411086668E+02  0.17330939595E+02  0.28199343441E+02  0.00000000000E+00 0. -1.
</event>
<event>
 5    1  0.1264859E-009  0.9118800E+02  0.7815553E-02  0.1125453E+00
         25   -1    0    0    0    0  0.00000000000E+00  0.00000000000E+00  0.99999998245E-14  0.12509000000E+03  0.12509000000E+03 0.  0.
        -13    1    3    3    0    0 -0.43278213359E+02 -0.16154055494E+02 -0.30690791553E+02  0.55460734854E+02  0.10566000000E+00 0. -1.
         23    2    1    0    0    0 -0.20645597266E+02  0.13835175365E+02 -0.13913403944E+02  0.96607802523E+02  0.92313768936E+02 0.  0.
         13    1    3    3    0    0  0.22632616093E+02  0.29989230858E+02  0.16777387609E+02  0.41147067668E+02  0.10566000000E+00 0.  1.
         22    1    1    0    0    0  0.20645597266E+02 -0.13835175365E+02  0.13913403944E+02  0.28482197477E+02  0.00000000000E+00 0. -1.
</event>
<event>
 5    1  0.1264859E-009  0.9118800E+02  0.7815553E-02  0.1125453E+00
         25   -1    0    0    0    0  0.00000000000E+00  0.00000000000E+00  0.99999998245E-14  0.12509000000E+03  0.12509000000E+03 0.  0.
        -13    1    3    3    0    0  0.24245504947E+02 -0.33169467903E+02 -0.24707801397E+02  0.47943140541E+02  0.10566000000E+00 0. -1.
         23    2    1    0    0    0  0.16063316804E+02  0.12852612227E+02 -0.22301599008E+02  0.94748920485E+02  0.89759550060E+02 0.  0.
         13    1    3    3    0    0 -0.81821881422E+01  0.46022080129E+02  0.24062023886E+01  0.46805779944E+02  0.10566000000E+00 0.  1.
         22    1    1    0    0    0 -0.16063316804E+02 -0.12852612227E+02  0.22301599008E+02  0.30341079515E+02  0.00000000000E+00 0. -1.
</event>
<event>
 5    1  0.1264859E-009  0.9118800E+02  0.7815553E-02  0.1125453E+00
         25   -1    0    0    0    0  0.00000000000E+00  0.00000000000E+00  0.99999998245E-14  0.12509000000E+03  0.12509000000E+03 0.  0.
        -13    1    3    3    0    0 -0.59288099819E+02 -0.50947666221E+01 -0.35115599316E+01  0.59610214261E+02  0.10566000000E+00 0.  1.
         23    2    1    0    0    0 -0.16519594194E+02  0.10811767808E+02 -0.16265399119E+01  0.10527997861E+03  0.10339940497E+03 0.  0.
         13    1    3    3    0    0  0.42768505625E+02  0.15906534430E+02  0.18850200197E+01  0.45669764347E+02  0.10566000000E+00 0. -1.
         22    1    1    0    0    0  0.16519594194E+02 -0.10811767808E+02  0.16265399119E+01  0.19810021392E+02  0.00000000000E+00 0.  1.
</event>
<event>
 5    1  0.1264859E-009  0.9118800E+02  0.7815553E-02  0.1125453E+00
         25   -1    0    0    0    0  0.00000000000E+00  0.00000000000E+00  0.99999998245E-14  0.12509000000E+03  0.12509000000E+03 0.  0.
        -13    1    3    3    0    0 -0.30189913908E+02 -0.22566098547E+02 -0.17756841931E+02  0.41665048960E+02  0.10566000000E+00 0.  1.
         23    2    1    0    0    0  0.22344126714E+02 -0.35988334082E+01 -0.15679783610E+02  0.97556979560E+02  0.93591116278E+02 0.  0.
         13    1    3    3    0    0  0.52534040622E+02  0.18967265139E+02  0.20770583206E+01  0.55891930600E+02  0.10566000000E+00 0. -1.
         22    1    1    0    0    0 -0.22344126714E+02  0.35988334082E+01  0.15679783610E+02  0.27533020440E+02  0.00000000000E+00 0. -1.
</event>
<event>
 5    1  0.1264859E-009  0.9118800E+02  0.7815553E-02  0.1125453E+00
         25   -1    0    0    0    0  0.00000000000E+00  0.00000000000E+00  0.99999998245E-14  0.12509000000E+03  0.12509000000E+03 0.  0.
        -13    1    3    3    0    0 -0.11844095384E+02 -0.97838800340E+01 -0.63505067186E+01  0.16623688026E+02  0.10566000000E+00 0.  1.
         23    2    1    0    0    0  0.23399644080E+02  0.40554339368E+02 -0.34622363555E+01  0.78141252784E+02  0.62464954345E+02 0.  0.
         13    1    3    3    0    0  0.35243739464E+02  0.50338219402E+02  0.28882703631E+01  0.61517564757E+02  0.10566000000E+00 0. -1.
         22    1    1    0    0    0 -0.23399644080E+02 -0.40554339368E+02  0.34622363555E+01  0.46948747216E+02  0.00000000000E+00 0. -1.
</event>
<event>
 5    1  0.1264859E-009  0.9118800E+02  0.7815553E-02  0.1125453E+00
         25   -1    0    0    0    0  0.00000000000E+00  0.00000000000E+00  0.99999998245E-14  0.12509000000E+03  0.12509000000E+03 0.  0.
        -13    1    3    3    0    0  0.47174894269E+02 -0.29825391613E+02  0.26912378643E+02  0.61962181388E+02  0.10566000000E+00 0. -1.
         23    2    1    0    0    0  0.27345811282E+02 -0.12971298554E+02  0.91482582027E+01  0.93471356623E+02  0.87961104473E+02 0.  0.
         13    1    3    3    0    0 -0.19829082987E+02  0.16854093059E+02 -0.17764120441E+02  0.31509175235E+02  0.10566000000E+00 0.  1.
         22    1    1    0    0    0 -0.27345811282E+02  0.12971298554E+02 -0.91482582027E+01  0.31618643377E+02  0.00000000000E+00 0. -1.
</event>
<event>
 5    1  0.1264859E-009  0.9118800E+02  0.7815553E-02  0.1125453E+00
         25   -1    0    0    0    0  0.00000000000E+00  0.00000000000E+00  0.99999998245E-14  0.12509000000E+03  0.12509000000E+03 0.  0.
        -13    1    3    3    0    0 -0.12633013907E+02 -0.23858970320E+02 -0.37438424288E+02  0.46157234344E+02  0.10566000000E+00 0.  1.
         23    2    1    0    0    0 -0.20994686963E+02  0.69016431496E+01  0.79347490177E+01  0.10160873511E+03  0.98858308958E+02 0.  0.
         13    1    3    3    0    0 -0.83616730562E+01  0.30760613470E+02  0.45373173306E+02  0.55451500766E+02  0.10566000000E+00 0. -1.
         22    1    1    0    0    0  0.20994686963E+02 -0.69016431496E+01 -0.79347490177E+01  0.23481264889E+02  0.00000000000E+00 0.  1.
</event>
<event>
 5    1  0.1264859E-009  0.9118800E+02  0.7815553E-02  0.1125453E+00
         25   -1    0    0    0    0  0.00000000000E+00  0.00000000000E+00  0.99999998245E-14  0.12509000000E+03  0.12509000000E+03 0.  0.
        -13    1    3    3    0    0 -0.33563600889E+02  0.25334697934E+02  0.14077301091E+02  0.44345730280E+02  0.10566000000E+00 0.  1.
         23    2    1    0    0    0  0.53560072720E+01 -0.62809452700E+01  0.27601766525E+02  0.96280373091E+02  0.91869013491E+02 0.  0.
         13    1    3    3    0    0  0.38919608161E+02 -0.31615643204E+02  0.13524465433E+02  0.51934642811E+02  0.10566000000E+00 0. -1.
         22    1    1    0    0    0 -0.53560072720E+01  0.62809452700E+01 -0.27601766525E+02  0.28809626909E+02  0.00000000000E+00 0.  1.
</event>
<event>
 5    1  0.1264859E-009  0.9118800E+02  0.7815553E-02  0.1125453E+00
         25   -1    0    0    0    0  0.00000000000E+00  0.00000000000E+00  0.99999998245E-14  0.12509000000E+03  0.12509000000E+03 0.  0.
        -13    1    3    3    0    0  0.31633524436E+02 -0.50922375792E+01 -0.16089806130E+02  0.35853922758E+02  0.10566000000E+00 0.  1.
         23    2    1    0    0    0 -0.12425001574E+02 -0.45914425494E+01  0.25443459653E+02  0.96404957767E+02  0.92038493219E+02 0.  0.
         13    1    3    3    0    0 -0.44058526010E+02  0.50079502981E+00  0.41533265784E+02  0.60551035008E+02  0.10566000000E+00 0. -1.
         22    1    1    0    0    0  0.12425001574E+02  0.45914425494E+01 -0.25443459653E+02  0.28685042233E+02  0.00000000000E+00 0. -1.
</event>
<event>
 5    1  0.1264859E-009  0.9118800E+02  0.7815553E-02  0.1125453E+00
         25   -1    0    0    0    0  0.00000000000E+00  0.00000000000E+00  0.99999998245E-14  0.12509000000E+03  0.12509000000E+03 0.  0.
        -13    1    3    3    0    0 -0.78357467650E+01 -0.38268545692E+02 -0.73905576443E+01  0.39755653977E+02  0.10566000000E+00 0.  1.
         23    2    1    0    0    0 -0.21633463061E+02  0.17040377476E+02 -0.66282762135E+01  0.96764830378E+02  0.92526305255E+02 0.  0.
         13    1    3    3    0    0 -0.13797716296E+02  0.55308923168E+02  0.76228143084E+00  0.57009176402E+02  0.10566000000E+00 0. -1.
         22    1    1    0    0    0  0.21633463061E+02 -0.17040377476E+02  0.66282762135E+01  0.28325169622E+02  0.00000000000E+00 0. -1.
</event>
<event>
 5    1  0.1264859E-009  0.9118800E+02  0.7815553E-02  0.1125453E+00
         25   -1    0    0    0    0  0.00000000000E+00  0.00000000000E+00  0.99999998245E-14  0.12509000000E+03  0.12509000000E+03 0.  0.
        -13    1    3    3    0    0  0.26677020689E+02  0.69989780438E+01 -0.20081497918E+02  0.34116372157E+02  0.10566000000E+00 0.  1.
         23    2    1    0    0    0 -0.14405699754E+02  0.59883367620E+01  0.25316920161E+02  0.95352299870E+02  0.90596524666E+02 0.  0.
         13    1    3    3    0    0 -0.41082720443E+02 -0.10106412819E+01  0.45398418079E+02  0.61235927713E+02  0.10566000000E+00 0. -1.
         22    1    1    0    0    0  0.14405699754E+02 -0.59883367620E+01 -0.25316920161E+02  0.29737700130E+02  0.00000000000E+00 0. -1.
</event>
<event>
 5    1  0.1264859E-009  0.9118800E+02  0.7815553E-02  0.1125453E+00
         25   -1    0    0    0    0  0.00000000000E+00  0.00000000000E+00  0.99999998245E-14  0.12509000000E+03  0.12509000000E+03 0.  0.
        -13    1    3    3    0    0  0.23467479864E-02 -0.53340861347E+02  0.30191900618E+02  0.61292817864E+02  0.10566000000E+00 0. -1.
         23    2    1    0    0    0 -0.83268627134E+01 -0.23431097715E+02  0.16638830858E+02  0.95170045536E+02  0.90344528845E+02 0.  0.
         13    1    3    3    0    0 -0.83292094614E+01  0.29909763632E+02 -0.13553069760E+02  0.33877227672E+02  0.10566000000E+00 0.  1.
         22    1    1    0    0    0  0.83268627134E+01  0.23431097715E+02 -0.16638830858E+02  0.29919954464E+02  0.00000000000E+00 0. -1.
</event>
<event>
 5    1  0.1264859E-009  0.9118800E+02  0.7815553E-02  0.1125453E+00
         25   -1    0    0    0    0  0.00000000000E+00  0.00000000000E+00  0.99999998245E-14  0.12509000000E+03  0.12509000000E+03 0.  0.
        -13    1    3    3    0    0 -0.13251342434E+02 -0.31922568284E+02  0.47393659858E+02  0.58658491295E+02  0.10566000000E+00 0.  1.
         23    2    1    0    0    0 -0.13849957131E+02 -0.22345296681E+02  0.10497554738E+02  0.96782187443E+02  0.92549767987E+02 0.  0.
         13    1    3    3    0    0 -0.59861469695E+00  0.95772716034E+01 -0.36896105120E+02  0.38123696148E+02  0.10566000000E+00 0. -1.
         22    1    1    0    0    0  0.13849957131E+02  0.22345296681E+02 -0.10497554738E+02  0.28307812557E+02  0.00000000000E+00 0.  1.
</event>
<event>
 5    1  0.1264859E-009  0.9118800E+02  0.7815553E-02  0.1125453E+00
         25   -1    0    0    0    0  0.00000000000E+00  0.00000000000E+00  0.99999998245E-14  0.12509000000E+03  0.12509000000E+03 0.  0.
        -13    1    3    3    0    0  0.58693576089E+01 -0.24924576782E+02  0.28787416060E+02  0.38528046589E+02  0.10566000000E+00 0.  1.
         23    2    1    0    0    0 -0.24117435959E+02  0.79595068648E+01 -0.10226549255E+02  0.97711417560E+02  0.93797304573E+02 0.  0.
         13    1    3    3    0    0 -0.29986793568E+02  0.32884083647E+02 -0.39013965315E+02  0.59183370971E+02  0.10566000000E+00 0. -1.
         22    1    1    0    0    0  0.24117435959E+02 -0.79595068648E+01  0.10226549255E+02  0.27378582440E+02  0.00000000000E+00 0. -1.
</event>
<event>
 5    1  0.1264859E-009  0.9118800E+02  0.7815553E-02  0.1125453E+00
         25   -1    0    0    0    0  0.00000000000E+00  0.00000000000E+00  0.99999998245E-14  0.12509000000E+03  0.12509000000E+03 0.  0.
        -13    1    3    3    0    0  0.93848291518E+01  0.42360940249E+02 -0.34521834465E+02  0.55446302815E+02  0.10566000000E+00 0.  1.
         23    2    1    0    0    0  0.16245169692E+02  0.31315530600E+01 -0.22723006060E+02  0.96982222299E+02  0.92819740760E+02 0.  0.
         13    1    3    3    0    0  0.68603405404E+01 -0.39229387189E+02  0.11798828405E+02  0.41535919484E+02  0.10566000000E+00 0. -1.
         22    1    1    0    0    0 -0.16245169692E+02 -0.31315530600E+01  0.22723006060E+02  0.28107777701E+02  0.00000000000E+00 0.  1.
</event>
<event>
 5    1  0.1264859E-009  0.9118800E+02  0.7815553E-02  0.1125453E+00
         25   -1    0    0    0    0  0.00000000000E+00  0.00000000000E+00  0.99999998245E-14  0.12509000000E+03  0.12509000000E+03 0.  0.
        -13    1    3    3    0    0  0.33149087359E+02  0.13410294139E+01 -0.80158728512E+01  0.34131008398E+02  0.10566000000E+00 0. -1.
         23    2    1    0    0    0 -0.21118395989E+02 -0.25559393420E+01  0.20490523956E+02  0.95553902643E+02  0.90874458806E+02 0.  0.
         13    1    3    3    0    0 -0.54267483349E+02 -0.38969687559E+01  0.28506396808E+02  0.61422894245E+02  0.10566000000E+00 0.  1.
         22    1    1    0    0    0  0.21118395989E+02  0.25559393420E+01 -0.20490523956E+02  0.29536097357E+02  0.00000000000E+00 0.  1.
</event>
<event>
 5    1  0.1264859E-009  0.9118800E+02  0.7815553E-02  0.1125453E+00
         25   -1    0    0    0    0  0.00000000000E+00  0.00000000000E+00  0.99999998245E-14  0.12509000000E+03  0.12509000000E+03 0.  0.
        -13    1    3    3    0    0  0.11384588357E+02 -0.60319440069E+02 -0.40786728024E+01  0.61519837761E+02  0.10566000000E+00 0.  1.
         23    2    1    0    0    0 -0.24550173978E+01 -0.28924403882E+02 -0.87457662478E-01  0.96061464053E+02  0.91570459084E+02 0.  0.
         13    1    3    3    0    0 -0.13839605755E+02  0.31395036187E+02  0.39912151399E+01  0.34541626292E+02  0.10566000000E+00 0. -1.
         22    1    1    0    0    0  0.24550173978E+01  0.28924403882E+02  0.87457662478E-01  0.29028535947E+02  0.00000000000E+00 0.  1.
</event>
<event>
 5    1  0.1264859E-009  0.9118800E+02  0.7815553E-02  0.1125453E+00
         25   -1    0    0    0    0  0.00000000000E+00  0.00000000000E+00  0.99999998245E-14  0.12509000000E+03  0.12509000000E+03 0.  0.
        -13    1    3    3    0    0  0.37055370085E+02 -0.19098743556E+02  0.23988113798E+01  0.41756770919E+02  0.10566000000E+00 0. -1.
         23    2    1    0    0    0 -0.95999114319E+01 -0.13518911324E+02  0.25933511266E+02  0.94309059965E+02  0.89144447511E+02 0.  0.
         13    1    3    3    0    0 -0.46655281517E+02  0.55798322318E+01  0.23534699886E+02  0.52552289045E+02  0.10566000000E+00 0.  1.
         22    1    1    0    0    0  0.95999114319E+01  0.13518911324E+02 -0.25933511266E+02  0.30780940035E+02  0.00000000000E+00 0.  1.
</event>
<event>
 5    1  0.1264859E-009  0.9118800E+02  0.7815553E-02  0.1125453E+00
         25   -1    0    0    0    0  0.00000000000E+00  0.00000000000E+00  0.99999998245E-14  0.12509000000E+03  0.12509000000E+03 0.  0.
        -13    1    3    3    0    0  0.96735103818E+01 -0.47547322383E+01  0.49234950158E+02  0.50401148428E+02  0.10566000000E+00 0.  1.
         23    2    1    0    0    0 -0.18184924815E+02  0.13597532576E+02  0.17804258126E+02  0.96235607092E+02  0.91808039311E+02 0.  0.
         13    1    3    3    0    0 -0.27858435197E+02  0.18352264815E+02 -0.31430692031E+02  0.45834458664E+02  0.10566000000E+00 0. -1.
         22    1    1    0    0    0  0.18184924815E+02 -0.13597532576E+02 -0.17804258126E+02  0.28854392908E+02  0.00000000000E+00 0.  1.
</event>
<event>
 5    1  0.1264859E-009  0.9118800E+02  0.7815553E-02  0.1125453E+00
         25   -1    0    0    0    0  0.00000000000E+00  0.00000000000E+00  0.99999998245E-14  0.12509000000E+03  0.12509000000E+03 0.  0.
        -13    1    3    3    0    0 -0.28188816803E+02 -0.27900460510E+02 -0.45221476666E+02  0.60150130551E+02  0.10566000000E+00 0. -1.
         23    2    1    0    0    0 -0.23332359981E+02 -0.12715974217E+02 -0.14361447601E+02  0.94884930893E+02  0.89948896107E+02 0.  0.
         13    1    3    3    0    0  0.48564568223E+01  0.15184486293E+02  0.30860029065E+02  0.34734800342E+02  0.10566000000E+00 0.  1.
         22    1    1    0    0    0  0.23332359981E+02  0.12715974217E+02  0.14361447601E+02  0.30205069107E+02  0.00000000000E+00 0. -1.
</event>
<event>
 5    1  0.1264859E-009  0.9118800E+02  0.7815553E-02  0.1125453E+00
         25   -1    0    0    0    0  0.00000000000E+00  0.00000000000E+00  0.99999998245E-14  0.12509000000E+03  0.12509000000E+03 0.  0.
        -13    1    3    3    0    0 -0.23645096582E+02 -0.33573880028E+02 -0.85642162971E+01  0.41948217809E+02  0.10566000000E+00 0.  1.
         23    2    1    0    0    0 -0.14531961502E+02  0.90961307537E+01  0.23432650838E+02  0.96055423628E+02  0.91562207178E+02 0.  0.
         13    1    3    3    0    0  0.91131350800E+01  0.42670010781E+02  0.31996867136E+02  0.54107205819E+02  0.10566000000E+00 0. -1.
         22    1    1    0    0    0  0.14531961502E+02 -0.90961307537E+01 -0.23432650838E+02  0.29034576372E+02  0.00000000000E+00 0. -1.
</event>
<event>
 5    1  0.1264859E-009  0.9118800E+02  0.7815553E-02  0.1125453E+00
         25   -1    0    0    0    0  0.00000000000E+00  0.00000000000E+00  0.99999998245E-14  0.12509000000E+03  0.12509000000E+03 0.  0.
        -13    1    3    3    0    0  0.44341636491E+02 -0.28063033993E+02  0.87919172868E+01  0.53207363938E+02  0.10566000000E+00 0.  1.
         23    2    1    0    0    0  0.73176050708E+01 -0.26499641902E+02  0.19032258170E+02  0.91653415008E+02  0.85336646681E+02 0.  0.
         13    1    3    3    0    0 -0.37024031420E+02  0.15633920916E+01  0.10240340883E+02  0.38446051070E+02  0.10566000000E+00 0. -1.
         22    1    1    0    0    0 -0.73176050708E+01  0.26499641902E+02 -0.19032258170E+02  0.33436584992E+02  0.00000000000E+00 0. -1.
</event>
<event>
 5    1  0.1264859E-009  0.9118800E+02  0.7815553E-02  0.1125453E+00
         25   -1    0    0    0    0  0.00000000000E+00  0.00000000000E+00  0.99999998245E-14  0.12509000000E+03  0.12509000000E+03 0.  0.
        -13    1    3    3    0    0  0.54963303173E+01 -0.16267644879E+02  0.36295000536E+02  0.40152012961E+02  0.10566000000E+00 0.  1.
         23    2    1    0    0    0 -0.22435787829E+02  0.10709874007E+02 -0.79190592271E+01  0.98998287220E+02  0.95498080592E+02 0.  0.
         13    1    3    3    0    0 -0.27932118146E+02  0.26977518886E+02 -0.44214059763E+02  0.58846274259E+02  0.10566000000E+00 0. -1.
         22    1    1    0    0    0  0.22435787829E+02 -0.10709874007E+02  0.79190592271E+01  0.26091712780E+02  0.00000000000E+00 0. -1.
</event>
<event>
 5    1  0.1264859E-009  0.9118800E+02  0.7815553E-02  0.1125453E+00
         25   -1    0    0    0    0  0.00000000000E+00  0.00000000000E+00  0.99999998245E-14  0.12509000000E+03  0.12509000000E+03 0.  0.
        -13    1    3    3    0    0 -0.12120722403E+02 -0.30177796233E+02  0.15591741708E+02  0.36065563500E+02  0.10566000000E+00 0.  1.
         23    2    1    0    0    0  0.13581975123E+01  0.10467542215E+02 -0.26778353974E+02  0.96306421660E+02  0.91904474705E+02 0.  0.
         13    1    3    3    0    0  0.13478919915E+02  0.40645338448E+02 -0.42370095683E+02  0.60240858160E+02  0.10566000000E+00 0. -1.
         22    1    1    0    0    0 -0.13581975123E+01 -0.10467542215E+02  0.26778353974E+02  0.28783578340E+02  0.00000000000E+00 0.  1.
</event>
<event>
 5    1  0.1264859E-009  0.9118800E+02  0.7815553E-02  0.1125453E+00
         25   -1    0    0    0    0  0.00000000000E+00  0.00000000000E+00  0.99999998245E-14  0.12509000000E+03  0.12509000000E+03 0.  0.
        -13    1    3    3    0    0 -0.36999962189E+02 -0.32101646387E+02  0.30833658007E+02  0.57881245087E+02  0.10566000000E+00 0. -1.
         23    2    1    0    0    0 -0.27472609745E+02 -0.15277101784E+02  0.74526717608E+00  0.93646565895E+02  0.88209918692E+02 0.  0.
         13    1    3    3    0    0  0.95273524434E+01  0.16824544603E+02 -0.30088390831E+02  0.35765320808E+02  0.10566000000E+00 0.  1.
         22    1    1    0    0    0  0.27472609745E+02  0.15277101784E+02 -0.74526717608E+00  0.31443434105E+02  0.00000000000E+00 0. -1.
</event>
<event>
 5    1  0.1264859E-009  0.9118800E+02  0.7815553E-02  0.1125453E+00
         25   -1    0    0    0    0  0.00000000000E+00  0.00000000000E+00  0.99999998245E-14  0.12509000000E+03  0.12509000000E+03 0.  0.
        -13    1    3    3    0    0 -0.25766639601E+02  0.18144129290E+02 -0.13733010798E+02  0.34376385698E+02  0.10566000000E+00 0. -1.
         23    2    1    0    0    0  0.21158393916E+02 -0.40713491075E+01  0.19508011494E+02  0.96024280861E+02  0.91519650817E+02 0.  0.
         13    1    3    3    0    0  0.46925033517E+02 -0.22215478398E+02  0.33241022292E+02  0.61647895163E+02  0.10566000000E+00 0.  1.
         22    1    1    0    0    0 -0.21158393916E+02  0.40713491075E+01 -0.19508011494E+02  0.29065719139E+02  0.00000000000E+00 0.  1.
</event>
<event>
 5    1  0.1264859E-009  0.9118800E+02  0.7815553E-02  0.1125453E+00
         25   -1    0    0    0    0  0.00000000000E+00  0.00000000000E+00  0.99999998245E-14  0.12509000000E+03  0.12509000000E+03 0.  0.
        -13    1    3    3    0    0 -0.14864191997E+02 -0.27196073902E+02 -0.48171885855E+02  0.57280995018E+02  0.10566000000E+00 0.  1.
         23    2    1    0    0    0  0.83672797256E+01 -0.47623641655E+01 -0.28292524922E+02  0.95204243378E+02  0.90391866383E+02 0.  0.
         13    1    3    3    0    0  0.23231471722E+02  0.22433709737E+02  0.19879360934E+02  0.37923248359E+02  0.10566000000E+00 0. -1.
         22    1    1    0    0    0 -0.83672797256E+01  0.47623641655E+01  0.28292524922E+02  0.29885756622E+02  0.00000000000E+00 0.  1.
</event>
<event>
 5    1  0.1264859E-009  0.9118800E+02  0.7815553E-02  0.1125453E+00
         25   -1    0    0    0    0  0.00000000000E+00  0.00000000000E+00  0.99999998245E-14  0.12509000000E+03  0.12509000000E+03 0.  0.
        -13    1    3    3    0    0 -0.31665348588E+02 -0.20099024241E+02  0.27269866560E+01  0.37604689825E+02  0.10566000000E+00 0.  1.
         23    2    1    0    0    0  0.22511545560E+02  0.54937116209E+01 -0.11548439958E+02  0.99199518808E+02  0.95761304896E+02 0.  0.
         13    1    3    3    0    0  0.54176894148E+02  0.25592735862E+02 -0.14275426614E+02  0.61594828983E+02  0.10566000000E+00 0. -1.
         22    1    1    0    0    0 -0.22511545560E+02 -0.54937116209E+01  0.11548439958E+02  0.25890481192E+02  0.00000000000E+00 0. -1.
</event>
<event>
 5    1  0.1264859E-009  0.9118800E+02  0.7815553E-02  0.1125453E+00
         25   -1    0    0    0    0  0.00000000000E+00  0.00000000000E+00  0.99999998245E-14  0.12509000000E+03  0.12509000000E+03 0.  0.
        -13    1    3    3    0    0  0.13133192622E+02  0.28910189750E+02  0.18261132091E+02  0.36630041347E+02  0.10566000000E+00 0.  1.
         23    2    1    0    0    0  0.11384087488E+02 -0.20040981955E+02 -0.16543550436E+02  0.96718756343E+02  0.92463994948E+02 0.  0.
         13    1    3    3    0    0 -0.17491051343E+01 -0.48951171704E+02 -0.34804682527E+02  0.60088714996E+02  0.10566000000E+00 0. -1.
         22    1    1    0    0    0 -0.11384087488E+02  0.20040981955E+02  0.16543550436E+02  0.28371243657E+02  0.00000000000E+00 0. -1.
</event>
<event>
 5    1  0.1264859E-009  0.9118800E+02  0.7815553E-02  0.1125453E+00
         25   -1    0    0    0    0  0.00000000000E+00  0.00000000000E+00  0.99999998245E-14  0.12509000000E+03  0.12509000000E+03 0.  0.
        -13    1    3    3    0    0 -0.26980894645E+02  0.23996158280E+02 -0.42324218004E+02  0.55633936421E+02  0.10566000000E+00 0. -1.
         23    2    1    0    0    0 -0.34011228419E+01  0.27133805562E+02 -0.95640116884E+01  0.96119646871E+02  0.91649905369E+02 0.  0.
         13    1    3    3    0    0  0.23579771803E+02  0.31376472816E+01  0.32760206316E+02  0.40485710450E+02  0.10566000000E+00 0.  1.
         22    1    1    0    0    0  0.34011228419E+01 -0.27133805562E+02  0.95640116884E+01  0.28970353129E+02  0.00000000000E+00 0. -1.
</event>
<event>
 5    1  0.1264859E-009  0.9118800E+02  0.7815553E-02  0.1125453E+00
         25   -1    0    0    0    0  0.00000000000E+00  0.00000000000E+00  0.99999998245E-14  0.12509000000E+03  0.12509000000E+03 0.  0.
        -13    1    3    3    0    0 -0.36759662049E+01  0.35035375188E+02 -0.23320472938E+02  0.42247436185E+02  0.10566000000E+00 0. -1.
         23    2    1    0    0    0 -0.23234966319E+02 -0.10737153796E+02  0.42413100498E+01  0.99145080605E+02  0.95690167550E+02 0.  0.
         13    1    3    3    0    0 -0.19559000114E+02 -0.45772528984E+02  0.27561782988E+02  0.56897644420E+02  0.10566000000E+00 0.  1.
         22    1    1    0    0    0  0.23234966319E+02  0.10737153796E+02 -0.42413100498E+01  0.25944919395E+02  0.00000000000E+00 0.  1.
</event>
<event>
 5    1  0.1264859E-009  0.9118800E+02  0.7815553E-02  0.1125453E+00
         25   -1    0    0    0    0  0.00000000000E+00  0.00000000000E+00  0.99999998245E-14  0.12509000000E+03  0.12509000000E+03 0.  0.
        -13    1    3    3    0    0 -0.25634370811E+02 -0.33473454923E+02  0.43389019783E+02  0.60499680603E+02  0.10566000000E+00 0.  1.
         23    2    1    0    0    0 -0.64769919560E+01 -0.23893667881E+02  0.14713988029E+02  0.96291384872E+02  0.91884006047E+02 0.  0.
         13    1    3    3    0    0  0.19157378854E+02  0.95797870420E+01 -0.28675031754E+02  0.35791704269E+02  0.10566000000E+00 0. -1.
         22    1    1    0    0    0  0.64769919560E+01  0.23893667881E+02 -0.14713988029E+02  0.28798615128E+02  0.00000000000E+00 0.  1.
</event>
<event>
 5    1  0.1264859E-009  0.9118800E+02  0.7815553E-02  0.1125453E+00
         25   -1    0    0    0    0  0.00000000000E+00  0.00000000000E+00  0.99999998245E-14  0.12509000000E+03  0.12509000000E+03 0.  0.
        -13    1    3    3    0    0 -0.14164270884E+02 -0.25655577750E+02  0.26250663185E+02  0.39343915934E+02  0.10566000000E+00 0. -1.
         23    2    1    0    0    0  0.10108743463E+01  0.26849448124E+02  0.10721039242E+02  0.96161546637E+02  0.91707075178E+02 0.  0.
         13    1    3    3    0    0  0.15175145230E+02  0.52505025875E+02 -0.15529623943E+02  0.56817630703E+02  0.10566000000E+00 0.  1.
         22    1    1    0    0    0 -0.10108743463E+01 -0.26849448124E+02 -0.10721039242E+02  0.28928453363E+02  0.00000000000E+00 0.  1.
</event>
<event>
 5    1  0.1264859E-009  0.9118800E+02  0.7815553E-02  0.1125453E+00
         25   -1    0    0    0    0  0.00000000000E+00  0.00000000000E+00  0.99999998245E-14  0.12509000000E+03  0.12509000000E+03 0.  0.
        -13    1    3    3    0    0  0.29431003806E+02 -0.96113071768E+01 -0.39274790555E+02  0.50010814309E+02  0.10566000000E+00 0. -1.
         23    2    1    0    0    0  0.27007519243E+02 -0.12895752788E+02  0.52347844964E+01  0.94707282801E+02  0.89701504509E+02 0.  0.
         13    1    3    3    0    0 -0.24234845625E+01 -0.32844456113E+01  0.44509575052E+02  0.44696468492E+02  0.10566000000E+00 0.  1.
         22    1    1    0    0    0 -0.27007519243E+02  0.12895752788E+02 -0.52347844964E+01  0.30382717199E+02  0.00000000000E+00 0. -1.
</event>
<event>
 5    1  0.1264859E-009  0.9118800E+02  0.7815553E-02  0.1125453E+00
         25   -1    0    0    0    0  0.00000000000E+00  0.00000000000E+00  0.99999998245E-14  0.12509000000E+03  0.12509000000E+03 0.  0.
        -13    1    3    3    0    0  0.40354250283E+02  0.24755932034E+02 -0.31693931362E+00  0.47343777852E+02  0.10566000000E+00 0.  1.
         23    2    1    0    0    0  0.11191007189E+02 -0.21780284484E+01 -0.27408286938E+02  0.95405043495E+02  0.90669320509E+02 0.  0.
         13    1    3    3    0    0 -0.29163243095E+02 -0.26933960482E+02 -0.27091347624E+02  0.48061265643E+02  0.10566000000E+00 0. -1.
         22    1    1    0    0    0 -0.11191007189E+02  0.21780284484E+01  0.27408286938E+02  0.29684956505E+02  0.00000000000E+00 0. -1.
</event>
<event>
 5    1  0.1264859E-009  0.9118800E+02  0.7815553E-02  0.1125453E+00
         25   -1    0    0    0    0  0.00000000000E+00  0.00000000000E+00  0.99999998245E-14  0.12509000000E+03  0.12509000000E+03 0.  0.
        -13    1    3    3    0    0  0.20754705884E+02 -0.53418334751E+02 -0.18809560612E+02  0.60316556917E+02  0.10566000000E+00 0. -1.
         23    2    1    0    0    0 -0.11220515338E+01 -0.17268574211E+02 -0.13975762098E+02  0.10284624624E+03  0.10041198029E+03 0.  0.
         13    1    3    3    0    0 -0.21876757418E+02  0.36149760540E+02  0.48337985134E+01  0.42529689328E+02  0.10566000000E+00 0.  1.
         22    1    1    0    0    0  0.11220515338E+01  0.17268574211E+02  0.13975762098E+02  0.22243753756E+02  0.00000000000E+00 0. -1.
</event>
<event>
 5    1  0.1264859E-009  0.9118800E+02  0.7815553E-02  0.1125453E+00
         25   -1    0    0    0    0  0.00000000000E+00  0.00000000000E+00  0.99999998245E-14  0.12509000000E+03  0.12509000000E+03 0.  0.
        -13    1    3    3    0    0 -0.31054678679E+02  0.16763682713E+02 -0.25283776826E+02  0.43413070159E+02  0.10566000000E+00 0.  1.
         23    2    1    0    0    0  0.53950252318E+01  0.26064701721E+02  0.11562433085E+02  0.96069923641E+02  0.91582014590E+02 0.  0.
         13    1    3    3    0    0  0.36449703911E+02  0.93010190078E+01  0.36846209911E+02  0.52656853482E+02  0.10566000000E+00 0. -1.
         22    1    1    0    0    0 -0.53950252318E+01 -0.26064701721E+02 -0.11562433085E+02  0.29020076359E+02  0.00000000000E+00 0. -1.
</event>
<event>
 5    1  0.1264859E-009  0.9118800E+02  0.7815553E-02  0.1125453E+00
         25   -1    0    0    0    0  0.00000000000E+00  0.00000000000E+00  0.99999998245E-14  0.12509000000E+03  0.12509000000E+03 0.  0.
        -13    1    3    3    0    0 -0.41524813204E+02  0.19231434706E+02  0.94629662948E+01  0.46730258801E+02  0.10566000000E+00 0.  1.
         23    2    1    0    0    0 -0.72870219618E+01  0.13657073639E+02 -0.25036940957E+02  0.95654226493E+02  0.91012451259E+02 0.  0.
         13    1    3    3    0    0  0.34237791242E+02 -0.55743610664E+01 -0.34499907251E+02  0.48923967693E+02  0.10566000000E+00 0. -1.
         22    1    1    0    0    0  0.72870219618E+01 -0.13657073639E+02  0.25036940957E+02  0.29435773507E+02  0.00000000000E+00 0.  1.
</event>
<event>
 5    1  0.1264859E-009  0.9118800E+02  0.7815553E-02  0.1125453E+00
         25   -1    0    0    0    0  0.00000000000E+00  0.00000000000E+00  0.99999998245E-14  0.12509000000E+03  0.12509000000E+03 0.  0.
        -13    1    3    3    0    0 -0.17529667353E+02  0.19536355678E+02 -0.33237865793E+02  0.42352394468E+02  0.10566000000E+00 0.  1.
         23    2    1    0    0    0 -0.16331993689E+02 -0.24521164487E+02 -0.37291108778E+01  0.95392730873E+02  0.90652332070E+02 0.  0.
         13    1    3    3    0    0  0.11976736635E+01 -0.44057520165E+02  0.29508754915E+02  0.53040336405E+02  0.10566000000E+00 0. -1.
         22    1    1    0    0    0  0.16331993689E+02  0.24521164487E+02  0.37291108778E+01  0.29697269127E+02  0.00000000000E+00 0.  1.
</event>
<event>
 5    1  0.1264859E-009  0.9118800E+02  0.7815553E-02  0.1125453E+00
         25   -1    0    0    0    0  0.00000000000E+00  0.00000000000E+00  0.99999998245E-14  0.12509000000E+03  0.12509000000E+03 0.  0.
        -13    1    3    3    0    0 -0.14535686860E+02  0.18157907046E+02 -0.24107990183E+02  0.33499285596E+02  0.10566000000E+00 0.  1.
         23    2    1    0    0    0 -0.20779948160E+01 -0.20161758180E+02  0.22297437857E+02  0.94957122767E+02  0.90049235831E+02 0.  0.
         13    1    3    3    0    0  0.12457692043E+02 -0.38319665226E+02  0.46405428040E+02  0.61457837171E+02  0.10566000000E+00 0. -1.
         22    1    1    0    0    0  0.20779948160E+01  0.20161758180E+02 -0.22297437857E+02  0.30132877233E+02  0.00000000000E+00 0. -1.
</event>
<event>
 5    1  0.1264859E-009  0.9118800E+02  0.7815553E-02  0.1125453E+00
         25   -1    0    0    0    0  0.00000000000E+00  0.00000000000E+00  0.99999998245E-14  0.12509000000E+03  0.12509000000E+03 0.  0.
        -13    1    3    3    0    0  0.23692438493E+01 -0.78275061681E+01 -0.48326372052E+02  0.49013595757E+02  0.10566000000E+00 0.  1.
         23    2    1    0    0    0 -0.26471526486E+02 -0.42055779639E+01 -0.11515078315E+02  0.95917656435E+02  0.91373799236E+02 0.  0.
         13    1    3    3    0    0 -0.28840770335E+02  0.36219282041E+01  0.36811293738E+02  0.46904060678E+02  0.10566000000E+00 0. -1.
         22    1    1    0    0    0  0.26471526486E+02  0.42055779639E+01  0.11515078315E+02  0.29172343565E+02  0.00000000000E+00 0.  1.
</event>
<event>
 5    1  0.1264859E-009  0.9118800E+02  0.7815553E-02  0.1125453E+00
         25   -1    0    0    0    0  0.00000000000E+00  0.00000000000E+00  0.99999998245E-14  0.12509000000E+03  0.12509000000E+03 0.  0.
        -13    1    3    3    0    0 -0.38098241368E+02  0.46868314089E+02 -0.15709825085E+02  0.62409331267E+02  0.10566000000E+00 0. -1.
         23    2    1    0    0    0 -0.15194799140E+02  0.21825565364E+02 -0.47268882636E+01  0.98079248492E+02  0.94286575332E+02 0.  0.
         13    1    3    3    0    0  0.22903442229E+02 -0.25042748725E+02  0.10982936822E+02  0.35669917226E+02  0.10566000000E+00 0.  1.
         22    1    1    0    0    0  0.15194799140E+02 -0.21825565364E+02  0.47268882636E+01  0.27010751508E+02  0.00000000000E+00 0. -1.
</event>
<event>
 5    1  0.1264859E-009  0.9118800E+02  0.7815553E-02  0.1125453E+00
         25   -1    0    0    0    0  0.00000000000E+00  0.00000000000E+00  0.99999998245E-14  0.12509000000E+03  0.12509000000E+03 0.  0.
        -13    1    3    3    0    0  0.32428849179E+02  0.14250250445E+02  0.15867565290E+02  0.38813537446E+02  0.10566000000E+00 0.  1.
         23    2    1    0    0    0 -0.11728031292E+02  0.10820423042E+02 -0.22564487946E+02  0.97453350618E+02  0.93452507498E+02 0.  0.
         13    1    3    3    0    0 -0.44156880471E+02 -0.34298274022E+01 -0.38432053235E+02  0.58639813172E+02  0.10566000000E+00 0. -1.
         22    1    1    0    0    0  0.11728031292E+02 -0.10820423042E+02  0.22564487946E+02  0.27636649382E+02  0.00000000000E+00 0. -1.
</event>
<event>
 5    1  0.1264859E-009  0.9118800E+02  0.7815553E-02  0.1125453E+00
         25   -1    0    0    0    0  0.00000000000E+00  0.00000000000E+00  0.99999998245E-14  0.12509000000E+03  0.12509000000E+03 0.  0.
        -13    1    3    3    0    0  0.52307215576E+02 -0.23812044524E+02  0.11135077452E+02  0.58541091377E+02  0.10566000000E+00 0. -1.
         23    2    1    0    0    0  0.20454054873E+02 -0.55295095281E+01  0.19594804082E+02  0.96229989893E+02  0.91800385464E+02 0.  0.
         13    1    3    3    0    0 -0.31853160703E+02  0.18282534996E+02  0.84597266301E+01  0.37688898516E+02  0.10566000000E+00 0.  1.
         22    1    1    0    0    0 -0.20454054873E+02  0.55295095281E+01 -0.19594804082E+02  0.28860010107E+02  0.00000000000E+00 0. -1.
</event>
<event>
 5    1  0.1264859E-009  0.9118800E+02  0.7815553E-02  0.1125453E+00
         25   -1    0    0    0    0  0.00000000000E+00  0.00000000000E+00  0.99999998245E-14  0.12509000000E+03  0.12509000000E+03 0.  0.
        -13    1    3    3    0    0  0.38650014554E+02  0.86063395359E+01  0.61587758932E+01  0.40072863509E+02  0.10566000000E+00 0. -1.
         23    2    1    0    0    0 -0.29322558413E+01 -0.28329670459E+02 -0.30427394984E+01  0.96446909799E+02  0.92095492797E+02 0.  0.
         13    1    3    3    0    0 -0.41582270396E+02 -0.36936009995E+02 -0.92015153916E+01  0.56374046290E+02  0.10566000000E+00 0.  1.
         22    1    1    0    0    0  0.29322558413E+01  0.28329670459E+02  0.30427394984E+01  0.28643090201E+02  0.00000000000E+00 0.  1.
</event>
<event>
 5    1  0.1264859E-009  0.9118800E+02  0.7815553E-02  0.1125453E+00
         25   -1    0    0    0    0  0.00000000000E+00  0.00000000000E+00  0.99999998245E-14  0.12509000000E+03  0.12509000000E+03 0.  0.
        -13    1    3    3    0    0 -0.26374365359E+02  0.49525341897E+02  0.44196057267E+01  0.56284195978E+02  0.10566000000E+00 0.  1.
         23    2    1    0    0    0 -0.16763950254E+02  0.17694491714E+02 -0.16580306543E+02  0.95610657569E+02  0.90952549225E+02 0.  0.
         13    1    3    3    0    0  0.96104151041E+01 -0.31830850183E+02 -0.20999912269E+02  0.39326461591E+02  0.10566000000E+00 0. -1.
         22    1    1    0    0    0  0.16763950254E+02 -0.17694491714E+02  0.16580306543E+02  0.29479342431E+02  0.00000000000E+00 0.  1.
</event>
<event>
 5    1  0.1264859E-009  0.9118800E+02  0.7815553E-02  0.1125453E+00
         25   -1    0    0    0    0  0.00000000000E+00  0.00000000000E+00  0.99999998245E-14  0.12509000000E+03  0.12509000000E+03 0.  0.
        -13    1    3    3    0    0  0.25005957972E+02 -0.41238410910E+02  0.18898062800E+02  0.51798189255E+02  0.10566000000E+00 0.  1.
         23    2    1    0    0    0 -0.13766184352E+02 -0.25428388127E+02  0.86995664538E+01  0.94894086190E+02  0.89961627281E+02 0.  0.
         13    1    3    3    0    0 -0.38772142324E+02  0.15810022783E+02 -0.10198496347E+02  0.43095896935E+02  0.10566000000E+00 0. -1.
         22    1    1    0    0    0  0.13766184352E+02  0.25428388127E+02 -0.86995664538E+01  0.30195913810E+02  0.00000000000E+00 0.  1.
</event>
<event>
 5    1  0.1264859E-009  0.9118800E+02  0.7815553E-02  0.1125453E+00
         25   -1    0    0    0    0  0.00000000000E+00  0.00000000000E+00  0.99999998245E-14  0.12509000000E+03  0.12509000000E+03 0.  0.
        -13    1    3    3    0    0  0.27378690184E+02  0.37363273932E+02 -0.19645598911E+02  0.50314686084E+02  0.10566000000E+00 0.  1.
         23    2    1    0    0    0  0.10741797631E+02  0.98146362038E+01 -0.35888513834E+02  0.86364056172E+02  0.77194892791E+02 0.  0.
         13    1    3    3    0    0 -0.16636892553E+02 -0.27548637728E+02 -0.16242914923E+02  0.36049370088E+02  0.10566000000E+00 0. -1.
         22    1    1    0    0    0 -0.10741797631E+02 -0.98146362038E+01  0.35888513834E+02  0.38725943828E+02  0.00000000000E+00 0.  1.
</event>
<event>
 5    1  0.1264859E-009  0.9118800E+02  0.7815553E-02  0.1125453E+00
         25   -1    0    0    0    0  0.00000000000E+00  0.00000000000E+00  0.99999998245E-14  0.12509000000E+03  0.12509000000E+03 0.  0.
        -13    1    3    3    0    0  0.49560967466E+01  0.20762442257E+02  0.48560470576E+02  0.53045003253E+02  0.10566000000E+00 0.  1.
         23    2    1    0    0    0  0.19015196787E+02 -0.84241339217E+01  0.17895097803E+02  0.97653195038E+02  0.93719625664E+02 0.  0.
         13    1    3    3    0    0  0.14059100040E+02 -0.29186576179E+02 -0.30665372773E+02  0.44608191785E+02  0.10566000000E+00 0. -1.
         22    1    1    0    0    0 -0.19015196787E+02  0.84241339217E+01 -0.17895097803E+02  0.27436804962E+02  0.00000000000E+00 0.  1.
</event>
<event>
 5    1  0.1264859E-009  0.9118800E+02  0.7815553E-02  0.1125453E+00
         25   -1    0    0    0    0  0.00000000000E+00  0.00000000000E+00  0.99999998245E-14  0.12509000000E+03  0.12509000000E+03 0.  0.
        -13    1    3    3    0    0  0.24995371508E+02  0.38701121011E+02 -0.23144563444E+02  0.51557999819E+02  0.10566000000E+00 0.  1.
         23    2    1    0    0    0  0.28813066807E+02  0.33248050578E+01  0.33112045697E+01  0.95897342992E+02  0.91345986063E+02 0.  0.
         13    1    3    3    0    0  0.38176952983E+01 -0.35376315953E+02  0.26455768014E+02  0.44339343173E+02  0.10566000000E+00 0. -1.
         22    1    1    0    0    0 -0.28813066807E+02 -0.33248050578E+01 -0.33112045697E+01  0.29192657008E+02  0.00000000000E+00 0. -1.
</event>
<event>
 5    1  0.1264859E-009  0.9118800E+02  0.7815553E-02  0.1125453E+00
         25   -1    0    0    0    0  0.00000000000E+00  0.00000000000E+00  0.99999998245E-14  0.12509000000E+03  0.12509000000E+03 0.  0.
        -13    1    3    3    0    0  0.13015902005E+02 -0.39412339245E+02 -0.24460494423E+02  0.48177516968E+02  0.10566000000E+00 0. -1.
         23    2    1    0    0    0 -0.14341336196E+02 -0.25862302225E+02  0.96765676871E+01  0.93974592844E+02  0.88673871787E+02 0.  0.
         13    1    3    3    0    0 -0.27357238201E+02  0.13550037020E+02  0.34137062110E+02  0.45797075875E+02  0.10566000000E+00 0.  1.
         22    1    1    0    0    0  0.14341336196E+02  0.25862302225E+02 -0.96765676871E+01  0.31115407156E+02  0.00000000000E+00 0. -1.
</event>
<event>
 5    1  0.1264859E-009  0.9118800E+02  0.7815553E-02  0.1125453E+00
         25   -1    0    0    0    0  0.00000000000E+00  0.00000000000E+00  0.99999998245E-14  0.12509000000E+03  0.12509000000E+03 0.  0.
        -13    1    3    3    0    0  0.85313614433E+00  0.12806060710E+02  0.52398229279E+02  0.53947276371E+02  0.10566000000E+00 0. -1.
         23    2    1    0    0    0  0.51876716158E+00 -0.15606225533E+02  0.33661218703E+02  0.87983382810E+02  0.79775777096E+02 0.  0.
         13    1    3    3    0    0 -0.33436898275E+00 -0.28412286243E+02 -0.18737010576E+02  0.34036106439E+02  0.10566000000E+00 0.  1.
         22    1    1    0    0    0 -0.51876716158E+00  0.15606225533E+02 -0.33661218703E+02  0.37106617190E+02  0.00000000000E+00 0. -1.
</event>
<event>
 5    1  0.1264859E-009  0.9118800E+02  0.7815553E-02  0.1125453E+00
         25   -1    0    0    0    0  0.00000000000E+00  0.00000000000E+00  0.99999998245E-14  0.12509000000E+03  0.12509000000E+03 0.  0.
        -13    1    3    3    0    0 -0.23250986379E+02 -0.79299080257E+01  0.37097430224E+02  0.44494070416E+02  0.10566000000E+00 0.  1.
         23    2    1    0    0    0  0.22851199952E+02  0.48243569071E+01  0.16037157080E+02  0.96759059916E+02  0.92518503608E+02 0.  0.
         13    1    3    3    0    0  0.46102186331E+02  0.12754264933E+02 -0.21060273144E+02  0.52264989500E+02  0.10566000000E+00 0. -1.
         22    1    1    0    0    0 -0.22851199952E+02 -0.48243569071E+01 -0.16037157080E+02  0.28330940084E+02  0.00000000000E+00 0. -1.
</event>
<event>
 5    1  0.1264859E-009  0.9118800E+02  0.7815553E-02  0.1125453E+00
         25   -1    0    0    0    0  0.00000000000E+00  0.00000000000E+00  0.99999998245E-14  0.12509000000E+03  0.12509000000E+03 0.  0.
        -13    1    3    3    0    0 -0.35538385270E+02 -0.27572904449E+02 -0.21979847636E+02  0.50063627051E+02  0.10566000000E+00 0.  1.
         23    2    1    0    0    0  0.80283715222E+01 -0.24863468437E+02 -0.16815195875E+02  0.94019151535E+02  0.88736707348E+02 0.  0.
         13    1    3    3    0    0  0.43566756792E+02  0.27094360120E+01  0.51646517605E+01  0.43955524484E+02  0.10566000000E+00 0. -1.
         22    1    1    0    0    0 -0.80283715222E+01  0.24863468437E+02  0.16815195875E+02  0.31070848465E+02  0.00000000000E+00 0.  1.
</event>
<event>
 5    1  0.1264859E-009  0.9118800E+02  0.7815553E-02  0.1125453E+00
         25   -1    0    0    0    0  0.00000000000E+00  0.00000000000E+00  0.99999998245E-14  0.12509000000E+03  0.12509000000E+03 0.  0.
        -13    1    3    3    0    0  0.45589932632E+01 -0.38433115351E+02  0.11648764302E+02  0.40417739286E+02  0.10566000000E+00 0.  1.
         23    2    1    0    0    0 -0.13257421378E+02  0.11547332431E+02  0.24425136157E+02  0.94995359544E+02  0.90102335989E+02 0.  0.
         13    1    3    3    0    0 -0.17816414641E+02  0.49980447783E+02  0.12776371855E+02  0.54577620258E+02  0.10566000000E+00 0. -1.
         22    1    1    0    0    0  0.13257421378E+02 -0.11547332431E+02 -0.24425136157E+02  0.30094640456E+02  0.00000000000E+00 0. -1.
</event>
<event>
 5    1  0.1264859E-009  0.9118800E+02  0.7815553E-02  0.1125453E+00
         25   -1    0    0    0    0  0.00000000000E+00  0.00000000000E+00  0.99999998245E-14  0.12509000000E+03  0.12509000000E+03 0.  0.
        -13    1    3    3    0    0  0.13864310611E+02  0.80017353579E+01  0.38040172559E+02  0.41271209939E+02  0.10566000000E+00 0. -1.
         23    2    1    0    0    0 -0.26462236571E+02  0.28262787637E+01 -0.20867075467E+01  0.98395578029E+02  0.94705319868E+02 0.  0.
         13    1    3    3    0    0 -0.40326547182E+02 -0.51754565942E+01 -0.40126880106E+02  0.57124368090E+02  0.10566000000E+00 0.  1.
         22    1    1    0    0    0  0.26462236571E+02 -0.28262787637E+01  0.20867075467E+01  0.26694421971E+02  0.00000000000E+00 0.  1.
</event>
<event>
 5    1  0.1264859E-009  0.9118800E+02  0.7815553E-02  0.1125453E+00
         25   -1    0    0    0    0  0.00000000000E+00  0.00000000000E+00  0.99999998245E-14  0.12509000000E+03  0.12509000000E+03 0.  0.
        -13    1    3    3    0    0  0.30507880424E+02 -0.11794038608E+02 -0.19970784883E+01  0.32769339346E+02  0.10566000000E+00 0. -1.
         23    2    1    0    0    0 -0.23451562656E+02  0.18967276106E+02  0.36187365686E+00  0.94926042925E+02  0.90006051568E+02 0.  0.
         13    1    3    3    0    0 -0.53959443080E+02  0.30761314714E+02  0.23589521451E+01  0.62156703578E+02  0.10566000000E+00 0.  1.
         22    1    1    0    0    0  0.23451562656E+02 -0.18967276106E+02 -0.36187365686E+00  0.30163957075E+02  0.00000000000E+00 0.  1.
</event>
<event>
 5    1  0.1264859E-009  0.9118800E+02  0.7815553E-02  0.1125453E+00
         25   -1    0    0    0    0  0.00000000000E+00  0.00000000000E+00  0.99999998245E-14  0.12509000000E+03  0.12509000000E+03 0.  0.
        -13    1    3    3    0    0  0.16450996684E+02  0.49006736481E+02 -0.26077259178E+02  0.57899310209E+02  0.10566000000E+00 0. -1.
         23    2    1    0    0    0 -0.72024265858E+01  0.21460859162E+02 -0.20338695798E+02  0.94658010722E+02  0.89632767571E+02 0.  0.
         13    1    3    3    0    0 -0.23653423270E+02 -0.27545877319E+02  0.57385633807E+01  0.36758700512E+02  0.10566000000E+00 0.  1.
         22    1    1    0    0    0  0.72024265858E+01 -0.21460859162E+02  0.20338695798E+02  0.30431989278E+02  0.00000000000E+00 0. -1.
</event>
<event>
 5    1  0.1264859E-009  0.9118800E+02  0.7815553E-02  0.1125453E+00
         25   -1    0    0    0    0  0.00000000000E+00  0.00000000000E+00  0.99999998245E-14  0.12509000000E+03  0.12509000000E+03 0.  0.
        -13    1    3    3    0    0  0.53108257524E+02 -0.79891960593E+01 -0.27917593501E+02  0.60528649926E+02  0.10566000000E+00 0. -1.
         23    2    1    0    0    0  0.19110415781E+02 -0.93629060131E+01 -0.20883814693E+02  0.95273801107E+02  0.90488073583E+02 0.  0.
         13    1    3    3    0    0 -0.33997841743E+02 -0.13737099538E+01  0.70337788078E+01  0.34745151181E+02  0.10566000000E+00 0.  1.
         22    1    1    0    0    0 -0.19110415781E+02  0.93629060131E+01  0.20883814693E+02  0.29816198893E+02  0.00000000000E+00 0. -1.
</event>
<event>
 5    1  0.1264859E-009  0.9118800E+02  0.7815553E-02  0.1125453E+00
         25   -1    0    0    0    0  0.00000000000E+00  0.00000000000E+00  0.99999998245E-14  0.12509000000E+03  0.12509000000E+03 0.  0.
        -13    1    3    3    0    0  0.16604201099E+02 -0.32883121949E+02  0.32550869874E+02  0.49158615693E+02  0.10566000000E+00 0.  1.
         23    2    1    0    0    0  0.65439444871E+01 -0.25816683248E+02 -0.12364799581E+02  0.95726542913E+02  0.91111790708E+02 0.  0.
         13    1    3    3    0    0 -0.10060256612E+02  0.70664387006E+01 -0.44915669455E+02  0.46567927221E+02  0.10566000000E+00 0. -1.
         22    1    1    0    0    0 -0.65439444871E+01  0.25816683248E+02  0.12364799581E+02  0.29363457087E+02  0.00000000000E+00 0.  1.
</event>
<event>
 5    1  0.1264859E-009  0.9118800E+02  0.7815553E-02  0.1125453E+00
         25   -1    0    0    0    0  0.00000000000E+00  0.00000000000E+00  0.99999998245E-14  0.12509000000E+03  0.12509000000E+03 0.  0.
        -13    1    3    3    0    0  0.40233006650E+02  0.22526021071E+01  0.13158472422E+02  0.42390159245E+02  0.10566000000E+00 0. -1.
         23    2    1    0    0    0  0.55879186999E+01 -0.12553683209E+01 -0.28118740299E+02  0.96393931610E+02  0.92023506292E+02 0.  0.
         13    1    3    3    0    0 -0.34645087950E+02 -0.35079704280E+01 -0.41277212722E+02  0.54003772365E+02  0.10566000000E+00 0.  1.
         22    1    1    0    0    0 -0.55879186999E+01  0.12553683209E+01  0.28118740299E+02  0.28696068390E+02  0.00000000000E+00 0.  1.
</event>
<event>
 5    1  0.1264859E-009  0.9118800E+02  0.7815553E-02  0.1125453E+00
         25   -1    0    0    0    0  0.00000000000E+00  0.00000000000E+00  0.99999998245E-14  0.12509000000E+03  0.12509000000E+03 0.  0.
        -13    1    3    3    0    0 -0.42196317787E+02 -0.40067954425E+02 -0.20788757233E+02  0.61791211332E+02  0.10566000000E+00 0.  1.
         23    2    1    0    0    0 -0.24766219769E+02 -0.14158104481E+02 -0.88758452966E+01  0.95213618126E+02  0.90404838824E+02 0.  0.
         13    1    3    3    0    0  0.17430098018E+02  0.25909849944E+02  0.11912911937E+02  0.33422406794E+02  0.10566000000E+00 0. -1.
         22    1    1    0    0    0  0.24766219769E+02  0.14158104481E+02  0.88758452966E+01  0.29876381874E+02  0.00000000000E+00 0.  1.
</event>
<event>
 5    1  0.1264859E-009  0.9118800E+02  0.7815553E-02  0.1125453E+00
         25   -1    0    0    0    0  0.00000000000E+00  0.00000000000E+00  0.99999998245E-14  0.12509000000E+03  0.12509000000E+03 0.  0.
        -13    1    3    3    0    0  0.23633784322E+02  0.27616280320E+02  0.11815717416E+02  0.38220897978E+02  0.10566000000E+00 0.  1.
         23    2    1    0    0    0 -0.18492480958E+02 -0.10668935189E+02 -0.12753663141E+02  0.10022126554E+03  0.97086807102E+02 0.  0.
         13    1    3    3    0    0 -0.42126265280E+02 -0.38285215509E+02 -0.24569380557E+02  0.62000367564E+02  0.10566000000E+00 0. -1.
         22    1    1    0    0    0  0.18492480958E+02  0.10668935189E+02  0.12753663141E+02  0.24868734458E+02  0.00000000000E+00 0. -1.
</event>
<event>
 5    1  0.1264859E-009  0.9118800E+02  0.7815553E-02  0.1125453E+00
         25   -1    0    0    0    0  0.00000000000E+00  0.00000000000E+00  0.99999998245E-14  0.12509000000E+03  0.12509000000E+03 0.  0.
        -13    1    3    3    0    0 -0.67060019258E-01 -0.14415922545E+02  0.51669848192E+02  0.53643337853E+02  0.10566000000E+00 0.  1.
         23    2    1    0    0    0 -0.21539855476E+01 -0.26228483120E+02  0.10112925503E+02  0.96897017846E+02  0.92704842509E+02 0.  0.
         13    1    3    3    0    0 -0.20869255283E+01 -0.11812560575E+02 -0.41556922689E+02  0.43253679992E+02  0.10566000000E+00 0. -1.
         22    1    1    0    0    0  0.21539855476E+01  0.26228483120E+02 -0.10112925503E+02  0.28192982154E+02  0.00000000000E+00 0.  1.
</event>
<event>
 5    1  0.1264859E-009  0.9118800E+02  0.7815553E-02  0.1125453E+00
         25   -1    0    0    0    0  0.00000000000E+00  0.00000000000E+00  0.99999998245E-14  0.12509000000E+03  0.12509000000E+03 0.  0.
        -13    1    3    3    0    0  0.19255305179E+01  0.38463538872E+02 -0.89252584336E+01  0.39532554844E+02  0.10566000000E+00 0. -1.
         23    2    1    0    0    0 -0.12817166913E+02 -0.17202578664E+02 -0.17048664229E+02  0.97688076119E+02  0.93766170784E+02 0.  0.
         13    1    3    3    0    0 -0.14742697431E+02 -0.55666117536E+02 -0.81234057954E+01  0.58155521276E+02  0.10566000000E+00 0.  1.
         22    1    1    0    0    0  0.12817166913E+02  0.17202578664E+02  0.17048664229E+02  0.27401923881E+02  0.00000000000E+00 0.  1.
</event>
<event>
 5    1  0.1264859E-009  0.9118800E+02  0.7815553E-02  0.1125453E+00
         25   -1    0    0    0    0  0.00000000000E+00  0.00000000000E+00  0.99999998245E-14  0.12509000000E+03  0.12509000000E+03 0.  0.
        -13    1    3    3    0    0 -0.14833980814E+02  0.20206074552E+02  0.25617383678E+02  0.35841232486E+02  0.10566000000E+00 0.  1.
         23    2    1    0    0    0  0.19872415946E+02  0.76437510057E+01 -0.20921137226E+02  0.95239810255E+02  0.90441072692E+02 0.  0.
         13    1    3    3    0    0  0.34706396760E+02 -0.12562323546E+02 -0.46538520904E+02  0.59398577769E+02  0.10566000000E+00 0. -1.
         22    1    1    0    0    0 -0.19872415946E+02 -0.76437510057E+01  0.20921137226E+02  0.29850189745E+02  0.00000000000E+00 0. -1.
</event>
<event>
 5    1  0.1264859E-009  0.9118800E+02  0.7815553E-02  0.1125453E+00
         25   -1    0    0    0    0  0.00000000000E+00  0.00000000000E+00  0.99999998245E-14  0.12509000000E+03  0.12509000000E+03 0.  0.
        -13    1    3    3    0    0  0.26617960414E+02 -0.18370006494E+02  0.13981921240E+02  0.35234617080E+02  0.10566000000E+00 0. -1.
         23    2    1    0    0    0 -0.24322278657E+02 -0.54711460183E+00 -0.15016561437E+02  0.96500321953E+02  0.92168012056E+02 0.  0.
         13    1    3    3    0    0 -0.50940239071E+02  0.17822891892E+02 -0.28998482677E+02  0.61265704873E+02  0.10566000000E+00 0.  1.
         22    1    1    0    0    0  0.24322278657E+02  0.54711460183E+00  0.15016561437E+02  0.28589678047E+02  0.00000000000E+00 0.  1.
</event>
<event>
 5    1  0.1264859E-009  0.9118800E+02  0.7815553E-02  0.1125453E+00
         25   -1    0    0    0    0  0.00000000000E+00  0.00000000000E+00  0.99999998245E-14  0.12509000000E+03  0.12509000000E+03 0.  0.
        -13    1    3    3    0    0 -0.27704445044E+02 -0.16513278768E+02 -0.50712471055E+02  0.60099838065E+02  0.10566000000E+00 0. -1.
         23    2    1    0    0    0 -0.16896586775E+02 -0.17253332943E+02 -0.16875235923E+02  0.95629081315E+02  0.90977884475E+02 0.  0.
         13    1    3    3    0    0  0.10807858269E+02 -0.74005417499E+00  0.33837235132E+02  0.35529243251E+02  0.10566000000E+00 0.  1.
         22    1    1    0    0    0  0.16896586775E+02  0.17253332943E+02  0.16875235923E+02  0.29460918685E+02  0.00000000000E+00 0. -1.
</event>
<event>
 5    1  0.1264859E-009  0.9118800E+02  0.7815553E-02  0.1125453E+00
         25   -1    0    0    0    0  0.00000000000E+00  0.00000000000E+00  0.99999998245E-14  0.12509000000E+03  0.12509000000E+03 0.  0.
        -13    1    3    3    0    0  0.56154190796E+02  0.11661854619E+02  0.64580016350E+01  0.57714893626E+02  0.10566000000E+00 0. -1.
         23    2    1    0    0    0  0.25741355169E+02 -0.45060800927E+01 -0.11476923871E+02  0.96548067597E+02  0.92232789460E+02 0.  0.
         13    1    3    3    0    0 -0.30412835627E+02 -0.16167934712E+02 -0.17934925506E+02  0.38833173971E+02  0.10566000000E+00 0.  1.
         22    1    1    0    0    0 -0.25741355169E+02  0.45060800927E+01  0.11476923871E+02  0.28541932403E+02  0.00000000000E+00 0. -1.
</event>
<event>
 5    1  0.1264859E-009  0.9118800E+02  0.7815553E-02  0.1125453E+00
         25   -1    0    0    0    0  0.00000000000E+00  0.00000000000E+00  0.99999998245E-14  0.12509000000E+03  0.12509000000E+03 0.  0.
        -13    1    3    3    0    0  0.30552162988E+02  0.59419494211E+01  0.17121531217E+02  0.35523223691E+02  0.10566000000E+00 0.  1.
         23    2    1    0    0    0 -0.15713863955E+02  0.13002249531E+02 -0.20947922014E+02  0.95853046500E+02  0.91285305900E+02 0.  0.
         13    1    3    3    0    0 -0.46266026943E+02  0.70603001103E+01 -0.38069453231E+02  0.60329822808E+02  0.10566000000E+00 0. -1.
         22    1    1    0    0    0  0.15713863955E+02 -0.13002249531E+02  0.20947922014E+02  0.29236953500E+02  0.00000000000E+00 0. -1.
</event>
<event>
 5    1  0.1264859E-009  0.9118800E+02  0.7815553E-02  0.1125453E+00
         25   -1    0    0    0    0  0.00000000000E+00  0.00000000000E+00  0.99999998245E-14  0.12509000000E+03  0.12509000000E+03 0.  0.
        -13    1    3    3    0    0  0.81260550569E+01 -0.20911919354E+02 -0.32060409802E+02  0.39130834167E+02  0.10566000000E+00 0.  1.
         23    2    1    0    0    0  0.31061424435E+01 -0.21196480189E+02  0.22558112602E+02  0.93980397986E+02  0.88682060577E+02 0.  0.
         13    1    3    3    0    0 -0.50199126134E+01 -0.28456083541E+00  0.54618522404E+02  0.54849563819E+02  0.10566000000E+00 0. -1.
         22    1    1    0    0    0 -0.31061424435E+01  0.21196480189E+02 -0.22558112602E+02  0.31109602014E+02  0.00000000000E+00 0. -1.
</event>
<event>
 5    1  0.1264859E-009  0.9118800E+02  0.7815553E-02  0.1125453E+00
         25   -1    0    0    0    0  0.00000000000E+00  0.00000000000E+00  0.99999998245E-14  0.12509000000E+03  0.12509000000E+03 0.  0.
        -13    1    3    3    0    0 -0.46899759354E+02 -0.27879605993E+02 -0.14571888881E+02  0.56473099502E+02  0.10566000000E+00 0.  1.
         23    2    1    0    0    0 -0.26283449954E+02 -0.57926853129E+01  0.10959727622E+02  0.96029880004E+02  0.91527303465E+02 0.  0.
         13    1    3    3    0    0  0.20616309400E+02  0.22086920681E+02  0.25531616503E+02  0.39556780502E+02  0.10566000000E+00 0. -1.
         22    1    1    0    0    0  0.26283449954E+02  0.57926853129E+01 -0.10959727622E+02  0.29060119996E+02  0.00000000000E+00 0.  1.
</event>
<event>
 5    1  0.1264859E-009  0.9118800E+02  0.7815553E-02  0.1125453E+00
         25   -1    0    0    0    0  0.00000000000E+00  0.00000000000E+00  0.99999998245E-14  0.12509000000E+03  0.12509000000E+03 0.  0.
        -13    1    3    3    0    0  0.22587779633E+02 -0.13542184689E+02  0.15454587423E+02  0.30536109630E+02  0.10566000000E+00 0.  1.
         23    2    1    0    0    0 -0.20239869525E+02  0.25180632290E+02 -0.61861795932E+01  0.92196453842E+02  0.86128977250E+02 0.  0.
         13    1    3    3    0    0 -0.42827649158E+02  0.38722816979E+02 -0.21640767016E+02  0.61660344211E+02  0.10566000000E+00 0. -1.
         22    1    1    0    0    0  0.20239869525E+02 -0.25180632290E+02  0.61861795932E+01  0.32893546158E+02  0.00000000000E+00 0. -1.
</event>
<event>
 5    1  0.1264859E-009  0.9118800E+02  0.7815553E-02  0.1125453E+00
         25   -1    0    0    0    0  0.00000000000E+00  0.00000000000E+00  0.99999998245E-14  0.12509000000E+03  0.12509000000E+03 0.  0.
        -13    1    3    3    0    0 -0.16789975961E+02 -0.79607221985E+01  0.38610870675E+02  0.42849584467E+02  0.10566000000E+00 0. -1.
         23    2    1    0    0    0 -0.21964991890E+02  0.16467585676E+02 -0.86544559370E+01  0.96305597031E+02  0.91903352307E+02 0.  0.
         13    1    3    3    0    0 -0.51750159287E+01  0.24428307874E+02 -0.47265326612E+02  0.53456012564E+02  0.10566000000E+00 0.  1.
         22    1    1    0    0    0  0.21964991890E+02 -0.16467585676E+02  0.86544559370E+01  0.28784402969E+02  0.00000000000E+00 0.  1.
</event>
<event>
 5    1  0.1264859E-009  0.9118800E+02  0.7815553E-02  0.1125453E+00
         25   -1    0    0    0    0  0.00000000000E+00  0.00000000000E+00  0.99999998245E-14  0.12509000000E+03  0.12509000000E+03 0.  0.
        -13    1    3    3    0    0 -0.21018962795E+02  0.11588947111E+02  0.29326581236E+02  0.37896702009E+02  0.10566000000E+00 0.  1.
         23    2    1    0    0    0  0.12377981475E+02 -0.27810856786E+02  0.98906571736E+01  0.93082449642E+02  0.87406287826E+02 0.  0.
         13    1    3    3    0    0  0.33396944270E+02 -0.39399803896E+02 -0.19435924063E+02  0.55185747633E+02  0.10566000000E+00 0. -1.
         22    1    1    0    0    0 -0.12377981475E+02  0.27810856786E+02 -0.98906571736E+01  0.32007550358E+02  0.00000000000E+00 0. -1.
</event>
<event>
 5    1  0.1264859E-009  0.9118800E+02  0.7815553E-02  0.1125453E+00
         25   -1    0    0    0    0  0.00000000000E+00  0.00000000000E+00  0.99999998245E-14  0.12509000000E+03  0.12509000000E+03 0.  0.
        -13    1    3    3    0    0  0.23318154435E+02  0.11373781022E+02  0.35407700538E+02  0.43895508226E+02  0.10566000000E+00 0.  1.
         23    2    1    0    0    0  0.24670149019E+02 -0.17894210638E+02 -0.54066749061E+01  0.94137598469E+02  0.88903522343E+02 0.  0.
         13    1    3    3    0    0  0.13519945836E+01 -0.29267991660E+02 -0.40814375444E+02  0.50242090244E+02  0.10566000000E+00 0. -1.
         22    1    1    0    0    0 -0.24670149019E+02  0.17894210638E+02  0.54066749061E+01  0.30952401531E+02  0.00000000000E+00 0. -1.
</event>
<event>
 5    1  0.1264859E-009  0.9118800E+02  0.7815553E-02  0.1125453E+00
         25   -1    0    0    0    0  0.00000000000E+00  0.00000000000E+00  0.99999998245E-14  0.12509000000E+03  0.12509000000E+03 0.  0.
        -13    1    3    3    0    0 -0.95794999829E+01 -0.15183180892E+00  0.33272781304E+02  0.34624832311E+02  0.10566000000E+00 0. -1.
         23    2    1    0    0    0  0.13356207309E+02 -0.14920313539E+02 -0.21434772333E+02  0.95756512401E+02  0.91152927394E+02 0.  0.
         13    1    3    3    0    0  0.22935707292E+02 -0.14768481730E+02 -0.54707553637E+02  0.61131680090E+02  0.10566000000E+00 0.  1.
         22    1    1    0    0    0 -0.13356207309E+02  0.14920313539E+02  0.21434772333E+02  0.29333487599E+02  0.00000000000E+00 0.  1.
</event>
<event>
 5    1  0.1264859E-009  0.9118800E+02  0.7815553E-02  0.1125453E+00
         25   -1    0    0    0    0  0.00000000000E+00  0.00000000000E+00  0.99999998245E-14  0.12509000000E+03  0.12509000000E+03 0.  0.
        -13    1    3    3    0    0  0.27520345725E+01 -0.31662666068E+02  0.15198665616E+02  0.35229372935E+02  0.10566000000E+00 0.  1.
         23    2    1    0    0    0  0.15794573821E+02  0.98441766192E+01  0.36835029322E+02  0.83820207650E+02  0.72956366753E+02 0.  0.
         13    1    3    3    0    0  0.13042539248E+02  0.41506842687E+02  0.21636363705E+02  0.48590834715E+02  0.10566000000E+00 0. -1.
         22    1    1    0    0    0 -0.15794573821E+02 -0.98441766192E+01 -0.36835029322E+02  0.41269792350E+02  0.00000000000E+00 0. -1.
</event>
<event>
 5    1  0.1264859E-009  0.9118800E+02  0.7815553E-02  0.1125453E+00
         25   -1    0    0    0    0  0.00000000000E+00  0.00000000000E+00  0.99999998245E-14  0.12509000000E+03  0.12509000000E+03 0.  0.
        -13    1    3    3    0    0 -0.10581973969E+01  0.31220149526E+02 -0.24507466619E+02  0.39704465773E+02  0.10566000000E+00 0.  1.
         23    2    1    0    0    0  0.19040609795E+02  0.69504912618E+01  0.21546823803E+02  0.95507576736E+02  0.90810668139E+02 0.  0.
         13    1    3    3    0    0  0.20098807192E+02 -0.24269658265E+02  0.46054290422E+02  0.55803110963E+02  0.10566000000E+00 0. -1.
         22    1    1    0    0    0 -0.19040609795E+02 -0.69504912618E+01 -0.21546823803E+02  0.29582423264E+02  0.00000000000E+00 0. -1.
</event>
<event>
 5    1  0.1264859E-009  0.9118800E+02  0.7815553E-02  0.1125453E+00
         25   -1    0    0    0    0  0.00000000000E+00  0.00000000000E+00  0.99999998245E-14  0.12509000000E+03  0.12509000000E+03 0.  0.
        -13    1    3    3    0    0  0.30625244872E+02 -0.16367422391E+02  0.24260060321E+02  0.42359884679E+02  0.10566000000E+00 0.  1.
         23    2    1    0    0    0 -0.12261283859E+02  0.13051817974E+02  0.24958277108E+02  0.94371851773E+02  0.89232515242E+02 0.  0.
         13    1    3    3    0    0 -0.42886528731E+02  0.29419240365E+02  0.69821678775E+00  0.52011967094E+02  0.10566000000E+00 0. -1.
         22    1    1    0    0    0  0.12261283859E+02 -0.13051817974E+02 -0.24958277108E+02  0.30718148227E+02  0.00000000000E+00 0. -1.
</event>
<event>
 5    1  0.1264859E-009  0.9118800E+02  0.7815553E-02  0.1125453E+00
         25   -1    0    0    0    0  0.00000000000E+00  0.00000000000E+00  0.99999998245E-14  0.12509000000E+03  0.12509000000E+03 0.  0.
        -13    1    3    3    0    0 -0.12384276277E+01  0.19011212497E+02 -0.53682025533E+02  0.56962539734E+02  0.10566000000E+00 0. -1.
         23    2    1    0    0    0  0.33103544112E+01 -0.92852206651E+01 -0.27853160299E+02  0.95543895218E+02  0.90860682397E+02 0.  0.
         13    1    3    3    0    0  0.45487820390E+01 -0.28296433162E+02  0.25828865234E+02  0.38581355484E+02  0.10566000000E+00 0.  1.
         22    1    1    0    0    0 -0.33103544112E+01  0.92852206651E+01  0.27853160299E+02  0.29546104782E+02  0.00000000000E+00 0. -1.
</event>
<event>
 5    1  0.1264859E-009  0.9118800E+02  0.7815553E-02  0.1125453E+00
         25   -1    0    0    0    0  0.00000000000E+00  0.00000000000E+00  0.99999998245E-14  0.12509000000E+03  0.12509000000E+03 0.  0.
        -13    1    3    3    0    0 -0.81134917388E+01 -0.47792999883E+02 -0.30403286082E+02  0.57222115957E+02  0.10566000000E+00 0.  1.
         23    2    1    0    0    0  0.10178785984E+02 -0.18750788714E+02 -0.25416821165E+02  0.91905446972E+02  0.85705289356E+02 0.  0.
         13    1    3    3    0    0  0.18292277723E+02  0.29042211169E+02  0.49864649168E+01  0.34683331015E+02  0.10566000000E+00 0. -1.
         22    1    1    0    0    0 -0.10178785984E+02  0.18750788714E+02  0.25416821165E+02  0.33184553028E+02  0.00000000000E+00 0.  1.
</event>
<event>
 5    1  0.1264859E-009  0.9118800E+02  0.7815553E-02  0.1125453E+00
         25   -1    0    0    0    0  0.00000000000E+00  0.00000000000E+00  0.99999998245E-14  0.12509000000E+03  0.12509000000E+03 0.  0.
        -13    1    3    3    0    0  0.43715793588E+02 -0.25964304229E+01  0.44888566485E+00  0.43795259131E+02  0.10566000000E+00 0.  1.
         23    2    1    0    0    0 -0.13729651904E+02 -0.14912087933E+02  0.85280881641E+01  0.10309904741E+03  0.10072641948E+03 0.  0.
         13    1    3    3    0    0 -0.57445445492E+02 -0.12315657510E+02  0.80792024992E+01  0.59303788283E+02  0.10566000000E+00 0. -1.
         22    1    1    0    0    0  0.13729651904E+02  0.14912087933E+02 -0.85280881641E+01  0.21990952586E+02  0.00000000000E+00 0. -1.
</event>
<event>
 5    1  0.1264859E-009  0.9118800E+02  0.7815553E-02  0.1125453E+00
         25   -1    0    0    0    0  0.00000000000E+00  0.00000000000E+00  0.99999998245E-14  0.12509000000E+03  0.12509000000E+03 0.  0.
        -13    1    3    3    0    0 -0.14254625984E+02  0.32965947618E+02 -0.13933862563E+02  0.38524171039E+02  0.10566000000E+00 0.  1.
         23    2    1    0    0    0  0.22079376055E+02 -0.11334797180E+02 -0.15478429893E+02  0.95840072375E+02  0.91267525478E+02 0.  0.
         13    1    3    3    0    0  0.36334002038E+02 -0.44300744798E+02 -0.15445673306E+01  0.57315901337E+02  0.10566000000E+00 0. -1.
         22    1    1    0    0    0 -0.22079376055E+02  0.11334797180E+02  0.15478429893E+02  0.29249927625E+02  0.00000000000E+00 0. -1.
</event>
<event>
 5    1  0.1264859E-009  0.9118800E+02  0.7815553E-02  0.1125453E+00
         25   -1    0    0    0    0  0.00000000000E+00  0.00000000000E+00  0.99999998245E-14  0.12509000000E+03  0.12509000000E+03 0.  0.
        -13    1    3    3    0    0  0.22404916932E+02  0.20194827855E+02  0.29275518124E+02  0.42034253892E+02  0.10566000000E+00 0.  1.
         23    2    1    0    0    0  0.46092150743E+00 -0.25494273527E+02  0.17772627856E+02  0.94008868550E+02  0.88722210487E+02 0.  0.
         13    1    3    3    0    0 -0.21943995425E+02 -0.45689101382E+02 -0.11502890267E+02  0.51974614658E+02  0.10566000000E+00 0. -1.
         22    1    1    0    0    0 -0.46092150743E+00  0.25494273527E+02 -0.17772627856E+02  0.31081131450E+02  0.00000000000E+00 0. -1.
</event>
<event>
 5    1  0.1264859E-009  0.9118800E+02  0.7815553E-02  0.1125453E+00
         25   -1    0    0    0    0  0.00000000000E+00  0.00000000000E+00  0.99999998245E-14  0.12509000000E+03  0.12509000000E+03 0.  0.
        -13    1    3    3    0    0  0.26517324277E+02 -0.17898632097E+02  0.30262389067E+02  0.44038084357E+02  0.10566000000E+00 0.  1.
         23    2    1    0    0    0 -0.20530352683E+02 -0.19110080136E+02  0.13105865401E+02  0.94131087681E+02  0.88894360991E+02 0.  0.
         13    1    3    3    0    0 -0.47047676960E+02 -0.12114480387E+01 -0.17156523666E+02  0.50093003324E+02  0.10566000000E+00 0. -1.
         22    1    1    0    0    0  0.20530352683E+02  0.19110080136E+02 -0.13105865401E+02  0.30958912319E+02  0.00000000000E+00 0.  1.
</event>
<event>
 5    1  0.1264859E-009  0.9118800E+02  0.7815553E-02  0.1125453E+00
         25   -1    0    0    0    0  0.00000000000E+00  0.00000000000E+00  0.99999998245E-14  0.12509000000E+03  0.12509000000E+03 0.  0.
        -13    1    3    3    0    0  0.40665434487E+02  0.14760301097E+02 -0.27604620504E+02  0.51318323118E+02  0.10566000000E+00 0. -1.
         23    2    1    0    0    0  0.10235598723E+02  0.23683047873E+02  0.71015283071E+01  0.98330217825E+02  0.94618950509E+02 0.  0.
         13    1    3    3    0    0 -0.30429835764E+02  0.89227467763E+01  0.34706148811E+02  0.47011894707E+02  0.10566000000E+00 0.  1.
         22    1    1    0    0    0 -0.10235598723E+02 -0.23683047873E+02 -0.71015283071E+01  0.26759782175E+02  0.00000000000E+00 0.  1.
</event>
<event>
 5    1  0.1264859E-009  0.9118800E+02  0.7815553E-02  0.1125453E+00
         25   -1    0    0    0    0  0.00000000000E+00  0.00000000000E+00  0.99999998245E-14  0.12509000000E+03  0.12509000000E+03 0.  0.
        -13    1    3    3    0    0 -0.32476750646E+02  0.14436933228E+02 -0.43527958903E+02  0.56194828444E+02  0.10566000000E+00 0.  1.
         23    2    1    0    0    0 -0.27070554389E+02 -0.83768198200E+01 -0.15311887911E+02  0.92880685561E+02  0.87117058109E+02 0.  0.
         13    1    3    3    0    0  0.54061962570E+01 -0.22813753048E+02  0.28216070992E+02  0.36685857117E+02  0.10566000000E+00 0. -1.
         22    1    1    0    0    0  0.27070554389E+02  0.83768198200E+01  0.15311887911E+02  0.32209314439E+02  0.00000000000E+00 0.  1.
</event>
<event>
 5    1  0.1264859E-009  0.9118800E+02  0.7815553E-02  0.1125453E+00
         25   -1    0    0    0    0  0.00000000000E+00  0.00000000000E+00  0.99999998245E-14  0.12509000000E+03  0.12509000000E+03 0.  0.
        -13    1    3    3    0    0  0.25303231121E+02 -0.40517181207E+02 -0.14740441724E+02  0.49991871983E+02  0.10566000000E+00 0.  1.
         23    2    1    0    0    0 -0.10879159064E+02 -0.25546943193E+02  0.91411924257E+01  0.95857076653E+02  0.91290828329E+02 0.  0.
         13    1    3    3    0    0 -0.36182390185E+02  0.14970238013E+02  0.23881634150E+02  0.45865204670E+02  0.10566000000E+00 0. -1.
         22    1    1    0    0    0  0.10879159064E+02  0.25546943193E+02 -0.91411924257E+01  0.29232923347E+02  0.00000000000E+00 0. -1.
</event>
<event>
 5    1  0.1264859E-009  0.9118800E+02  0.7815553E-02  0.1125453E+00
         25   -1    0    0    0    0  0.00000000000E+00  0.00000000000E+00  0.99999998245E-14  0.12509000000E+03  0.12509000000E+03 0.  0.
        -13    1    3    3    0    0  0.38659572726E+02 -0.11788926077E+02 -0.92637432809E+00  0.40427845290E+02  0.10566000000E+00 0. -1.
         23    2    1    0    0    0 -0.98243356391E+01 -0.17386256227E+01 -0.26941275548E+02  0.96360699313E+02  0.91978321653E+02 0.  0.
         13    1    3    3    0    0 -0.48483908365E+02  0.10050300454E+02 -0.26014901220E+02  0.55932854022E+02  0.10566000000E+00 0.  1.
         22    1    1    0    0    0  0.98243356391E+01  0.17386256227E+01  0.26941275548E+02  0.28729300687E+02  0.00000000000E+00 0.  1.
</event>
<event>
 5    1  0.1264859E-009  0.9118800E+02  0.7815553E-02  0.1125453E+00
         25   -1    0    0    0    0  0.00000000000E+00  0.00000000000E+00  0.99999998245E-14  0.12509000000E+03  0.12509000000E+03 0.  0.
        -13    1    3    3    0    0  0.47455289719E+02 -0.12696238728E+02 -0.24438036064E+02  0.54867365263E+02  0.10566000000E+00 0.  1.
         23    2    1    0    0    0  0.36285534938E+01 -0.67374482775E+01 -0.24838645116E+02  0.99099272789E+02  0.95630267000E+02 0.  0.
         13    1    3    3    0    0 -0.43826736225E+02  0.59587904506E+01 -0.40060905181E+00  0.44231907527E+02  0.10566000000E+00 0. -1.
         22    1    1    0    0    0 -0.36285534938E+01  0.67374482775E+01  0.24838645116E+02  0.25990727211E+02  0.00000000000E+00 0.  1.
</event>
<event>
 5    1  0.1264859E-009  0.9118800E+02  0.7815553E-02  0.1125453E+00
         25   -1    0    0    0    0  0.00000000000E+00  0.00000000000E+00  0.99999998245E-14  0.12509000000E+03  0.12509000000E+03 0.  0.
        -13    1    3    3    0    0 -0.68403826086E+01 -0.38189681627E+02  0.14106203980E+01  0.38823235709E+02  0.10566000000E+00 0. -1.
         23    2    1    0    0    0  0.28887076795E+02  0.42246690525E+01 -0.73924702999E+01  0.94974229190E+02  0.90072995724E+02 0.  0.
         13    1    3    3    0    0  0.35727459404E+02  0.42414350679E+02 -0.88030906979E+01  0.56150993481E+02  0.10566000000E+00 0.  1.
         22    1    1    0    0    0 -0.28887076795E+02 -0.42246690525E+01  0.73924702999E+01  0.30115770810E+02  0.00000000000E+00 0.  1.
</event>
<event>
 5    1  0.1264859E-009  0.9118800E+02  0.7815553E-02  0.1125453E+00
         25   -1    0    0    0    0  0.00000000000E+00  0.00000000000E+00  0.99999998245E-14  0.12509000000E+03  0.12509000000E+03 0.  0.
        -13    1    3    3    0    0 -0.61333101905E+01 -0.34385435316E+02 -0.15277439184E+02  0.38123312655E+02  0.10566000000E+00 0.  1.
         23    2    1    0    0    0 -0.18854664193E+02  0.18222663565E+02  0.88958384882E+01  0.97400655991E+02  0.93381946949E+02 0.  0.
         13    1    3    3    0    0 -0.12721354003E+02  0.52608098881E+02  0.24173277672E+02  0.59277343336E+02  0.10566000000E+00 0. -1.
         22    1    1    0    0    0  0.18854664193E+02 -0.18222663565E+02 -0.88958384882E+01  0.27689344009E+02  0.00000000000E+00 0. -1.
</event>
<event>
 5    1  0.1264859E-009  0.9118800E+02  0.7815553E-02  0.1125453E+00
         25   -1    0    0    0    0  0.00000000000E+00  0.00000000000E+00  0.99999998245E-14  0.12509000000E+03  0.12509000000E+03 0.  0.
        -13    1    3    3    0    0  0.14566869092E+02  0.10683728459E+02  0.55906488826E+02  0.58752722370E+02  0.10566000000E+00 0.  1.
         23    2    1    0    0    0  0.19988554479E+02 -0.22386077374E+01  0.22899839673E+02  0.94611215054E+02  0.89567436505E+02 0.  0.
         13    1    3    3    0    0  0.54216853866E+01 -0.12922336196E+02 -0.33006649153E+02  0.35858492684E+02  0.10566000000E+00 0. -1.
         22    1    1    0    0    0 -0.19988554479E+02  0.22386077374E+01 -0.22899839673E+02  0.30478784946E+02  0.00000000000E+00 0.  1.
</event>
<event>
 5    1  0.1264859E-009  0.9118800E+02  0.7815553E-02  0.1125453E+00
         25   -1    0    0    0    0  0.00000000000E+00  0.00000000000E+00  0.99999998245E-14  0.12509000000E+03  0.12509000000E+03 0.  0.
        -13    1    3    3    0    0  0.34574340460E+02  0.45211971551E+02  0.12748559962E+02  0.58327046342E+02  0.10566000000E+00 0.  1.
         23    2    1    0    0    0  0.15442473719E+02  0.95167484977E+01  0.18439209156E+02  0.99224135799E+02  0.95793455905E+02 0.  0.
         13    1    3    3    0    0 -0.19131866741E+02 -0.35695223054E+02  0.56906491940E+01  0.40897089458E+02  0.10566000000E+00 0. -1.
         22    1    1    0    0    0 -0.15442473719E+02 -0.95167484977E+01 -0.18439209156E+02  0.25865864201E+02  0.00000000000E+00 0.  1.
</event>
<event>
 5    1  0.1264859E-009  0.9118800E+02  0.7815553E-02  0.1125453E+00
         25   -1    0    0    0    0  0.00000000000E+00  0.00000000000E+00  0.99999998245E-14  0.12509000000E+03  0.12509000000E+03 0.  0.
        -13    1    3    3    0    0 -0.43747075158E+01  0.19419878643E+02 -0.25040743279E+02  0.31989369177E+02  0.10566000000E+00 0. -1.
         23    2    1    0    0    0  0.72171119363E+01 -0.32435882070E+02  0.23660425492E+01  0.91776769780E+02  0.85517274065E+02 0.  0.
         13    1    3    3    0    0  0.11591819452E+02 -0.51855760713E+02  0.27406785828E+02  0.59787400603E+02  0.10566000000E+00 0.  1.
         22    1    1    0    0    0 -0.72171119363E+01  0.32435882070E+02 -0.23660425492E+01  0.33313230220E+02  0.00000000000E+00 0.  1.
</event>
<event>
 5    1  0.1264859E-009  0.9118800E+02  0.7815553E-02  0.1125453E+00
         25   -1    0    0    0    0  0.00000000000E+00  0.00000000000E+00  0.99999998245E-14  0.12509000000E+03  0.12509000000E+03 0.  0.
        -13    1    3    3    0    0 -0.33926730454E+02  0.12898754343E+02  0.21813090855E+02  0.42346463838E+02  0.10566000000E+00 0.  1.
         23    2    1    0    0    0  0.15501300116E+02 -0.86852056692E+01  0.22667287509E+02  0.96288454454E+02  0.91880016518E+02 0.  0.
         13    1    3    3    0    0  0.49428030569E+02 -0.21583960012E+02  0.85419665415E+00  0.53941990617E+02  0.10566000000E+00 0. -1.
         22    1    1    0    0    0 -0.15501300116E+02  0.86852056692E+01 -0.22667287509E+02  0.28801545546E+02  0.00000000000E+00 0.  1.
</event>
<event>
 5    1  0.1264859E-009  0.9118800E+02  0.7815553E-02  0.1125453E+00
         25   -1    0    0    0    0  0.00000000000E+00  0.00000000000E+00  0.99999998245E-14  0.12509000000E+03  0.12509000000E+03 0.  0.
        -13    1    3    3    0    0 -0.28575585236E+02  0.55289334256E+02  0.23852660015E+00  0.62237790875E+02  0.10566000000E+00 0.  1.
         23    2    1    0    0    0 -0.12359652648E+02  0.26353572955E+02 -0.41165219934E+01  0.95692422304E+02  0.91064933493E+02 0.  0.
         13    1    3    3    0    0  0.16215932588E+02 -0.28935761301E+02 -0.43550485936E+01  0.33454631429E+02  0.10566000000E+00 0. -1.
         22    1    1    0    0    0  0.12359652648E+02 -0.26353572955E+02  0.41165219934E+01  0.29397577696E+02  0.00000000000E+00 0.  1.
</event>
<event>
 5    1  0.1264859E-009  0.9118800E+02  0.7815553E-02  0.1125453E+00
         25   -1    0    0    0    0  0.00000000000E+00  0.00000000000E+00  0.99999998245E-14  0.12509000000E+03  0.12509000000E+03 0.  0.
        -13    1    3    3    0    0  0.16679662875E+02  0.35113395409E+02  0.22037425149E+02  0.44685802689E+02  0.10566000000E+00 0.  1.
         23    2    1    0    0    0  0.24400773490E+02  0.76642422342E+00 -0.15518854131E+02  0.96162158972E+02  0.91707910409E+02 0.  0.
         13    1    3    3    0    0  0.77211106154E+01 -0.34346971185E+02 -0.37556279280E+02  0.51476356282E+02  0.10566000000E+00 0. -1.
         22    1    1    0    0    0 -0.24400773490E+02 -0.76642422342E+00  0.15518854131E+02  0.28927841028E+02  0.00000000000E+00 0. -1.
</event>
<event>
 5    1  0.1264859E-009  0.9118800E+02  0.7815553E-02  0.1125453E+00
         25   -1    0    0    0    0  0.00000000000E+00  0.00000000000E+00  0.99999998245E-14  0.12509000000E+03  0.12509000000E+03 0.  0.
        -13    1    3    3    0    0  0.12619321245E+02  0.13463866491E+02 -0.52622349026E+02  0.55764197749E+02  0.10566000000E+00 0. -1.
         23    2    1    0    0    0 -0.15763158602E+01  0.24447878019E+02 -0.18249983175E+02  0.94540934594E+02  0.89469228882E+02 0.  0.
         13    1    3    3    0    0 -0.14195637106E+02  0.10984011527E+02  0.34372365851E+02  0.38776736844E+02  0.10566000000E+00 0.  1.
         22    1    1    0    0    0  0.15763158602E+01 -0.24447878019E+02  0.18249983175E+02  0.30549065406E+02  0.00000000000E+00 0. -1.
</event>
<event>
 5    1  0.1264859E-009  0.9118800E+02  0.7815553E-02  0.1125453E+00
         25   -1    0    0    0    0  0.00000000000E+00  0.00000000000E+00  0.99999998245E-14  0.12509000000E+03  0.12509000000E+03 0.  0.
        -13    1    3    3    0    0 -0.44981785125E+01  0.21537864961E+02 -0.52577023590E+02  0.56995331481E+02  0.10566000000E+00 0.  1.
         23    2    1    0    0    0 -0.20001684852E+02  0.14104542309E+02 -0.21493119895E+02  0.92517623460E+02  0.86594173806E+02 0.  0.
         13    1    3    3    0    0 -0.15503506340E+02 -0.74333226519E+01  0.31083903695E+02  0.35522291979E+02  0.10566000000E+00 0. -1.
         22    1    1    0    0    0  0.20001684852E+02 -0.14104542309E+02  0.21493119895E+02  0.32572376540E+02  0.00000000000E+00 0.  1.
</event>
<event>
 5    1  0.1264859E-009  0.9118800E+02  0.7815553E-02  0.1125453E+00
         25   -1    0    0    0    0  0.00000000000E+00  0.00000000000E+00  0.99999998245E-14  0.12509000000E+03  0.12509000000E+03 0.  0.
        -13    1    3    3    0    0 -0.26874389020E+02  0.33414868853E+02 -0.28356742794E+02  0.51409165249E+02  0.10566000000E+00 0.  1.
         23    2    1    0    0    0 -0.18084764036E+02  0.19557751065E+02  0.12667491555E+02  0.95593734825E+02  0.90929271847E+02 0.  0.
         13    1    3    3    0    0  0.87896249831E+01 -0.13857117788E+02  0.41024234349E+02  0.44184569577E+02  0.10566000000E+00 0. -1.
         22    1    1    0    0    0  0.18084764036E+02 -0.19557751065E+02 -0.12667491555E+02  0.29496265175E+02  0.00000000000E+00 0. -1.
</event>
<event>
 5    1  0.1264859E-009  0.9118800E+02  0.7815553E-02  0.1125453E+00
         25   -1    0    0    0    0  0.00000000000E+00  0.00000000000E+00  0.99999998245E-14  0.12509000000E+03  0.12509000000E+03 0.  0.
        -13    1    3    3    0    0 -0.10115731967E+02  0.12213429480E+02  0.47046813460E+02  0.49647857090E+02  0.10566000000E+00 0. -1.
         23    2    1    0    0    0 -0.22234975390E+02  0.20552044231E+02  0.47356965304E+01  0.94443507962E+02  0.89332909512E+02 0.  0.
         13    1    3    3    0    0 -0.12119243422E+02  0.83386147507E+01 -0.42311116930E+02  0.44795650871E+02  0.10566000000E+00 0.  1.
         22    1    1    0    0    0  0.22234975390E+02 -0.20552044231E+02 -0.47356965304E+01  0.30646492038E+02  0.00000000000E+00 0.  1.
</event>
<event>
 5    1  0.1264859E-009  0.9118800E+02  0.7815553E-02  0.1125453E+00
         25   -1    0    0    0    0  0.00000000000E+00  0.00000000000E+00  0.99999998245E-14  0.12509000000E+03  0.12509000000E+03 0.  0.
        -13    1    3    3    0    0  0.48995904998E+02 -0.23753312061E+02 -0.90565940329E+01  0.55198293451E+02  0.10566000000E+00 0. -1.
         23    2    1    0    0    0  0.26378623063E+02  0.74473793995E+01 -0.14440920143E+02  0.94108789739E+02  0.88862978326E+02 0.  0.
         13    1    3    3    0    0 -0.22617281934E+02  0.31200691460E+02 -0.53843261104E+01  0.38910496288E+02  0.10566000000E+00 0.  1.
         22    1    1    0    0    0 -0.26378623063E+02 -0.74473793995E+01  0.14440920143E+02  0.30981210261E+02  0.00000000000E+00 0. -1.
</event>
<event>
 5    1  0.1264859E-009  0.9118800E+02  0.7815553E-02  0.1125453E+00
         25   -1    0    0    0    0  0.00000000000E+00  0.00000000000E+00  0.99999998245E-14  0.12509000000E+03  0.12509000000E+03 0.  0.
        -13    1    3    3    0    0 -0.18131825717E+02 -0.27423835652E+02  0.67293489711E+01  0.33557788475E+02  0.10566000000E+00 0.  1.
         23    2    1    0    0    0  0.20924986774E+02  0.20580022818E+02  0.75789148696E+00  0.95730728718E+02  0.91117537339E+02 0.  0.
         13    1    3    3    0    0  0.39056812491E+02  0.48003858470E+02 -0.59714574841E+01  0.62172940243E+02  0.10566000000E+00 0. -1.
         22    1    1    0    0    0 -0.20924986774E+02 -0.20580022818E+02 -0.75789148696E+00  0.29359271282E+02  0.00000000000E+00 0. -1.
</event>
<event>
 5    1  0.1264859E-009  0.9118800E+02  0.7815553E-02  0.1125453E+00
         25   -1    0    0    0    0  0.00000000000E+00  0.00000000000E+00  0.99999998245E-14  0.12509000000E+03  0.12509000000E+03 0.  0.
        -13    1    3    3    0    0  0.16102747516E+02  0.26911367148E+02  0.52322607124E+02  0.61001528994E+02  0.10566000000E+00 0.  1.
         23    2    1    0    0    0  0.12098919379E+02  0.19429391619E+02  0.19136379791E+02  0.95255688539E+02  0.90463031448E+02 0.  0.
         13    1    3    3    0    0 -0.40038281368E+01 -0.74819755286E+01 -0.33186227332E+02  0.34254159545E+02  0.10566000000E+00 0. -1.
         22    1    1    0    0    0 -0.12098919379E+02 -0.19429391619E+02 -0.19136379791E+02  0.29834311461E+02  0.00000000000E+00 0.  1.
</event>
<event>
 5    1  0.1264859E-009  0.9118800E+02  0.7815553E-02  0.1125453E+00
         25   -1    0    0    0    0  0.00000000000E+00  0.00000000000E+00  0.99999998245E-14  0.12509000000E+03  0.12509000000E+03 0.  0.
        -13    1    3    3    0    0  0.45758784969E+02  0.11147778210E+02 -0.91057309671E-01  0.47097333431E+02  0.10566000000E+00 0. -1.
         23    2    1    0    0    0  0.12603943053E+01  0.22544030749E+02  0.17744003481E+02  0.96372904469E+02  0.91994919099E+02 0.  0.
         13    1    3    3    0    0 -0.44498390664E+02  0.11396252539E+02  0.17835060791E+02  0.49275571037E+02  0.10566000000E+00 0.  1.
         22    1    1    0    0    0 -0.12603943053E+01 -0.22544030749E+02 -0.17744003481E+02  0.28717095531E+02  0.00000000000E+00 0.  1.
</event>
<event>
 5    1  0.1264859E-009  0.9118800E+02  0.7815553E-02  0.1125453E+00
         25   -1    0    0    0    0  0.00000000000E+00  0.00000000000E+00  0.99999998245E-14  0.12509000000E+03  0.12509000000E+03 0.  0.
        -13    1    3    3    0    0 -0.14236681677E+02  0.31825655569E+02 -0.10192813831E+02  0.36324373021E+02  0.10566000000E+00 0.  1.
         23    2    1    0    0    0 -0.12129040168E+02 -0.26849052628E+02 -0.38163981484E+01  0.95382254592E+02  0.90637874831E+02 0.  0.
         13    1    3    3    0    0  0.21076415090E+01 -0.58674708196E+02  0.63764156825E+01  0.59057881571E+02  0.10566000000E+00 0. -1.
         22    1    1    0    0    0  0.12129040168E+02  0.26849052628E+02  0.38163981484E+01  0.29707745408E+02  0.00000000000E+00 0. -1.
</event>
<event>
 5    1  0.1264859E-009  0.9118800E+02  0.7815553E-02  0.1125453E+00
         25   -1    0    0    0    0  0.00000000000E+00  0.00000000000E+00  0.99999998245E-14  0.12509000000E+03  0.12509000000E+03 0.  0.
        -13    1    3    3    0    0  0.27146711856E+02 -0.30101093670E+02 -0.43131497167E+02  0.59189163000E+02  0.10566000000E+00 0.  1.
         23    2    1    0    0    0  0.28391843064E+00 -0.10407999844E+02 -0.26906999302E+02  0.96238766372E+02  0.91812343783E+02 0.  0.
         13    1    3    3    0    0 -0.26862793426E+02  0.19693093825E+02  0.16224497865E+02  0.37049603372E+02  0.10566000000E+00 0. -1.
         22    1    1    0    0    0 -0.28391843064E+00  0.10407999844E+02  0.26906999302E+02  0.28851233628E+02  0.00000000000E+00 0.  1.
</event>
<event>
 5    1  0.1264859E-009  0.9118800E+02  0.7815553E-02  0.1125453E+00
         25   -1    0    0    0    0  0.00000000000E+00  0.00000000000E+00  0.99999998245E-14  0.12509000000E+03  0.12509000000E+03 0.  0.
        -13    1    3    3    0    0 -0.23049768622E+02 -0.31390099117E+02 -0.45974975763E+02  0.60252300508E+02  0.10566000000E+00 0.  1.
         23    2    1    0    0    0 -0.16602960958E+02 -0.20832610244E+02 -0.13047265820E+02  0.95427108915E+02  0.90699757488E+02 0.  0.
         13    1    3    3    0    0  0.64468076637E+01  0.10557488874E+02  0.32927709943E+02  0.35174808407E+02  0.10566000000E+00 0. -1.
         22    1    1    0    0    0  0.16602960958E+02  0.20832610244E+02  0.13047265820E+02  0.29662891085E+02  0.00000000000E+00 0.  1.
</event>
<event>
 5    1  0.1264859E-009  0.9118800E+02  0.7815553E-02  0.1125453E+00
         25   -1    0    0    0    0  0.00000000000E+00  0.00000000000E+00  0.99999998245E-14  0.12509000000E+03  0.12509000000E+03 0.  0.
        -13    1    3    3    0    0 -0.13331686794E+02  0.13926509690E+02  0.28954699465E+02  0.34786022050E+02  0.10566000000E+00 0. -1.
         23    2    1    0    0    0  0.21048651640E+02 -0.11364763320E+02 -0.15636821823E+02  0.96511795404E+02  0.92183582455E+02 0.  0.
         13    1    3    3    0    0  0.34380338434E+02 -0.25291273010E+02 -0.44591521288E+02  0.61725773354E+02  0.10566000000E+00 0.  1.
         22    1    1    0    0    0 -0.21048651640E+02  0.11364763320E+02  0.15636821823E+02  0.28578204596E+02  0.00000000000E+00 0.  1.
</event>
<event>
 5    1  0.1264859E-009  0.9118800E+02  0.7815553E-02  0.1125453E+00
         25   -1    0    0    0    0  0.00000000000E+00  0.00000000000E+00  0.99999998245E-14  0.12509000000E+03  0.12509000000E+03 0.  0.
        -13    1    3    3    0    0  0.12690200155E+01 -0.36564851197E+02  0.12405049482E+02  0.38632825053E+02  0.10566000000E+00 0. -1.
         23    2    1    0    0    0 -0.22729084375E+02  0.58753509466E+01 -0.17482080179E+02  0.95819636957E+02  0.91239512679E+02 0.  0.
         13    1    3    3    0    0 -0.23998104391E+02  0.42440202143E+02 -0.29887129662E+02  0.57186811904E+02  0.10566000000E+00 0.  1.
         22    1    1    0    0    0  0.22729084375E+02 -0.58753509466E+01  0.17482080179E+02  0.29270363043E+02  0.00000000000E+00 0.  1.
</event>
<event>
 5    1  0.1264859E-009  0.9118800E+02  0.7815553E-02  0.1125453E+00
         25   -1    0    0    0    0  0.00000000000E+00  0.00000000000E+00  0.99999998245E-14  0.12509000000E+03  0.12509000000E+03 0.  0.
        -13    1    3    3    0    0 -0.44278521320E+02  0.19910809631E+02 -0.24844067798E+02  0.54536837635E+02  0.10566000000E+00 0. -1.
         23    2    1    0    0    0 -0.18706922147E+02 -0.96565714047E+01 -0.23341380587E+02  0.93657240732E+02  0.88225055321E+02 0.  0.
         13    1    3    3    0    0  0.25571599173E+02 -0.29567381036E+02  0.15026872115E+01  0.39120403097E+02  0.10566000000E+00 0.  1.
         22    1    1    0    0    0  0.18706922147E+02  0.96565714047E+01  0.23341380587E+02  0.31432759268E+02  0.00000000000E+00 0. -1.
</event>
<event>
 5    1  0.1264859E-009  0.9118800E+02  0.7815553E-02  0.1125453E+00
         25   -1    0    0    0    0  0.00000000000E+00  0.00000000000E+00  0.99999998245E-14  0.12509000000E+03  0.12509000000E+03 0.  0.
        -13    1    3    3    0    0  0.16877941836E+02  0.44399352833E+02  0.31642886980E+02  0.57074082674E+02  0.10566000000E+00 0.  1.
         23    2    1    0    0    0 -0.49452855137E+01  0.12212841296E+02  0.25422443969E+02  0.96455929408E+02  0.92107742993E+02 0.  0.
         13    1    3    3    0    0 -0.21823227350E+02 -0.32186511537E+02 -0.62204430105E+01  0.39381846734E+02  0.10566000000E+00 0. -1.
         22    1    1    0    0    0  0.49452855137E+01 -0.12212841296E+02 -0.25422443969E+02  0.28634070592E+02  0.00000000000E+00 0.  1.
</event>
<event>
 5    1  0.1264859E-009  0.9118800E+02  0.7815553E-02  0.1125453E+00
         25   -1    0    0    0    0  0.00000000000E+00  0.00000000000E+00  0.99999998245E-14  0.12509000000E+03  0.12509000000E+03 0.  0.
        -13    1    3    3    0    0  0.20797402623E+02 -0.18425349950E+02  0.20947428325E+02  0.34797002660E+02  0.10566000000E+00 0. -1.
         23    2    1    0    0    0 -0.26898996144E+02  0.12056265025E+01 -0.11584392441E+02  0.95777755510E+02  0.91182074847E+02 0.  0.
         13    1    3    3    0    0 -0.47696398767E+02  0.19630976452E+02 -0.32531820765E+02  0.60980752850E+02  0.10566000000E+00 0.  1.
         22    1    1    0    0    0  0.26898996144E+02 -0.12056265025E+01  0.11584392441E+02  0.29312244490E+02  0.00000000000E+00 0.  1.
</event>
<event>
 5    1  0.1264859E-009  0.9118800E+02  0.7815553E-02  0.1125453E+00
         25   -1    0    0    0    0  0.00000000000E+00  0.00000000000E+00  0.99999998245E-14  0.12509000000E+03  0.12509000000E+03 0.  0.
        -13    1    3    3    0    0  0.47271007876E+02  0.20672727721E+02  0.17972456515E+02  0.54634514862E+02  0.10566000000E+00 0. -1.
         23    2    1    0    0    0  0.14404286595E+02  0.25037255989E+02 -0.60503084315E+01  0.95578072041E+02  0.90907722241E+02 0.  0.
         13    1    3    3    0    0 -0.32866721280E+02  0.43645282673E+01 -0.24022764946E+02  0.40943557178E+02  0.10566000000E+00 0.  1.
         22    1    1    0    0    0 -0.14404286595E+02 -0.25037255989E+02  0.60503084315E+01  0.29511927959E+02  0.00000000000E+00 0. -1.
</event>
<event>
 5    1  0.1264859E-009  0.9118800E+02  0.7815553E-02  0.1125453E+00
         25   -1    0    0    0    0  0.00000000000E+00  0.00000000000E+00  0.99999998245E-14  0.12509000000E+03  0.12509000000E+03 0.  0.
        -13    1    3    3    0    0  0.36069326379E+02  0.41069815995E+02  0.13528638035E+02  0.56309513427E+02  0.10566000000E+00 0.  1.
         23    2    1    0    0    0  0.21722574067E+02  0.16008407412E+02 -0.12650973945E+02  0.95287542489E+02  0.90507067568E+02 0.  0.
         13    1    3    3    0    0 -0.14346752312E+02 -0.25061408583E+02 -0.26179611980E+02  0.38978029061E+02  0.10566000000E+00 0. -1.
         22    1    1    0    0    0 -0.21722574067E+02 -0.16008407412E+02  0.12650973945E+02  0.29802457511E+02  0.00000000000E+00 0.  1.
</event>
<event>
 5    1  0.1264859E-009  0.9118800E+02  0.7815553E-02  0.1125453E+00
         25   -1    0    0    0    0  0.00000000000E+00  0.00000000000E+00  0.99999998245E-14  0.12509000000E+03  0.12509000000E+03 0.  0.
        -13    1    3    3    0    0  0.24271675898E+01  0.26203368427E+02 -0.23373358115E+02  0.35197055176E+02  0.10566000000E+00 0.  1.
         23    2    1    0    0    0  0.49896996528E+01 -0.60235377316E+01  0.28067372453E+02  0.95953124638E+02  0.91422342029E+02 0.  0.
         13    1    3    3    0    0  0.25625320630E+01 -0.32226906159E+02  0.51440730568E+02  0.60756069463E+02  0.10566000000E+00 0. -1.
         22    1    1    0    0    0 -0.49896996528E+01  0.60235377316E+01 -0.28067372453E+02  0.29136875362E+02  0.00000000000E+00 0. -1.
</event>
<event>
 5    1  0.1264859E-009  0.9118800E+02  0.7815553E-02  0.1125453E+00
         25   -1    0    0    0    0  0.00000000000E+00  0.00000000000E+00  0.99999998245E-14  0.12509000000E+03  0.12509000000E+03 0.  0.
        -13    1    3    3    0    0  0.12078888938E+02 -0.35721377140E+02  0.24016669633E+01  0.37784858224E+02  0.10566000000E+00 0. -1.
         23    2    1    0    0    0 -0.18063283708E+02  0.11765208191E+02  0.18922320662E+02  0.96406266608E+02  0.92040272055E+02 0.  0.
         13    1    3    3    0    0 -0.30142172646E+02  0.47486585331E+02  0.16520653699E+02  0.58621408384E+02  0.10566000000E+00 0.  1.
         22    1    1    0    0    0  0.18063283708E+02 -0.11765208191E+02 -0.18922320662E+02  0.28683733392E+02  0.00000000000E+00 0.  1.
</event>
<event>
 5    1  0.1264859E-009  0.9118800E+02  0.7815553E-02  0.1125453E+00
         25   -1    0    0    0    0  0.00000000000E+00  0.00000000000E+00  0.99999998245E-14  0.12509000000E+03  0.12509000000E+03 0.  0.
        -13    1    3    3    0    0 -0.42865753867E+02  0.27241978632E+02 -0.81974818395E+01  0.51447139152E+02  0.10566000000E+00 0.  1.
         23    2    1    0    0    0 -0.27345274520E+02 -0.12061076351E+02  0.26850082721E+01  0.95082619729E+02  0.90223398871E+02 0.  0.
         13    1    3    3    0    0  0.15520479347E+02 -0.39303054983E+02  0.10882490112E+02  0.43635480577E+02  0.10566000000E+00 0. -1.
         22    1    1    0    0    0  0.27345274520E+02  0.12061076351E+02 -0.26850082721E+01  0.30007380271E+02  0.00000000000E+00 0.  1.
</event>
<event>
 5    1  0.1264859E-009  0.9118800E+02  0.7815553E-02  0.1125453E+00
         25   -1    0    0    0    0  0.00000000000E+00  0.00000000000E+00  0.99999998245E-14  0.12509000000E+03  0.12509000000E+03 0.  0.
        -13    1    3    3    0    0 -0.30090679355E+02 -0.32129198906E+02 -0.44118074376E+02  0.62322949682E+02  0.10566000000E+00 0.  1.
         23    2    1    0    0    0 -0.13565496458E+02 -0.19912989439E+02 -0.24032610864E+02  0.91058893238E+02  0.84460676117E+02 0.  0.
         13    1    3    3    0    0  0.16525182897E+02  0.12216209467E+02  0.20085463512E+02  0.28735943556E+02  0.10566000000E+00 0. -1.
         22    1    1    0    0    0  0.13565496458E+02  0.19912989439E+02  0.24032610864E+02  0.34031106762E+02  0.00000000000E+00 0.  1.
</event>
<event>
 5    1  0.1264859E-009  0.9118800E+02  0.7815553E-02  0.1125453E+00
         25   -1    0    0    0    0  0.00000000000E+00  0.00000000000E+00  0.99999998245E-14  0.12509000000E+03  0.12509000000E+03 0.  0.
        -13    1    3    3    0    0  0.46809404850E+02 -0.23686295208E+02  0.99247019977E+01  0.53391683218E+02  0.10566000000E+00 0.  1.
         23    2    1    0    0    0  0.10113763882E+02 -0.15677705814E+02  0.25027334592E+02  0.93873879866E+02  0.88531684525E+02 0.  0.
         13    1    3    3    0    0 -0.36695640967E+02  0.80085893940E+01  0.15102632594E+02  0.40482196648E+02  0.10566000000E+00 0. -1.
         22    1    1    0    0    0 -0.10113763882E+02  0.15677705814E+02 -0.25027334592E+02  0.31216120134E+02  0.00000000000E+00 0.  1.
</event>
<event>
 5    1  0.1264859E-009  0.9118800E+02  0.7815553E-02  0.1125453E+00
         25   -1    0    0    0    0  0.00000000000E+00  0.00000000000E+00  0.99999998245E-14  0.12509000000E+03  0.12509000000E+03 0.  0.
        -13    1    3    3    0    0 -0.10698781668E+02 -0.49251531284E+02 -0.41693044429E+01  0.50572438408E+02  0.10566000000E+00 0. -1.
         23    2    1    0    0    0  0.88430280142E+01 -0.15597372447E+02  0.21426070957E+02  0.97151609059E+02  0.93047737503E+02 0.  0.
         13    1    3    3    0    0  0.19541809682E+02  0.33654158837E+02  0.25595375400E+02  0.46579170651E+02  0.10566000000E+00 0.  1.
         22    1    1    0    0    0 -0.88430280142E+01  0.15597372447E+02 -0.21426070957E+02  0.27938390941E+02  0.00000000000E+00 0.  1.
</event>
<event>
 5    1  0.1264859E-009  0.9118800E+02  0.7815553E-02  0.1125453E+00
         25   -1    0    0    0    0  0.00000000000E+00  0.00000000000E+00  0.99999998245E-14  0.12509000000E+03  0.12509000000E+03 0.  0.
        -13    1    3    3    0    0  0.12572039569E+01 -0.32830442641E+02 -0.39090495755E+02  0.51063651928E+02  0.10566000000E+00 0. -1.
         23    2    1    0    0    0 -0.82139421358E+01  0.10237813942E+02 -0.24114464630E+02  0.97634780385E+02  0.93695043928E+02 0.  0.
         13    1    3    3    0    0 -0.94711460927E+01  0.43068256583E+02  0.14976031125E+02  0.46571128457E+02  0.10566000000E+00 0.  1.
         22    1    1    0    0    0  0.82139421358E+01 -0.10237813942E+02  0.24114464630E+02  0.27455219615E+02  0.00000000000E+00 0. -1.
</event>
<event>
 5    1  0.1264859E-009  0.9118800E+02  0.7815553E-02  0.1125453E+00
         25   -1    0    0    0    0  0.00000000000E+00  0.00000000000E+00  0.99999998245E-14  0.12509000000E+03  0.12509000000E+03 0.  0.
        -13    1    3    3    0    0  0.20462931071E+02 -0.52855125893E+02 -0.75924994170E+01  0.57184378047E+02  0.10566000000E+00 0.  1.
         23    2    1    0    0    0  0.18823103118E+02 -0.17807430009E+02  0.11055574658E+02  0.96918391854E+02  0.92733678747E+02 0.  0.
         13    1    3    3    0    0 -0.16398279523E+01  0.35047695884E+02  0.18648074075E+02  0.39734013807E+02  0.10566000000E+00 0. -1.
         22    1    1    0    0    0 -0.18823103118E+02  0.17807430009E+02 -0.11055574658E+02  0.28171608146E+02  0.00000000000E+00 0. -1.
</event>
<event>
 5    1  0.1264859E-009  0.9118800E+02  0.7815553E-02  0.1125453E+00
         25   -1    0    0    0    0  0.00000000000E+00  0.00000000000E+00  0.99999998245E-14  0.12509000000E+03  0.12509000000E+03 0.  0.
        -13    1    3    3    0    0  0.50531358856E+02 -0.21464573965E+02 -0.74939880166E+01  0.55410442913E+02  0.10566000000E+00 0. -1.
         23    2    1    0    0    0  0.12075483534E+02 -0.18079994986E+02 -0.19547294555E+02  0.95853032892E+02  0.91285287253E+02 0.  0.
         13    1    3    3    0    0 -0.38455875322E+02  0.33845789796E+01 -0.12053306538E+02  0.40442589979E+02  0.10566000000E+00 0.  1.
         22    1    1    0    0    0 -0.12075483534E+02  0.18079994986E+02  0.19547294555E+02  0.29236967108E+02  0.00000000000E+00 0. -1.
</event>
<event>
 5    1  0.1264859E-009  0.9118800E+02  0.7815553E-02  0.1125453E+00
         25   -1    0    0    0    0  0.00000000000E+00  0.00000000000E+00  0.99999998245E-14  0.12509000000E+03  0.12509000000E+03 0.  0.
        -13    1    3    3    0    0  0.23979012138E+02 -0.28498734788E+02 -0.40174539794E+01  0.37460939766E+02  0.10566000000E+00 0.  1.
         23    2    1    0    0    0 -0.23433619013E+02 -0.48842819294E+01  0.18320436351E+02  0.94946524784E+02  0.90034512663E+02 0.  0.
         13    1    3    3    0    0 -0.47412631151E+02  0.23614452859E+02  0.22337890330E+02  0.57485585018E+02  0.10566000000E+00 0. -1.
         22    1    1    0    0    0  0.23433619013E+02  0.48842819294E+01 -0.18320436351E+02  0.30143475216E+02  0.00000000000E+00 0. -1.
</event>
<event>
 5    1  0.1264859E-009  0.9118800E+02  0.7815553E-02  0.1125453E+00
         25   -1    0    0    0    0  0.00000000000E+00  0.00000000000E+00  0.99999998245E-14  0.12509000000E+03  0.12509000000E+03 0.  0.
        -13    1    3    3    0    0 -0.12298754330E+02  0.82280279853E+01  0.37027745613E+02  0.39875116449E+02  0.10566000000E+00 0. -1.
         23    2    1    0    0    0 -0.16691907912E+02  0.15310277577E+02 -0.18388919491E+02  0.95915066422E+02  0.91370253461E+02 0.  0.
         13    1    3    3    0    0 -0.43931535822E+01  0.70822495919E+01 -0.55416665104E+02  0.56039949973E+02  0.10566000000E+00 0.  1.
         22    1    1    0    0    0  0.16691907912E+02 -0.15310277577E+02  0.18388919491E+02  0.29174933578E+02  0.00000000000E+00 0.  1.
</event>
<event>
 5    1  0.1264859E-009  0.9118800E+02  0.7815553E-02  0.1125453E+00
         25   -1    0    0    0    0  0.00000000000E+00  0.00000000000E+00  0.99999998245E-14  0.12509000000E+03  0.12509000000E+03 0.  0.
        -13    1    3    3    0    0 -0.73004042561E+01 -0.14575026812E+02  0.30221986729E+02  0.34338126839E+02  0.10566000000E+00 0.  1.
         23    2    1    0    0    0  0.16213224868E+02  0.18902166817E+01 -0.24219208122E+02  0.95883637307E+02  0.91327215447E+02 0.  0.
         13    1    3    3    0    0  0.23513629124E+02  0.16465243494E+02 -0.54441194852E+02  0.61545510468E+02  0.10566000000E+00 0. -1.
         22    1    1    0    0    0 -0.16213224868E+02 -0.18902166817E+01  0.24219208122E+02  0.29206362693E+02  0.00000000000E+00 0. -1.
</event>
<event>
 5    1  0.1264859E-009  0.9118800E+02  0.7815553E-02  0.1125453E+00
         25   -1    0    0    0    0  0.00000000000E+00  0.00000000000E+00  0.99999998245E-14  0.12509000000E+03  0.12509000000E+03 0.  0.
        -13    1    3    3    0    0 -0.87669123024E+01 -0.11554107487E+02 -0.37266381762E+02  0.39989380151E+02  0.10566000000E+00 0. -1.
         23    2    1    0    0    0  0.29467048712E+02 -0.36795224482E+01  0.19595760741E+01  0.95329526488E+02  0.90565075149E+02 0.  0.
         13    1    3    3    0    0  0.38233961015E+02  0.78745850387E+01  0.39225957837E+02  0.55340146337E+02  0.10566000000E+00 0.  1.
         22    1    1    0    0    0 -0.29467048712E+02  0.36795224482E+01 -0.19595760741E+01  0.29760473512E+02  0.00000000000E+00 0.  1.
</event>
<event>
 5    1  0.1264859E-009  0.9118800E+02  0.7815553E-02  0.1125453E+00
         25   -1    0    0    0    0  0.00000000000E+00  0.00000000000E+00  0.99999998245E-14  0.12509000000E+03  0.12509000000E+03 0.  0.
        -13    1    3    3    0    0 -0.32197470576E+02 -0.38775594078E+01 -0.31716850761E+01  0.32585016936E+02  0.10566000000E+00 0.  1.
         23    2    1    0    0    0  0.14202401923E+02 -0.24031598885E+02  0.22428119356E+02  0.89281530287E+02  0.81785971580E+02 0.  0.
         13    1    3    3    0    0  0.46399872499E+02 -0.20154039477E+02  0.25599804432E+02  0.56696513351E+02  0.10566000000E+00 0. -1.
         22    1    1    0    0    0 -0.14202401923E+02  0.24031598885E+02 -0.22428119356E+02  0.35808469713E+02  0.00000000000E+00 0. -1.
</event>
<event>
 5    1  0.1264859E-009  0.9118800E+02  0.7815553E-02  0.1125453E+00
         25   -1    0    0    0    0  0.00000000000E+00  0.00000000000E+00  0.99999998245E-14  0.12509000000E+03  0.12509000000E+03 0.  0.
        -13    1    3    3    0    0 -0.29109812151E+01  0.31183734249E+02 -0.18407973001E+02  0.36328552509E+02  0.10566000000E+00 0.  1.
         23    2    1    0    0    0  0.23631999632E+02 -0.11228688773E+02  0.13477801050E+02  0.95658622538E+02  0.91018493102E+02 0.  0.
         13    1    3    3    0    0  0.26542980847E+02 -0.42412423022E+02  0.31885774050E+02  0.59330070029E+02  0.10566000000E+00 0. -1.
         22    1    1    0    0    0 -0.23631999632E+02  0.11228688773E+02 -0.13477801050E+02  0.29431377462E+02  0.00000000000E+00 0. -1.
</event>
<event>
 5    1  0.1264859E-009  0.9118800E+02  0.7815553E-02  0.1125453E+00
         25   -1    0    0    0    0  0.00000000000E+00  0.00000000000E+00  0.99999998245E-14  0.12509000000E+03  0.12509000000E+03 0.  0.
        -13    1    3    3    0    0 -0.36482072860E+02 -0.81606462757E+01 -0.25419433739E+01  0.37470127140E+02  0.10566000000E+00 0.  1.
         23    2    1    0    0    0  0.10875809928E+02  0.12539022479E+02  0.24263681521E+02  0.95692099271E+02  0.91064489762E+02 0.  0.
         13    1    3    3    0    0  0.47357882788E+02  0.20699668754E+02  0.26805624895E+02  0.58221972130E+02  0.10566000000E+00 0. -1.
         22    1    1    0    0    0 -0.10875809928E+02 -0.12539022479E+02 -0.24263681521E+02  0.29397900729E+02  0.00000000000E+00 0. -1.
</event>
<event>
 5    1  0.1264859E-009  0.9118800E+02  0.7815553E-02  0.1125453E+00
         25   -1    0    0    0    0  0.00000000000E+00  0.00000000000E+00  0.99999998245E-14  0.12509000000E+03  0.12509000000E+03 0.  0.
        -13    1    3    3    0    0  0.30521839570E+02 -0.47170527648E+02  0.10051284284E+02  0.57076097003E+02  0.10566000000E+00 0.  1.
         23    2    1    0    0    0 -0.20994663356E+01 -0.24616650873E+02  0.13590411573E+02  0.96892720950E+02  0.92699044371E+02 0.  0.
         13    1    3    3    0    0 -0.32621305905E+02  0.22553876775E+02  0.35391272891E+01  0.39816623947E+02  0.10566000000E+00 0. -1.
         22    1    1    0    0    0  0.20994663356E+01  0.24616650873E+02 -0.13590411573E+02  0.28197279050E+02  0.00000000000E+00 0.  1.
</event>
<event>
 5    1  0.1264859E-009  0.9118800E+02  0.7815553E-02  0.1125453E+00
         25   -1    0    0    0    0  0.00000000000E+00  0.00000000000E+00  0.99999998245E-14  0.12509000000E+03  0.12509000000E+03 0.  0.
        -13    1    3    3    0    0  0.39975313626E+02  0.28368802701E+02 -0.28722992451E+02  0.56814048664E+02  0.10566000000E+00 0. -1.
         23    2    1    0    0    0  0.29532161414E+02  0.36959543578E+01 -0.10834387968E+01  0.95307748976E+02  0.90534990688E+02 0.  0.
         13    1    3    3    0    0 -0.10443152211E+02 -0.24672848343E+02  0.27639553655E+02  0.38493700312E+02  0.10566000000E+00 0.  1.
         22    1    1    0    0    0 -0.29532161414E+02 -0.36959543578E+01  0.10834387968E+01  0.29782251024E+02  0.00000000000E+00 0. -1.
</event>
<event>
 5    1  0.1264859E-009  0.9118800E+02  0.7815553E-02  0.1125453E+00
         25   -1    0    0    0    0  0.00000000000E+00  0.00000000000E+00  0.99999998245E-14  0.12509000000E+03  0.12509000000E+03 0.  0.
        -13    1    3    3    0    0  0.48619114958E+00  0.22513277293E+02  0.36379227925E+02  0.42784850412E+02  0.10566000000E+00 0. -1.
         23    2    1    0    0    0 -0.15288134218E+02 -0.21886673529E+02  0.12434808247E+02  0.95638718497E+02  0.90991134149E+02 0.  0.
         13    1    3    3    0    0 -0.15774325367E+02 -0.44399950822E+02 -0.23944419679E+02  0.52853868085E+02  0.10566000000E+00 0.  1.
         22    1    1    0    0    0  0.15288134218E+02  0.21886673529E+02 -0.12434808247E+02  0.29451281503E+02  0.00000000000E+00 0.  1.
</event>
<event>
 5    1  0.1264859E-009  0.9118800E+02  0.7815553E-02  0.1125453E+00
         25   -1    0    0    0    0  0.00000000000E+00  0.00000000000E+00  0.99999998245E-14  0.12509000000E+03  0.12509000000E+03 0.  0.
        -13    1    3    3    0    0  0.30436474990E+02 -0.55773703346E+01  0.13724187974E+02  0.33850414610E+02  0.10566000000E+00 0. -1.
         23    2    1    0    0    0 -0.20894389732E+02 -0.97019933445E+01 -0.19308964321E+02  0.95031052908E+02  0.90151875835E+02 0.  0.
         13    1    3    3    0    0 -0.51330864722E+02 -0.41246230099E+01 -0.33033152295E+02  0.61180638299E+02  0.10566000000E+00 0.  1.
         22    1    1    0    0    0  0.20894389732E+02  0.97019933445E+01  0.19308964321E+02  0.30058947092E+02  0.00000000000E+00 0.  1.
</event>
<event>
 4    1  0.1264859E-009  0.9118800E+02  0.7815553E-02  0.1125453E+00
         25   -1    0    0    0    0  0.00000000000E+00  0.00000000000E+00  0.99999998245E-14  0.12509000000E+03  0.12509000000E+03 0.  0.
        -13    1    1    0    0    0  0.12731475600E+02 -0.14927047509E+02  0.58337785508E+01  0.20468301212E+02  0.10566000000E+00 0.  1.
         13    1    1    0    0    0 -0.26785589741E+02 -0.30009883364E+02  0.25900206518E+02  0.47842374304E+02  0.10566000000E+00 0. -1.
         22    1    1    0    0    0  0.14054114141E+02  0.44936930873E+02 -0.31733985069E+02  0.56779324485E+02  0.00000000000E+00 0. -1.
</event>
<event>
 5    1  0.1264859E-009  0.9118800E+02  0.7815553E-02  0.1125453E+00
         25   -1    0    0    0    0  0.00000000000E+00  0.00000000000E+00  0.99999998245E-14  0.12509000000E+03  0.12509000000E+03 0.  0.
        -13    1    3    3    0    0 -0.28660997165E+01 -0.21515981214E+02 -0.24790075183E+02  0.32950128479E+02  0.10566000000E+00 0.  1.
         23    2    1    0    0    0 -0.15114899727E+01  0.23548346224E+02  0.18233626983E+02  0.95269296374E+02  0.90481846062E+02 0.  0.
         13    1    3    3    0    0  0.13546097437E+01  0.45064327438E+02  0.43023702166E+02  0.62319167895E+02  0.10566000000E+00 0. -1.
         22    1    1    0    0    0  0.15114899727E+01 -0.23548346224E+02 -0.18233626983E+02  0.29820703626E+02  0.00000000000E+00 0. -1.
</event>
<event>
 5    1  0.1264859E-009  0.9118800E+02  0.7815553E-02  0.1125453E+00
         25   -1    0    0    0    0  0.00000000000E+00  0.00000000000E+00  0.99999998245E-14  0.12509000000E+03  0.12509000000E+03 0.  0.
        -13    1    3    3    0    0  0.21321322319E+02  0.30017207472E+02  0.38897732881E+02  0.53560025366E+02  0.10566000000E+00 0. -1.
         23    2    1    0    0    0 -0.11087249755E+02  0.28611877164E+01  0.24189405350E+02  0.98327323873E+02  0.94615124513E+02 0.  0.
         13    1    3    3    0    0 -0.32408572074E+02 -0.27156019756E+02 -0.14708327531E+02  0.44767298508E+02  0.10566000000E+00 0.  1.
         22    1    1    0    0    0  0.11087249755E+02 -0.28611877164E+01 -0.24189405350E+02  0.26762676127E+02  0.00000000000E+00 0. -1.
</event>
<event>
 5    1  0.1264859E-009  0.9118800E+02  0.7815553E-02  0.1125453E+00
         25   -1    0    0    0    0  0.00000000000E+00  0.00000000000E+00  0.99999998245E-14  0.12509000000E+03  0.12509000000E+03 0.  0.
        -13    1    3    3    0    0 -0.35370743292E+02 -0.15975024001E+02 -0.44908094996E+02  0.59355193817E+02  0.10566000000E+00 0.  1.
         23    2    1    0    0    0 -0.28602930664E+01 -0.41733626998E+01 -0.25658164569E+02  0.98937760293E+02  0.95418765294E+02 0.  0.
         13    1    3    3    0    0  0.32510450226E+02  0.11801661301E+02  0.19249930427E+02  0.39582566476E+02  0.10566000000E+00 0. -1.
         22    1    1    0    0    0  0.28602930664E+01  0.41733626998E+01  0.25658164569E+02  0.26152239707E+02  0.00000000000E+00 0.  1.
</event>
<event>
 5    1  0.1264859E-009  0.9118800E+02  0.7815553E-02  0.1125453E+00
         25   -1    0    0    0    0  0.00000000000E+00  0.00000000000E+00  0.99999998245E-14  0.12509000000E+03  0.12509000000E+03 0.  0.
        -13    1    3    3    0    0 -0.84790539068E+01  0.20075824307E+02  0.30119594033E+02  0.37177065316E+02  0.10566000000E+00 0. -1.
         23    2    1    0    0    0 -0.19787279287E+02 -0.19494968428E+02 -0.10869235546E+02  0.95261649443E+02  0.90471273660E+02 0.  0.
         13    1    3    3    0    0 -0.11308225381E+02 -0.39570792734E+02 -0.40988829579E+02  0.58084584127E+02  0.10566000000E+00 0.  1.
         22    1    1    0    0    0  0.19787279287E+02  0.19494968428E+02  0.10869235546E+02  0.29828350557E+02  0.00000000000E+00 0.  1.
</event>
<event>
 5    1  0.1264859E-009  0.9118800E+02  0.7815553E-02  0.1125453E+00
         25   -1    0    0    0    0  0.00000000000E+00  0.00000000000E+00  0.99999998245E-14  0.12509000000E+03  0.12509000000E+03 0.  0.
        -13    1    3    3    0    0  0.21689893841E+02 -0.27744700352E+02  0.18611991740E+02  0.39832615944E+02  0.10566000000E+00 0. -1.
         23    2    1    0    0    0  0.86345015694E+01 -0.65314761067E+01 -0.29311492935E+02  0.93842945490E+02  0.88487965298E+02 0.  0.
         13    1    3    3    0    0 -0.13055392271E+02  0.21213224245E+02 -0.47923484674E+02  0.54010329545E+02  0.10566000000E+00 0.  1.
         22    1    1    0    0    0 -0.86345015694E+01  0.65314761067E+01  0.29311492935E+02  0.31247054510E+02  0.00000000000E+00 0.  1.
</event>
<event>
 5    1  0.1264859E-009  0.9118800E+02  0.7815553E-02  0.1125453E+00
         25   -1    0    0    0    0  0.00000000000E+00  0.00000000000E+00  0.99999998245E-14  0.12509000000E+03  0.12509000000E+03 0.  0.
        -13    1    3    3    0    0 -0.28379524571E+02  0.31372190399E+02  0.39062782857E+01  0.42483901885E+02  0.10566000000E+00 0.  1.
         23    2    1    0    0    0 -0.21825247408E+02 -0.18758204131E+02  0.12407115761E+02  0.93750756740E+02  0.88357547618E+02 0.  0.
         13    1    3    3    0    0  0.65542771633E+01 -0.50130394530E+02  0.85008374751E+01  0.51266854854E+02  0.10566000000E+00 0. -1.
         22    1    1    0    0    0  0.21825247408E+02  0.18758204131E+02 -0.12407115761E+02  0.31339243260E+02  0.00000000000E+00 0. -1.
</event>
<event>
 5    1  0.1264859E-009  0.9118800E+02  0.7815553E-02  0.1125453E+00
         25   -1    0    0    0    0  0.00000000000E+00  0.00000000000E+00  0.99999998245E-14  0.12509000000E+03  0.12509000000E+03 0.  0.
        -13    1    3    3    0    0  0.31214298826E+02 -0.31877707503E+02  0.41442710806E+02  0.60893596788E+02  0.10566000000E+00 0. -1.
         23    2    1    0    0    0  0.10991202088E+02 -0.10049718759E+02  0.27634648684E+02  0.93697689184E+02  0.88282386579E+02 0.  0.
         13    1    3    3    0    0 -0.20223096738E+02  0.21827988744E+02 -0.13808062122E+02  0.32804092395E+02  0.10566000000E+00 0.  1.
         22    1    1    0    0    0 -0.10991202088E+02  0.10049718759E+02 -0.27634648684E+02  0.31392310816E+02  0.00000000000E+00 0. -1.
</event>
<event>
 5    1  0.1264859E-009  0.9118800E+02  0.7815553E-02  0.1125453E+00
         25   -1    0    0    0    0  0.00000000000E+00  0.00000000000E+00  0.99999998245E-14  0.12509000000E+03  0.12509000000E+03 0.  0.
        -13    1    3    3    0    0 -0.15969035090E+02  0.10944002315E+02 -0.58718854846E+02  0.61827957647E+02  0.10566000000E+00 0.  1.
         23    2    1    0    0    0 -0.12842219168E+02  0.12714538018E+02 -0.36222354101E+02  0.84609868988E+02  0.74297973885E+02 0.  0.
         13    1    3    3    0    0  0.31268159217E+01  0.17705357032E+01  0.22496500746E+02  0.22781911340E+02  0.10566000000E+00 0. -1.
         22    1    1    0    0    0  0.12842219168E+02 -0.12714538018E+02  0.36222354101E+02  0.40480131012E+02  0.00000000000E+00 0.  1.
</event>
<event>
 5    1  0.1264859E-009  0.9118800E+02  0.7815553E-02  0.1125453E+00
         25   -1    0    0    0    0  0.00000000000E+00  0.00000000000E+00  0.99999998245E-14  0.12509000000E+03  0.12509000000E+03 0.  0.
        -13    1    3    3    0    0 -0.56511911575E+02  0.10672775213E+02  0.98909776828E+01  0.58355350090E+02  0.10566000000E+00 0.  1.
         23    2    1    0    0    0 -0.22634214143E+02 -0.52917249853E+01  0.16762924750E+02  0.96431569314E+02  0.92074654010E+02 0.  0.
         13    1    3    3    0    0  0.33877697432E+02 -0.15964500199E+02  0.68719470669E+01  0.38076219224E+02  0.10566000000E+00 0. -1.
         22    1    1    0    0    0  0.22634214143E+02  0.52917249853E+01 -0.16762924750E+02  0.28658430686E+02  0.00000000000E+00 0.  1.
</event>
<event>
 5    1  0.1264859E-009  0.9118800E+02  0.7815553E-02  0.1125453E+00
         25   -1    0    0    0    0  0.00000000000E+00  0.00000000000E+00  0.99999998245E-14  0.12509000000E+03  0.12509000000E+03 0.  0.
        -13    1    3    3    0    0  0.17206539142E+02  0.45963258931E+02 -0.24496629651E+02  0.54852367215E+02  0.10566000000E+00 0.  1.
         23    2    1    0    0    0  0.83414061846E+00  0.25603682214E+02  0.95346991590E+01  0.97755867097E+02  0.93856564663E+02 0.  0.
         13    1    3    3    0    0 -0.16372398524E+02 -0.20359576717E+02  0.34031328810E+02  0.42903499882E+02  0.10566000000E+00 0. -1.
         22    1    1    0    0    0 -0.83414061846E+00 -0.25603682214E+02 -0.95346991590E+01  0.27334132903E+02  0.00000000000E+00 0.  1.
</event>
<event>
 5    1  0.1264859E-009  0.9118800E+02  0.7815553E-02  0.1125453E+00
         25   -1    0    0    0    0  0.00000000000E+00  0.00000000000E+00  0.99999998245E-14  0.12509000000E+03  0.12509000000E+03 0.  0.
        -13    1    3    3    0    0 -0.25554366112E+02 -0.32785384047E+02  0.25131026343E+02  0.48574547693E+02  0.10566000000E+00 0. -1.
         23    2    1    0    0    0  0.26487094284E+01  0.92244526998E+01  0.24061900079E+02  0.99184764532E+02  0.95742029907E+02 0.  0.
         13    1    3    3    0    0  0.28203075540E+02  0.42009836747E+02 -0.10691262641E+01  0.50610216839E+02  0.10566000000E+00 0.  1.
         22    1    1    0    0    0 -0.26487094284E+01 -0.92244526998E+01 -0.24061900079E+02  0.25905235468E+02  0.00000000000E+00 0.  1.
</event>
<event>
 5    1  0.1264859E-009  0.9118800E+02  0.7815553E-02  0.1125453E+00
         25   -1    0    0    0    0  0.00000000000E+00  0.00000000000E+00  0.99999998245E-14  0.12509000000E+03  0.12509000000E+03 0.  0.
        -13    1    3    3    0    0 -0.12620736772E+02  0.32454644956E+02  0.58554448590E+01  0.35311249970E+02  0.10566000000E+00 0.  1.
         23    2    1    0    0    0  0.21722841741E+02 -0.12774103397E+02 -0.14945467065E+02  0.95791082671E+02  0.91200356154E+02 0.  0.
         13    1    3    3    0    0  0.34343578513E+02 -0.45228748353E+02 -0.20800911924E+02  0.60479832701E+02  0.10566000000E+00 0. -1.
         22    1    1    0    0    0 -0.21722841741E+02  0.12774103397E+02  0.14945467065E+02  0.29298917329E+02  0.00000000000E+00 0. -1.
</event>
<event>
 5    1  0.1264859E-009  0.9118800E+02  0.7815553E-02  0.1125453E+00
         25   -1    0    0    0    0  0.00000000000E+00  0.00000000000E+00  0.99999998245E-14  0.12509000000E+03  0.12509000000E+03 0.  0.
        -13    1    3    3    0    0  0.32068821524E+02 -0.11494660333E+02 -0.22590705114E+02  0.40876492654E+02  0.10566000000E+00 0.  1.
         23    2    1    0    0    0 -0.12297371831E+01 -0.18942859789E+02  0.21357516755E+02  0.96515750885E+02  0.92188949753E+02 0.  0.
         13    1    3    3    0    0 -0.33298558707E+02 -0.74481994559E+01  0.43948221869E+02  0.55639258232E+02  0.10566000000E+00 0. -1.
         22    1    1    0    0    0  0.12297371831E+01  0.18942859789E+02 -0.21357516755E+02  0.28574249115E+02  0.00000000000E+00 0. -1.
</event>
<event>
 5    1  0.1264859E-009  0.9118800E+02  0.7815553E-02  0.1125453E+00
         25   -1    0    0    0    0  0.00000000000E+00  0.00000000000E+00  0.99999998245E-14  0.12509000000E+03  0.12509000000E+03 0.  0.
        -13    1    3    3    0    0  0.65675109382E+01  0.58294197101E+01 -0.30162352161E+02  0.31414852952E+02  0.10566000000E+00 0. -1.
         23    2    1    0    0    0 -0.89859036180E+00 -0.15599471745E+02  0.27543950487E+02  0.93422663645E+02  0.87891830626E+02 0.  0.
         13    1    3    3    0    0 -0.74661013000E+01 -0.21428891455E+02  0.57706302648E+02  0.62007810693E+02  0.10566000000E+00 0.  1.
         22    1    1    0    0    0  0.89859036180E+00  0.15599471745E+02 -0.27543950487E+02  0.31667336355E+02  0.00000000000E+00 0.  1.
</event>
<event>
 5    1  0.1264859E-009  0.9118800E+02  0.7815553E-02  0.1125453E+00
         25   -1    0    0    0    0  0.00000000000E+00  0.00000000000E+00  0.99999998245E-14  0.12509000000E+03  0.12509000000E+03 0.  0.
        -13    1    3    3    0    0 -0.43507782038E+01 -0.39207856295E+02 -0.35087201121E+02  0.52794962949E+02  0.10566000000E+00 0.  1.
         23    2    1    0    0    0 -0.97498075820E+01  0.21627354727E+01 -0.28318660942E+02  0.95061967594E+02  0.90194761226E+02 0.  0.
         13    1    3    3    0    0 -0.53990293783E+01  0.41370591768E+02  0.67685401792E+01  0.42267004645E+02  0.10566000000E+00 0. -1.
         22    1    1    0    0    0  0.97498075820E+01 -0.21627354727E+01  0.28318660942E+02  0.30028032406E+02  0.00000000000E+00 0.  1.
</event>
<event>
 5    1  0.1264859E-009  0.9118800E+02  0.7815553E-02  0.1125453E+00
         25   -1    0    0    0    0  0.00000000000E+00  0.00000000000E+00  0.99999998245E-14  0.12509000000E+03  0.12509000000E+03 0.  0.
        -13    1    3    3    0    0  0.13087747854E+02 -0.19005975575E+02  0.56751909068E+01  0.23764158040E+02  0.10566000000E+00 0.  1.
         23    2    1    0    0    0 -0.33728965820E+02  0.31282519951E+01 -0.24117138101E+02  0.83507967269E+02  0.72419024789E+02 0.  0.
         13    1    3    3    0    0 -0.46816713675E+02  0.22134227571E+02 -0.29792329008E+02  0.59743809229E+02  0.10566000000E+00 0. -1.
         22    1    1    0    0    0  0.33728965820E+02 -0.31282519951E+01  0.24117138101E+02  0.41582032731E+02  0.00000000000E+00 0. -1.
</event>
<event>
 5    1  0.1264859E-009  0.9118800E+02  0.7815553E-02  0.1125453E+00
         25   -1    0    0    0    0  0.00000000000E+00  0.00000000000E+00  0.99999998245E-14  0.12509000000E+03  0.12509000000E+03 0.  0.
        -13    1    3    3    0    0 -0.41985589983E+01  0.42168829711E+02  0.64429395145E+01  0.42864445995E+02  0.10566000000E+00 0. -1.
         23    2    1    0    0    0  0.15530797261E+02  0.48689538871E+00 -0.22820861390E+02  0.97481406315E+02  0.93490053653E+02 0.  0.
         13    1    3    3    0    0  0.19729356259E+02 -0.41681934322E+02 -0.29263800904E+02  0.54616960320E+02  0.10566000000E+00 0.  1.
         22    1    1    0    0    0 -0.15530797261E+02 -0.48689538871E+00  0.22820861390E+02  0.27608593685E+02  0.00000000000E+00 0.  1.
</event>
<event>
 5    1  0.1264859E-009  0.9118800E+02  0.7815553E-02  0.1125453E+00
         25   -1    0    0    0    0  0.00000000000E+00  0.00000000000E+00  0.99999998245E-14  0.12509000000E+03  0.12509000000E+03 0.  0.
        -13    1    3    3    0    0 -0.41306134504E+02 -0.41946988604E+02 -0.47121765410E+01  0.59058973682E+02  0.10566000000E+00 0. -1.
         23    2    1    0    0    0 -0.11659769680E+02 -0.23628386601E+02 -0.14175036638E+02  0.95170398632E+02  0.90345017736E+02 0.  0.
         13    1    3    3    0    0  0.29646364824E+02  0.18318602003E+02 -0.94628600971E+01  0.36111424949E+02  0.10566000000E+00 0.  1.
         22    1    1    0    0    0  0.11659769680E+02  0.23628386601E+02  0.14175036638E+02  0.29919601368E+02  0.00000000000E+00 0. -1.
</event>
<event>
 5    1  0.1264859E-009  0.9118800E+02  0.7815553E-02  0.1125453E+00
         25   -1    0    0    0    0  0.00000000000E+00  0.00000000000E+00  0.99999998245E-14  0.12509000000E+03  0.12509000000E+03 0.  0.
        -13    1    3    3    0    0 -0.32213464861E+02 -0.13487600338E+02  0.22661049925E+02  0.41631202589E+02  0.10566000000E+00 0.  1.
         23    2    1    0    0    0  0.20509085438E+02 -0.34635883260E+00  0.20619896830E+02  0.96005249783E+02  0.91493635247E+02 0.  0.
         13    1    3    3    0    0  0.52722550298E+02  0.13141241506E+02 -0.20411530951E+01  0.54374047194E+02  0.10566000000E+00 0. -1.
         22    1    1    0    0    0 -0.20509085438E+02  0.34635883260E+00 -0.20619896830E+02  0.29084750217E+02  0.00000000000E+00 0.  1.
</event>
<event>
 5    1  0.1264859E-009  0.9118800E+02  0.7815553E-02  0.1125453E+00
         25   -1    0    0    0    0  0.00000000000E+00  0.00000000000E+00  0.99999998245E-14  0.12509000000E+03  0.12509000000E+03 0.  0.
        -13    1    3    3    0    0 -0.28851156758E+02 -0.31947125401E+02  0.31208375787E+02  0.53169370421E+02  0.10566000000E+00 0. -1.
         23    2    1    0    0    0 -0.42713034265E+01 -0.28432201541E+02 -0.37993765060E+01  0.96088803830E+02  0.91607799026E+02 0.  0.
         13    1    3    3    0    0  0.24579853331E+02  0.35149238602E+01 -0.35007752293E+02  0.42919433409E+02  0.10566000000E+00 0.  1.
         22    1    1    0    0    0  0.42713034265E+01  0.28432201541E+02  0.37993765060E+01  0.29001196170E+02  0.00000000000E+00 0. -1.
</event>
<event>
 5    1  0.1264859E-009  0.9118800E+02  0.7815553E-02  0.1125453E+00
         25   -1    0    0    0    0  0.00000000000E+00  0.00000000000E+00  0.99999998245E-14  0.12509000000E+03  0.12509000000E+03 0.  0.
        -13    1    3    3    0    0  0.55934551184E+02 -0.15781180367E+02 -0.19375444213E+02  0.61262865362E+02  0.10566000000E+00 0.  1.
         23    2    1    0    0    0  0.23395560561E+02 -0.15740698725E+02 -0.73836799057E+01  0.95941405193E+02  0.91406305314E+02 0.  0.
         13    1    3    3    0    0 -0.32538990623E+02  0.40481641925E-01  0.11991764307E+02  0.34678539830E+02  0.10566000000E+00 0. -1.
         22    1    1    0    0    0 -0.23395560561E+02  0.15740698725E+02  0.73836799057E+01  0.29148594807E+02  0.00000000000E+00 0.  1.
</event>
<event>
 5    1  0.1264859E-009  0.9118800E+02  0.7815553E-02  0.1125453E+00
         25   -1    0    0    0    0  0.00000000000E+00  0.00000000000E+00  0.99999998245E-14  0.12509000000E+03  0.12509000000E+03 0.  0.
        -13    1    3    3    0    0 -0.11776992102E+01 -0.19833265331E+02 -0.40538688342E+02  0.45145783919E+02  0.10566000000E+00 0.  1.
         23    2    1    0    0    0  0.23988271562E+02  0.88667325464E+01 -0.19227106791E+01  0.99443305575E+02  0.96079228186E+02 0.  0.
         13    1    3    3    0    0  0.25165970772E+02  0.28699997878E+02  0.38615977663E+02  0.54297521656E+02  0.10566000000E+00 0. -1.
         22    1    1    0    0    0 -0.23988271562E+02 -0.88667325464E+01  0.19227106791E+01  0.25646694425E+02  0.00000000000E+00 0. -1.
</event>
<event>
 5    1  0.1264859E-009  0.9118800E+02  0.7815553E-02  0.1125453E+00
         25   -1    0    0    0    0  0.00000000000E+00  0.00000000000E+00  0.99999998245E-14  0.12509000000E+03  0.12509000000E+03 0.  0.
        -13    1    3    3    0    0 -0.19892799513E+02  0.29289184101E+02  0.38924878032E+02  0.52618790101E+02  0.10566000000E+00 0. -1.
         23    2    1    0    0    0  0.64449538119E+01  0.27941843838E+02  0.43765754901E+01  0.96082440990E+02  0.91599110186E+02 0.  0.
         13    1    3    3    0    0  0.26337753325E+02 -0.13473402631E+01 -0.34548302542E+02  0.43463650889E+02  0.10566000000E+00 0.  1.
         22    1    1    0    0    0 -0.64449538119E+01 -0.27941843838E+02 -0.43765754901E+01  0.29007559010E+02  0.00000000000E+00 0.  1.
</event>
<event>
 5    1  0.1264859E-009  0.9118800E+02  0.7815553E-02  0.1125453E+00
         25   -1    0    0    0    0  0.00000000000E+00  0.00000000000E+00  0.99999998245E-14  0.12509000000E+03  0.12509000000E+03 0.  0.
        -13    1    3    3    0    0  0.32675391204E+02 -0.39960294803E+02 -0.59336829557E+01  0.51958888638E+02  0.10566000000E+00 0.  1.
         23    2    1    0    0    0  0.14560996920E+02 -0.50406276918E+01 -0.25037567161E+02  0.95690844771E+02  0.91062766512E+02 0.  0.
         13    1    3    3    0    0 -0.18114394284E+02  0.34919667111E+02 -0.19103884206E+02  0.43731956133E+02  0.10566000000E+00 0. -1.
         22    1    1    0    0    0 -0.14560996920E+02  0.50406276918E+01  0.25037567161E+02  0.29399155229E+02  0.00000000000E+00 0.  1.
</event>
<event>
 5    1  0.1264859E-009  0.9118800E+02  0.7815553E-02  0.1125453E+00
         25   -1    0    0    0    0  0.00000000000E+00  0.00000000000E+00  0.99999998245E-14  0.12509000000E+03  0.12509000000E+03 0.  0.
        -13    1    3    3    0    0 -0.27861925768E+02 -0.20868846537E+02 -0.19561510103E+02  0.39930683751E+02  0.10566000000E+00 0. -1.
         23    2    1    0    0    0  0.12902355749E+02  0.19712019528E+02 -0.13917921549E+02  0.97726830630E+02  0.93817857506E+02 0.  0.
         13    1    3    3    0    0  0.40764281518E+02  0.40580866064E+02  0.56435885549E+01  0.57796146879E+02  0.10566000000E+00 0.  1.
         22    1    1    0    0    0 -0.12902355749E+02 -0.19712019528E+02  0.13917921549E+02  0.27363169370E+02  0.00000000000E+00 0.  1.
</event>
<event>
 5    1  0.1264859E-009  0.9118800E+02  0.7815553E-02  0.1125453E+00
         25   -1    0    0    0    0  0.00000000000E+00  0.00000000000E+00  0.99999998245E-14  0.12509000000E+03  0.12509000000E+03 0.  0.
        -13    1    3    3    0    0 -0.45876339171E+01 -0.86781285395E+01 -0.34141556507E+02  0.35524827159E+02  0.10566000000E+00 0. -1.
         23    2    1    0    0    0  0.33746589325E+01 -0.15967028793E+02  0.24775389803E+02  0.95422605923E+02  0.90693546903E+02 0.  0.
         13    1    3    3    0    0  0.79622928495E+01 -0.72889002539E+01  0.58916946310E+02  0.59897778764E+02  0.10566000000E+00 0.  1.
         22    1    1    0    0    0 -0.33746589325E+01  0.15967028793E+02 -0.24775389803E+02  0.29667394077E+02  0.00000000000E+00 0.  1.
</event>
<event>
 5    1  0.1264859E-009  0.9118800E+02  0.7815553E-02  0.1125453E+00
         25   -1    0    0    0    0  0.00000000000E+00  0.00000000000E+00  0.99999998245E-14  0.12509000000E+03  0.12509000000E+03 0.  0.
        -13    1    3    3    0    0  0.13788988934E+02 -0.31114070120E+02 -0.77504247380E-01  0.34032906814E+02  0.10566000000E+00 0. -1.
         23    2    1    0    0    0 -0.18880991543E+02  0.20689044124E+02 -0.84182610760E+01  0.95842854704E+02  0.91271338819E+02 0.  0.
         13    1    3    3    0    0 -0.32669980477E+02  0.51803114244E+02 -0.83407568286E+01  0.61809947890E+02  0.10566000000E+00 0.  1.
         22    1    1    0    0    0  0.18880991543E+02 -0.20689044124E+02  0.84182610760E+01  0.29247145296E+02  0.00000000000E+00 0.  1.
</event>
<event>
 5    1  0.1264859E-009  0.9118800E+02  0.7815553E-02  0.1125453E+00
         25   -1    0    0    0    0  0.00000000000E+00  0.00000000000E+00  0.99999998245E-14  0.12509000000E+03  0.12509000000E+03 0.  0.
        -13    1    3    3    0    0 -0.22062275923E+02  0.24776940926E+02  0.30169287663E+01  0.33312968102E+02  0.10566000000E+00 0.  1.
         23    2    1    0    0    0  0.27506428196E+02 -0.11751287982E+02  0.41141022614E+01  0.94896918032E+02  0.89965564819E+02 0.  0.
         13    1    3    3    0    0  0.49568704119E+02 -0.36528228908E+02  0.10971734952E+01  0.61583949929E+02  0.10566000000E+00 0. -1.
         22    1    1    0    0    0 -0.27506428196E+02  0.11751287982E+02 -0.41141022614E+01  0.30193081968E+02  0.00000000000E+00 0. -1.
</event>
<event>
 5    1  0.1264859E-009  0.9118800E+02  0.7815553E-02  0.1125453E+00
         25   -1    0    0    0    0  0.00000000000E+00  0.00000000000E+00  0.99999998245E-14  0.12509000000E+03  0.12509000000E+03 0.  0.
        -13    1    3    3    0    0 -0.27127899507E+02  0.98918512634E+01  0.18664725165E+02  0.34382477843E+02  0.10566000000E+00 0.  1.
         23    2    1    0    0    0  0.29239079131E+02 -0.38852590464E+01 -0.79006572571E+00  0.95583336513E+02  0.90914965923E+02 0.  0.
         13    1    3    3    0    0  0.56366978638E+02 -0.13777110310E+02 -0.19454790891E+02  0.61200858670E+02  0.10566000000E+00 0. -1.
         22    1    1    0    0    0 -0.29239079131E+02  0.38852590464E+01  0.79006572571E+00  0.29506663487E+02  0.00000000000E+00 0. -1.
</event>
<event>
 5    1  0.1264859E-009  0.9118800E+02  0.7815553E-02  0.1125453E+00
         25   -1    0    0    0    0  0.00000000000E+00  0.00000000000E+00  0.99999998245E-14  0.12509000000E+03  0.12509000000E+03 0.  0.
        -13    1    3    3    0    0  0.29769834115E+02 -0.28093989971E+02 -0.17319022500E+02  0.44446315934E+02  0.10566000000E+00 0.  1.
         23    2    1    0    0    0  0.22779811357E+02  0.15636098741E+02  0.90840608569E+01  0.96005166307E+02  0.91493521118E+02 0.  0.
         13    1    3    3    0    0 -0.69900227577E+01  0.43730088712E+02  0.26403083357E+02  0.51558850373E+02  0.10566000000E+00 0. -1.
         22    1    1    0    0    0 -0.22779811357E+02 -0.15636098741E+02 -0.90840608569E+01  0.29084833693E+02  0.00000000000E+00 0. -1.
</event>
<event>
 5    1  0.1264859E-009  0.9118800E+02  0.7815553E-02  0.1125453E+00
         25   -1    0    0    0    0  0.00000000000E+00  0.00000000000E+00  0.99999998245E-14  0.12509000000E+03  0.12509000000E+03 0.  0.
        -13    1    3    3    0    0 -0.24922193189E+02  0.39778687194E+02  0.19444930966E+02  0.50809213461E+02  0.10566000000E+00 0. -1.
         23    2    1    0    0    0 -0.23278742068E+02  0.14057649547E+02 -0.15158530253E+02  0.93956442823E+02  0.88648264311E+02 0.  0.
         13    1    3    3    0    0  0.16434511202E+01 -0.25721037647E+02 -0.34603461220E+02  0.43147229362E+02  0.10566000000E+00 0.  1.
         22    1    1    0    0    0  0.23278742068E+02 -0.14057649547E+02  0.15158530253E+02  0.31133557177E+02  0.00000000000E+00 0.  1.
</event>
<event>
 5    1  0.1264859E-009  0.9118800E+02  0.7815553E-02  0.1125453E+00
         25   -1    0    0    0    0  0.00000000000E+00  0.00000000000E+00  0.99999998245E-14  0.12509000000E+03  0.12509000000E+03 0.  0.
        -13    1    3    3    0    0  0.28010380920E+02 -0.26770536233E+00  0.31496538146E+02  0.42150874067E+02  0.10566000000E+00 0.  1.
         23    2    1    0    0    0 -0.39388590522E+01 -0.24144996968E+02 -0.90296115748E+01  0.99012627156E+02  0.95516862187E+02 0.  0.
         13    1    3    3    0    0 -0.31949239972E+02 -0.23877291606E+02 -0.40526149720E+02  0.56861753089E+02  0.10566000000E+00 0. -1.
         22    1    1    0    0    0  0.39388590522E+01  0.24144996968E+02  0.90296115748E+01  0.26077372844E+02  0.00000000000E+00 0. -1.
</event>
<event>
 5    1  0.1264859E-009  0.9118800E+02  0.7815553E-02  0.1125453E+00
         25   -1    0    0    0    0  0.00000000000E+00  0.00000000000E+00  0.99999998245E-14  0.12509000000E+03  0.12509000000E+03 0.  0.
        -13    1    3    3    0    0  0.48888161328E+01 -0.27673965795E+02 -0.23944150967E+02  0.36919946310E+02  0.10566000000E+00 0.  1.
         23    2    1    0    0    0  0.19739724878E+02  0.77596467060E+01  0.20447474828E+02  0.95628701962E+02  0.90977362881E+02 0.  0.
         13    1    3    3    0    0  0.14850908745E+02  0.35433612501E+02  0.44391625795E+02  0.58708755652E+02  0.10566000000E+00 0. -1.
         22    1    1    0    0    0 -0.19739724878E+02 -0.77596467060E+01 -0.20447474828E+02  0.29461298038E+02  0.00000000000E+00 0. -1.
</event>
<event>
 5    1  0.1264859E-009  0.9118800E+02  0.7815553E-02  0.1125453E+00
         25   -1    0    0    0    0  0.00000000000E+00  0.00000000000E+00  0.99999998245E-14  0.12509000000E+03  0.12509000000E+03 0.  0.
        -13    1    3    3    0    0  0.72436579495E+01  0.40017648841E+02  0.38981457709E+02  0.56333364966E+02  0.10566000000E+00 0. -1.
         23    2    1    0    0    0  0.11718930910E+02  0.26618113619E+02  0.19812260125E+01  0.95938969644E+02  0.91402972192E+02 0.  0.
         13    1    3    3    0    0  0.44752729609E+01 -0.13399535223E+02 -0.37000231696E+02  0.39605604678E+02  0.10566000000E+00 0.  1.
         22    1    1    0    0    0 -0.11718930910E+02 -0.26618113619E+02 -0.19812260125E+01  0.29151030356E+02  0.00000000000E+00 0. -1.
</event>
<event>
 5    1  0.1264859E-009  0.9118800E+02  0.7815553E-02  0.1125453E+00
         25   -1    0    0    0    0  0.00000000000E+00  0.00000000000E+00  0.99999998245E-14  0.12509000000E+03  0.12509000000E+03 0.  0.
        -13    1    3    3    0    0  0.27531253562E+02  0.36245248925E+02 -0.11848994740E+02  0.47032944121E+02  0.10566000000E+00 0. -1.
         23    2    1    0    0    0 -0.18435821693E+02  0.22406680998E+02 -0.22636684917E+01  0.95985652045E+02  0.91466837317E+02 0.  0.
         13    1    3    3    0    0 -0.45967075255E+02 -0.13838567927E+02  0.95853262481E+01  0.48952707924E+02  0.10566000000E+00 0.  1.
         22    1    1    0    0    0  0.18435821693E+02 -0.22406680998E+02  0.22636684917E+01  0.29104347955E+02  0.00000000000E+00 0. -1.
</event>
<event>
 5    1  0.1264859E-009  0.9118800E+02  0.7815553E-02  0.1125453E+00
         25   -1    0    0    0    0  0.00000000000E+00  0.00000000000E+00  0.99999998245E-14  0.12509000000E+03  0.12509000000E+03 0.  0.
        -13    1    3    3    0    0 -0.18920264612E+02 -0.92529458369E+01  0.51631793202E+02  0.55762412546E+02  0.10566000000E+00 0. -1.
         23    2    1    0    0    0 -0.24068367709E+02  0.70567349398E+01  0.15854415479E+02  0.95417684243E+02  0.90686758372E+02 0.  0.
         13    1    3    3    0    0 -0.51481030969E+01  0.16309680777E+02 -0.35777377724E+02  0.39655271697E+02  0.10566000000E+00 0.  1.
         22    1    1    0    0    0  0.24068367709E+02 -0.70567349398E+01 -0.15854415479E+02  0.29672315757E+02  0.00000000000E+00 0. -1.
</event>
<event>
 5    1  0.1264859E-009  0.9118800E+02  0.7815553E-02  0.1125453E+00
         25   -1    0    0    0    0  0.00000000000E+00  0.00000000000E+00  0.99999998245E-14  0.12509000000E+03  0.12509000000E+03 0.  0.
        -13    1    3    3    0    0  0.26008504725E+02  0.12182536841E+02 -0.37043569619E+02  0.46873166482E+02  0.10566000000E+00 0.  1.
         23    2    1    0    0    0 -0.19591202063E+02  0.31674147588E+01 -0.21368195886E+02  0.95927566804E+02  0.91387365445E+02 0.  0.
         13    1    3    3    0    0 -0.45599706787E+02 -0.90151220819E+01  0.15675373733E+02  0.49054400322E+02  0.10566000000E+00 0. -1.
         22    1    1    0    0    0  0.19591202063E+02 -0.31674147588E+01  0.21368195886E+02  0.29162433196E+02  0.00000000000E+00 0. -1.
</event>
<event>
 5    1  0.1264859E-009  0.9118800E+02  0.7815553E-02  0.1125453E+00
         25   -1    0    0    0    0  0.00000000000E+00  0.00000000000E+00  0.99999998245E-14  0.12509000000E+03  0.12509000000E+03 0.  0.
        -13    1    3    3    0    0 -0.15828892568E+02  0.31439167113E+02 -0.36457779993E+02  0.50676976574E+02  0.10566000000E+00 0. -1.
         23    2    1    0    0    0  0.19984335042E+02  0.95520062262E+01 -0.18088473433E+02  0.96492668985E+02  0.92157624897E+02 0.  0.
         13    1    3    3    0    0  0.35813227610E+02 -0.21887160887E+02  0.18369306560E+02  0.45815692411E+02  0.10566000000E+00 0.  1.
         22    1    1    0    0    0 -0.19984335042E+02 -0.95520062262E+01  0.18088473433E+02  0.28597331015E+02  0.00000000000E+00 0. -1.
</event>
<event>
 5    1  0.1264859E-009  0.9118800E+02  0.7815553E-02  0.1125453E+00
         25   -1    0    0    0    0  0.00000000000E+00  0.00000000000E+00  0.99999998245E-14  0.12509000000E+03  0.12509000000E+03 0.  0.
        -13    1    3    3    0    0  0.69189842263E+01  0.42656159005E+02 -0.23918627326E+02  0.49391620149E+02  0.10566000000E+00 0. -1.
         23    2    1    0    0    0 -0.23962732641E+02  0.21034305868E+02 -0.16803991636E+01  0.93160729411E+02  0.87518244864E+02 0.  0.
         13    1    3    3    0    0 -0.30881716867E+02 -0.21621853137E+02  0.22238228163E+02  0.43769109262E+02  0.10566000000E+00 0.  1.
         22    1    1    0    0    0  0.23962732641E+02 -0.21034305868E+02  0.16803991636E+01  0.31929270589E+02  0.00000000000E+00 0.  1.
</event>
<event>
 5    1  0.1264859E-009  0.9118800E+02  0.7815553E-02  0.1125453E+00
         25   -1    0    0    0    0  0.00000000000E+00  0.00000000000E+00  0.99999998245E-14  0.12509000000E+03  0.12509000000E+03 0.  0.
        -13    1    3    3    0    0 -0.99124248989E-01  0.25082753646E+02 -0.54117380592E+02  0.59647769466E+02  0.10566000000E+00 0. -1.
         23    2    1    0    0    0  0.63954881244E+01  0.21433059359E+02 -0.18419432807E+02  0.96114945094E+02  0.91643487841E+02 0.  0.
         13    1    3    3    0    0  0.64946123734E+01 -0.36496942869E+01  0.35697947784E+02  0.36467175629E+02  0.10566000000E+00 0.  1.
         22    1    1    0    0    0 -0.63954881244E+01 -0.21433059359E+02  0.18419432807E+02  0.28975054906E+02  0.00000000000E+00 0. -1.
</event>
<event>
 5    1  0.1264859E-009  0.9118800E+02  0.7815553E-02  0.1125453E+00
         25   -1    0    0    0    0  0.00000000000E+00  0.00000000000E+00  0.99999998245E-14  0.12509000000E+03  0.12509000000E+03 0.  0.
        -13    1    3    3    0    0 -0.19761439461E+01  0.40851817166E+02 -0.10327678477E+02  0.42183506462E+02  0.10566000000E+00 0.  1.
         23    2    1    0    0    0 -0.28660936916E+02 -0.39745223958E+01  0.29217933127E+01  0.96007651241E+02  0.91496918459E+02 0.  0.
         13    1    3    3    0    0 -0.26684792970E+02 -0.44826339562E+02  0.13249471790E+02  0.53824144779E+02  0.10566000000E+00 0. -1.
         22    1    1    0    0    0  0.28660936916E+02  0.39745223958E+01 -0.29217933127E+01  0.29082348759E+02  0.00000000000E+00 0. -1.
</event>
<event>
 5    1  0.1264859E-009  0.9118800E+02  0.7815553E-02  0.1125453E+00
         25   -1    0    0    0    0  0.00000000000E+00  0.00000000000E+00  0.99999998245E-14  0.12509000000E+03  0.12509000000E+03 0.  0.
        -13    1    3    3    0    0  0.20475273696E+02 -0.99380779231E+01  0.27115320054E+02  0.35401327255E+02  0.10566000000E+00 0.  1.
         23    2    1    0    0    0 -0.29032399328E+02  0.72393874584E+01 -0.15428885843E+01  0.95128867733E+02  0.90287496529E+02 0.  0.
         13    1    3    3    0    0 -0.49507673024E+02  0.17177465381E+02 -0.28658208638E+02  0.59727540478E+02  0.10566000000E+00 0. -1.
         22    1    1    0    0    0  0.29032399328E+02 -0.72393874584E+01  0.15428885843E+01  0.29961132267E+02  0.00000000000E+00 0. -1.
</event>
<event>
 5    1  0.1264859E-009  0.9118800E+02  0.7815553E-02  0.1125453E+00
         25   -1    0    0    0    0  0.00000000000E+00  0.00000000000E+00  0.99999998245E-14  0.12509000000E+03  0.12509000000E+03 0.  0.
        -13    1    3    3    0    0  0.15624598846E+02 -0.29188501272E+02 -0.36435664524E+02  0.49230737440E+02  0.10566000000E+00 0.  1.
         23    2    1    0    0    0 -0.10510334846E+02  0.68876825354E+01 -0.27763460149E+02  0.94615141038E+02  0.89572919373E+02 0.  0.
         13    1    3    3    0    0 -0.26134933691E+02  0.36076183808E+02  0.86722043746E+01  0.45384403598E+02  0.10566000000E+00 0. -1.
         22    1    1    0    0    0  0.10510334846E+02 -0.68876825354E+01  0.27763460149E+02  0.30474858962E+02  0.00000000000E+00 0.  1.
</event>
<event>
 5    1  0.1264859E-009  0.9118800E+02  0.7815553E-02  0.1125453E+00
         25   -1    0    0    0    0  0.00000000000E+00  0.00000000000E+00  0.99999998245E-14  0.12509000000E+03  0.12509000000E+03 0.  0.
        -13    1    3    3    0    0 -0.47097997870E+02  0.13888103790E+02  0.22774016360E+02  0.54127329654E+02  0.10566000000E+00 0. -1.
         23    2    1    0    0    0 -0.16256967605E+02  0.25354124733E+02 -0.13723917731E+01  0.94940305211E+02  0.90025871047E+02 0.  0.
         13    1    3    3    0    0  0.30841030265E+02  0.11466020943E+02 -0.24146408133E+02  0.40812975557E+02  0.10566000000E+00 0.  1.
         22    1    1    0    0    0  0.16256967605E+02 -0.25354124733E+02  0.13723917731E+01  0.30149694789E+02  0.00000000000E+00 0. -1.
</event>
<event>
 5    1  0.1264859E-009  0.9118800E+02  0.7815553E-02  0.1125453E+00
         25   -1    0    0    0    0  0.00000000000E+00  0.00000000000E+00  0.99999998245E-14  0.12509000000E+03  0.12509000000E+03 0.  0.
        -13    1    3    3    0    0 -0.12370389270E+02  0.59009869895E+02 -0.15766442427E+00  0.60292846158E+02  0.10566000000E+00 0. -1.
         23    2    1    0    0    0 -0.16853430215E+02  0.28984168920E+02  0.53226206850E+01  0.91142239411E+02  0.84584025418E+02 0.  0.
         13    1    3    3    0    0 -0.44830409452E+01 -0.30025700975E+02  0.54802851093E+01  0.30849393253E+02  0.10566000000E+00 0.  1.
         22    1    1    0    0    0  0.16853430215E+02 -0.28984168920E+02 -0.53226206850E+01  0.33947760589E+02  0.00000000000E+00 0. -1.
</event>
<event>
 5    1  0.1264859E-009  0.9118800E+02  0.7815553E-02  0.1125453E+00
         25   -1    0    0    0    0  0.00000000000E+00  0.00000000000E+00  0.99999998245E-14  0.12509000000E+03  0.12509000000E+03 0.  0.
        -13    1    3    3    0    0  0.52213034404E+02 -0.40995152527E+01 -0.26786198379E+02  0.58826172531E+02  0.10566000000E+00 0.  1.
         23    2    1    0    0    0  0.17126531041E+02  0.10412886727E+02 -0.18764141500E+02  0.97633866228E+02  0.93693823451E+02 0.  0.
         13    1    3    3    0    0 -0.35086503363E+02  0.14512401980E+02  0.80220568788E+01  0.38807693697E+02  0.10566000000E+00 0. -1.
         22    1    1    0    0    0 -0.17126531041E+02 -0.10412886727E+02  0.18764141500E+02  0.27456133772E+02  0.00000000000E+00 0.  1.
</event>
<event>
 5    1  0.1264859E-009  0.9118800E+02  0.7815553E-02  0.1125453E+00
         25   -1    0    0    0    0  0.00000000000E+00  0.00000000000E+00  0.99999998245E-14  0.12509000000E+03  0.12509000000E+03 0.  0.
        -13    1    3    3    0    0  0.93151695913E+01  0.54804465730E+02 -0.15432859369E+02  0.57693033902E+02  0.10566000000E+00 0. -1.
         23    2    1    0    0    0 -0.13249210515E+02  0.24044761215E+02 -0.68302275445E+01  0.96799646000E+02  0.92573361915E+02 0.  0.
         13    1    3    3    0    0 -0.22564380107E+02 -0.30759704515E+02  0.86026318247E+01  0.39106612098E+02  0.10566000000E+00 0.  1.
         22    1    1    0    0    0  0.13249210515E+02 -0.24044761215E+02  0.68302275445E+01  0.28290354000E+02  0.00000000000E+00 0. -1.
</event>
<event>
 5    1  0.1264859E-009  0.9118800E+02  0.7815553E-02  0.1125453E+00
         25   -1    0    0    0    0  0.00000000000E+00  0.00000000000E+00  0.99999998245E-14  0.12509000000E+03  0.12509000000E+03 0.  0.
        -13    1    3    3    0    0 -0.80105463458E+01  0.18363436315E+02 -0.58921073161E+02  0.62234143945E+02  0.10566000000E+00 0.  1.
         23    2    1    0    0    0 -0.35003140850E+01  0.13452215982E+02 -0.28457294873E+02  0.93419320421E+02  0.87887072331E+02 0.  0.
         13    1    3    3    0    0  0.45102322608E+01 -0.49112203338E+01  0.30463778288E+02  0.31185176476E+02  0.10566000000E+00 0. -1.
         22    1    1    0    0    0  0.35003140850E+01 -0.13452215982E+02  0.28457294873E+02  0.31670679579E+02  0.00000000000E+00 0.  1.
</event>
<event>
 5    1  0.1264859E-009  0.9118800E+02  0.7815553E-02  0.1125453E+00
         25   -1    0    0    0    0  0.00000000000E+00  0.00000000000E+00  0.99999998245E-14  0.12509000000E+03  0.12509000000E+03 0.  0.
        -13    1    3    3    0    0  0.81006245335E+01 -0.31633257662E+02  0.31721981538E+02  0.45525579457E+02  0.10566000000E+00 0.  1.
         23    2    1    0    0    0  0.22585768340E+01  0.18492510841E+02  0.20814080057E+02  0.97156148580E+02  0.93053840070E+02 0.  0.
         13    1    3    3    0    0 -0.58420476996E+01  0.50125768503E+02 -0.10907901481E+02  0.51630569124E+02  0.10566000000E+00 0. -1.
         22    1    1    0    0    0 -0.22585768340E+01 -0.18492510841E+02 -0.20814080057E+02  0.27933851420E+02  0.00000000000E+00 0. -1.
</event>
<event>
 4    1  0.1264859E-009  0.9118800E+02  0.7815553E-02  0.1125453E+00
         25   -1    0    0    0    0  0.00000000000E+00  0.00000000000E+00  0.99999998245E-14  0.12509000000E+03  0.12509000000E+03 0.  0.
        -13    1    1    0    0    0 -0.44346414058E+01  0.80503239564E+01  0.30783784038E+01  0.96933656608E+01  0.10566000000E+00 0. -1.
         13    1    1    0    0    0  0.35505962032E+02 -0.27197327501E+02 -0.42483355579E+02  0.61686421750E+02  0.10566000000E+00 0.  1.
         22    1    1    0    0    0 -0.31071320627E+02  0.19147003545E+02  0.39404977175E+02  0.53710212589E+02  0.00000000000E+00 0.  1.
</event>
<event>
 5    1  0.1264859E-009  0.9118800E+02  0.7815553E-02  0.1125453E+00
         25   -1    0    0    0    0  0.00000000000E+00  0.00000000000E+00  0.99999998245E-14  0.12509000000E+03  0.12509000000E+03 0.  0.
        -13    1    3    3    0    0 -0.18276528892E+02  0.16824709697E+02 -0.27729291193E+02  0.37229385153E+02  0.10566000000E+00 0. -1.
         23    2    1    0    0    0 -0.64945460866E+01  0.92648167422E+01  0.28105575584E+02  0.94792486289E+02  0.89820243374E+02 0.  0.
         13    1    3    3    0    0  0.11781982806E+02 -0.75598929552E+01  0.55834866778E+02  0.57563101136E+02  0.10566000000E+00 0.  1.
         22    1    1    0    0    0  0.64945460866E+01 -0.92648167422E+01 -0.28105575584E+02  0.30297513711E+02  0.00000000000E+00 0.  1.
</event>
<event>
 5    1  0.1264859E-009  0.9118800E+02  0.7815553E-02  0.1125453E+00
         25   -1    0    0    0    0  0.00000000000E+00  0.00000000000E+00  0.99999998245E-14  0.12509000000E+03  0.12509000000E+03 0.  0.
        -13    1    3    3    0    0 -0.31891952015E+01 -0.58109930525E+02 -0.21284677314E+00  0.58197864733E+02  0.10566000000E+00 0. -1.
         23    2    1    0    0    0 -0.12287730010E+02 -0.25787349486E+02  0.12241719940E+02  0.94012107384E+02  0.88726776823E+02 0.  0.
         13    1    3    3    0    0 -0.90985348083E+01  0.32322581039E+02  0.12454566713E+02  0.35814242652E+02  0.10566000000E+00 0.  1.
         22    1    1    0    0    0  0.12287730010E+02  0.25787349486E+02 -0.12241719940E+02  0.31077892616E+02  0.00000000000E+00 0. -1.
</event>
<event>
 5    1  0.1264859E-009  0.9118800E+02  0.7815553E-02  0.1125453E+00
         25   -1    0    0    0    0  0.00000000000E+00  0.00000000000E+00  0.99999998245E-14  0.12509000000E+03  0.12509000000E+03 0.  0.
        -13    1    3    3    0    0 -0.24517283116E+02 -0.26564995677E+02  0.19941504965E+02  0.41285238900E+02  0.10566000000E+00 0. -1.
         23    2    1    0    0    0  0.23707173546E+02 -0.18163283046E+02 -0.24700805498E+01  0.95122747431E+02  0.90279016678E+02 0.  0.
         13    1    3    3    0    0  0.48224456663E+02  0.84017126307E+01 -0.22411585515E+02  0.53837508531E+02  0.10566000000E+00 0.  1.
         22    1    1    0    0    0 -0.23707173546E+02  0.18163283046E+02  0.24700805498E+01  0.29967252569E+02  0.00000000000E+00 0.  1.
</event>
<event>
 5    1  0.1264859E-009  0.9118800E+02  0.7815553E-02  0.1125453E+00
         25   -1    0    0    0    0  0.00000000000E+00  0.00000000000E+00  0.99999998245E-14  0.12509000000E+03  0.12509000000E+03 0.  0.
        -13    1    3    3    0    0  0.29330909133E+02 -0.29983741499E+02 -0.16038823983E+02  0.44906369522E+02  0.10566000000E+00 0.  1.
         23    2    1    0    0    0  0.20973857166E+02  0.13616433506E+01  0.21840765199E+02  0.94778685585E+02  0.89801021485E+02 0.  0.
         13    1    3    3    0    0 -0.83570519662E+01  0.31345384850E+02  0.37879589182E+02  0.49872316064E+02  0.10566000000E+00 0. -1.
         22    1    1    0    0    0 -0.20973857166E+02 -0.13616433506E+01 -0.21840765199E+02  0.30311314415E+02  0.00000000000E+00 0.  1.
</event>
<event>
 5    1  0.1264859E-009  0.9118800E+02  0.7815553E-02  0.1125453E+00
         25   -1    0    0    0    0  0.00000000000E+00  0.00000000000E+00  0.99999998245E-14  0.12509000000E+03  0.12509000000E+03 0.  0.
        -13    1    3    3    0    0  0.15962055174E+02 -0.44207853769E+01 -0.42006832076E+02  0.45154353653E+02  0.10566000000E+00 0.  1.
         23    2    1    0    0    0 -0.33214239634E+01  0.26931535278E+02 -0.47226868491E+01  0.97546521268E+02  0.93577137117E+02 0.  0.
         13    1    3    3    0    0 -0.19283479137E+02  0.31352320655E+02  0.37284145227E+02  0.52392167615E+02  0.10566000000E+00 0. -1.
         22    1    1    0    0    0  0.33214239634E+01 -0.26931535278E+02  0.47226868491E+01  0.27543478732E+02  0.00000000000E+00 0. -1.
</event>
<event>
 5    1  0.1264859E-009  0.9118800E+02  0.7815553E-02  0.1125453E+00
         25   -1    0    0    0    0  0.00000000000E+00  0.00000000000E+00  0.99999998245E-14  0.12509000000E+03  0.12509000000E+03 0.  0.
        -13    1    3    3    0    0 -0.36621922445E+02  0.23190971126E+02 -0.15743051521E+02  0.46117688369E+02  0.10566000000E+00 0. -1.
         23    2    1    0    0    0 -0.50001904989E+01 -0.13663552056E+02 -0.25576524223E+02  0.95664617231E+02  0.91026731452E+02 0.  0.
         13    1    3    3    0    0  0.31621731946E+02 -0.36854523181E+02 -0.98334727015E+01  0.49546928861E+02  0.10566000000E+00 0.  1.
         22    1    1    0    0    0  0.50001904989E+01  0.13663552056E+02  0.25576524223E+02  0.29425382769E+02  0.00000000000E+00 0.  1.
</event>
<event>
 5    1  0.1264859E-009  0.9118800E+02  0.7815553E-02  0.1125453E+00
         25   -1    0    0    0    0  0.00000000000E+00  0.00000000000E+00  0.99999998245E-14  0.12509000000E+03  0.12509000000E+03 0.  0.
        -13    1    3    3    0    0 -0.29233225655E+02  0.18288185227E+02  0.11216625019E+02  0.36261040277E+02  0.10566000000E+00 0.  1.
         23    2    1    0    0    0  0.24104218783E+02  0.10616604535E+02 -0.13439798903E+02  0.95520525038E+02  0.90828502431E+02 0.  0.
         13    1    3    3    0    0  0.53337444438E+02 -0.76715806925E+01 -0.24656423922E+02  0.59259484761E+02  0.10566000000E+00 0. -1.
         22    1    1    0    0    0 -0.24104218783E+02 -0.10616604535E+02  0.13439798903E+02  0.29569474962E+02  0.00000000000E+00 0. -1.
</event>
<event>
 5    1  0.1264859E-009  0.9118800E+02  0.7815553E-02  0.1125453E+00
         25   -1    0    0    0    0  0.00000000000E+00  0.00000000000E+00  0.99999998245E-14  0.12509000000E+03  0.12509000000E+03 0.  0.
        -13    1    3    3    0    0 -0.33417575683E+02  0.56627546263E+00 -0.42559821861E+02  0.54114735823E+02  0.10566000000E+00 0. -1.
         23    2    1    0    0    0 -0.97617050374E+00  0.19209262703E+02 -0.16913855053E+02  0.99476972549E+02  0.96123050785E+02 0.  0.
         13    1    3    3    0    0  0.32441405179E+02  0.18642987240E+02  0.25645966807E+02  0.45362236726E+02  0.10566000000E+00 0.  1.
         22    1    1    0    0    0  0.97617050374E+00 -0.19209262703E+02  0.16913855053E+02  0.25613027451E+02  0.00000000000E+00 0.  1.
</event>
<event>
 5    1  0.1264859E-009  0.9118800E+02  0.7815553E-02  0.1125453E+00
         25   -1    0    0    0    0  0.00000000000E+00  0.00000000000E+00  0.99999998245E-14  0.12509000000E+03  0.12509000000E+03 0.  0.
        -13    1    3    3    0    0 -0.36798550739E+02  0.29606493395E+01 -0.12982308815E+02  0.39133748699E+02  0.10566000000E+00 0.  1.
         23    2    1    0    0    0  0.75767555351E+01  0.27460423194E+02  0.10146324537E+02  0.94850456881E+02  0.89900941054E+02 0.  0.
         13    1    3    3    0    0  0.44375306274E+02  0.24499773855E+02  0.23128633352E+02  0.55716708182E+02  0.10566000000E+00 0. -1.
         22    1    1    0    0    0 -0.75767555351E+01 -0.27460423194E+02 -0.10146324537E+02  0.30239543119E+02  0.00000000000E+00 0. -1.
</event>
<event>
 5    1  0.1264859E-009  0.9118800E+02  0.7815553E-02  0.1125453E+00
         25   -1    0    0    0    0  0.00000000000E+00  0.00000000000E+00  0.99999998245E-14  0.12509000000E+03  0.12509000000E+03 0.  0.
        -13    1    3    3    0    0 -0.26500885017E+01  0.38003385030E+02 -0.34820065891E+02  0.51611320420E+02  0.10566000000E+00 0.  1.
         23    2    1    0    0    0 -0.20062510131E+02  0.18583252378E+01 -0.25119996760E+02  0.92887951576E+02  0.87127490641E+02 0.  0.
         13    1    3    3    0    0 -0.17412421629E+02 -0.36145059793E+02  0.97000691305E+01  0.41276631156E+02  0.10566000000E+00 0. -1.
         22    1    1    0    0    0  0.20062510131E+02 -0.18583252378E+01  0.25119996760E+02  0.32202048424E+02  0.00000000000E+00 0.  1.
</event>
<event>
 5    1  0.1264859E-009  0.9118800E+02  0.7815553E-02  0.1125453E+00
         25   -1    0    0    0    0  0.00000000000E+00  0.00000000000E+00  0.99999998245E-14  0.12509000000E+03  0.12509000000E+03 0.  0.
        -13    1    3    3    0    0 -0.26977274458E+02  0.58227166322E+01  0.24968838891E+02  0.37217354094E+02  0.10566000000E+00 0. -1.
         23    2    1    0    0    0  0.25266984035E+02  0.15191962560E+02  0.65188263303E+00  0.95600321134E+02  0.90938332079E+02 0.  0.
         13    1    3    3    0    0  0.52244258493E+02  0.93692459275E+01 -0.24316956258E+02  0.58382967040E+02  0.10566000000E+00 0.  1.
         22    1    1    0    0    0 -0.25266984035E+02 -0.15191962560E+02 -0.65188263303E+00  0.29489678866E+02  0.00000000000E+00 0.  1.
</event>
<event>
 5    1  0.1264859E-009  0.9118800E+02  0.7815553E-02  0.1125453E+00
         25   -1    0    0    0    0  0.00000000000E+00  0.00000000000E+00  0.99999998245E-14  0.12509000000E+03  0.12509000000E+03 0.  0.
        -13    1    3    3    0    0  0.91475565339E+01  0.21258360945E+01 -0.58881710505E+02  0.59626034294E+02  0.10566000000E+00 0.  1.
         23    2    1    0    0    0  0.17414504971E+02  0.22868562341E+01 -0.24776164230E+02  0.94719734792E+02  0.89718867304E+02 0.  0.
         13    1    3    3    0    0  0.82669484371E+01  0.16102013965E+00  0.34105546274E+02  0.35093700498E+02  0.10566000000E+00 0. -1.
         22    1    1    0    0    0 -0.17414504971E+02 -0.22868562341E+01  0.24776164230E+02  0.30370265208E+02  0.00000000000E+00 0.  1.
</event>
<event>
 5    1  0.1264859E-009  0.9118800E+02  0.7815553E-02  0.1125453E+00
         25   -1    0    0    0    0  0.00000000000E+00  0.00000000000E+00  0.99999998245E-14  0.12509000000E+03  0.12509000000E+03 0.  0.
        -13    1    3    3    0    0 -0.11047363528E+02  0.31584877128E+02  0.75189746037E+01  0.34295697211E+02  0.10566000000E+00 0.  1.
         23    2    1    0    0    0  0.16218280689E+02 -0.42601595925E+01 -0.28539474921E+02  0.91988894021E+02  0.85826996955E+02 0.  0.
         13    1    3    3    0    0  0.27265644217E+02 -0.35845036720E+02 -0.36058449525E+02  0.57693196810E+02  0.10566000000E+00 0. -1.
         22    1    1    0    0    0 -0.16218280689E+02  0.42601595925E+01  0.28539474921E+02  0.33101105979E+02  0.00000000000E+00 0. -1.
</event>
<event>
 5    1  0.1264859E-009  0.9118800E+02  0.7815553E-02  0.1125453E+00
         25   -1    0    0    0    0  0.00000000000E+00  0.00000000000E+00  0.99999998245E-14  0.12509000000E+03  0.12509000000E+03 0.  0.
        -13    1    3    3    0    0  0.17804293218E+02  0.13505313067E+02  0.51728072646E+02  0.56348833188E+02  0.10566000000E+00 0.  1.
         23    2    1    0    0    0  0.22277424674E+02  0.11480277801E+02  0.10418796224E+02  0.97949039382E+02  0.94113668362E+02 0.  0.
         13    1    3    3    0    0  0.44731314563E+01 -0.20250352657E+01 -0.41309276421E+02  0.41600206194E+02  0.10566000000E+00 0. -1.
         22    1    1    0    0    0 -0.22277424674E+02 -0.11480277801E+02 -0.10418796224E+02  0.27140960618E+02  0.00000000000E+00 0.  1.
</event>
<event>
 5    1  0.1264859E-009  0.9118800E+02  0.7815553E-02  0.1125453E+00
         25   -1    0    0    0    0  0.00000000000E+00  0.00000000000E+00  0.99999998245E-14  0.12509000000E+03  0.12509000000E+03 0.  0.
        -13    1    3    3    0    0 -0.35690418427E+02  0.10783967688E+02 -0.18317167098E+02  0.41540699334E+02  0.10566000000E+00 0.  1.
         23    2    1    0    0    0  0.19527883991E+02  0.16365620375E+02 -0.13530236236E+01  0.99575250220E+02  0.96250859737E+02 0.  0.
         13    1    3    3    0    0  0.55218302418E+02  0.55816526863E+01  0.16964143475E+02  0.58034550886E+02  0.10566000000E+00 0. -1.
         22    1    1    0    0    0 -0.19527883991E+02 -0.16365620375E+02  0.13530236236E+01  0.25514749780E+02  0.00000000000E+00 0. -1.
</event>
<event>
 5    1  0.1264859E-009  0.9118800E+02  0.7815553E-02  0.1125453E+00
         25   -1    0    0    0    0  0.00000000000E+00  0.00000000000E+00  0.99999998245E-14  0.12509000000E+03  0.12509000000E+03 0.  0.
        -13    1    3    3    0    0 -0.28723447570E+02 -0.49571210409E+02  0.12635813828E+02  0.58668699464E+02  0.10566000000E+00 0. -1.
         23    2    1    0    0    0 -0.23412632935E+02 -0.17530251877E+02 -0.46721205671E+01  0.95470921311E+02  0.90760161930E+02 0.  0.
         13    1    3    3    0    0  0.53108146348E+01  0.32040958532E+02 -0.17307934395E+02  0.36802221846E+02  0.10566000000E+00 0.  1.
         22    1    1    0    0    0  0.23412632935E+02  0.17530251877E+02  0.46721205671E+01  0.29619078689E+02  0.00000000000E+00 0. -1.
</event>
<event>
 5    1  0.1264859E-009  0.9118800E+02  0.7815553E-02  0.1125453E+00
         25   -1    0    0    0    0  0.00000000000E+00  0.00000000000E+00  0.99999998245E-14  0.12509000000E+03  0.12509000000E+03 0.  0.
        -13    1    3    3    0    0 -0.42228352622E+01  0.57326889980E+02  0.99783714498E+01  0.58341955000E+02  0.10566000000E+00 0. -1.
         23    2    1    0    0    0  0.11818016803E+02  0.23388891578E+02  0.12682398059E+02  0.95977305330E+02  0.91455421641E+02 0.  0.
         13    1    3    3    0    0  0.16040852065E+02 -0.33937998402E+02  0.27040266088E+01  0.37635350330E+02  0.10566000000E+00 0.  1.
         22    1    1    0    0    0 -0.11818016803E+02 -0.23388891578E+02 -0.12682398059E+02  0.29112694670E+02  0.00000000000E+00 0. -1.
</event>
<event>
 5    1  0.1264859E-009  0.9118800E+02  0.7815553E-02  0.1125453E+00
         25   -1    0    0    0    0  0.00000000000E+00  0.00000000000E+00  0.99999998245E-14  0.12509000000E+03  0.12509000000E+03 0.  0.
        -13    1    3    3    0    0  0.34685917722E+01  0.48064831840E-01  0.35179295736E+02  0.35350070037E+02  0.10566000000E+00 0.  1.
         23    2    1    0    0    0  0.47856203872E+01  0.46185015868E+01 -0.26782412967E+02  0.97494160391E+02  0.93507117090E+02 0.  0.
         13    1    3    3    0    0  0.13170286150E+01  0.45704367549E+01 -0.61961708703E+02  0.62144090354E+02  0.10566000000E+00 0. -1.
         22    1    1    0    0    0 -0.47856203872E+01 -0.46185015868E+01  0.26782412967E+02  0.27595839609E+02  0.00000000000E+00 0. -1.
</event>
<event>
 5    1  0.1264859E-009  0.9118800E+02  0.7815553E-02  0.1125453E+00
         25   -1    0    0    0    0  0.00000000000E+00  0.00000000000E+00  0.99999998245E-14  0.12509000000E+03  0.12509000000E+03 0.  0.
        -13    1    3    3    0    0 -0.43399017708E+02  0.15054285767E+01 -0.22964135648E+02  0.49123352321E+02  0.10566000000E+00 0.  1.
         23    2    1    0    0    0 -0.21134283079E+02 -0.20638994641E+02  0.92743698455E+01  0.94128088607E+02  0.88890140667E+02 0.  0.
         13    1    3    3    0    0  0.22264734628E+02 -0.22144423217E+02  0.32238505493E+02  0.45004736286E+02  0.10566000000E+00 0. -1.
         22    1    1    0    0    0  0.21134283079E+02  0.20638994641E+02 -0.92743698455E+01  0.30961911393E+02  0.00000000000E+00 0.  1.
</event>
<event>
 5    1  0.1264859E-009  0.9118800E+02  0.7815553E-02  0.1125453E+00
         25   -1    0    0    0    0  0.00000000000E+00  0.00000000000E+00  0.99999998245E-14  0.12509000000E+03  0.12509000000E+03 0.  0.
        -13    1    3    3    0    0 -0.29249166964E+02  0.51507386091E+01  0.34120661403E+02  0.45235766545E+02  0.10566000000E+00 0. -1.
         23    2    1    0    0    0  0.16910536098E+02  0.77889437753E+00  0.28499877429E+02  0.91941607564E+02  0.85758050820E+02 0.  0.
         13    1    3    3    0    0  0.46159703062E+02 -0.43718442316E+01 -0.56207839740E+01  0.46705841019E+02  0.10566000000E+00 0.  1.
         22    1    1    0    0    0 -0.16910536098E+02 -0.77889437753E+00 -0.28499877429E+02  0.33148392436E+02  0.00000000000E+00 0. -1.
</event>
<event>
 5    1  0.1264859E-009  0.9118800E+02  0.7815553E-02  0.1125453E+00
         25   -1    0    0    0    0  0.00000000000E+00  0.00000000000E+00  0.99999998245E-14  0.12509000000E+03  0.12509000000E+03 0.  0.
        -13    1    3    3    0    0  0.45730166822E+02  0.75635018871E+01 -0.11997032382E+02  0.47878958514E+02  0.10566000000E+00 0.  1.
         23    2    1    0    0    0  0.16134973846E+02  0.86136591150E+00  0.24748152599E+02  0.95534114134E+02  0.90847215555E+02 0.  0.
         13    1    3    3    0    0 -0.29595192976E+02 -0.67021359756E+01  0.36745184981E+02  0.47655155620E+02  0.10566000000E+00 0. -1.
         22    1    1    0    0    0 -0.16134973846E+02 -0.86136591150E+00 -0.24748152599E+02  0.29555885866E+02  0.00000000000E+00 0. -1.
</event>
<event>
 5    1  0.1264859E-009  0.9118800E+02  0.7815553E-02  0.1125453E+00
         25   -1    0    0    0    0  0.00000000000E+00  0.00000000000E+00  0.99999998245E-14  0.12509000000E+03  0.12509000000E+03 0.  0.
        -13    1    3    3    0    0  0.30147667783E+02 -0.34121027844E+02 -0.63065356319E+01  0.45966400442E+02  0.10566000000E+00 0. -1.
         23    2    1    0    0    0  0.66050764576E+01  0.57400750801E+01 -0.27023569619E+02  0.96684915739E+02  0.92418202317E+02 0.  0.
         13    1    3    3    0    0 -0.23542591325E+02  0.39861102924E+02 -0.20717033987E+02  0.50718515297E+02  0.10566000000E+00 0.  1.
         22    1    1    0    0    0 -0.66050764576E+01 -0.57400750801E+01  0.27023569619E+02  0.28405084261E+02  0.00000000000E+00 0. -1.
</event>
<event>
 5    1  0.1264859E-009  0.9118800E+02  0.7815553E-02  0.1125453E+00
         25   -1    0    0    0    0  0.00000000000E+00  0.00000000000E+00  0.99999998245E-14  0.12509000000E+03  0.12509000000E+03 0.  0.
        -13    1    3    3    0    0 -0.38767986190E+01  0.49752196779E+02 -0.29967523798E+02  0.58209744017E+02  0.10566000000E+00 0. -1.
         23    2    1    0    0    0  0.11568369312E+02  0.15495179775E+02 -0.20389334210E+02  0.96989239969E+02  0.92829197753E+02 0.  0.
         13    1    3    3    0    0  0.15445167931E+02 -0.34257017004E+02  0.95781895880E+01  0.38779495952E+02  0.10566000000E+00 0.  1.
         22    1    1    0    0    0 -0.11568369312E+02 -0.15495179775E+02  0.20389334210E+02  0.28100760031E+02  0.00000000000E+00 0. -1.
</event>
<event>
 5    1  0.1264859E-009  0.9118800E+02  0.7815553E-02  0.1125453E+00
         25   -1    0    0    0    0  0.00000000000E+00  0.00000000000E+00  0.99999998245E-14  0.12509000000E+03  0.12509000000E+03 0.  0.
        -13    1    3    3    0    0 -0.38980445109E+01  0.47937999234E+01 -0.34765989340E+02  0.35310911168E+02  0.10566000000E+00 0. -1.
         23    2    1    0    0    0  0.12368507039E+02 -0.18493894292E+02  0.18812419132E+02  0.95953919171E+02  0.91423429154E+02 0.  0.
         13    1    3    3    0    0  0.16266551550E+02 -0.23287694215E+02  0.53578408472E+02  0.60643008003E+02  0.10566000000E+00 0.  1.
         22    1    1    0    0    0 -0.12368507039E+02  0.18493894292E+02 -0.18812419132E+02  0.29136080829E+02  0.00000000000E+00 0.  1.
</event>
<event>
 5    1  0.1264859E-009  0.9118800E+02  0.7815553E-02  0.1125453E+00
         25   -1    0    0    0    0  0.00000000000E+00  0.00000000000E+00  0.99999998245E-14  0.12509000000E+03  0.12509000000E+03 0.  0.
        -13    1    3    3    0    0 -0.90873570066E+01  0.49961955342E+02 -0.15862320868E+02  0.53201517143E+02  0.10566000000E+00 0.  1.
         23    2    1    0    0    0  0.15319492071E+02  0.14836162835E+02 -0.19583937079E+02  0.96136085644E+02  0.91672339375E+02 0.  0.
         13    1    3    3    0    0  0.24406849078E+02 -0.35125792507E+02 -0.37216162111E+01  0.42934568501E+02  0.10566000000E+00 0. -1.
         22    1    1    0    0    0 -0.15319492071E+02 -0.14836162835E+02  0.19583937079E+02  0.28953914356E+02  0.00000000000E+00 0.  1.
</event>
<event>
 5    1  0.1264859E-009  0.9118800E+02  0.7815553E-02  0.1125453E+00
         25   -1    0    0    0    0  0.00000000000E+00  0.00000000000E+00  0.99999998245E-14  0.12509000000E+03  0.12509000000E+03 0.  0.
        -13    1    3    3    0    0  0.79010805325E+01  0.32228308164E+02 -0.13844055823E+02  0.35954971372E+02  0.10566000000E+00 0.  1.
         23    2    1    0    0    0  0.19252493849E+01 -0.27689139890E+02 -0.61665478916E+01  0.96657248358E+02  0.92380746340E+02 0.  0.
         13    1    3    3    0    0 -0.59758311476E+01 -0.59917448054E+02  0.76775079313E+01  0.60702276986E+02  0.10566000000E+00 0. -1.
         22    1    1    0    0    0 -0.19252493849E+01  0.27689139890E+02  0.61665478916E+01  0.28432751642E+02  0.00000000000E+00 0. -1.
</event>
<event>
 5    1  0.1264859E-009  0.9118800E+02  0.7815553E-02  0.1125453E+00
         25   -1    0    0    0    0  0.00000000000E+00  0.00000000000E+00  0.99999998245E-14  0.12509000000E+03  0.12509000000E+03 0.  0.
        -13    1    3    3    0    0  0.44486843259E+02 -0.20918859849E+01 -0.11591333834E+02  0.46019836964E+02  0.10566000000E+00 0. -1.
         23    2    1    0    0    0  0.76532795686E+01 -0.28955832962E+02  0.53700052615E+01  0.94662218169E+02  0.89638639221E+02 0.  0.
         13    1    3    3    0    0 -0.36833563691E+02 -0.26863946977E+02  0.16961339095E+02  0.48642381205E+02  0.10566000000E+00 0.  1.
         22    1    1    0    0    0 -0.76532795686E+01  0.28955832962E+02 -0.53700052615E+01  0.30427781831E+02  0.00000000000E+00 0.  1.
</event>
<event>
 5    1  0.1264859E-009  0.9118800E+02  0.7815553E-02  0.1125453E+00
         25   -1    0    0    0    0  0.00000000000E+00  0.00000000000E+00  0.99999998245E-14  0.12509000000E+03  0.12509000000E+03 0.  0.
        -13    1    3    3    0    0 -0.25524240811E+02 -0.16649206239E+02 -0.23488782400E+02  0.38476187442E+02  0.10566000000E+00 0.  1.
         23    2    1    0    0    0 -0.74453703297E+00  0.29275171118E+02  0.24770651358E+00  0.95804315136E+02  0.91218503939E+02 0.  0.
         13    1    3    3    0    0  0.24779703778E+02  0.45924377358E+02  0.23736488914E+02  0.57328127695E+02  0.10566000000E+00 0. -1.
         22    1    1    0    0    0  0.74453703297E+00 -0.29275171118E+02 -0.24770651358E+00  0.29285684864E+02  0.00000000000E+00 0. -1.
</event>
<event>
 5    1  0.1264859E-009  0.9118800E+02  0.7815553E-02  0.1125453E+00
         25   -1    0    0    0    0  0.00000000000E+00  0.00000000000E+00  0.99999998245E-14  0.12509000000E+03  0.12509000000E+03 0.  0.
        -13    1    3    3    0    0  0.53837157660E+02  0.20365502478E+02  0.13764189811E+02  0.59183252033E+02  0.10566000000E+00 0.  1.
         23    2    1    0    0    0  0.17839680168E+02  0.21662412871E+02  0.95350432034E+01  0.95451657118E+02  0.90733607213E+02 0.  0.
         13    1    3    3    0    0 -0.35997477492E+02  0.12969103933E+01 -0.42291466075E+01  0.36268405085E+02  0.10566000000E+00 0. -1.
         22    1    1    0    0    0 -0.17839680168E+02 -0.21662412871E+02 -0.95350432034E+01  0.29638342882E+02  0.00000000000E+00 0.  1.
</event>
<event>
 5    1  0.1264859E-009  0.9118800E+02  0.7815553E-02  0.1125453E+00
         25   -1    0    0    0    0  0.00000000000E+00  0.00000000000E+00  0.99999998245E-14  0.12509000000E+03  0.12509000000E+03 0.  0.
        -13    1    3    3    0    0 -0.22466257238E+02 -0.17291397307E+02  0.18229395402E+02  0.33705298632E+02  0.10566000000E+00 0. -1.
         23    2    1    0    0    0  0.17108093617E+02  0.10411652641E+02 -0.21100452344E+02  0.95998446809E+02  0.91484333755E+02 0.  0.
         13    1    3    3    0    0  0.39574350855E+02  0.27703049948E+02 -0.39329847746E+02  0.62293148177E+02  0.10566000000E+00 0.  1.
         22    1    1    0    0    0 -0.17108093617E+02 -0.10411652641E+02  0.21100452344E+02  0.29091553191E+02  0.00000000000E+00 0.  1.
</event>
<event>
 5    1  0.1264859E-009  0.9118800E+02  0.7815553E-02  0.1125453E+00
         25   -1    0    0    0    0  0.00000000000E+00  0.00000000000E+00  0.99999998245E-14  0.12509000000E+03  0.12509000000E+03 0.  0.
        -13    1    3    3    0    0  0.11911773977E+02 -0.36418556819E+02 -0.16366637236E+02  0.41666288754E+02  0.10566000000E+00 0. -1.
         23    2    1    0    0    0 -0.22007682727E+02  0.93932780401E+01 -0.10464594964E+02  0.98973347858E+02  0.95465407699E+02 0.  0.
         13    1    3    3    0    0 -0.33919456704E+02  0.45811834859E+02  0.59020422720E+01  0.57307059105E+02  0.10566000000E+00 0.  1.
         22    1    1    0    0    0  0.22007682727E+02 -0.93932780401E+01  0.10464594964E+02  0.26116652142E+02  0.00000000000E+00 0.  1.
</event>
<event>
 5    1  0.1264859E-009  0.9118800E+02  0.7815553E-02  0.1125453E+00
         25   -1    0    0    0    0  0.00000000000E+00  0.00000000000E+00  0.99999998245E-14  0.12509000000E+03  0.12509000000E+03 0.  0.
        -13    1    3    3    0    0 -0.13496279130E+02  0.20306435901E+00 -0.36522771028E+02  0.38937318258E+02  0.10566000000E+00 0. -1.
         23    2    1    0    0    0 -0.77788622505E+01  0.24230131575E+02  0.14626881936E+02  0.95737731788E+02  0.91127150941E+02 0.  0.
         13    1    3    3    0    0  0.57174168794E+01  0.24027067216E+02  0.51149652964E+02  0.56800413530E+02  0.10566000000E+00 0.  1.
         22    1    1    0    0    0  0.77788622505E+01 -0.24230131575E+02 -0.14626881936E+02  0.29352268212E+02  0.00000000000E+00 0.  1.
</event>
<event>
 5    1  0.1264859E-009  0.9118800E+02  0.7815553E-02  0.1125453E+00
         25   -1    0    0    0    0  0.00000000000E+00  0.00000000000E+00  0.99999998245E-14  0.12509000000E+03  0.12509000000E+03 0.  0.
        -13    1    3    3    0    0 -0.55822723904E+02  0.17019525504E+02  0.14384276109E+02  0.60106233584E+02  0.10566000000E+00 0.  1.
         23    2    1    0    0    0 -0.26545995269E+02  0.44459951029E+01  0.18779143166E+02  0.92270600930E+02  0.86236598035E+02 0.  0.
         13    1    3    3    0    0  0.29276728635E+02 -0.12573530401E+02  0.43948670572E+01  0.32164367347E+02  0.10566000000E+00 0. -1.
         22    1    1    0    0    0  0.26545995269E+02 -0.44459951029E+01 -0.18779143166E+02  0.32819399070E+02  0.00000000000E+00 0.  1.
</event>
<event>
 5    1  0.1264859E-009  0.9118800E+02  0.7815553E-02  0.1125453E+00
         25   -1    0    0    0    0  0.00000000000E+00  0.00000000000E+00  0.99999998245E-14  0.12509000000E+03  0.12509000000E+03 0.  0.
        -13    1    3    3    0    0 -0.36085731919E+02 -0.37352007600E+02  0.28842249446E+02  0.59407398841E+02  0.10566000000E+00 0.  1.
         23    2    1    0    0    0 -0.23496687669E+02 -0.49972360887E+01  0.14912415517E+02  0.96815509085E+02  0.92594794470E+02 0.  0.
         13    1    3    3    0    0  0.12589044250E+02  0.32354771512E+02 -0.13929833929E+02  0.37408110244E+02  0.10566000000E+00 0. -1.
         22    1    1    0    0    0  0.23496687669E+02  0.49972360887E+01 -0.14912415517E+02  0.28274490915E+02  0.00000000000E+00 0.  1.
</event>
<event>
 5    1  0.1264859E-009  0.9118800E+02  0.7815553E-02  0.1125453E+00
         25   -1    0    0    0    0  0.00000000000E+00  0.00000000000E+00  0.99999998245E-14  0.12509000000E+03  0.12509000000E+03 0.  0.
        -13    1    3    3    0    0 -0.81040199899E+01 -0.21713570718E+02 -0.24871750709E+02  0.33996609252E+02  0.10566000000E+00 0. -1.
         23    2    1    0    0    0  0.39840437994E+01  0.26592051537E+02  0.11686871904E+02  0.95771187186E+02  0.91173063512E+02 0.  0.
         13    1    3    3    0    0  0.12088063789E+02  0.48305622254E+02  0.36558622612E+02  0.61774577934E+02  0.10566000000E+00 0.  1.
         22    1    1    0    0    0 -0.39840437994E+01 -0.26592051537E+02 -0.11686871904E+02  0.29318812814E+02  0.00000000000E+00 0.  1.
</event>
<event>
 5    1  0.1264859E-009  0.9118800E+02  0.7815553E-02  0.1125453E+00
         25   -1    0    0    0    0  0.00000000000E+00  0.00000000000E+00  0.99999998245E-14  0.12509000000E+03  0.12509000000E+03 0.  0.
        -13    1    3    3    0    0 -0.82465122260E+01  0.40342324024E+02  0.15154266632E+01  0.41204559864E+02  0.10566000000E+00 0.  1.
         23    2    1    0    0    0  0.28805995487E+02  0.57068425767E+00  0.56909173527E+01  0.95721690603E+02  0.91105128589E+02 0.  0.
         13    1    3    3    0    0  0.37052507713E+02 -0.39771639767E+02  0.41754906895E+01  0.54517130739E+02  0.10566000000E+00 0. -1.
         22    1    1    0    0    0 -0.28805995487E+02 -0.57068425767E+00 -0.56909173527E+01  0.29368309397E+02  0.00000000000E+00 0. -1.
</event>
<event>
 5    1  0.1264859E-009  0.9118800E+02  0.7815553E-02  0.1125453E+00
         25   -1    0    0    0    0  0.00000000000E+00  0.00000000000E+00  0.99999998245E-14  0.12509000000E+03  0.12509000000E+03 0.  0.
        -13    1    3    3    0    0 -0.37783476456E+02  0.32278944862E+02 -0.89579130796E+01  0.50495314093E+02  0.10566000000E+00 0.  1.
         23    2    1    0    0    0 -0.27600117604E+02 -0.40710537641E+01  0.13155590348E+02  0.94245072898E+02  0.89054613792E+02 0.  0.
         13    1    3    3    0    0  0.10183358852E+02 -0.36349998626E+02  0.22113503428E+02  0.43749758805E+02  0.10566000000E+00 0. -1.
         22    1    1    0    0    0  0.27600117604E+02  0.40710537641E+01 -0.13155590348E+02  0.30844927102E+02  0.00000000000E+00 0. -1.
</event>
<event>
 5    1  0.1264859E-009  0.9118800E+02  0.7815553E-02  0.1125453E+00
         25   -1    0    0    0    0  0.00000000000E+00  0.00000000000E+00  0.99999998245E-14  0.12509000000E+03  0.12509000000E+03 0.  0.
        -13    1    3    3    0    0  0.19790512451E+02 -0.90690789837E+00  0.50134889908E+02  0.53907376259E+02  0.10566000000E+00 0.  1.
         23    2    1    0    0    0  0.26878887656E+02  0.67334536738E+01  0.95939307341E+01  0.95766672990E+02  0.91166869797E+02 0.  0.
         13    1    3    3    0    0  0.70883752051E+01  0.76403615722E+01 -0.40540959174E+02  0.41859296731E+02  0.10566000000E+00 0. -1.
         22    1    1    0    0    0 -0.26878887656E+02 -0.67334536738E+01 -0.95939307341E+01  0.29323327010E+02  0.00000000000E+00 0.  1.
</event>
<event>
 5    1  0.1264859E-009  0.9118800E+02  0.7815553E-02  0.1125453E+00
         25   -1    0    0    0    0  0.00000000000E+00  0.00000000000E+00  0.99999998245E-14  0.12509000000E+03  0.12509000000E+03 0.  0.
        -13    1    3    3    0    0  0.46735839534E+02 -0.13376550789E+02  0.34379865577E+02  0.59541222099E+02  0.10566000000E+00 0. -1.
         23    2    1    0    0    0  0.25771578786E+02  0.66596582669E+01  0.13747085252E+02  0.95131567560E+02  0.90291236962E+02 0.  0.
         13    1    3    3    0    0 -0.20964260749E+02  0.20036209056E+02 -0.20632780325E+02  0.35590345461E+02  0.10566000000E+00 0.  1.
         22    1    1    0    0    0 -0.25771578786E+02 -0.66596582669E+01 -0.13747085252E+02  0.29958432440E+02  0.00000000000E+00 0. -1.
</event>
<event>
 5    1  0.1264859E-009  0.9118800E+02  0.7815553E-02  0.1125453E+00
         25   -1    0    0    0    0  0.00000000000E+00  0.00000000000E+00  0.99999998245E-14  0.12509000000E+03  0.12509000000E+03 0.  0.
        -13    1    3    3    0    0  0.33020091844E+02 -0.73625950063E+01 -0.75425983825E+01  0.34661740075E+02  0.10566000000E+00 0.  1.
         23    2    1    0    0    0 -0.26128080741E+02  0.10470419671E+02 -0.50685516783E+01  0.96489361765E+02  0.92153135738E+02 0.  0.
         13    1    3    3    0    0 -0.59148172586E+02  0.17833014678E+02  0.24740467043E+01  0.61827621690E+02  0.10566000000E+00 0. -1.
         22    1    1    0    0    0  0.26128080741E+02 -0.10470419671E+02  0.50685516783E+01  0.28600638235E+02  0.00000000000E+00 0. -1.
</event>
<event>
 5    1  0.1264859E-009  0.9118800E+02  0.7815553E-02  0.1125453E+00
         25   -1    0    0    0    0  0.00000000000E+00  0.00000000000E+00  0.99999998245E-14  0.12509000000E+03  0.12509000000E+03 0.  0.
        -13    1    3    3    0    0  0.16410092671E+02  0.28849531470E+02 -0.47337301407E+02  0.57813647835E+02  0.10566000000E+00 0.  1.
         23    2    1    0    0    0 -0.87865428430E+01  0.11135973549E+02 -0.26599400754E+02  0.94944662674E+02  0.90031925492E+02 0.  0.
         13    1    3    3    0    0 -0.25196635514E+02 -0.17713557921E+02  0.20737900653E+02  0.37131014839E+02  0.10566000000E+00 0. -1.
         22    1    1    0    0    0  0.87865428430E+01 -0.11135973549E+02  0.26599400754E+02  0.30145337326E+02  0.00000000000E+00 0.  1.
</event>
<event>
 5    1  0.1264859E-009  0.9118800E+02  0.7815553E-02  0.1125453E+00
         25   -1    0    0    0    0  0.00000000000E+00  0.00000000000E+00  0.99999998245E-14  0.12509000000E+03  0.12509000000E+03 0.  0.
        -13    1    3    3    0    0 -0.71213656710E+01 -0.12872958641E+02 -0.25654787691E+02  0.29573741879E+02  0.10566000000E+00 0.  1.
         23    2    1    0    0    0  0.88283348191E+00  0.26762447214E+02  0.20815880306E+02  0.91173796664E+02  0.84630682080E+02 0.  0.
         13    1    3    3    0    0  0.80041991529E+01  0.39635405855E+02  0.46470667997E+02  0.61600054785E+02  0.10566000000E+00 0. -1.
         22    1    1    0    0    0 -0.88283348191E+00 -0.26762447214E+02 -0.20815880306E+02  0.33916203336E+02  0.00000000000E+00 0. -1.
</event>
<event>
 5    1  0.1264859E-009  0.9118800E+02  0.7815553E-02  0.1125453E+00
         25   -1    0    0    0    0  0.00000000000E+00  0.00000000000E+00  0.99999998245E-14  0.12509000000E+03  0.12509000000E+03 0.  0.
        -13    1    3    3    0    0 -0.28651835012E+02 -0.20516764327E+02  0.57988764425E+01  0.35714190458E+02  0.10566000000E+00 0.  1.
         23    2    1    0    0    0  0.24467772471E+02 -0.42546167353E+01 -0.16171399018E+02  0.95454079237E+02  0.90736946409E+02 0.  0.
         13    1    3    3    0    0  0.53119607484E+02  0.16262147592E+02 -0.21970275460E+02  0.59739888779E+02  0.10566000000E+00 0. -1.
         22    1    1    0    0    0 -0.24467772471E+02  0.42546167353E+01  0.16171399018E+02  0.29635920763E+02  0.00000000000E+00 0. -1.
</event>
<event>
 5    1  0.1264859E-009  0.9118800E+02  0.7815553E-02  0.1125453E+00
         25   -1    0    0    0    0  0.00000000000E+00  0.00000000000E+00  0.99999998245E-14  0.12509000000E+03  0.12509000000E+03 0.  0.
        -13    1    3    3    0    0 -0.20266394806E+02 -0.21474427329E+02 -0.19303836895E+02  0.35277855242E+02  0.10566000000E+00 0.  1.
         23    2    1    0    0    0  0.29092324383E+02  0.77393563300E+01 -0.98991317969E+01  0.93400036530E+02  0.87859621209E+02 0.  0.
         13    1    3    3    0    0  0.49358719189E+02  0.29213783659E+02  0.94047050981E+01  0.58122181288E+02  0.10566000000E+00 0. -1.
         22    1    1    0    0    0 -0.29092324383E+02 -0.77393563300E+01  0.98991317969E+01  0.31689963470E+02  0.00000000000E+00 0. -1.
</event>
<event>
 5    1  0.1264859E-009  0.9118800E+02  0.7815553E-02  0.1125453E+00
         25   -1    0    0    0    0  0.00000000000E+00  0.00000000000E+00  0.99999998245E-14  0.12509000000E+03  0.12509000000E+03 0.  0.
        -13    1    3    3    0    0 -0.67075334389E+01 -0.33121968140E+02  0.29189282058E+02  0.44655135532E+02  0.10566000000E+00 0.  1.
         23    2    1    0    0    0 -0.29890308399E+02  0.49325188077E+01  0.13829373108E+02  0.91788170643E+02  0.85533948999E+02 0.  0.
         13    1    3    3    0    0 -0.23182774960E+02  0.38054486948E+02 -0.15359908950E+02  0.47133035110E+02  0.10566000000E+00 0. -1.
         22    1    1    0    0    0  0.29890308399E+02 -0.49325188077E+01 -0.13829373108E+02  0.33301829357E+02  0.00000000000E+00 0. -1.
</event>
<event>
 5    1  0.1264859E-009  0.9118800E+02  0.7815553E-02  0.1125453E+00
         25   -1    0    0    0    0  0.00000000000E+00  0.00000000000E+00  0.99999998245E-14  0.12509000000E+03  0.12509000000E+03 0.  0.
        -13    1    3    3    0    0 -0.31644872939E+02 -0.21822551744E+02 -0.42757558370E+01  0.38677060384E+02  0.10566000000E+00 0. -1.
         23    2    1    0    0    0  0.35935654206E+01  0.25944870897E+02 -0.65901314078E+01  0.98081114976E+02  0.94289051563E+02 0.  0.
         13    1    3    3    0    0  0.35238438359E+02  0.47767422640E+02 -0.23143755708E+01  0.59404054592E+02  0.10566000000E+00 0.  1.
         22    1    1    0    0    0 -0.35935654206E+01 -0.25944870897E+02  0.65901314078E+01  0.27008885024E+02  0.00000000000E+00 0.  1.
</event>
<event>
 5    1  0.1264859E-009  0.9118800E+02  0.7815553E-02  0.1125453E+00
         25   -1    0    0    0    0  0.00000000000E+00  0.00000000000E+00  0.99999998245E-14  0.12509000000E+03  0.12509000000E+03 0.  0.
        -13    1    3    3    0    0 -0.69186443622E+01 -0.46217766618E+02 -0.29976974260E+02  0.55520984689E+02  0.10566000000E+00 0.  1.
         23    2    1    0    0    0 -0.22968175055E+02 -0.14410674969E+02 -0.11767010475E+02  0.95532138881E+02  0.90844495734E+02 0.  0.
         13    1    3    3    0    0 -0.16049530693E+02  0.31807091650E+02  0.18209963785E+02  0.40011154192E+02  0.10566000000E+00 0. -1.
         22    1    1    0    0    0  0.22968175055E+02  0.14410674969E+02  0.11767010475E+02  0.29557861119E+02  0.00000000000E+00 0.  1.
</event>
<event>
 5    1  0.1264859E-009  0.9118800E+02  0.7815553E-02  0.1125453E+00
         25   -1    0    0    0    0  0.00000000000E+00  0.00000000000E+00  0.99999998245E-14  0.12509000000E+03  0.12509000000E+03 0.  0.
        -13    1    3    3    0    0  0.40335508464E+02  0.63639420921E+01 -0.25059324338E+02  0.47910686724E+02  0.10566000000E+00 0.  1.
         23    2    1    0    0    0  0.24249733721E+02 -0.81737263259E+01  0.16398843153E+02  0.94696226882E+02  0.89686085551E+02 0.  0.
         13    1    3    3    0    0 -0.16085774744E+02 -0.14537668418E+02  0.41458167491E+02  0.46785540159E+02  0.10566000000E+00 0. -1.
         22    1    1    0    0    0 -0.24249733721E+02  0.81737263259E+01 -0.16398843153E+02  0.30393773118E+02  0.00000000000E+00 0.  1.
</event>
<event>
 5    1  0.1264859E-009  0.9118800E+02  0.7815553E-02  0.1125453E+00
         25   -1    0    0    0    0  0.00000000000E+00  0.00000000000E+00  0.99999998245E-14  0.12509000000E+03  0.12509000000E+03 0.  0.
        -13    1    3    3    0    0 -0.92928694392E+01 -0.38918967653E+02  0.19883019671E+02  0.44680970232E+02  0.10566000000E+00 0. -1.
         23    2    1    0    0    0 -0.15382443755E+02 -0.14491491139E+02 -0.22653552751E+02  0.94109258506E+02  0.88863638193E+02 0.  0.
         13    1    3    3    0    0 -0.60895743160E+01  0.24427476514E+02 -0.42536572422E+02  0.49428288274E+02  0.10566000000E+00 0.  1.
         22    1    1    0    0    0  0.15382443755E+02  0.14491491139E+02  0.22653552751E+02  0.30980741494E+02  0.00000000000E+00 0. -1.
</event>
<event>
 5    1  0.1264859E-009  0.9118800E+02  0.7815553E-02  0.1125453E+00
         25   -1    0    0    0    0  0.00000000000E+00  0.00000000000E+00  0.99999998245E-14  0.12509000000E+03  0.12509000000E+03 0.  0.
        -13    1    3    3    0    0 -0.10094554752E+01 -0.37216798344E+02 -0.46026435835E+01  0.37514058316E+02  0.10566000000E+00 0. -1.
         23    2    1    0    0    0  0.33263239099E+02  0.43293461692E+01 -0.28643846246E+00  0.91544980092E+02  0.85177549973E+02 0.  0.
         13    1    3    3    0    0  0.34272694575E+02  0.41546144513E+02  0.43162051210E+01  0.54030921776E+02  0.10566000000E+00 0.  1.
         22    1    1    0    0    0 -0.33263239099E+02 -0.43293461692E+01  0.28643846246E+00  0.33545019908E+02  0.00000000000E+00 0.  1.
</event>
<event>
 5    1  0.1264859E-009  0.9118800E+02  0.7815553E-02  0.1125453E+00
         25   -1    0    0    0    0  0.00000000000E+00  0.00000000000E+00  0.99999998245E-14  0.12509000000E+03  0.12509000000E+03 0.  0.
        -13    1    3    3    0    0 -0.30459098393E+02 -0.79298021452E+01 -0.12245910039E+02  0.33772946476E+02  0.10566000000E+00 0.  1.
         23    2    1    0    0    0  0.22153480331E+02  0.16384066967E+02  0.98895048993E+01  0.95815153317E+02  0.91233365371E+02 0.  0.
         13    1    3    3    0    0  0.52612578724E+02  0.24313869112E+02  0.22135414938E+02  0.62042206841E+02  0.10566000000E+00 0. -1.
         22    1    1    0    0    0 -0.22153480331E+02 -0.16384066967E+02 -0.98895048993E+01  0.29274846683E+02  0.00000000000E+00 0. -1.
</event>
<event>
 5    1  0.1264859E-009  0.9118800E+02  0.7815553E-02  0.1125453E+00
         25   -1    0    0    0    0  0.00000000000E+00  0.00000000000E+00  0.99999998245E-14  0.12509000000E+03  0.12509000000E+03 0.  0.
        -13    1    3    3    0    0  0.40074546667E+02 -0.14396132598E+02  0.88384411917E+01  0.43489620958E+02  0.10566000000E+00 0.  1.
         23    2    1    0    0    0  0.40244033721E+01  0.25534966189E+02  0.10190831697E+02  0.97303611760E+02  0.93251860518E+02 0.  0.
         13    1    3    3    0    0 -0.36050143295E+02  0.39931098787E+02  0.13523905056E+01  0.53813990802E+02  0.10566000000E+00 0. -1.
         22    1    1    0    0    0 -0.40244033721E+01 -0.25534966189E+02 -0.10190831697E+02  0.27786388240E+02  0.00000000000E+00 0. -1.
</event>
<event>
 5    1  0.1264859E-009  0.9118800E+02  0.7815553E-02  0.1125453E+00
         25   -1    0    0    0    0  0.00000000000E+00  0.00000000000E+00  0.99999998245E-14  0.12509000000E+03  0.12509000000E+03 0.  0.
        -13    1    3    3    0    0  0.34769490267E+02  0.30434383095E+02 -0.13030702924E+02  0.48010202151E+02  0.10566000000E+00 0. -1.
         23    2    1    0    0    0  0.21975097959E+02 -0.16017396744E+01  0.19678150921E+02  0.95548501664E+02  0.90867023976E+02 0.  0.
         13    1    3    3    0    0 -0.12794392308E+02 -0.32036122770E+02  0.32708853845E+02  0.47538299513E+02  0.10566000000E+00 0.  1.
         22    1    1    0    0    0 -0.21975097959E+02  0.16017396744E+01 -0.19678150921E+02  0.29541498336E+02  0.00000000000E+00 0. -1.
</event>
<event>
 5    1  0.1264859E-009  0.9118800E+02  0.7815553E-02  0.1125453E+00
         25   -1    0    0    0    0  0.00000000000E+00  0.00000000000E+00  0.99999998245E-14  0.12509000000E+03  0.12509000000E+03 0.  0.
        -13    1    3    3    0    0  0.58074719761E+01  0.46497054937E+02 -0.18121844736E+02  0.50240573934E+02  0.10566000000E+00 0. -1.
         23    2    1    0    0    0  0.28319761933E+02  0.13067847200E+02 -0.14165555740E+01  0.93868466148E+02  0.88524034934E+02 0.  0.
         13    1    3    3    0    0  0.22512289957E+02 -0.33429207737E+02  0.16705289162E+02  0.43627892214E+02  0.10566000000E+00 0.  1.
         22    1    1    0    0    0 -0.28319761933E+02 -0.13067847200E+02  0.14165555740E+01  0.31221533852E+02  0.00000000000E+00 0. -1.
</event>
<event>
 5    1  0.1264859E-009  0.9118800E+02  0.7815553E-02  0.1125453E+00
         25   -1    0    0    0    0  0.00000000000E+00  0.00000000000E+00  0.99999998245E-14  0.12509000000E+03  0.12509000000E+03 0.  0.
        -13    1    3    3    0    0 -0.24351319990E+02  0.14164149134E+02 -0.27723493679E+02  0.39524842464E+02  0.10566000000E+00 0. -1.
         23    2    1    0    0    0 -0.89702614780E+01 -0.94858995575E+01  0.23616178774E+02  0.98105341742E+02  0.94321186894E+02 0.  0.
         13    1    3    3    0    0  0.15381058512E+02 -0.23650048692E+02  0.51339672453E+02  0.58580499279E+02  0.10566000000E+00 0.  1.
         22    1    1    0    0    0  0.89702614780E+01  0.94858995575E+01 -0.23616178774E+02  0.26984658258E+02  0.00000000000E+00 0.  1.
</event>
<event>
 5    1  0.1264859E-009  0.9118800E+02  0.7815553E-02  0.1125453E+00
         25   -1    0    0    0    0  0.00000000000E+00  0.00000000000E+00  0.99999998245E-14  0.12509000000E+03  0.12509000000E+03 0.  0.
        -13    1    3    3    0    0  0.39787445423E+02  0.39066864393E+02  0.22463679685E+02  0.60115628383E+02  0.10566000000E+00 0. -1.
         23    2    1    0    0    0  0.93888869540E+01  0.25426214026E+02  0.57879817663E+01  0.97374583877E+02  0.93347015456E+02 0.  0.
         13    1    3    3    0    0 -0.30398558469E+02 -0.13640650368E+02 -0.16675697919E+02  0.37258955495E+02  0.10566000000E+00 0.  1.
         22    1    1    0    0    0 -0.93888869540E+01 -0.25426214026E+02 -0.57879817663E+01  0.27715416123E+02  0.00000000000E+00 0. -1.
</event>
<event>
 5    1  0.1264859E-009  0.9118800E+02  0.7815553E-02  0.1125453E+00
         25   -1    0    0    0    0  0.00000000000E+00  0.00000000000E+00  0.99999998245E-14  0.12509000000E+03  0.12509000000E+03 0.  0.
        -13    1    3    3    0    0 -0.56188454011E+01 -0.12135035211E+02  0.32869230521E+02  0.35485602465E+02  0.10566000000E+00 0. -1.
         23    2    1    0    0    0  0.13966814562E+02 -0.73282066931E+01 -0.24306881387E+02  0.96114165153E+02  0.91642423243E+02 0.  0.
         13    1    3    3    0    0  0.19585659963E+02  0.48068285183E+01 -0.57176111908E+02  0.60628562688E+02  0.10566000000E+00 0.  1.
         22    1    1    0    0    0 -0.13966814562E+02  0.73282066931E+01  0.24306881387E+02  0.28975834847E+02  0.00000000000E+00 0.  1.
</event>
<event>
 5    1  0.1264859E-009  0.9118800E+02  0.7815553E-02  0.1125453E+00
         25   -1    0    0    0    0  0.00000000000E+00  0.00000000000E+00  0.99999998245E-14  0.12509000000E+03  0.12509000000E+03 0.  0.
        -13    1    3    3    0    0 -0.22382553011E+02 -0.44337411270E+02 -0.35887479628E+02  0.61275664628E+02  0.10566000000E+00 0.  1.
         23    2    1    0    0    0 -0.94385516139E+01 -0.15303981993E+02 -0.23747797926E+02  0.95303156801E+02  0.90528645569E+02 0.  0.
         13    1    3    3    0    0  0.12944001397E+02  0.29033429277E+02  0.12139681702E+02  0.34027492174E+02  0.10566000000E+00 0. -1.
         22    1    1    0    0    0  0.94385516139E+01  0.15303981993E+02  0.23747797926E+02  0.29786843199E+02  0.00000000000E+00 0.  1.
</event>
<event>
 5    1  0.1264859E-009  0.9118800E+02  0.7815553E-02  0.1125453E+00
         25   -1    0    0    0    0  0.00000000000E+00  0.00000000000E+00  0.99999998245E-14  0.12509000000E+03  0.12509000000E+03 0.  0.
        -13    1    3    3    0    0 -0.10882488981E+02 -0.13495947832E+02 -0.59180077056E+02  0.61667348400E+02  0.10566000000E+00 0.  1.
         23    2    1    0    0    0 -0.68955057724E+01 -0.11568453402E+02 -0.20745452344E+02  0.10035640125E+03  0.97260764781E+02 0.  0.
         13    1    3    3    0    0  0.39869832084E+01  0.19274944302E+01  0.38434624713E+02  0.38689052854E+02  0.10566000000E+00 0. -1.
         22    1    1    0    0    0  0.68955057724E+01  0.11568453402E+02  0.20745452344E+02  0.24733598746E+02  0.00000000000E+00 0.  1.
</event>
<event>
 5    1  0.1264859E-009  0.9118800E+02  0.7815553E-02  0.1125453E+00
         25   -1    0    0    0    0  0.00000000000E+00  0.00000000000E+00  0.99999998245E-14  0.12509000000E+03  0.12509000000E+03 0.  0.
        -13    1    3    3    0    0 -0.24019145544E+02 -0.39453491553E+02 -0.17142788683E+02  0.49268486036E+02  0.10566000000E+00 0. -1.
         23    2    1    0    0    0 -0.25019561949E+02 -0.79845807533E+01  0.15478278145E+02  0.94605428423E+02  0.89559354524E+02 0.  0.
         13    1    3    3    0    0 -0.10004164048E+01  0.31468910800E+02  0.32621066828E+02  0.45336942387E+02  0.10566000000E+00 0.  1.
         22    1    1    0    0    0  0.25019561949E+02  0.79845807533E+01 -0.15478278145E+02  0.30484571577E+02  0.00000000000E+00 0. -1.
</event>
<event>
 5    1  0.1264859E-009  0.9118800E+02  0.7815553E-02  0.1125453E+00
         25   -1    0    0    0    0  0.00000000000E+00  0.00000000000E+00  0.99999998245E-14  0.12509000000E+03  0.12509000000E+03 0.  0.
        -13    1    3    3    0    0  0.28979589264E+01 -0.13993781295E+02 -0.34061933285E+02  0.36938469703E+02  0.10566000000E+00 0.  1.
         23    2    1    0    0    0  0.21494795772E+02  0.27559253636E+01  0.19422507455E+02  0.95989223967E+02  0.91471722144E+02 0.  0.
         13    1    3    3    0    0  0.18596836846E+02  0.16749706659E+02  0.53484440740E+02  0.59050754264E+02  0.10566000000E+00 0. -1.
         22    1    1    0    0    0 -0.21494795772E+02 -0.27559253636E+01 -0.19422507455E+02  0.29100776033E+02  0.00000000000E+00 0. -1.
</event>
<event>
 5    1  0.1264859E-009  0.9118800E+02  0.7815553E-02  0.1125453E+00
         25   -1    0    0    0    0  0.00000000000E+00  0.00000000000E+00  0.99999998245E-14  0.12509000000E+03  0.12509000000E+03 0.  0.
        -13    1    3    3    0    0  0.16299555351E+02  0.39365704626E+02  0.14101519941E+02  0.44879819898E+02  0.10566000000E+00 0.  1.
         23    2    1    0    0    0 -0.12264814098E+01 -0.62341325288E+01  0.28564193152E+02  0.95827706935E+02  0.91250576003E+02 0.  0.
         13    1    3    3    0    0 -0.17526036761E+02 -0.45599837155E+02  0.14462673211E+02  0.50947887037E+02  0.10566000000E+00 0. -1.
         22    1    1    0    0    0  0.12264814098E+01  0.62341325288E+01 -0.28564193152E+02  0.29262293065E+02  0.00000000000E+00 0. -1.
</event>
<event>
 5    1  0.1264859E-009  0.9118800E+02  0.7815553E-02  0.1125453E+00
         25   -1    0    0    0    0  0.00000000000E+00  0.00000000000E+00  0.99999998245E-14  0.12509000000E+03  0.12509000000E+03 0.  0.
        -13    1    3    3    0    0 -0.41191346022E+02 -0.15426191235E+02  0.22917552417E+02  0.49597577924E+02  0.10566000000E+00 0.  1.
         23    2    1    0    0    0 -0.27067956144E+02  0.16208005894E+02 -0.37522924932E+01  0.93318103553E+02  0.87742891717E+02 0.  0.
         13    1    3    3    0    0  0.14123389878E+02  0.31634197129E+02 -0.26669844910E+02  0.43720525628E+02  0.10566000000E+00 0. -1.
         22    1    1    0    0    0  0.27067956144E+02 -0.16208005894E+02  0.37522924932E+01  0.31771896447E+02  0.00000000000E+00 0. -1.
</event>
<event>
 5    1  0.1264859E-009  0.9118800E+02  0.7815553E-02  0.1125453E+00
         25   -1    0    0    0    0  0.00000000000E+00  0.00000000000E+00  0.99999998245E-14  0.12509000000E+03  0.12509000000E+03 0.  0.
        -13    1    3    3    0    0  0.50928745016E+01  0.63573948459E+01 -0.44526831954E+02  0.45265922810E+02  0.10566000000E+00 0.  1.
         23    2    1    0    0    0  0.15015038350E+02  0.25421936253E+02  0.93300221047E+00  0.95550251987E+02  0.90869433487E+02 0.  0.
         13    1    3    3    0    0  0.99221638484E+01  0.19064541407E+02  0.45459834165E+02  0.50284329178E+02  0.10566000000E+00 0. -1.
         22    1    1    0    0    0 -0.15015038350E+02 -0.25421936253E+02 -0.93300221047E+00  0.29539748013E+02  0.00000000000E+00 0. -1.
</event>
<event>
 5    1  0.1264859E-009  0.9118800E+02  0.7815553E-02  0.1125453E+00
         25   -1    0    0    0    0  0.00000000000E+00  0.00000000000E+00  0.99999998245E-14  0.12509000000E+03  0.12509000000E+03 0.  0.
        -13    1    3    3    0    0 -0.18625962762E+02 -0.32669697219E+02 -0.46942057473E+02  0.60148179764E+02  0.10566000000E+00 0.  1.
         23    2    1    0    0    0  0.18574816308E+01 -0.21196313500E+02 -0.19946487255E+02  0.95925015895E+02  0.91383873723E+02 0.  0.
         13    1    3    3    0    0  0.20483444393E+02  0.11473383718E+02  0.26995570218E+02  0.35776836131E+02  0.10566000000E+00 0. -1.
         22    1    1    0    0    0 -0.18574816308E+01  0.21196313500E+02  0.19946487255E+02  0.29164984105E+02  0.00000000000E+00 0.  1.
</event>
<event>
 5    1  0.1264859E-009  0.9118800E+02  0.7815553E-02  0.1125453E+00
         25   -1    0    0    0    0  0.00000000000E+00  0.00000000000E+00  0.99999998245E-14  0.12509000000E+03  0.12509000000E+03 0.  0.
        -13    1    3    3    0    0  0.34969847524E+02 -0.22521316583E+01  0.13813165038E+02  0.37666656678E+02  0.10566000000E+00 0.  1.
         23    2    1    0    0    0 -0.49639252309E+01 -0.55148199185E+01 -0.28322862763E+02  0.95811367048E+02  0.91228173873E+02 0.  0.
         13    1    3    3    0    0 -0.39933772755E+02 -0.32626882602E+01 -0.42136027801E+02  0.58144710370E+02  0.10566000000E+00 0. -1.
         22    1    1    0    0    0  0.49639252309E+01  0.55148199185E+01  0.28322862763E+02  0.29278632952E+02  0.00000000000E+00 0. -1.
</event>
<event>
 5    1  0.1264859E-009  0.9118800E+02  0.7815553E-02  0.1125453E+00
         25   -1    0    0    0    0  0.00000000000E+00  0.00000000000E+00  0.99999998245E-14  0.12509000000E+03  0.12509000000E+03 0.  0.
        -13    1    3    3    0    0 -0.22118062440E+02 -0.19286148765E+02 -0.21964726287E+02  0.36655485063E+02  0.10566000000E+00 0. -1.
         23    2    1    0    0    0  0.10534823201E+02  0.20846615541E+02  0.12280980987E+02  0.98700866376E+02  0.95107700267E+02 0.  0.
         13    1    3    3    0    0  0.32652885641E+02  0.40132764306E+02  0.34245707275E+02  0.62045381313E+02  0.10566000000E+00 0.  1.
         22    1    1    0    0    0 -0.10534823201E+02 -0.20846615541E+02 -0.12280980987E+02  0.26389133624E+02  0.00000000000E+00 0.  1.
</event>
<event>
 5    1  0.1264859E-009  0.9118800E+02  0.7815553E-02  0.1125453E+00
         25   -1    0    0    0    0  0.00000000000E+00  0.00000000000E+00  0.99999998245E-14  0.12509000000E+03  0.12509000000E+03 0.  0.
        -13    1    3    3    0    0 -0.28966293002E+02 -0.20646601361E+02 -0.50164328741E+01  0.35923586136E+02  0.10566000000E+00 0. -1.
         23    2    1    0    0    0  0.17284588488E+02  0.85291169576E+01  0.21089323475E+02  0.96519693738E+02  0.92194299604E+02 0.  0.
         13    1    3    3    0    0  0.46250881489E+02  0.29175718319E+02  0.26105756349E+02  0.60596107602E+02  0.10566000000E+00 0.  1.
         22    1    1    0    0    0 -0.17284588488E+02 -0.85291169576E+01 -0.21089323475E+02  0.28570306262E+02  0.00000000000E+00 0.  1.
</event>
<event>
 5    1  0.1264859E-009  0.9118800E+02  0.7815553E-02  0.1125453E+00
         25   -1    0    0    0    0  0.00000000000E+00  0.00000000000E+00  0.99999998245E-14  0.12509000000E+03  0.12509000000E+03 0.  0.
        -13    1    3    3    0    0  0.41356256813E+02 -0.13780111051E+02 -0.19123514619E+02  0.47602010605E+02  0.10566000000E+00 0.  1.
         23    2    1    0    0    0  0.79318815371E+01 -0.18340643532E+02  0.18305960496E+02  0.97990145027E+02  0.94168287565E+02 0.  0.
         13    1    3    3    0    0 -0.33424375276E+02 -0.45605324808E+01  0.37429475115E+02  0.50388134422E+02  0.10566000000E+00 0. -1.
         22    1    1    0    0    0 -0.79318815371E+01  0.18340643532E+02 -0.18305960496E+02  0.27099854973E+02  0.00000000000E+00 0.  1.
</event>
<event>
 5    1  0.1264859E-009  0.9118800E+02  0.7815553E-02  0.1125453E+00
         25   -1    0    0    0    0  0.00000000000E+00  0.00000000000E+00  0.99999998245E-14  0.12509000000E+03  0.12509000000E+03 0.  0.
        -13    1    3    3    0    0 -0.27383213271E+02  0.15575535055E+02  0.10411525554E+02  0.33179039915E+02  0.10566000000E+00 0.  1.
         23    2    1    0    0    0  0.59150680780E+01 -0.20446237272E+02 -0.23933045486E+02  0.93061460927E+02  0.87376245025E+02 0.  0.
         13    1    3    3    0    0  0.33298281349E+02 -0.36021772327E+02 -0.34344571039E+02  0.59882421012E+02  0.10566000000E+00 0. -1.
         22    1    1    0    0    0 -0.59150680780E+01  0.20446237272E+02  0.23933045486E+02  0.32028539073E+02  0.00000000000E+00 0. -1.
</event>
<event>
 5    1  0.1264859E-009  0.9118800E+02  0.7815553E-02  0.1125453E+00
         25   -1    0    0    0    0  0.00000000000E+00  0.00000000000E+00  0.99999998245E-14  0.12509000000E+03  0.12509000000E+03 0.  0.
        -13    1    3    3    0    0  0.13533034362E+02 -0.45313192206E+02  0.14602231755E+02  0.49494087962E+02  0.10566000000E+00 0. -1.
         23    2    1    0    0    0  0.27844770608E+02 -0.13564980541E+01  0.70459416413E+01  0.96335580674E+02  0.91944154099E+02 0.  0.
         13    1    3    3    0    0  0.14311736246E+02  0.43956694152E+02 -0.75562901138E+01  0.46841492712E+02  0.10566000000E+00 0.  1.
         22    1    1    0    0    0 -0.27844770608E+02  0.13564980541E+01 -0.70459416413E+01  0.28754419326E+02  0.00000000000E+00 0. -1.
</event>
<event>
 5    1  0.1264859E-009  0.9118800E+02  0.7815553E-02  0.1125453E+00
         25   -1    0    0    0    0  0.00000000000E+00  0.00000000000E+00  0.99999998245E-14  0.12509000000E+03  0.12509000000E+03 0.  0.
        -13    1    3    3    0    0 -0.47214423882E+02 -0.30041021664E+02 -0.16615076364E+02  0.58375823178E+02  0.10566000000E+00 0.  1.
         23    2    1    0    0    0 -0.25721339641E+02 -0.12825540412E+02  0.79403529675E+01  0.95271700165E+02  0.90485169212E+02 0.  0.
         13    1    3    3    0    0  0.21493084240E+02  0.17215481253E+02  0.24555429332E+02  0.36895876987E+02  0.10566000000E+00 0. -1.
         22    1    1    0    0    0  0.25721339641E+02  0.12825540412E+02 -0.79403529675E+01  0.29818299835E+02  0.00000000000E+00 0.  1.
</event>
<event>
 5    1  0.1264859E-009  0.9118800E+02  0.7815553E-02  0.1125453E+00
         25   -1    0    0    0    0  0.00000000000E+00  0.00000000000E+00  0.99999998245E-14  0.12509000000E+03  0.12509000000E+03 0.  0.
        -13    1    3    3    0    0 -0.38709701708E+02  0.25185032365E+01  0.10180083492E+02  0.40105225704E+02  0.10566000000E+00 0. -1.
         23    2    1    0    0    0 -0.16123474811E+01 -0.30806286185E+02 -0.80635263939E+01  0.93205091488E+02  0.87581628716E+02 0.  0.
         13    1    3    3    0    0  0.37097354227E+02 -0.33324789421E+02 -0.18243609886E+02  0.53099865784E+02  0.10566000000E+00 0.  1.
         22    1    1    0    0    0  0.16123474811E+01  0.30806286185E+02  0.80635263939E+01  0.31884908512E+02  0.00000000000E+00 0. -1.
</event>
<event>
 5    1  0.1264859E-009  0.9118800E+02  0.7815553E-02  0.1125453E+00
         25   -1    0    0    0    0  0.00000000000E+00  0.00000000000E+00  0.99999998245E-14  0.12509000000E+03  0.12509000000E+03 0.  0.
        -13    1    3    3    0    0 -0.27098867701E+02  0.28160815063E+02  0.68232520983E+01  0.39673014367E+02  0.10566000000E+00 0. -1.
         23    2    1    0    0    0 -0.94347004801E+01 -0.56174989170E+01 -0.30287935366E+02  0.92873096115E+02  0.87106159862E+02 0.  0.
         13    1    3    3    0    0  0.17664167221E+02 -0.33778313980E+02 -0.37111187464E+02  0.53200081748E+02  0.10566000000E+00 0.  1.
         22    1    1    0    0    0  0.94347004801E+01  0.56174989170E+01  0.30287935366E+02  0.32216903885E+02  0.00000000000E+00 0. -1.
</event>
<event>
 5    1  0.1264859E-009  0.9118800E+02  0.7815553E-02  0.1125453E+00
         25   -1    0    0    0    0  0.00000000000E+00  0.00000000000E+00  0.99999998245E-14  0.12509000000E+03  0.12509000000E+03 0.  0.
        -13    1    3    3    0    0  0.11462772983E+02 -0.57745762381E+02  0.72496415438E+01  0.59317254690E+02  0.10566000000E+00 0.  1.
         23    2    1    0    0    0 -0.56134373549E+01 -0.27243780305E+02 -0.58813582318E+01  0.96658949740E+02  0.92383050101E+02 0.  0.
         13    1    3    3    0    0 -0.17076210338E+02  0.30501982076E+02 -0.13130999776E+02  0.37341695050E+02  0.10566000000E+00 0. -1.
         22    1    1    0    0    0  0.56134373549E+01  0.27243780305E+02  0.58813582318E+01  0.28431050260E+02  0.00000000000E+00 0.  1.
</event>
<event>
 5    1  0.1264859E-009  0.9118800E+02  0.7815553E-02  0.1125453E+00
         25   -1    0    0    0    0  0.00000000000E+00  0.00000000000E+00  0.99999998245E-14  0.12509000000E+03  0.12509000000E+03 0.  0.
        -13    1    3    3    0    0 -0.80020674195E+01 -0.44043693973E+02  0.37015541469E+01  0.44917621586E+02  0.10566000000E+00 0. -1.
         23    2    1    0    0    0  0.28814942433E+02 -0.11768057570E+02  0.15026236015E+01  0.93928389579E+02  0.88608670032E+02 0.  0.
         13    1    3    3    0    0  0.36817009852E+02  0.32275636403E+02 -0.21989305455E+01  0.49010767993E+02  0.10566000000E+00 0.  1.
         22    1    1    0    0    0 -0.28814942433E+02  0.11768057570E+02 -0.15026236015E+01  0.31161610421E+02  0.00000000000E+00 0.  1.
</event>
<event>
 5    1  0.1264859E-009  0.9118800E+02  0.7815553E-02  0.1125453E+00
         25   -1    0    0    0    0  0.00000000000E+00  0.00000000000E+00  0.99999998245E-14  0.12509000000E+03  0.12509000000E+03 0.  0.
        -13    1    3    3    0    0  0.28253122893E+02 -0.67367793909E+01 -0.38976335255E+02  0.48608528302E+02  0.10566000000E+00 0. -1.
         23    2    1    0    0    0 -0.10717172294E+02  0.16926423328E+02 -0.93453134331E+01  0.10298351969E+03  0.10058284573E+03 0.  0.
         13    1    3    3    0    0 -0.38970295187E+02  0.23663202719E+02  0.29631021822E+02  0.54374991385E+02  0.10566000000E+00 0.  1.
         22    1    1    0    0    0  0.10717172294E+02 -0.16926423328E+02  0.93453134331E+01  0.22106480313E+02  0.00000000000E+00 0.  1.
</event>
<event>
 5    1  0.1264859E-009  0.9118800E+02  0.7815553E-02  0.1125453E+00
         25   -1    0    0    0    0  0.00000000000E+00  0.00000000000E+00  0.99999998245E-14  0.12509000000E+03  0.12509000000E+03 0.  0.
        -13    1    3    3    0    0  0.28221883891E+02  0.38921822389E+02 -0.36694159662E+02  0.60480207555E+02  0.10566000000E+00 0.  1.
         23    2    1    0    0    0  0.21266306981E+02  0.12073620817E+02 -0.11046234935E+02  0.98256300321E+02  0.94521178126E+02 0.  0.
         13    1    3    3    0    0 -0.69555769107E+01 -0.26848201573E+02  0.25647924728E+02  0.37776092767E+02  0.10566000000E+00 0. -1.
         22    1    1    0    0    0 -0.21266306981E+02 -0.12073620817E+02  0.11046234935E+02  0.26833699679E+02  0.00000000000E+00 0.  1.
</event>
<event>
 5    1  0.1264859E-009  0.9118800E+02  0.7815553E-02  0.1125453E+00
         25   -1    0    0    0    0  0.00000000000E+00  0.00000000000E+00  0.99999998245E-14  0.12509000000E+03  0.12509000000E+03 0.  0.
        -13    1    3    3    0    0  0.57847537594E+00 -0.24609028662E+02 -0.25928403683E+02  0.35752373446E+02  0.10566000000E+00 0. -1.
         23    2    1    0    0    0  0.47125029117E+01  0.68841888185E+01  0.26641282689E+02  0.97173021605E+02  0.93076519301E+02 0.  0.
         13    1    3    3    0    0  0.41340275358E+01  0.31493217480E+02  0.52569686373E+02  0.61420648159E+02  0.10566000000E+00 0.  1.
         22    1    1    0    0    0 -0.47125029117E+01 -0.68841888185E+01 -0.26641282689E+02  0.27916978395E+02  0.00000000000E+00 0.  1.
</event>
<event>
 5    1  0.1264859E-009  0.9118800E+02  0.7815553E-02  0.1125453E+00
         25   -1    0    0    0    0  0.00000000000E+00  0.00000000000E+00  0.99999998245E-14  0.12509000000E+03  0.12509000000E+03 0.  0.
        -13    1    3    3    0    0  0.12824635374E+00 -0.39286725459E+02 -0.16837106536E+02  0.42742982640E+02  0.10566000000E+00 0.  1.
         23    2    1    0    0    0  0.35297064621E+01  0.10658302417E+02 -0.28770377057E+02  0.94206463380E+02  0.89000364653E+02 0.  0.
         13    1    3    3    0    0  0.34014601084E+01  0.49945027877E+02 -0.11933270522E+02  0.51463480740E+02  0.10566000000E+00 0. -1.
         22    1    1    0    0    0 -0.35297064621E+01 -0.10658302417E+02  0.28770377057E+02  0.30883536620E+02  0.00000000000E+00 0. -1.
</event>
<event>
 5    1  0.1264859E-009  0.9118800E+02  0.7815553E-02  0.1125453E+00
         25   -1    0    0    0    0  0.00000000000E+00  0.00000000000E+00  0.99999998245E-14  0.12509000000E+03  0.12509000000E+03 0.  0.
        -13    1    3    3    0    0  0.98123683202E+01  0.40325707801E+02 -0.99076658320E+01  0.42668703847E+02  0.10566000000E+00 0.  1.
         23    2    1    0    0    0  0.30849478953E+02 -0.39047273380E+01  0.43769636512E+01  0.93687849468E+02  0.88268443285E+02 0.  0.
         13    1    3    3    0    0  0.21037110632E+02 -0.44230435139E+02  0.14284629483E+02  0.51019145621E+02  0.10566000000E+00 0. -1.
         22    1    1    0    0    0 -0.30849478953E+02  0.39047273380E+01 -0.43769636512E+01  0.31402150532E+02  0.00000000000E+00 0. -1.
</event>
<event>
 5    1  0.1264859E-009  0.9118800E+02  0.7815553E-02  0.1125453E+00
         25   -1    0    0    0    0  0.00000000000E+00  0.00000000000E+00  0.99999998245E-14  0.12509000000E+03  0.12509000000E+03 0.  0.
        -13    1    3    3    0    0  0.34988839860E+02 -0.88309075115E+01  0.44020594263E+01  0.36353722415E+02  0.10566000000E+00 0. -1.
         23    2    1    0    0    0 -0.14763437829E+02  0.88329499333E+01 -0.23419298797E+02  0.96030687255E+02  0.91528406724E+02 0.  0.
         13    1    3    3    0    0 -0.49752277689E+02  0.17663857445E+02 -0.27821358224E+02  0.59676964840E+02  0.10566000000E+00 0.  1.
         22    1    1    0    0    0  0.14763437829E+02 -0.88329499333E+01  0.23419298797E+02  0.29059312745E+02  0.00000000000E+00 0.  1.
</event>
<event>
 5    1  0.1264859E-009  0.9118800E+02  0.7815553E-02  0.1125453E+00
         25   -1    0    0    0    0  0.00000000000E+00  0.00000000000E+00  0.99999998245E-14  0.12509000000E+03  0.12509000000E+03 0.  0.
        -13    1    3    3    0    0  0.34766532563E+02  0.18483906713E+02  0.91973142609E+01  0.40434741838E+02  0.10566000000E+00 0.  1.
         23    2    1    0    0    0 -0.17962402897E+02  0.16430669185E+02 -0.12777850778E+02  0.97596577546E+02  0.93644026348E+02 0.  0.
         13    1    3    3    0    0 -0.52728935460E+02 -0.20532375273E+01 -0.21975165039E+02  0.57161835709E+02  0.10566000000E+00 0. -1.
         22    1    1    0    0    0  0.17962402897E+02 -0.16430669185E+02  0.12777850778E+02  0.27493422454E+02  0.00000000000E+00 0. -1.
</event>
<event>
 5    1  0.1264859E-009  0.9118800E+02  0.7815553E-02  0.1125453E+00
         25   -1    0    0    0    0  0.00000000000E+00  0.00000000000E+00  0.99999998245E-14  0.12509000000E+03  0.12509000000E+03 0.  0.
        -13    1    3    3    0    0 -0.34255995988E+02  0.28684486066E+02  0.73086924640E+01  0.45273625342E+02  0.10566000000E+00 0. -1.
         23    2    1    0    0    0 -0.21149192783E+02 -0.12595381668E+02 -0.17221002279E+02  0.95048446874E+02  0.90176007558E+02 0.  0.
         13    1    3    3    0    0  0.13106803205E+02 -0.41279867734E+02 -0.24529694743E+02  0.49774821533E+02  0.10566000000E+00 0.  1.
         22    1    1    0    0    0  0.21149192783E+02  0.12595381668E+02  0.17221002279E+02  0.30041553126E+02  0.00000000000E+00 0.  1.
</event>
<event>
 5    1  0.1264859E-009  0.9118800E+02  0.7815553E-02  0.1125453E+00
         25   -1    0    0    0    0  0.00000000000E+00  0.00000000000E+00  0.99999998245E-14  0.12509000000E+03  0.12509000000E+03 0.  0.
        -13    1    3    3    0    0 -0.78651523494E+01  0.24880535596E+02 -0.23986408365E+02  0.35443767059E+02  0.10566000000E+00 0. -1.
         23    2    1    0    0    0  0.82759055437E+01 -0.28388115767E+02 -0.14775955958E+01  0.95483260596E+02  0.90777166931E+02 0.  0.
         13    1    3    3    0    0  0.16141057893E+02 -0.53268651363E+02  0.22508812769E+02  0.60039493538E+02  0.10566000000E+00 0.  1.
         22    1    1    0    0    0 -0.82759055437E+01  0.28388115767E+02  0.14775955958E+01  0.29606739404E+02  0.00000000000E+00 0.  1.
</event>
<event>
 5    1  0.1264859E-009  0.9118800E+02  0.7815553E-02  0.1125453E+00
         25   -1    0    0    0    0  0.00000000000E+00  0.00000000000E+00  0.99999998245E-14  0.12509000000E+03  0.12509000000E+03 0.  0.
        -13    1    3    3    0    0  0.20546303455E+02 -0.42950169182E+02 -0.33189759585E+02  0.58038253969E+02  0.10566000000E+00 0. -1.
         23    2    1    0    0    0  0.24018199220E+02 -0.11688716172E+02 -0.13328638958E+02  0.95237820917E+02  0.90438321175E+02 0.  0.
         13    1    3    3    0    0  0.34718957653E+01  0.31261453010E+02  0.19861120627E+02  0.37199566948E+02  0.10566000000E+00 0.  1.
         22    1    1    0    0    0 -0.24018199220E+02  0.11688716172E+02  0.13328638958E+02  0.29852179083E+02  0.00000000000E+00 0. -1.
</event>
<event>
 5    1  0.1264859E-009  0.9118800E+02  0.7815553E-02  0.1125453E+00
         25   -1    0    0    0    0  0.00000000000E+00  0.00000000000E+00  0.99999998245E-14  0.12509000000E+03  0.12509000000E+03 0.  0.
        -13    1    3    3    0    0 -0.33848032308E+02 -0.19617074660E+02  0.10341788489E+02  0.40465820917E+02  0.10566000000E+00 0.  1.
         23    2    1    0    0    0  0.17907084444E+02 -0.67005381979E+01  0.22890774985E+02  0.95264700926E+02  0.90475492691E+02 0.  0.
         13    1    3    3    0    0  0.51755116751E+02  0.12916536462E+02  0.12548986496E+02  0.54798880009E+02  0.10566000000E+00 0. -1.
         22    1    1    0    0    0 -0.17907084444E+02  0.67005381979E+01 -0.22890774985E+02  0.29825299074E+02  0.00000000000E+00 0. -1.
</event>
<event>
 5    1  0.1264859E-009  0.9118800E+02  0.7815553E-02  0.1125453E+00
         25   -1    0    0    0    0  0.00000000000E+00  0.00000000000E+00  0.99999998245E-14  0.12509000000E+03  0.12509000000E+03 0.  0.
        -13    1    3    3    0    0  0.19876080257E+02 -0.11862571192E+02  0.53581078297E+02  0.58367133536E+02  0.10566000000E+00 0. -1.
         23    2    1    0    0    0  0.24074853647E+02 -0.73736595119E+01  0.18852807627E+02  0.93635305785E+02  0.88193949346E+02 0.  0.
         13    1    3    3    0    0  0.41987733901E+01  0.44889116805E+01 -0.34728270670E+02  0.35268172249E+02  0.10566000000E+00 0.  1.
         22    1    1    0    0    0 -0.24074853647E+02  0.73736595119E+01 -0.18852807627E+02  0.31454694215E+02  0.00000000000E+00 0. -1.
</event>
<event>
 5    1  0.1264859E-009  0.9118800E+02  0.7815553E-02  0.1125453E+00
         25   -1    0    0    0    0  0.00000000000E+00  0.00000000000E+00  0.99999998245E-14  0.12509000000E+03  0.12509000000E+03 0.  0.
        -13    1    3    3    0    0 -0.21682493570E+02 -0.17797091957E+02 -0.90865698901E+01  0.29486334563E+02  0.10566000000E+00 0. -1.
         23    2    1    0    0    0  0.23808864478E+02  0.18922712497E+02  0.13045430881E+02  0.91997488115E+02  0.85839521647E+02 0.  0.
         13    1    3    3    0    0  0.45491358048E+02  0.36719804455E+02  0.22132000771E+02  0.62511153552E+02  0.10566000000E+00 0.  1.
         22    1    1    0    0    0 -0.23808864478E+02 -0.18922712497E+02 -0.13045430881E+02  0.33092511885E+02  0.00000000000E+00 0.  1.
</event>
<event>
 5    1  0.1264859E-009  0.9118800E+02  0.7815553E-02  0.1125453E+00
         25   -1    0    0    0    0  0.00000000000E+00  0.00000000000E+00  0.99999998245E-14  0.12509000000E+03  0.12509000000E+03 0.  0.
        -13    1    3    3    0    0 -0.27986995953E+02  0.79416066032E+01  0.17327363069E+02  0.33861330938E+02  0.10566000000E+00 0.  1.
         23    2    1    0    0    0  0.28812721498E+02 -0.82662598313E+01  0.10534565097E+02  0.93317668743E+02  0.87742271831E+02 0.  0.
         13    1    3    3    0    0  0.56799717451E+02 -0.16207866434E+02 -0.67927979718E+01  0.59456337805E+02  0.10566000000E+00 0. -1.
         22    1    1    0    0    0 -0.28812721498E+02  0.82662598313E+01 -0.10534565097E+02  0.31772331257E+02  0.00000000000E+00 0. -1.
</event>
<event>
 5    1  0.1264859E-009  0.9118800E+02  0.7815553E-02  0.1125453E+00
         25   -1    0    0    0    0  0.00000000000E+00  0.00000000000E+00  0.99999998245E-14  0.12509000000E+03  0.12509000000E+03 0.  0.
        -13    1    3    3    0    0  0.30257714960E+02  0.99637507614E+00 -0.18230614528E+02  0.35339617259E+02  0.10566000000E+00 0.  1.
         23    2    1    0    0    0 -0.52441233066E+01  0.15543345620E+02  0.26284268243E+02  0.94106791977E+02  0.88860166087E+02 0.  0.
         13    1    3    3    0    0 -0.35501838266E+02  0.14546970543E+02  0.44514882771E+02  0.58767174719E+02  0.10566000000E+00 0. -1.
         22    1    1    0    0    0  0.52441233066E+01 -0.15543345620E+02 -0.26284268243E+02  0.30983208023E+02  0.00000000000E+00 0. -1.
</event>
<event>
 5    1  0.1264859E-009  0.9118800E+02  0.7815553E-02  0.1125453E+00
         25   -1    0    0    0    0  0.00000000000E+00  0.00000000000E+00  0.99999998245E-14  0.12509000000E+03  0.12509000000E+03 0.  0.
        -13    1    3    3    0    0 -0.17726898510E+01 -0.47161235793E+02  0.28614923099E+02  0.55191934002E+02  0.10566000000E+00 0.  1.
         23    2    1    0    0    0 -0.20919076789E+02 -0.19294252798E+02  0.56176058909E+01  0.96082527503E+02  0.91599228330E+02 0.  0.
         13    1    3    3    0    0 -0.19146386938E+02  0.27866982996E+02 -0.22997317208E+02  0.40890593501E+02  0.10566000000E+00 0. -1.
         22    1    1    0    0    0  0.20919076789E+02  0.19294252798E+02 -0.56176058909E+01  0.29007472497E+02  0.00000000000E+00 0.  1.
</event>
<event>
 5    1  0.1264859E-009  0.9118800E+02  0.7815553E-02  0.1125453E+00
         25   -1    0    0    0    0  0.00000000000E+00  0.00000000000E+00  0.99999998245E-14  0.12509000000E+03  0.12509000000E+03 0.  0.
        -13    1    3    3    0    0 -0.39649579972E+02  0.67087153812E+01 -0.11020036455E+02  0.41695904134E+02  0.10566000000E+00 0. -1.
         23    2    1    0    0    0  0.14314645686E+02  0.94303859078E+01 -0.22369391310E+02  0.96907897043E+02  0.92719521042E+02 0.  0.
         13    1    3    3    0    0  0.53964225658E+02  0.27216705265E+01 -0.11349354855E+02  0.55211992909E+02  0.10566000000E+00 0.  1.
         22    1    1    0    0    0 -0.14314645686E+02 -0.94303859078E+01  0.22369391310E+02  0.28182102957E+02  0.00000000000E+00 0.  1.
</event>
<event>
 5    1  0.1264859E-009  0.9118800E+02  0.7815553E-02  0.1125453E+00
         25   -1    0    0    0    0  0.00000000000E+00  0.00000000000E+00  0.99999998245E-14  0.12509000000E+03  0.12509000000E+03 0.  0.
        -13    1    3    3    0    0  0.30115519004E+01  0.26182661656E+02  0.56216020407E+02  0.62087465165E+02  0.10566000000E+00 0. -1.
         23    2    1    0    0    0  0.62627484618E+01  0.91518119585E+01  0.20903888481E+02  0.10142673239E+03  0.98627743607E+02 0.  0.
         13    1    3    3    0    0  0.32511965614E+01 -0.17030849698E+02 -0.35312131926E+02  0.39339267224E+02  0.10566000000E+00 0.  1.
         22    1    1    0    0    0 -0.62627484618E+01 -0.91518119585E+01 -0.20903888481E+02  0.23663267611E+02  0.00000000000E+00 0. -1.
</event>
<event>
 5    1  0.1264859E-009  0.9118800E+02  0.7815553E-02  0.1125453E+00
         25   -1    0    0    0    0  0.00000000000E+00  0.00000000000E+00  0.99999998245E-14  0.12509000000E+03  0.12509000000E+03 0.  0.
        -13    1    3    3    0    0 -0.17127369538E+02 -0.15916818814E+02 -0.34023100325E+02  0.41282858770E+02  0.10566000000E+00 0. -1.
         23    2    1    0    0    0  0.28156947199E+02  0.63507607781E+00 -0.95665847254E+01  0.95345478816E+02  0.90587106092E+02 0.  0.
         13    1    3    3    0    0  0.45284316737E+02  0.16551894892E+02  0.24456515600E+02  0.54062620045E+02  0.10566000000E+00 0.  1.
         22    1    1    0    0    0 -0.28156947199E+02 -0.63507607781E+00  0.95665847254E+01  0.29744521184E+02  0.00000000000E+00 0.  1.
</event>
<event>
 5    1  0.1264859E-009  0.9118800E+02  0.7815553E-02  0.1125453E+00
         25   -1    0    0    0    0  0.00000000000E+00  0.00000000000E+00  0.99999998245E-14  0.12509000000E+03  0.12509000000E+03 0.  0.
        -13    1    3    3    0    0 -0.13668980813E+02 -0.49116901676E+02 -0.12922478169E+02  0.52595747668E+02  0.10566000000E+00 0.  1.
         23    2    1    0    0    0 -0.18433247454E+02 -0.76956728321E+01 -0.22112676699E+02  0.95291032521E+02  0.90511891020E+02 0.  0.
         13    1    3    3    0    0 -0.47642666408E+01  0.41421228844E+02 -0.91901985304E+01  0.42695284852E+02  0.10566000000E+00 0. -1.
         22    1    1    0    0    0  0.18433247454E+02  0.76956728321E+01  0.22112676699E+02  0.29798967479E+02  0.00000000000E+00 0.  1.
</event>
<event>
 5    1  0.1264859E-009  0.9118800E+02  0.7815553E-02  0.1125453E+00
         25   -1    0    0    0    0  0.00000000000E+00  0.00000000000E+00  0.99999998245E-14  0.12509000000E+03  0.12509000000E+03 0.  0.
        -13    1    3    3    0    0  0.16459187796E+02 -0.53285283216E+02  0.12987120896E+02  0.57261703987E+02  0.10566000000E+00 0. -1.
         23    2    1    0    0    0  0.37393633315E+01 -0.30224282741E+02  0.24498987133E+02  0.86004318788E+02  0.76609740727E+02 0.  0.
         13    1    3    3    0    0 -0.12719824464E+02  0.23061000475E+02  0.11511866237E+02  0.28742614801E+02  0.10566000000E+00 0.  1.
         22    1    1    0    0    0 -0.37393633315E+01  0.30224282741E+02 -0.24498987133E+02  0.39085681212E+02  0.00000000000E+00 0. -1.
</event>
<event>
 5    1  0.1264859E-009  0.9118800E+02  0.7815553E-02  0.1125453E+00
         25   -1    0    0    0    0  0.00000000000E+00  0.00000000000E+00  0.99999998245E-14  0.12509000000E+03  0.12509000000E+03 0.  0.
        -13    1    3    3    0    0 -0.10398475996E+02 -0.20454166534E+02  0.17314562921E+02  0.28745547217E+02  0.10566000000E+00 0.  1.
         23    2    1    0    0    0  0.26268351680E+02  0.13806719715E+02 -0.18249117093E+02  0.90252059706E+02  0.83257145022E+02 0.  0.
         13    1    3    3    0    0  0.36666827676E+02  0.34260886249E+02 -0.35563680014E+02  0.61506512489E+02  0.10566000000E+00 0. -1.
         22    1    1    0    0    0 -0.26268351680E+02 -0.13806719715E+02  0.18249117093E+02  0.34837940294E+02  0.00000000000E+00 0. -1.
</event>
<event>
 5    1  0.1264859E-009  0.9118800E+02  0.7815553E-02  0.1125453E+00
         25   -1    0    0    0    0  0.00000000000E+00  0.00000000000E+00  0.99999998245E-14  0.12509000000E+03  0.12509000000E+03 0.  0.
        -13    1    3    3    0    0  0.28056476974E+02 -0.83103733093E+01  0.29335553256E+02  0.41434454909E+02  0.10566000000E+00 0. -1.
         23    2    1    0    0    0 -0.18390391536E+02 -0.14573775712E+02 -0.68502271867E+01  0.10064563354E+03  0.97632046469E+02 0.  0.
         13    1    3    3    0    0 -0.46446868510E+02 -0.62634024029E+01 -0.36185780443E+02  0.59211178626E+02  0.10566000000E+00 0.  1.
         22    1    1    0    0    0  0.18390391536E+02  0.14573775712E+02  0.68502271867E+01  0.24444366465E+02  0.00000000000E+00 0. -1.
</event>
<event>
 5    1  0.1264859E-009  0.9118800E+02  0.7815553E-02  0.1125453E+00
         25   -1    0    0    0    0  0.00000000000E+00  0.00000000000E+00  0.99999998245E-14  0.12509000000E+03  0.12509000000E+03 0.  0.
        -13    1    3    3    0    0 -0.33419815887E+02 -0.68070393340E+01 -0.49641331518E+02  0.60228671224E+02  0.10566000000E+00 0. -1.
         23    2    1    0    0    0 -0.95435815564E+01  0.68056149749E+01 -0.26334057668E+02  0.96265029274E+02  0.91848118782E+02 0.  0.
         13    1    3    3    0    0  0.23876234331E+02  0.13612654309E+02  0.23307273851E+02  0.36036358050E+02  0.10566000000E+00 0.  1.
         22    1    1    0    0    0  0.95435815564E+01 -0.68056149749E+01  0.26334057668E+02  0.28824970726E+02  0.00000000000E+00 0. -1.
</event>
<event>
 5    1  0.1264859E-009  0.9118800E+02  0.7815553E-02  0.1125453E+00
         25   -1    0    0    0    0  0.00000000000E+00  0.00000000000E+00  0.99999998245E-14  0.12509000000E+03  0.12509000000E+03 0.  0.
        -13    1    3    3    0    0  0.38969762834E+02  0.35812625576E+02  0.14801324606E+02  0.54957046319E+02  0.10566000000E+00 0. -1.
         23    2    1    0    0    0  0.21843471152E+02  0.69348176887E+01 -0.13170849879E+02  0.98657061932E+02  0.95050069197E+02 0.  0.
         13    1    3    3    0    0 -0.17126291682E+02 -0.28877807887E+02 -0.27972174485E+02  0.43700015613E+02  0.10566000000E+00 0.  1.
         22    1    1    0    0    0 -0.21843471152E+02 -0.69348176887E+01  0.13170849879E+02  0.26432938068E+02  0.00000000000E+00 0. -1.
</event>
<event>
 5    1  0.1264859E-009  0.9118800E+02  0.7815553E-02  0.1125453E+00
         25   -1    0    0    0    0  0.00000000000E+00  0.00000000000E+00  0.99999998245E-14  0.12509000000E+03  0.12509000000E+03 0.  0.
        -13    1    3    3    0    0  0.38326913255E+02  0.35092073212E+02  0.32278873297E+02  0.61174690088E+02  0.10566000000E+00 0.  1.
         23    2    1    0    0    0  0.25552845099E+02  0.11309217622E+02  0.13529673792E+02  0.94043287311E+02  0.88770724451E+02 0.  0.
         13    1    3    3    0    0 -0.12774068156E+02 -0.23782855591E+02 -0.18749199505E+02  0.32868597223E+02  0.10566000000E+00 0. -1.
         22    1    1    0    0    0 -0.25552845099E+02 -0.11309217622E+02 -0.13529673792E+02  0.31046712689E+02  0.00000000000E+00 0.  1.
</event>
