<event>
 5    1  0.1103865E-009  0.9118800E+02  0.7818608E-02  0.1130116E+00
         25   -1    0    0    0    0  0.00000000000E+00  0.00000000000E+00  0.99999998245E-14  0.12500000000E+03  0.12500000000E+03 0.  0.
        -11    1    3    3    0    0 -0.26960426894E+01  0.35606292378E+02 -0.49156816811E+02  0.60757463265E+02  0.51100000000E-03 0.  1.
         23    2    1    0    0    0 -0.11417657830E+02  0.15865780066E+02 -0.19980248034E+02  0.97048323862E+02  0.92935897077E+02 0.  0.
         11    1    3    3    0    0 -0.87216151407E+01 -0.19740512312E+02  0.29176568777E+02  0.36290860598E+02  0.51100000000E-03 0. -1.
         22    1    1    0    0    0  0.11417657830E+02 -0.15865780066E+02  0.19980248034E+02  0.27951676138E+02  0.00000000000E+00 0.  1.
</event>
<event>
 5    1  0.1103865E-009  0.9118800E+02  0.7818608E-02  0.1130116E+00
         25   -1    0    0    0    0  0.00000000000E+00  0.00000000000E+00  0.99999998245E-14  0.12500000000E+03  0.12500000000E+03 0.  0.
        -11    1    3    3    0    0 -0.56301288177E+01  0.52383797431E+02  0.27515286226E+02  0.59437795720E+02  0.51100000000E-03 0.  1.
         23    2    1    0    0    0 -0.77470415324E+01  0.15961824040E+02  0.22625466938E+02  0.96247465619E+02  0.91852416434E+02 0.  0.
         11    1    3    3    0    0 -0.21169127147E+01 -0.36421973390E+02 -0.48898192884E+01  0.36809669898E+02  0.51100000000E-03 0. -1.
         22    1    1    0    0    0  0.77470415324E+01 -0.15961824040E+02 -0.22625466938E+02  0.28752534381E+02  0.00000000000E+00 0.  1.
</event>
<event>
 5    1  0.1103865E-009  0.9118800E+02  0.7818608E-02  0.1130116E+00
         25   -1    0    0    0    0  0.00000000000E+00  0.00000000000E+00  0.99999998245E-14  0.12500000000E+03  0.12500000000E+03 0.  0.
        -11    1    3    3    0    0  0.31784386011E+02  0.47192647134E+02 -0.22666876719E+02  0.61246881047E+02  0.51100000000E-03 0.  1.
         23    2    1    0    0    0  0.75045685600E+01  0.26625060469E+02 -0.86598534155E+01  0.96013702281E+02  0.91533740065E+02 0.  0.
         11    1    3    3    0    0 -0.24279817451E+02 -0.20567586665E+02  0.14007023303E+02  0.34766821234E+02  0.51100000000E-03 0. -1.
         22    1    1    0    0    0 -0.75045685600E+01 -0.26625060469E+02  0.86598534155E+01  0.28986297719E+02  0.00000000000E+00 0.  1.
</event>
<event>
 5    1  0.1103865E-009  0.9118800E+02  0.7818608E-02  0.1130116E+00
         25   -1    0    0    0    0  0.00000000000E+00  0.00000000000E+00  0.99999998245E-14  0.12500000000E+03  0.12500000000E+03 0.  0.
        -11    1    3    3    0    0 -0.14319980244E+02  0.39684061465E+02  0.19908635949E+02  0.46650191363E+02  0.51100000000E-03 0. -1.
         23    2    1    0    0    0  0.24237503009E+02  0.14775869609E+02  0.18059079821E+00  0.96613110634E+02  0.92348674373E+02 0.  0.
         11    1    3    3    0    0  0.38557483254E+02 -0.24908191856E+02 -0.19728045150E+02  0.49962919271E+02  0.51100000000E-03 0.  1.
         22    1    1    0    0    0 -0.24237503009E+02 -0.14775869609E+02 -0.18059079821E+00  0.28386889366E+02  0.00000000000E+00 0. -1.
</event>
<event>
 5    1  0.1103865E-009  0.9118800E+02  0.7818608E-02  0.1130116E+00
         25   -1    0    0    0    0  0.00000000000E+00  0.00000000000E+00  0.99999998245E-14  0.12500000000E+03  0.12500000000E+03 0.  0.
        -11    1    3    3    0    0  0.16251520306E+02 -0.23688760501E+02 -0.32277081038E+02  0.43209712414E+02  0.51100000000E-03 0.  1.
         23    2    1    0    0    0 -0.27308792585E+02 -0.97090578191E+01 -0.83489091778E+01  0.94838099518E+02  0.89913986007E+02 0.  0.
         11    1    3    3    0    0 -0.43560312891E+02  0.13979702681E+02  0.23928171860E+02  0.51628387105E+02  0.51100000000E-03 0. -1.
         22    1    1    0    0    0  0.27308792585E+02  0.97090578191E+01  0.83489091778E+01  0.30161900482E+02  0.00000000000E+00 0. -1.
</event>
<event>
 5    1  0.1103865E-009  0.9118800E+02  0.7818608E-02  0.1130116E+00
         25   -1    0    0    0    0  0.00000000000E+00  0.00000000000E+00  0.99999998245E-14  0.12500000000E+03  0.12500000000E+03 0.  0.
        -11    1    3    3    0    0 -0.26176341330E+02  0.30870332508E+02  0.20979930387E+02  0.45588767847E+02  0.51100000000E-03 0.  1.
         23    2    1    0    0    0 -0.16091561034E+02  0.31098470260E+01 -0.21893857213E+02  0.97651316874E+02  0.93743422268E+02 0.  0.
         11    1    3    3    0    0  0.10084780296E+02 -0.27760485482E+02 -0.42873787600E+02  0.52062549027E+02  0.51100000000E-03 0. -1.
         22    1    1    0    0    0  0.16091561034E+02 -0.31098470260E+01  0.21893857213E+02  0.27348683126E+02  0.00000000000E+00 0.  1.
</event>
<event>
 5    1  0.1103865E-009  0.9118800E+02  0.7818608E-02  0.1130116E+00
         25   -1    0    0    0    0  0.00000000000E+00  0.00000000000E+00  0.99999998245E-14  0.12500000000E+03  0.12500000000E+03 0.  0.
        -11    1    3    3    0    0 -0.49127250077E+02  0.11955524867E+02  0.27301523837E+02  0.57461243278E+02  0.51100000000E-03 0. -1.
         23    2    1    0    0    0 -0.94259282592E+01  0.14343127579E+02  0.21238007040E+02  0.97693839974E+02  0.93800106576E+02 0.  0.
         11    1    3    3    0    0  0.39701321817E+02  0.23876027119E+01 -0.60635167962E+01  0.40232596697E+02  0.51100000000E-03 0.  1.
         22    1    1    0    0    0  0.94259282592E+01 -0.14343127579E+02 -0.21238007040E+02  0.27306160026E+02  0.00000000000E+00 0. -1.
</event>
<event>
 5    1  0.1103865E-009  0.9118800E+02  0.7818608E-02  0.1130116E+00
         25   -1    0    0    0    0  0.00000000000E+00  0.00000000000E+00  0.99999998245E-14  0.12500000000E+03  0.12500000000E+03 0.  0.
        -11    1    3    3    0    0 -0.39887409957E+02 -0.13080465118E+02 -0.35169073245E+02  0.54762831865E+02  0.51100000000E-03 0.  1.
         23    2    1    0    0    0 -0.27485149722E+02  0.91732654484E+01 -0.28954110076E+01  0.95880150084E+02  0.91351176900E+02 0.  0.
         11    1    3    3    0    0  0.12402260235E+02  0.22253730566E+02  0.32273662237E+02  0.41117318219E+02  0.51100000000E-03 0. -1.
         22    1    1    0    0    0  0.27485149722E+02 -0.91732654484E+01  0.28954110076E+01  0.29119849916E+02  0.00000000000E+00 0.  1.
</event>
<event>
 5    1  0.1103865E-009  0.9118800E+02  0.7818608E-02  0.1130116E+00
         25   -1    0    0    0    0  0.00000000000E+00  0.00000000000E+00  0.99999998245E-14  0.12500000000E+03  0.12500000000E+03 0.  0.
        -11    1    3    3    0    0 -0.45867048180E+02  0.47140026541E+01  0.25498034149E+02  0.52689255788E+02  0.51100000000E-03 0. -1.
         23    2    1    0    0    0 -0.30998122341E+01 -0.13151225712E+02  0.22015863543E+02  0.99168588480E+02  0.95745219828E+02 0.  0.
         11    1    3    3    0    0  0.42767235946E+02 -0.17865228366E+02 -0.34821706059E+01  0.46479332691E+02  0.51100000000E-03 0.  1.
         22    1    1    0    0    0  0.30998122341E+01  0.13151225712E+02 -0.22015863543E+02  0.25831411520E+02  0.00000000000E+00 0. -1.
</event>
<event>
 5    1  0.1103865E-009  0.9118800E+02  0.7818608E-02  0.1130116E+00
         25   -1    0    0    0    0  0.00000000000E+00  0.00000000000E+00  0.99999998245E-14  0.12500000000E+03  0.12500000000E+03 0.  0.
        -11    1    3    3    0    0 -0.45618081629E+02  0.20660397690E+02  0.21479781748E+02  0.54490755440E+02  0.51100000000E-03 0. -1.
         23    2    1    0    0    0 -0.68392717148E+01  0.48115196811E+01  0.26990149151E+02  0.96744124320E+02  0.92525840066E+02 0.  0.
         11    1    3    3    0    0  0.38778809915E+02 -0.15848878009E+02  0.55103674035E+01  0.42253368880E+02  0.51100000000E-03 0.  1.
         22    1    1    0    0    0  0.68392717148E+01 -0.48115196811E+01 -0.26990149151E+02  0.28255875680E+02  0.00000000000E+00 0. -1.
</event>
<event>
 5    1  0.1103865E-009  0.9118800E+02  0.7818608E-02  0.1130116E+00
         25   -1    0    0    0    0  0.00000000000E+00  0.00000000000E+00  0.99999998245E-14  0.12500000000E+03  0.12500000000E+03 0.  0.
        -11    1    3    3    0    0 -0.17984073867E+02  0.27894024902E+02  0.19200416048E+02  0.38342659203E+02  0.51100000000E-03 0. -1.
         23    2    1    0    0    0  0.62730136723E+01  0.35222472051E+01 -0.27634076086E+02  0.96444806304E+02  0.92120581717E+02 0.  0.
         11    1    3    3    0    0  0.24257087539E+02 -0.24371777697E+02 -0.46834492134E+02  0.58102147101E+02  0.51100000000E-03 0.  1.
         22    1    1    0    0    0 -0.62730136723E+01 -0.35222472051E+01  0.27634076086E+02  0.28555193696E+02  0.00000000000E+00 0.  1.
</event>
<event>
 5    1  0.1103865E-009  0.9118800E+02  0.7818608E-02  0.1130116E+00
         25   -1    0    0    0    0  0.00000000000E+00  0.00000000000E+00  0.99999998245E-14  0.12500000000E+03  0.12500000000E+03 0.  0.
        -11    1    3    3    0    0 -0.47064909744E+02  0.31357715218E+02  0.17705342488E+02  0.59261211477E+02  0.51100000000E-03 0.  1.
         23    2    1    0    0    0 -0.31365158263E+02  0.12168410911E+02 -0.25272985743E+01  0.91262326472E+02  0.84797297234E+02 0.  0.
         11    1    3    3    0    0  0.15699751481E+02 -0.19189304307E+02 -0.20232641062E+02  0.32001114995E+02  0.51100000000E-03 0. -1.
         22    1    1    0    0    0  0.31365158263E+02 -0.12168410911E+02  0.25272985743E+01  0.33737673528E+02  0.00000000000E+00 0.  1.
</event>
<event>
 5    1  0.1103865E-009  0.9118800E+02  0.7818608E-02  0.1130116E+00
         25   -1    0    0    0    0  0.00000000000E+00  0.00000000000E+00  0.99999998245E-14  0.12500000000E+03  0.12500000000E+03 0.  0.
        -11    1    3    3    0    0 -0.41622247123E+01 -0.42851127347E+02  0.29101923760E+02  0.51966000387E+02  0.51100000000E-03 0. -1.
         23    2    1    0    0    0 -0.17061589310E+02 -0.21624095624E+02 -0.77304571998E+01  0.96391272138E+02  0.92047911625E+02 0.  0.
         11    1    3    3    0    0 -0.12899364598E+02  0.21227031723E+02 -0.36832380959E+02  0.44425271751E+02  0.51100000000E-03 0.  1.
         22    1    1    0    0    0  0.17061589310E+02  0.21624095624E+02  0.77304571998E+01  0.28608727862E+02  0.00000000000E+00 0.  1.
</event>
<event>
 5    1  0.1103865E-009  0.9118800E+02  0.7818608E-02  0.1130116E+00
         25   -1    0    0    0    0  0.00000000000E+00  0.00000000000E+00  0.99999998245E-14  0.12500000000E+03  0.12500000000E+03 0.  0.
        -11    1    3    3    0    0  0.17334770195E+02 -0.41677621916E+02  0.64488546571E+01  0.45597216504E+02  0.51100000000E-03 0. -1.
         23    2    1    0    0    0 -0.18678348737E+02 -0.68343734047E+01  0.19254483291E+02  0.97317433316E+02  0.93297150702E+02 0.  0.
         11    1    3    3    0    0 -0.36013118933E+02  0.34843248511E+02  0.12805628634E+02  0.51720216812E+02  0.51100000000E-03 0.  1.
         22    1    1    0    0    0  0.18678348737E+02  0.68343734047E+01 -0.19254483291E+02  0.27682566684E+02  0.00000000000E+00 0.  1.
</event>
<event>
 5    1  0.1103865E-009  0.9118800E+02  0.7818608E-02  0.1130116E+00
         25   -1    0    0    0    0  0.00000000000E+00  0.00000000000E+00  0.99999998245E-14  0.12500000000E+03  0.12500000000E+03 0.  0.
        -11    1    3    3    0    0 -0.14644925609E+02  0.38037653654E+02  0.12245850316E+02  0.42559344354E+02  0.51100000000E-03 0.  1.
         23    2    1    0    0    0 -0.52630674115E+01 -0.55241961216E+01 -0.23884068138E+02  0.99926800519E+02  0.96730037371E+02 0.  0.
         11    1    3    3    0    0  0.93818581976E+01 -0.43561849775E+02 -0.36129918455E+02  0.57367456165E+02  0.51100000000E-03 0. -1.
         22    1    1    0    0    0  0.52630674115E+01  0.55241961216E+01  0.23884068138E+02  0.25073199481E+02  0.00000000000E+00 0. -1.
</event>
<event>
 5    1  0.1103865E-009  0.9118800E+02  0.7818608E-02  0.1130116E+00
         25   -1    0    0    0    0  0.00000000000E+00  0.00000000000E+00  0.99999998245E-14  0.12500000000E+03  0.12500000000E+03 0.  0.
        -11    1    3    3    0    0  0.23547915119E+02 -0.37056475943E+02  0.22353629572E+02  0.49268361765E+02  0.51100000000E-03 0.  1.
         23    2    1    0    0    0 -0.17294930719E+02 -0.23586144371E+02  0.70715900234E+01  0.94909665666E+02  0.90013423535E+02 0.  0.
         11    1    3    3    0    0 -0.40842845838E+02  0.13470331571E+02 -0.15282039548E+02  0.45641303901E+02  0.51100000000E-03 0. -1.
         22    1    1    0    0    0  0.17294930719E+02  0.23586144371E+02 -0.70715900234E+01  0.30090334334E+02  0.00000000000E+00 0.  1.
</event>
<event>
 5    1  0.1103865E-009  0.9118800E+02  0.7818608E-02  0.1130116E+00
         25   -1    0    0    0    0  0.00000000000E+00  0.00000000000E+00  0.99999998245E-14  0.12500000000E+03  0.12500000000E+03 0.  0.
        -11    1    3    3    0    0 -0.24321303179E+02  0.96973787974E+01 -0.42382826271E+02  0.49818359134E+02  0.51100000000E-03 0.  1.
         23    2    1    0    0    0  0.14796283449E+02  0.15995414032E+02 -0.20509252653E+02  0.95076552365E+02  0.90244878477E+02 0.  0.
         11    1    3    3    0    0  0.39117586628E+02  0.62980352346E+01  0.21873573618E+02  0.45258193231E+02  0.51100000000E-03 0. -1.
         22    1    1    0    0    0 -0.14796283449E+02 -0.15995414032E+02  0.20509252653E+02  0.29923447635E+02  0.00000000000E+00 0. -1.
</event>
<event>
 5    1  0.1103865E-009  0.9118800E+02  0.7818608E-02  0.1130116E+00
         25   -1    0    0    0    0  0.00000000000E+00  0.00000000000E+00  0.99999998245E-14  0.12500000000E+03  0.12500000000E+03 0.  0.
        -11    1    3    3    0    0  0.13430637695E+02  0.34250161234E+02 -0.35769556222E+01  0.36962821662E+02  0.51100000000E-03 0. -1.
         23    2    1    0    0    0 -0.25122394110E+02 -0.65657024023E+01  0.13614718017E+02  0.95681001373E+02  0.91078264933E+02 0.  0.
         11    1    3    3    0    0 -0.38553031804E+02 -0.40815863637E+02  0.17191673639E+02  0.58718179710E+02  0.51100000000E-03 0.  1.
         22    1    1    0    0    0  0.25122394110E+02  0.65657024023E+01 -0.13614718017E+02  0.29318998627E+02  0.00000000000E+00 0.  1.
</event>
<event>
 5    1  0.1103865E-009  0.9118800E+02  0.7818608E-02  0.1130116E+00
         25   -1    0    0    0    0  0.00000000000E+00  0.00000000000E+00  0.99999998245E-14  0.12500000000E+03  0.12500000000E+03 0.  0.
        -11    1    3    3    0    0  0.51888453531E+02 -0.18822709719E+02  0.26573516152E+02  0.61260572737E+02  0.51100000000E-03 0. -1.
         23    2    1    0    0    0  0.20796219120E+02 -0.65967613269E+01  0.20188861718E+02  0.95274756062E+02  0.90518998092E+02 0.  0.
         11    1    3    3    0    0 -0.31092234412E+02  0.12225948392E+02 -0.63846544339E+01  0.34014183326E+02  0.51100000000E-03 0.  1.
         22    1    1    0    0    0 -0.20796219120E+02  0.65967613269E+01 -0.20188861718E+02  0.29725243938E+02  0.00000000000E+00 0. -1.
</event>
<event>
 5    1  0.1103865E-009  0.9118800E+02  0.7818608E-02  0.1130116E+00
         25   -1    0    0    0    0  0.00000000000E+00  0.00000000000E+00  0.99999998245E-14  0.12500000000E+03  0.12500000000E+03 0.  0.
        -11    1    3    3    0    0 -0.53220265161E+02 -0.27858527603E+01 -0.29412003119E+02  0.60870547288E+02  0.51100000000E-03 0.  1.
         23    2    1    0    0    0 -0.28754778431E+02 -0.30821068816E+01 -0.46002871541E+01  0.95716910898E+02  0.91127535491E+02 0.  0.
         11    1    3    3    0    0  0.24465486731E+02 -0.29625412135E+00  0.24811715965E+02  0.34846363610E+02  0.51100000000E-03 0. -1.
         22    1    1    0    0    0  0.28754778431E+02  0.30821068816E+01  0.46002871541E+01  0.29283089102E+02  0.00000000000E+00 0.  1.
</event>
<event>
 5    1  0.1103865E-009  0.9118800E+02  0.7818608E-02  0.1130116E+00
         25   -1    0    0    0    0  0.00000000000E+00  0.00000000000E+00  0.99999998245E-14  0.12500000000E+03  0.12500000000E+03 0.  0.
        -11    1    3    3    0    0 -0.31399053160E+02  0.22488153643E+02  0.11904286793E+02  0.40414473125E+02  0.51100000000E-03 0.  1.
         23    2    1    0    0    0  0.93154109820E+01  0.11510080730E+02 -0.24665312709E+02  0.96231327956E+02  0.91830452405E+02 0.  0.
         11    1    3    3    0    0  0.40714464142E+02 -0.10978072914E+02 -0.36569599501E+02  0.55816854831E+02  0.51100000000E-03 0. -1.
         22    1    1    0    0    0 -0.93154109820E+01 -0.11510080730E+02  0.24665312709E+02  0.28768672044E+02  0.00000000000E+00 0. -1.
</event>
<event>
 5    1  0.1103865E-009  0.9118800E+02  0.7818608E-02  0.1130116E+00
         25   -1    0    0    0    0  0.00000000000E+00  0.00000000000E+00  0.99999998245E-14  0.12500000000E+03  0.12500000000E+03 0.  0.
        -11    1    3    3    0    0  0.50514567017E+02 -0.18706860253E+02  0.13020059048E+02  0.55418318626E+02  0.51100000000E-03 0.  1.
         23    2    1    0    0    0  0.25473597380E+02  0.91334717290E+01  0.16948956180E+02  0.93068955781E+02  0.87419900168E+02 0.  0.
         11    1    3    3    0    0 -0.25040969637E+02  0.27840331982E+02  0.39288971320E+01  0.37650637155E+02  0.51100000000E-03 0. -1.
         22    1    1    0    0    0 -0.25473597380E+02 -0.91334717290E+01 -0.16948956180E+02  0.31931044219E+02  0.00000000000E+00 0.  1.
</event>
<event>
 5    1  0.1103865E-009  0.9118800E+02  0.7818608E-02  0.1130116E+00
         25   -1    0    0    0    0  0.00000000000E+00  0.00000000000E+00  0.99999998245E-14  0.12500000000E+03  0.12500000000E+03 0.  0.
        -11    1    3    3    0    0 -0.62132681604E+02 -0.84570433235E+00 -0.37034961316E+01  0.62248704589E+02  0.51100000000E-03 0. -1.
         23    2    1    0    0    0 -0.28375495232E+02 -0.22760348245E+01 -0.51686922563E+01  0.96067933986E+02  0.91607769848E+02 0.  0.
         11    1    3    3    0    0  0.33757186372E+02 -0.14303304922E+01 -0.14651961247E+01  0.33819229397E+02  0.51100000000E-03 0.  1.
         22    1    1    0    0    0  0.28375495232E+02  0.22760348245E+01  0.51686922563E+01  0.28932066014E+02  0.00000000000E+00 0. -1.
</event>
<event>
 5    1  0.1103865E-009  0.9118800E+02  0.7818608E-02  0.1130116E+00
         25   -1    0    0    0    0  0.00000000000E+00  0.00000000000E+00  0.99999998245E-14  0.12500000000E+03  0.12500000000E+03 0.  0.
        -11    1    3    3    0    0 -0.10732963793E+02 -0.47811568687E+02  0.36439603843E+02  0.61065434909E+02  0.51100000000E-03 0.  1.
         23    2    1    0    0    0 -0.90980458349E+01 -0.15362122955E+02  0.22125068207E+02  0.96569595451E+02  0.92289754917E+02 0.  0.
         11    1    3    3    0    0  0.16349179582E+01  0.32449445732E+02 -0.14314535636E+02  0.35504160542E+02  0.51100000000E-03 0. -1.
         22    1    1    0    0    0  0.90980458349E+01  0.15362122955E+02 -0.22125068207E+02  0.28430404549E+02  0.00000000000E+00 0.  1.
</event>
<event>
 5    1  0.1103865E-009  0.9118800E+02  0.7818608E-02  0.1130116E+00
         25   -1    0    0    0    0  0.00000000000E+00  0.00000000000E+00  0.99999998245E-14  0.12500000000E+03  0.12500000000E+03 0.  0.
        -11    1    3    3    0    0 -0.15717367960E+02 -0.21322664613E+02  0.25679745257E+02  0.36893644419E+02  0.51100000000E-03 0.  1.
         23    2    1    0    0    0  0.17564301989E+02 -0.25921599006E+02 -0.15517382099E+02  0.90053996701E+02  0.82996982929E+02 0.  0.
         11    1    3    3    0    0  0.33281669949E+02 -0.45989343926E+01 -0.41197127356E+02  0.53160352282E+02  0.51100000000E-03 0. -1.
         22    1    1    0    0    0 -0.17564301989E+02  0.25921599006E+02  0.15517382099E+02  0.34946003299E+02  0.00000000000E+00 0. -1.
</event>
<event>
 5    1  0.1103865E-009  0.9118800E+02  0.7818608E-02  0.1130116E+00
         25   -1    0    0    0    0  0.00000000000E+00  0.00000000000E+00  0.99999998245E-14  0.12500000000E+03  0.12500000000E+03 0.  0.
        -11    1    3    3    0    0  0.89636133092E+01 -0.27301715169E+02 -0.20634636056E+02  0.35376803419E+02  0.51100000000E-03 0.  1.
         23    2    1    0    0    0 -0.11112133333E+02  0.24113183164E+02  0.76118815481E+01  0.97379973747E+02  0.93380905097E+02 0.  0.
         11    1    3    3    0    0 -0.20075746642E+02  0.51414898332E+02  0.28246517604E+02  0.62003170329E+02  0.51100000000E-03 0. -1.
         22    1    1    0    0    0  0.11112133333E+02 -0.24113183164E+02 -0.76118815481E+01  0.27620026253E+02  0.00000000000E+00 0. -1.
</event>
<event>
 5    1  0.1103865E-009  0.9118800E+02  0.7818608E-02  0.1130116E+00
         25   -1    0    0    0    0  0.00000000000E+00  0.00000000000E+00  0.99999998245E-14  0.12500000000E+03  0.12500000000E+03 0.  0.
        -11    1    3    3    0    0 -0.21391002733E+01 -0.52655608324E+02 -0.17642948085E+02  0.55573936835E+02  0.51100000000E-03 0.  1.
         23    2    1    0    0    0 -0.20169072721E+02 -0.22644085410E+02 -0.23235164047E+00  0.94675091332E+02  0.89687082865E+02 0.  0.
         11    1    3    3    0    0 -0.18029972447E+02  0.30011522915E+02  0.17410596445E+02  0.39101154496E+02  0.51100000000E-03 0. -1.
         22    1    1    0    0    0  0.20169072721E+02  0.22644085410E+02  0.23235164047E+00  0.30324908668E+02  0.00000000000E+00 0.  1.
</event>
<event>
 5    1  0.1103865E-009  0.9118800E+02  0.7818608E-02  0.1130116E+00
         25   -1    0    0    0    0  0.00000000000E+00  0.00000000000E+00  0.99999998245E-14  0.12500000000E+03  0.12500000000E+03 0.  0.
        -11    1    3    3    0    0 -0.13561799526E+02  0.47137045823E+02 -0.20085939897E+02  0.53002532742E+02  0.51100000000E-03 0.  1.
         23    2    1    0    0    0 -0.15853557692E+02  0.68825385976E+01 -0.26026666181E+02  0.93757529202E+02  0.88398994907E+02 0.  0.
         11    1    3    3    0    0 -0.22917581660E+01 -0.40254507225E+02 -0.59407262842E+01  0.40754996460E+02  0.51100000000E-03 0. -1.
         22    1    1    0    0    0  0.15853557692E+02 -0.68825385976E+01  0.26026666181E+02  0.31242470798E+02  0.00000000000E+00 0.  1.
</event>
<event>
 5    1  0.1103865E-009  0.9118800E+02  0.7818608E-02  0.1130116E+00
         25   -1    0    0    0    0  0.00000000000E+00  0.00000000000E+00  0.99999998245E-14  0.12500000000E+03  0.12500000000E+03 0.  0.
        -11    1    3    3    0    0  0.22131637906E+02 -0.25954452968E+02 -0.33554924897E+01  0.34273931134E+02  0.51100000000E-03 0.  1.
         23    2    1    0    0    0 -0.25837644089E+02  0.12267700807E+02 -0.64228749307E+01  0.95685606649E+02  0.91084585207E+02 0.  0.
         11    1    3    3    0    0 -0.47969281995E+02  0.38222153775E+02 -0.30673824411E+01  0.61411675515E+02  0.51100000000E-03 0. -1.
         22    1    1    0    0    0  0.25837644089E+02 -0.12267700807E+02  0.64228749307E+01  0.29314393351E+02  0.00000000000E+00 0. -1.
</event>
<event>
 5    1  0.1103865E-009  0.9118800E+02  0.7818608E-02  0.1130116E+00
         25   -1    0    0    0    0  0.00000000000E+00  0.00000000000E+00  0.99999998245E-14  0.12500000000E+03  0.12500000000E+03 0.  0.
        -11    1    3    3    0    0  0.57923840852E+02  0.20837603992E+00  0.15183643547E+02  0.59881197310E+02  0.51100000000E-03 0.  1.
         23    2    1    0    0    0  0.29729484865E+02 -0.84486793546E+01 -0.20233573436E+01  0.94027166289E+02  0.88779454674E+02 0.  0.
         11    1    3    3    0    0 -0.28194355987E+02 -0.86570553945E+01 -0.17207000890E+02  0.34145968979E+02  0.51100000000E-03 0. -1.
         22    1    1    0    0    0 -0.29729484865E+02  0.84486793546E+01  0.20233573436E+01  0.30972833711E+02  0.00000000000E+00 0.  1.
</event>
<event>
 5    1  0.1103865E-009  0.9118800E+02  0.7818608E-02  0.1130116E+00
         25   -1    0    0    0    0  0.00000000000E+00  0.00000000000E+00  0.99999998245E-14  0.12500000000E+03  0.12500000000E+03 0.  0.
        -11    1    3    3    0    0  0.31739721415E+02  0.88841061685E+00 -0.12918159857E+02  0.34279411361E+02  0.51100000000E-03 0. -1.
         23    2    1    0    0    0 -0.17286314715E+02 -0.24968469883E+02  0.81202138230E+01  0.93564684871E+02  0.88125882791E+02 0.  0.
         11    1    3    3    0    0 -0.49026036130E+02 -0.25856880500E+02  0.21038373680E+02  0.59285273510E+02  0.51100000000E-03 0.  1.
         22    1    1    0    0    0  0.17286314715E+02  0.24968469883E+02 -0.81202138230E+01  0.31435315129E+02  0.00000000000E+00 0.  1.
</event>
<event>
 5    1  0.1103865E-009  0.9118800E+02  0.7818608E-02  0.1130116E+00
         25   -1    0    0    0    0  0.00000000000E+00  0.00000000000E+00  0.99999998245E-14  0.12500000000E+03  0.12500000000E+03 0.  0.
        -11    1    3    3    0    0 -0.38602419314E+02  0.27556302985E+02  0.49900838281E+00  0.47431483434E+02  0.51100000000E-03 0.  1.
         23    2    1    0    0    0 -0.23853405815E+02 -0.13675901106E+02 -0.14745618314E+02  0.93799863790E+02  0.88458837588E+02 0.  0.
         11    1    3    3    0    0  0.14749013499E+02 -0.41232204091E+02 -0.15244626697E+02  0.46368380356E+02  0.51100000000E-03 0. -1.
         22    1    1    0    0    0  0.23853405815E+02  0.13675901106E+02  0.14745618314E+02  0.31200136210E+02  0.00000000000E+00 0.  1.
</event>
<event>
 5    1  0.1103865E-009  0.9118800E+02  0.7818608E-02  0.1130116E+00
         25   -1    0    0    0    0  0.00000000000E+00  0.00000000000E+00  0.99999998245E-14  0.12500000000E+03  0.12500000000E+03 0.  0.
        -11    1    3    3    0    0 -0.98870237775E+01  0.38778894311E+02  0.38827493513E+02  0.55759574388E+02  0.51100000000E-03 0. -1.
         23    2    1    0    0    0  0.15862298422E+02  0.19529787414E+02  0.16129763162E+02  0.95113642455E+02  0.90296238092E+02 0.  0.
         11    1    3    3    0    0  0.25749322200E+02 -0.19249106897E+02 -0.22697730351E+02  0.39354068067E+02  0.51100000000E-03 0.  1.
         22    1    1    0    0    0 -0.15862298422E+02 -0.19529787414E+02 -0.16129763162E+02  0.29886357545E+02  0.00000000000E+00 0. -1.
</event>
<event>
 5    1  0.1103865E-009  0.9118800E+02  0.7818608E-02  0.1130116E+00
         25   -1    0    0    0    0  0.00000000000E+00  0.00000000000E+00  0.99999998245E-14  0.12500000000E+03  0.12500000000E+03 0.  0.
        -11    1    3    3    0    0  0.20665116118E+02 -0.25270295406E+02 -0.14324617046E+02  0.35648695738E+02  0.51100000000E-03 0. -1.
         23    2    1    0    0    0 -0.23952749686E+02  0.14818263715E+02 -0.59498687341E+01  0.96212570538E+02  0.91804916179E+02 0.  0.
         11    1    3    3    0    0 -0.44617865804E+02  0.40088559121E+02  0.83747483122E+01  0.60563874800E+02  0.51100000000E-03 0.  1.
         22    1    1    0    0    0  0.23952749686E+02 -0.14818263715E+02  0.59498687341E+01  0.28787429462E+02  0.00000000000E+00 0.  1.
</event>
<event>
 5    1  0.1103865E-009  0.9118800E+02  0.7818608E-02  0.1130116E+00
         25   -1    0    0    0    0  0.00000000000E+00  0.00000000000E+00  0.99999998245E-14  0.12500000000E+03  0.12500000000E+03 0.  0.
        -11    1    3    3    0    0  0.12132172958E+02  0.30762036911E+02  0.51703269308E+02  0.61373614795E+02  0.51100000000E-03 0. -1.
         23    2    1    0    0    0  0.98414070822E+01  0.19335813523E+02  0.18758226017E+02  0.96319030329E+02  0.91949755749E+02 0.  0.
         11    1    3    3    0    0 -0.22907658760E+01 -0.11426223388E+02 -0.32945043290E+02  0.34945415535E+02  0.51100000000E-03 0.  1.
         22    1    1    0    0    0 -0.98414070822E+01 -0.19335813523E+02 -0.18758226017E+02  0.28680969671E+02  0.00000000000E+00 0. -1.
</event>
<event>
 5    1  0.1103865E-009  0.9118800E+02  0.7818608E-02  0.1130116E+00
         25   -1    0    0    0    0  0.00000000000E+00  0.00000000000E+00  0.99999998245E-14  0.12500000000E+03  0.12500000000E+03 0.  0.
        -11    1    3    3    0    0  0.32408530830E+02  0.94271948963E+00  0.17601666047E+02  0.36892007787E+02  0.51100000000E-03 0.  1.
         23    2    1    0    0    0 -0.25066803880E+02  0.33829880145E+01  0.17184535708E+02  0.94420635517E+02  0.89331735007E+02 0.  0.
         11    1    3    3    0    0 -0.57475334711E+02  0.24402685249E+01 -0.41713033929E+00  0.57528627731E+02  0.51100000000E-03 0. -1.
         22    1    1    0    0    0  0.25066803880E+02 -0.33829880145E+01 -0.17184535708E+02  0.30579364483E+02  0.00000000000E+00 0. -1.
</event>
<event>
 5    1  0.1103865E-009  0.9118800E+02  0.7818608E-02  0.1130116E+00
         25   -1    0    0    0    0  0.00000000000E+00  0.00000000000E+00  0.99999998245E-14  0.12500000000E+03  0.12500000000E+03 0.  0.
        -11    1    3    3    0    0 -0.41127184740E+01  0.22621711125E+02  0.26903281223E+02  0.35389868724E+02  0.51100000000E-03 0. -1.
         23    2    1    0    0    0 -0.73074232707E+01 -0.11417108832E+02 -0.24427179317E+02  0.97063717171E+02  0.92956598973E+02 0.  0.
         11    1    3    3    0    0 -0.31947047967E+01 -0.34038819957E+02 -0.51330460539E+02  0.61673848447E+02  0.51100000000E-03 0.  1.
         22    1    1    0    0    0  0.73074232707E+01  0.11417108832E+02  0.24427179317E+02  0.27936282829E+02  0.00000000000E+00 0.  1.
</event>
<event>
 5    1  0.1103865E-009  0.9118800E+02  0.7818608E-02  0.1130116E+00
         25   -1    0    0    0    0  0.00000000000E+00  0.00000000000E+00  0.99999998245E-14  0.12500000000E+03  0.12500000000E+03 0.  0.
        -11    1    3    3    0    0 -0.27520249155E+02  0.13251770609E+02 -0.50853496931E+02  0.59321595462E+02  0.51100000000E-03 0. -1.
         23    2    1    0    0    0 -0.55494148357E+01  0.18127491251E+02 -0.20983788702E+02  0.96720655376E+02  0.92494128700E+02 0.  0.
         11    1    3    3    0    0  0.21970834319E+02  0.48757206418E+01  0.29869708229E+02  0.37399059913E+02  0.51100000000E-03 0.  1.
         22    1    1    0    0    0  0.55494148357E+01 -0.18127491251E+02  0.20983788702E+02  0.28279344624E+02  0.00000000000E+00 0. -1.
</event>
<event>
 5    1  0.1103865E-009  0.9118800E+02  0.7818608E-02  0.1130116E+00
         25   -1    0    0    0    0  0.00000000000E+00  0.00000000000E+00  0.99999998245E-14  0.12500000000E+03  0.12500000000E+03 0.  0.
        -11    1    3    3    0    0 -0.13453560638E+00 -0.31911207396E+02 -0.51122812618E+02  0.60265124472E+02  0.51100000000E-03 0. -1.
         23    2    1    0    0    0  0.74067958944E+01 -0.68594715107E+01 -0.28194723155E+02  0.95052456050E+02  0.90211496011E+02 0.  0.
         11    1    3    3    0    0  0.75413315008E+01  0.25051735885E+02  0.22928089463E+02  0.34787331579E+02  0.51100000000E-03 0.  1.
         22    1    1    0    0    0 -0.74067958944E+01  0.68594715107E+01  0.28194723155E+02  0.29947543950E+02  0.00000000000E+00 0. -1.
</event>
<event>
 5    1  0.1103865E-009  0.9118800E+02  0.7818608E-02  0.1130116E+00
         25   -1    0    0    0    0  0.00000000000E+00  0.00000000000E+00  0.99999998245E-14  0.12500000000E+03  0.12500000000E+03 0.  0.
        -11    1    3    3    0    0  0.86919568015E+00  0.33806119222E+02  0.13706410922E+02  0.36489380627E+02  0.51100000000E-03 0. -1.
         23    2    1    0    0    0  0.17941909795E+02 -0.82404189941E+01 -0.22878272285E+02  0.94780271758E+02  0.89833556867E+02 0.  0.
         11    1    3    3    0    0  0.17072714115E+02 -0.42046538216E+02 -0.36584683207E+02  0.58290891130E+02  0.51100000000E-03 0.  1.
         22    1    1    0    0    0 -0.17941909795E+02  0.82404189941E+01  0.22878272285E+02  0.30219728242E+02  0.00000000000E+00 0.  1.
</event>
<event>
 5    1  0.1103865E-009  0.9118800E+02  0.7818608E-02  0.1130116E+00
         25   -1    0    0    0    0  0.00000000000E+00  0.00000000000E+00  0.99999998245E-14  0.12500000000E+03  0.12500000000E+03 0.  0.
        -11    1    3    3    0    0  0.66097083738E+01 -0.44972668153E+02 -0.95443071342E+01  0.46446990479E+02  0.51100000000E-03 0.  1.
         23    2    1    0    0    0 -0.19720374540E+02 -0.92835995753E+01  0.16304139650E+02  0.97780459908E+02  0.93915467187E+02 0.  0.
         11    1    3    3    0    0 -0.26330082914E+02  0.35689068578E+02  0.25848446785E+02  0.51333469429E+02  0.51100000000E-03 0. -1.
         22    1    1    0    0    0  0.19720374540E+02  0.92835995753E+01 -0.16304139650E+02  0.27219540092E+02  0.00000000000E+00 0. -1.
</event>
<event>
 5    1  0.1103865E-009  0.9118800E+02  0.7818608E-02  0.1130116E+00
         25   -1    0    0    0    0  0.00000000000E+00  0.00000000000E+00  0.99999998245E-14  0.12500000000E+03  0.12500000000E+03 0.  0.
        -11    1    3    3    0    0 -0.80712464167E+01 -0.49097262505E+02  0.28084931117E+01  0.49835467672E+02  0.51100000000E-03 0.  1.
         23    2    1    0    0    0 -0.42393240721E+01 -0.10851858816E+02  0.27235356473E+02  0.95377384475E+02  0.90660609521E+02 0.  0.
         11    1    3    3    0    0  0.38319223446E+01  0.38245403689E+02  0.24426863361E+02  0.45541916803E+02  0.51100000000E-03 0. -1.
         22    1    1    0    0    0  0.42393240721E+01  0.10851858816E+02 -0.27235356473E+02  0.29622615525E+02  0.00000000000E+00 0. -1.
</event>
<event>
 5    1  0.1103865E-009  0.9118800E+02  0.7818608E-02  0.1130116E+00
         25   -1    0    0    0    0  0.00000000000E+00  0.00000000000E+00  0.99999998245E-14  0.12500000000E+03  0.12500000000E+03 0.  0.
        -11    1    3    3    0    0  0.58555572618E+02 -0.13621560679E+02 -0.71290098795E+00  0.60123291893E+02  0.51100000000E-03 0.  1.
         23    2    1    0    0    0  0.27955000415E+02 -0.57522818429E+01 -0.12493978222E+02  0.93844418053E+02  0.88521774233E+02 0.  0.
         11    1    3    3    0    0 -0.30600572202E+02  0.78692788361E+01 -0.11781077234E+02  0.33721126161E+02  0.51100000000E-03 0. -1.
         22    1    1    0    0    0 -0.27955000415E+02  0.57522818429E+01  0.12493978222E+02  0.31155581947E+02  0.00000000000E+00 0.  1.
</event>
<event>
 5    1  0.1103865E-009  0.9118800E+02  0.7818608E-02  0.1130116E+00
         25   -1    0    0    0    0  0.00000000000E+00  0.00000000000E+00  0.99999998245E-14  0.12500000000E+03  0.12500000000E+03 0.  0.
        -11    1    3    3    0    0  0.42427747487E+01  0.13297986031E+02 -0.31946210905E+02  0.34862558161E+02  0.51100000000E-03 0.  1.
         23    2    1    0    0    0 -0.99962836706E+01 -0.25533656010E+02  0.11873693983E+02  0.95118937682E+02  0.90303568149E+02 0.  0.
         11    1    3    3    0    0 -0.14239058419E+02 -0.38831642042E+02  0.43819904888E+02  0.60256379521E+02  0.51100000000E-03 0. -1.
         22    1    1    0    0    0  0.99962836706E+01  0.25533656010E+02 -0.11873693983E+02  0.29881062318E+02  0.00000000000E+00 0. -1.
</event>
<event>
 5    1  0.1103865E-009  0.9118800E+02  0.7818608E-02  0.1130116E+00
         25   -1    0    0    0    0  0.00000000000E+00  0.00000000000E+00  0.99999998245E-14  0.12500000000E+03  0.12500000000E+03 0.  0.
        -11    1    3    3    0    0  0.95848552563E+01 -0.21915042573E+02  0.35616102073E+02  0.42902741969E+02  0.51100000000E-03 0. -1.
         23    2    1    0    0    0 -0.58203718864E+01 -0.29728013247E+02 -0.11121817631E+02  0.92730411717E+02  0.86934474918E+02 0.  0.
         11    1    3    3    0    0 -0.15405227143E+02 -0.78129706742E+01 -0.46737919704E+02  0.49827669749E+02  0.51100000000E-03 0.  1.
         22    1    1    0    0    0  0.58203718864E+01  0.29728013247E+02  0.11121817631E+02  0.32269588283E+02  0.00000000000E+00 0.  1.
</event>
<event>
 5    1  0.1103865E-009  0.9118800E+02  0.7818608E-02  0.1130116E+00
         25   -1    0    0    0    0  0.00000000000E+00  0.00000000000E+00  0.99999998245E-14  0.12500000000E+03  0.12500000000E+03 0.  0.
        -11    1    3    3    0    0 -0.27983601257E+02  0.26331684426E+02 -0.37777914346E+02  0.53885158964E+02  0.51100000000E-03 0. -1.
         23    2    1    0    0    0 -0.27634599639E+02  0.34898645463E+01 -0.10646641127E+01  0.97125571549E+02  0.93039738216E+02 0.  0.
         11    1    3    3    0    0  0.34900161722E+00 -0.22841819880E+02  0.36713250234E+02  0.43240412585E+02  0.51100000000E-03 0.  1.
         22    1    1    0    0    0  0.27634599639E+02 -0.34898645463E+01  0.10646641127E+01  0.27874428451E+02  0.00000000000E+00 0. -1.
</event>
<event>
 5    1  0.1103865E-009  0.9118800E+02  0.7818608E-02  0.1130116E+00
         25   -1    0    0    0    0  0.00000000000E+00  0.00000000000E+00  0.99999998245E-14  0.12500000000E+03  0.12500000000E+03 0.  0.
        -11    1    3    3    0    0  0.54093985863E+02 -0.27684444475E+02 -0.10609818747E+02  0.61685946751E+02  0.51100000000E-03 0. -1.
         23    2    1    0    0    0  0.25729753480E+02 -0.71787695282E+01 -0.93147693910E+01  0.96710074675E+02  0.92479828442E+02 0.  0.
         11    1    3    3    0    0 -0.28364232383E+02  0.20505674947E+02  0.12950493563E+01  0.35024127924E+02  0.51100000000E-03 0.  1.
         22    1    1    0    0    0 -0.25729753480E+02  0.71787695282E+01  0.93147693910E+01  0.28289925325E+02  0.00000000000E+00 0. -1.
</event>
<event>
 5    1  0.1103865E-009  0.9118800E+02  0.7818608E-02  0.1130116E+00
         25   -1    0    0    0    0  0.00000000000E+00  0.00000000000E+00  0.99999998245E-14  0.12500000000E+03  0.12500000000E+03 0.  0.
        -11    1    3    3    0    0  0.21074365203E+02  0.16529709073E+02 -0.18373651363E+02  0.32480012553E+02  0.51100000000E-03 0. -1.
         23    2    1    0    0    0 -0.13018100172E+02 -0.72659782543E+01  0.27084520971E+02  0.94083392031E+02  0.88858584322E+02 0.  0.
         11    1    3    3    0    0 -0.34092465376E+02 -0.23795687328E+02  0.45458172335E+02  0.61603379477E+02  0.51100000000E-03 0.  1.
         22    1    1    0    0    0  0.13018100172E+02  0.72659782543E+01 -0.27084520971E+02  0.30916607969E+02  0.00000000000E+00 0.  1.
</event>
<event>
 5    1  0.1103865E-009  0.9118800E+02  0.7818608E-02  0.1130116E+00
         25   -1    0    0    0    0  0.00000000000E+00  0.00000000000E+00  0.99999998245E-14  0.12500000000E+03  0.12500000000E+03 0.  0.
        -11    1    3    3    0    0  0.27730485638E+02 -0.43967255745E+02 -0.10852927349E+02  0.53102593569E+02  0.51100000000E-03 0.  1.
         23    2    1    0    0    0 -0.91435488153E+01 -0.27411469174E+02  0.32706965909E+01  0.95919240323E+02  0.91404650213E+02 0.  0.
         11    1    3    3    0    0 -0.36874034453E+02  0.16555786570E+02  0.14123623940E+02  0.42816646754E+02  0.51100000000E-03 0. -1.
         22    1    1    0    0    0  0.91435488153E+01  0.27411469174E+02 -0.32706965909E+01  0.29080759677E+02  0.00000000000E+00 0. -1.
</event>
<event>
 5    1  0.1103865E-009  0.9118800E+02  0.7818608E-02  0.1130116E+00
         25   -1    0    0    0    0  0.00000000000E+00  0.00000000000E+00  0.99999998245E-14  0.12500000000E+03  0.12500000000E+03 0.  0.
        -11    1    3    3    0    0 -0.16054636212E+02 -0.22835017851E+02  0.33850297446E+02  0.43875186855E+02  0.51100000000E-03 0. -1.
         23    2    1    0    0    0  0.25229067994E+02  0.23044656741E+01  0.13141523101E+02  0.96460272193E+02  0.92141565258E+02 0.  0.
         11    1    3    3    0    0  0.41283704206E+02  0.25139483525E+02 -0.20708774345E+02  0.52585085338E+02  0.51100000000E-03 0.  1.
         22    1    1    0    0    0 -0.25229067994E+02 -0.23044656741E+01 -0.13141523101E+02  0.28539727807E+02  0.00000000000E+00 0. -1.
</event>
<event>
 5    1  0.1103865E-009  0.9118800E+02  0.7818608E-02  0.1130116E+00
         25   -1    0    0    0    0  0.00000000000E+00  0.00000000000E+00  0.99999998245E-14  0.12500000000E+03  0.12500000000E+03 0.  0.
        -11    1    3    3    0    0  0.27818112122E+02  0.26573760717E+02 -0.32829523382E+01  0.38610748465E+02  0.51100000000E-03 0.  1.
         23    2    1    0    0    0 -0.17753821553E+02 -0.19281011236E+01 -0.23015111165E+02  0.95869069778E+02  0.91336013951E+02 0.  0.
         11    1    3    3    0    0 -0.45571933675E+02 -0.28501861841E+02 -0.19732158827E+02  0.57258321313E+02  0.51100000000E-03 0. -1.
         22    1    1    0    0    0  0.17753821553E+02  0.19281011236E+01  0.23015111165E+02  0.29130930222E+02  0.00000000000E+00 0. -1.
</event>
<event>
 5    1  0.1103865E-009  0.9118800E+02  0.7818608E-02  0.1130116E+00
         25   -1    0    0    0    0  0.00000000000E+00  0.00000000000E+00  0.99999998245E-14  0.12500000000E+03  0.12500000000E+03 0.  0.
        -11    1    3    3    0    0  0.36491441331E+02 -0.14776889526E+02 -0.37421358721E+02  0.54317030877E+02  0.51100000000E-03 0.  1.
         23    2    1    0    0    0  0.19956958253E+02  0.15622118151E+02 -0.16612145924E+02  0.94696631368E+02  0.89717098939E+02 0.  0.
         11    1    3    3    0    0 -0.16534483078E+02  0.30399007676E+02  0.20809212797E+02  0.40379600491E+02  0.51100000000E-03 0. -1.
         22    1    1    0    0    0 -0.19956958253E+02 -0.15622118151E+02  0.16612145924E+02  0.30303368632E+02  0.00000000000E+00 0. -1.
</event>
<event>
 5    1  0.1103865E-009  0.9118800E+02  0.7818608E-02  0.1130116E+00
         25   -1    0    0    0    0  0.00000000000E+00  0.00000000000E+00  0.99999998245E-14  0.12500000000E+03  0.12500000000E+03 0.  0.
        -11    1    3    3    0    0  0.83528638371E+01  0.18300598993E+02 -0.44445697765E+02  0.48786292213E+02  0.51100000000E-03 0.  1.
         23    2    1    0    0    0 -0.14531519752E+02 -0.15055204948E+02 -0.20025240438E+02  0.96037359980E+02  0.91566041713E+02 0.  0.
         11    1    3    3    0    0 -0.22884383589E+02 -0.33355803941E+02  0.24420457327E+02  0.47251067767E+02  0.51100000000E-03 0. -1.
         22    1    1    0    0    0  0.14531519752E+02  0.15055204948E+02  0.20025240438E+02  0.28962640020E+02  0.00000000000E+00 0.  1.
</event>
<event>
 5    1  0.1103865E-009  0.9118800E+02  0.7818608E-02  0.1130116E+00
         25   -1    0    0    0    0  0.00000000000E+00  0.00000000000E+00  0.99999998245E-14  0.12500000000E+03  0.12500000000E+03 0.  0.
        -11    1    3    3    0    0 -0.38328937554E+02 -0.73651204484E+01  0.28442510305E+02  0.48294190602E+02  0.51100000000E-03 0. -1.
         23    2    1    0    0    0  0.71868530821E+01 -0.14789151326E+02  0.25696245176E+02  0.94493166826E+02  0.89433168940E+02 0.  0.
         11    1    3    3    0    0  0.45515790636E+02 -0.74240308775E+01 -0.27462651292E+01  0.46198976224E+02  0.51100000000E-03 0.  1.
         22    1    1    0    0    0 -0.71868530821E+01  0.14789151326E+02 -0.25696245176E+02  0.30506833174E+02  0.00000000000E+00 0. -1.
</event>
<event>
 5    1  0.1103865E-009  0.9118800E+02  0.7818608E-02  0.1130116E+00
         25   -1    0    0    0    0  0.00000000000E+00  0.00000000000E+00  0.99999998245E-14  0.12500000000E+03  0.12500000000E+03 0.  0.
        -11    1    3    3    0    0 -0.10254712175E+02 -0.34775735297E+02 -0.14493812387E+02  0.39045889477E+02  0.51100000000E-03 0.  1.
         23    2    1    0    0    0 -0.13172865277E+02  0.22385257283E+02 -0.12139192214E+02  0.96329734727E+02  0.91964306564E+02 0.  0.
         11    1    3    3    0    0 -0.29181531021E+01  0.57160992580E+02  0.23546201735E+01  0.57283845250E+02  0.51100000000E-03 0. -1.
         22    1    1    0    0    0  0.13172865277E+02 -0.22385257283E+02  0.12139192214E+02  0.28670265273E+02  0.00000000000E+00 0. -1.
</event>
<event>
 5    1  0.1103865E-009  0.9118800E+02  0.7818608E-02  0.1130116E+00
         25   -1    0    0    0    0  0.00000000000E+00  0.00000000000E+00  0.99999998245E-14  0.12500000000E+03  0.12500000000E+03 0.  0.
        -11    1    3    3    0    0  0.37906161061E+02  0.85193459743E+01  0.14761120134E+02  0.41561363910E+02  0.51100000000E-03 0.  1.
         23    2    1    0    0    0  0.16391811243E+02 -0.30424854615E+02  0.17740933348E+02  0.86152812583E+02  0.76897354607E+02 0.  0.
         11    1    3    3    0    0 -0.21514349818E+02 -0.38944200589E+02  0.29798132148E+01  0.44591448672E+02  0.51100000000E-03 0. -1.
         22    1    1    0    0    0 -0.16391811243E+02  0.30424854615E+02 -0.17740933348E+02  0.38847187417E+02  0.00000000000E+00 0. -1.
</event>
<event>
 5    1  0.1103865E-009  0.9118800E+02  0.7818608E-02  0.1130116E+00
         25   -1    0    0    0    0  0.00000000000E+00  0.00000000000E+00  0.99999998245E-14  0.12500000000E+03  0.12500000000E+03 0.  0.
        -11    1    3    3    0    0 -0.24211692841E+02 -0.30357058197E+02  0.14431177356E+02  0.41424822664E+02  0.51100000000E-03 0. -1.
         23    2    1    0    0    0  0.66834208683E+01  0.75972048988E+01 -0.20896377166E+02  0.10178267424E+03  0.99099286375E+02 0.  0.
         11    1    3    3    0    0  0.30895113709E+02  0.37954263096E+02 -0.35327554521E+02  0.60357851577E+02  0.51100000000E-03 0.  1.
         22    1    1    0    0    0 -0.66834208683E+01 -0.75972048988E+01  0.20896377166E+02  0.23217325760E+02  0.00000000000E+00 0.  1.
</event>
<event>
 5    1  0.1103865E-009  0.9118800E+02  0.7818608E-02  0.1130116E+00
         25   -1    0    0    0    0  0.00000000000E+00  0.00000000000E+00  0.99999998245E-14  0.12500000000E+03  0.12500000000E+03 0.  0.
        -11    1    3    3    0    0 -0.11061051422E+02 -0.15152316971E+02  0.59038583245E+02  0.61947509070E+02  0.51100000000E-03 0.  1.
         23    2    1    0    0    0  0.85617584718E+00 -0.78200231536E+01  0.26243045959E+02  0.97603225365E+02  0.93679273809E+02 0.  0.
         11    1    3    3    0    0  0.11917227269E+02  0.73322938177E+01 -0.32795537286E+02  0.35655716296E+02  0.51100000000E-03 0. -1.
         22    1    1    0    0    0 -0.85617584718E+00  0.78200231536E+01 -0.26243045959E+02  0.27396774635E+02  0.00000000000E+00 0.  1.
</event>
<event>
 5    1  0.1103865E-009  0.9118800E+02  0.7818608E-02  0.1130116E+00
         25   -1    0    0    0    0  0.00000000000E+00  0.00000000000E+00  0.99999998245E-14  0.12500000000E+03  0.12500000000E+03 0.  0.
        -11    1    3    3    0    0  0.40954679015E+02  0.24960578899E+02  0.26808731603E+01  0.48036478986E+02  0.51100000000E-03 0.  1.
         23    2    1    0    0    0  0.95003539513E+01 -0.98580254987E+01  0.22249406151E+02  0.98875806883E+02  0.95362213276E+02 0.  0.
         11    1    3    3    0    0 -0.31454325064E+02 -0.34818604398E+02  0.19568532991E+02  0.50839327898E+02  0.51100000000E-03 0. -1.
         22    1    1    0    0    0 -0.95003539513E+01  0.98580254987E+01 -0.22249406151E+02  0.26124193117E+02  0.00000000000E+00 0.  1.
</event>
<event>
 5    1  0.1103865E-009  0.9118800E+02  0.7818608E-02  0.1130116E+00
         25   -1    0    0    0    0  0.00000000000E+00  0.00000000000E+00  0.99999998245E-14  0.12500000000E+03  0.12500000000E+03 0.  0.
        -11    1    3    3    0    0 -0.20293652529E+02  0.24380544000E+01  0.36009310667E+02  0.41405879984E+02  0.51100000000E-03 0. -1.
         23    2    1    0    0    0 -0.13715068246E+02 -0.26071942088E+02 -0.82001525245E+01  0.94420729854E+02  0.89331867011E+02 0.  0.
         11    1    3    3    0    0  0.65785842834E+01 -0.28509996488E+02 -0.44209463192E+02  0.53014849871E+02  0.51100000000E-03 0.  1.
         22    1    1    0    0    0  0.13715068246E+02  0.26071942088E+02  0.82001525245E+01  0.30579270146E+02  0.00000000000E+00 0. -1.
</event>
<event>
 5    1  0.1103865E-009  0.9118800E+02  0.7818608E-02  0.1130116E+00
         25   -1    0    0    0    0  0.00000000000E+00  0.00000000000E+00  0.99999998245E-14  0.12500000000E+03  0.12500000000E+03 0.  0.
        -11    1    3    3    0    0  0.24359261446E+01  0.43333491115E+02 -0.58477638329E+01  0.43794080998E+02  0.51100000000E-03 0.  1.
         23    2    1    0    0    0  0.14595032392E+02  0.99926171746E+01  0.27375501077E+02  0.92407279528E+02  0.86468606338E+02 0.  0.
         11    1    3    3    0    0  0.12159106247E+02 -0.33340873940E+02  0.33223264910E+02  0.48613198530E+02  0.51100000000E-03 0. -1.
         22    1    1    0    0    0 -0.14595032392E+02 -0.99926171746E+01 -0.27375501077E+02  0.32592720472E+02  0.00000000000E+00 0.  1.
</event>
<event>
 5    1  0.1103865E-009  0.9118800E+02  0.7818608E-02  0.1130116E+00
         25   -1    0    0    0    0  0.00000000000E+00  0.00000000000E+00  0.99999998245E-14  0.12500000000E+03  0.12500000000E+03 0.  0.
        -11    1    3    3    0    0  0.11427119503E+02 -0.21476008900E+02 -0.27785022501E+02  0.36929737259E+02  0.51100000000E-03 0. -1.
         23    2    1    0    0    0  0.13960756867E+02 -0.41567659007E+01  0.26933599131E+02  0.94379742046E+02  0.89274495302E+02 0.  0.
         11    1    3    3    0    0  0.25336373640E+01  0.17319242999E+02  0.54718621632E+02  0.57450004786E+02  0.51100000000E-03 0.  1.
         22    1    1    0    0    0 -0.13960756867E+02  0.41567659007E+01 -0.26933599131E+02  0.30620257954E+02  0.00000000000E+00 0.  1.
</event>
<event>
 5    1  0.1103865E-009  0.9118800E+02  0.7818608E-02  0.1130116E+00
         25   -1    0    0    0    0  0.00000000000E+00  0.00000000000E+00  0.99999998245E-14  0.12500000000E+03  0.12500000000E+03 0.  0.
        -11    1    3    3    0    0  0.50636268894E+02 -0.12963709313E+02 -0.23127922158E+02  0.57157591537E+02  0.51100000000E-03 0.  1.
         23    2    1    0    0    0  0.13798382957E+02 -0.15618812163E+02 -0.22824200229E+02  0.94092286049E+02  0.88871094920E+02 0.  0.
         11    1    3    3    0    0 -0.36837885937E+02 -0.26551028491E+01  0.30372192896E+00  0.36934694512E+02  0.51100000000E-03 0. -1.
         22    1    1    0    0    0 -0.13798382957E+02  0.15618812163E+02  0.22824200229E+02  0.30907713951E+02  0.00000000000E+00 0.  1.
</event>
<event>
 5    1  0.1103865E-009  0.9118800E+02  0.7818608E-02  0.1130116E+00
         25   -1    0    0    0    0  0.00000000000E+00  0.00000000000E+00  0.99999998245E-14  0.12500000000E+03  0.12500000000E+03 0.  0.
        -11    1    3    3    0    0 -0.36688885924E+02 -0.32971738051E+02  0.14802262756E+02  0.51500648961E+02  0.51100000000E-03 0.  1.
         23    2    1    0    0    0 -0.25496657702E+02  0.56040499064E+01  0.20151239738E+02  0.92021864936E+02  0.85909639936E+02 0.  0.
         11    1    3    3    0    0  0.11192228222E+02  0.38575787957E+02  0.53489769818E+01  0.40521215975E+02  0.51100000000E-03 0. -1.
         22    1    1    0    0    0  0.25496657702E+02 -0.56040499064E+01 -0.20151239738E+02  0.32978135064E+02  0.00000000000E+00 0.  1.
</event>
<event>
 5    1  0.1103865E-009  0.9118800E+02  0.7818608E-02  0.1130116E+00
         25   -1    0    0    0    0  0.00000000000E+00  0.00000000000E+00  0.99999998245E-14  0.12500000000E+03  0.12500000000E+03 0.  0.
        -11    1    3    3    0    0  0.18783244074E+02 -0.40125655165E+02  0.16781658433E+02  0.47376180940E+02  0.51100000000E-03 0. -1.
         23    2    1    0    0    0  0.17818270539E+02 -0.11294864342E+02 -0.21214073982E+02  0.95081750378E+02  0.90252078062E+02 0.  0.
         11    1    3    3    0    0 -0.96497353517E+00  0.28830790823E+02 -0.37995732415E+02  0.47705569439E+02  0.51100000000E-03 0.  1.
         22    1    1    0    0    0 -0.17818270539E+02  0.11294864342E+02  0.21214073982E+02  0.29918249622E+02  0.00000000000E+00 0. -1.
</event>
<event>
 5    1  0.1103865E-009  0.9118800E+02  0.7818608E-02  0.1130116E+00
         25   -1    0    0    0    0  0.00000000000E+00  0.00000000000E+00  0.99999998245E-14  0.12500000000E+03  0.12500000000E+03 0.  0.
        -11    1    3    3    0    0 -0.57134764350E+01  0.33128336035E+02 -0.76366286867E+01  0.34473882279E+02  0.51100000000E-03 0.  1.
         23    2    1    0    0    0 -0.17555542985E+02 -0.24400083200E+02  0.49335304831E+01  0.94538534626E+02  0.89496556675E+02 0.  0.
         11    1    3    3    0    0 -0.11842066550E+02 -0.57528419235E+02  0.12570159170E+02  0.60064652348E+02  0.51100000000E-03 0. -1.
         22    1    1    0    0    0  0.17555542985E+02  0.24400083200E+02 -0.49335304831E+01  0.30461465374E+02  0.00000000000E+00 0. -1.
</event>
<event>
 5    1  0.1103865E-009  0.9118800E+02  0.7818608E-02  0.1130116E+00
         25   -1    0    0    0    0  0.00000000000E+00  0.00000000000E+00  0.99999998245E-14  0.12500000000E+03  0.12500000000E+03 0.  0.
        -11    1    3    3    0    0  0.32562348104E+01 -0.48007237649E+02  0.12343672237E+02  0.49675589341E+02  0.51100000000E-03 0.  1.
         23    2    1    0    0    0  0.13686769493E+02  0.51874234110E+00  0.20870019979E+02  0.10003693755E+03  0.96872258096E+02 0.  0.
         11    1    3    3    0    0  0.10430534682E+02  0.48525979990E+02  0.85263477416E+01  0.50361348213E+02  0.51100000000E-03 0. -1.
         22    1    1    0    0    0 -0.13686769493E+02 -0.51874234110E+00 -0.20870019979E+02  0.24963062446E+02  0.00000000000E+00 0.  1.
</event>
<event>
 5    1  0.1103865E-009  0.9118800E+02  0.7818608E-02  0.1130116E+00
         25   -1    0    0    0    0  0.00000000000E+00  0.00000000000E+00  0.99999998245E-14  0.12500000000E+03  0.12500000000E+03 0.  0.
        -11    1    3    3    0    0 -0.31954319703E+02 -0.23106685322E+02 -0.39470517431E+02  0.55793540852E+02  0.51100000000E-03 0.  1.
         23    2    1    0    0    0  0.74627735919E+01 -0.70654292570E+01 -0.19833997485E+02  0.10266167561E+03  0.10020189071E+03 0.  0.
         11    1    3    3    0    0  0.39417093295E+02  0.16041256065E+02  0.19636519947E+02  0.46868134759E+02  0.51100000000E-03 0. -1.
         22    1    1    0    0    0 -0.74627735919E+01  0.70654292570E+01  0.19833997485E+02  0.22338324389E+02  0.00000000000E+00 0.  1.
</event>
<event>
 5    1  0.1103865E-009  0.9118800E+02  0.7818608E-02  0.1130116E+00
         25   -1    0    0    0    0  0.00000000000E+00  0.00000000000E+00  0.99999998245E-14  0.12500000000E+03  0.12500000000E+03 0.  0.
        -11    1    3    3    0    0  0.16172643667E+02 -0.40535209337E+02  0.36860266197E+02  0.57125623178E+02  0.51100000000E-03 0.  1.
         23    2    1    0    0    0  0.22537648046E+02 -0.15730678694E+02  0.66627612327E+01  0.96719402077E+02  0.92492434930E+02 0.  0.
         11    1    3    3    0    0  0.63650043796E+01  0.24804530643E+02 -0.30197504964E+02  0.39593778899E+02  0.51100000000E-03 0. -1.
         22    1    1    0    0    0 -0.22537648046E+02  0.15730678694E+02 -0.66627612327E+01  0.28280597923E+02  0.00000000000E+00 0.  1.
</event>
<event>
 5    1  0.1103865E-009  0.9118800E+02  0.7818608E-02  0.1130116E+00
         25   -1    0    0    0    0  0.00000000000E+00  0.00000000000E+00  0.99999998245E-14  0.12500000000E+03  0.12500000000E+03 0.  0.
        -11    1    3    3    0    0  0.25393433917E+02  0.59000840854E+00  0.35979138205E+02  0.44041718657E+02  0.51100000000E-03 0. -1.
         23    2    1    0    0    0 -0.24933879985E+01  0.28156919387E+02  0.80020028629E+00  0.96721573354E+02  0.92495369281E+02 0.  0.
         11    1    3    3    0    0 -0.27886821916E+02  0.27566910979E+02 -0.35178937919E+02  0.52679854696E+02  0.51100000000E-03 0.  1.
         22    1    1    0    0    0  0.24933879985E+01 -0.28156919387E+02 -0.80020028629E+00  0.28278426646E+02  0.00000000000E+00 0.  1.
</event>
<event>
 5    1  0.1103865E-009  0.9118800E+02  0.7818608E-02  0.1130116E+00
         25   -1    0    0    0    0  0.00000000000E+00  0.00000000000E+00  0.99999998245E-14  0.12500000000E+03  0.12500000000E+03 0.  0.
        -11    1    3    3    0    0  0.48830782366E+01  0.24251075569E+02  0.85013231125E+00  0.24752410884E+02  0.51100000000E-03 0. -1.
         23    2    1    0    0    0 -0.28091344739E+02 -0.26573883992E+02  0.71914154328E+01  0.85667934003E+02  0.76105081964E+02 0.  0.
         11    1    3    3    0    0 -0.32974422975E+02 -0.50824959562E+02  0.63412831216E+01  0.60915523119E+02  0.51100000000E-03 0.  1.
         22    1    1    0    0    0  0.28091344739E+02  0.26573883992E+02 -0.71914154328E+01  0.39332065997E+02  0.00000000000E+00 0.  1.
</event>
<event>
 5    1  0.1103865E-009  0.9118800E+02  0.7818608E-02  0.1130116E+00
         25   -1    0    0    0    0  0.00000000000E+00  0.00000000000E+00  0.99999998245E-14  0.12500000000E+03  0.12500000000E+03 0.  0.
        -11    1    3    3    0    0  0.39446523342E+02 -0.93286987131E+01 -0.27516021887E+02  0.48991675662E+02  0.51100000000E-03 0.  1.
         23    2    1    0    0    0  0.27550151793E+02 -0.30580200989E+01  0.14928979445E+02  0.93516086997E+02  0.88056923346E+02 0.  0.
         11    1    3    3    0    0 -0.11896371550E+02  0.62706786142E+01  0.42445001332E+02  0.44524411334E+02  0.51100000000E-03 0. -1.
         22    1    1    0    0    0 -0.27550151793E+02  0.30580200989E+01 -0.14928979445E+02  0.31483913003E+02  0.00000000000E+00 0. -1.
</event>
<event>
 5    1  0.1103865E-009  0.9118800E+02  0.7818608E-02  0.1130116E+00
         25   -1    0    0    0    0  0.00000000000E+00  0.00000000000E+00  0.99999998245E-14  0.12500000000E+03  0.12500000000E+03 0.  0.
        -11    1    3    3    0    0 -0.11382078094E+02 -0.40090762081E+02 -0.17168073039E+02  0.45072870311E+02  0.51100000000E-03 0.  1.
         23    2    1    0    0    0  0.24064384267E+02  0.63074082941E+00 -0.54807778482E+01  0.10031131130E+03  0.97225654144E+02 0.  0.
         11    1    3    3    0    0  0.35446462361E+02  0.40721502910E+02  0.11687295190E+02  0.55238440984E+02  0.51100000000E-03 0. -1.
         22    1    1    0    0    0 -0.24064384267E+02 -0.63074082941E+00  0.54807778482E+01  0.24688688705E+02  0.00000000000E+00 0. -1.
</event>
<event>
 5    1  0.1103865E-009  0.9118800E+02  0.7818608E-02  0.1130116E+00
         25   -1    0    0    0    0  0.00000000000E+00  0.00000000000E+00  0.99999998245E-14  0.12500000000E+03  0.12500000000E+03 0.  0.
        -11    1    3    3    0    0  0.25048749422E+02 -0.19505070409E+02  0.19018516474E+02  0.37007993574E+02  0.51100000000E-03 0. -1.
         23    2    1    0    0    0 -0.99530072156E+01  0.26244929158E+02  0.93326120774E+01  0.95420339635E+02  0.90719815413E+02 0.  0.
         11    1    3    3    0    0 -0.35001756637E+02  0.45749999567E+02 -0.96859043967E+01  0.58412346061E+02  0.51100000000E-03 0.  1.
         22    1    1    0    0    0  0.99530072156E+01 -0.26244929158E+02 -0.93326120774E+01  0.29579660365E+02  0.00000000000E+00 0.  1.
</event>
<event>
 5    1  0.1103865E-009  0.9118800E+02  0.7818608E-02  0.1130116E+00
         25   -1    0    0    0    0  0.00000000000E+00  0.00000000000E+00  0.99999998245E-14  0.12500000000E+03  0.12500000000E+03 0.  0.
        -11    1    3    3    0    0  0.85580120149E+01  0.14115529579E+02 -0.34257650667E+02  0.38027284606E+02  0.51100000000E-03 0.  1.
         23    2    1    0    0    0 -0.29179550273E+02 -0.68069707728E+01  0.28011424031E+01  0.94906356086E+02  0.90008827465E+02 0.  0.
         11    1    3    3    0    0 -0.37737562288E+02 -0.20922500352E+02  0.37058793071E+02  0.56879071481E+02  0.51100000000E-03 0. -1.
         22    1    1    0    0    0  0.29179550273E+02  0.68069707728E+01 -0.28011424031E+01  0.30093643914E+02  0.00000000000E+00 0. -1.
</event>
<event>
 5    1  0.1103865E-009  0.9118800E+02  0.7818608E-02  0.1130116E+00
         25   -1    0    0    0    0  0.00000000000E+00  0.00000000000E+00  0.99999998245E-14  0.12500000000E+03  0.12500000000E+03 0.  0.
        -11    1    3    3    0    0  0.43592082118E+01 -0.13884740278E+02 -0.38633372919E+02  0.41283485950E+02  0.51100000000E-03 0.  1.
         23    2    1    0    0    0  0.22064436064E+02  0.19609988654E+02  0.12143900675E+00  0.95480417664E+02  0.90802557321E+02 0.  0.
         11    1    3    3    0    0  0.17705227852E+02  0.33494728932E+02  0.38754811926E+02  0.54196931714E+02  0.51100000000E-03 0. -1.
         22    1    1    0    0    0 -0.22064436064E+02 -0.19609988654E+02 -0.12143900675E+00  0.29519582336E+02  0.00000000000E+00 0. -1.
</event>
<event>
 5    1  0.1103865E-009  0.9118800E+02  0.7818608E-02  0.1130116E+00
         25   -1    0    0    0    0  0.00000000000E+00  0.00000000000E+00  0.99999998245E-14  0.12500000000E+03  0.12500000000E+03 0.  0.
        -11    1    3    3    0    0 -0.11499787201E+02  0.17094022268E+02  0.32852252302E+02  0.38777843991E+02  0.51100000000E-03 0.  1.
         23    2    1    0    0    0 -0.19108158290E+02  0.28508277518E+01 -0.21861705967E+02  0.95824957243E+02  0.91275622762E+02 0.  0.
         11    1    3    3    0    0 -0.76083710890E+01 -0.14243194517E+02 -0.54713958269E+02  0.57047113252E+02  0.51100000000E-03 0. -1.
         22    1    1    0    0    0  0.19108158290E+02 -0.28508277518E+01  0.21861705967E+02  0.29175042757E+02  0.00000000000E+00 0. -1.
</event>
<event>
 5    1  0.1103865E-009  0.9118800E+02  0.7818608E-02  0.1130116E+00
         25   -1    0    0    0    0  0.00000000000E+00  0.00000000000E+00  0.99999998245E-14  0.12500000000E+03  0.12500000000E+03 0.  0.
        -11    1    3    3    0    0 -0.25061927111E+02  0.10598423852E+02  0.29731723175E+02  0.40303872542E+02  0.51100000000E-03 0.  1.
         23    2    1    0    0    0  0.14837750033E+02 -0.78899025644E+01  0.36519299848E+02  0.84799643659E+02  0.74665326054E+02 0.  0.
         11    1    3    3    0    0  0.39899677145E+02 -0.18488326417E+02  0.67875766737E+01  0.44495771117E+02  0.51100000000E-03 0. -1.
         22    1    1    0    0    0 -0.14837750033E+02  0.78899025644E+01 -0.36519299848E+02  0.40200356341E+02  0.00000000000E+00 0. -1.
</event>
<event>
 5    1  0.1103865E-009  0.9118800E+02  0.7818608E-02  0.1130116E+00
         25   -1    0    0    0    0  0.00000000000E+00  0.00000000000E+00  0.99999998245E-14  0.12500000000E+03  0.12500000000E+03 0.  0.
        -11    1    3    3    0    0  0.30405322009E+02  0.16328325316E+02 -0.31964650176E+02  0.47040797987E+02  0.51100000000E-03 0. -1.
         23    2    1    0    0    0 -0.14150413610E+01 -0.18792867727E+02 -0.22985324207E+02  0.95276283066E+02  0.90521106746E+02 0.  0.
         11    1    3    3    0    0 -0.31820363370E+02 -0.35121193043E+02  0.89793259691E+01  0.48235485080E+02  0.51100000000E-03 0.  1.
         22    1    1    0    0    0  0.14150413610E+01  0.18792867727E+02  0.22985324207E+02  0.29723716934E+02  0.00000000000E+00 0. -1.
</event>
<event>
 5    1  0.1103865E-009  0.9118800E+02  0.7818608E-02  0.1130116E+00
         25   -1    0    0    0    0  0.00000000000E+00  0.00000000000E+00  0.99999998245E-14  0.12500000000E+03  0.12500000000E+03 0.  0.
        -11    1    3    3    0    0  0.47171410417E+02 -0.12067765430E+02 -0.31974828535E+02  0.58250859078E+02  0.51100000000E-03 0.  1.
         23    2    1    0    0    0  0.22633720498E+02  0.10612554139E+02 -0.16285646167E+02  0.95164888470E+02  0.90367151761E+02 0.  0.
         11    1    3    3    0    0 -0.24537689918E+02  0.22680319569E+02  0.15689182369E+02  0.36914029392E+02  0.51100000000E-03 0. -1.
         22    1    1    0    0    0 -0.22633720498E+02 -0.10612554139E+02  0.16285646167E+02  0.29835111530E+02  0.00000000000E+00 0.  1.
</event>
<event>
 5    1  0.1103865E-009  0.9118800E+02  0.7818608E-02  0.1130116E+00
         25   -1    0    0    0    0  0.00000000000E+00  0.00000000000E+00  0.99999998245E-14  0.12500000000E+03  0.12500000000E+03 0.  0.
        -11    1    3    3    0    0  0.29899097937E+02 -0.31777623883E+02  0.17607534572E+02  0.47051022423E+02  0.51100000000E-03 0.  1.
         23    2    1    0    0    0 -0.16073893908E+02 -0.24579692147E+02  0.57065117577E+01  0.95081851530E+02  0.90252218158E+02 0.  0.
         11    1    3    3    0    0 -0.45972991845E+02  0.71979317353E+01 -0.11901022814E+02  0.48030829107E+02  0.51100000000E-03 0. -1.
         22    1    1    0    0    0  0.16073893908E+02  0.24579692147E+02 -0.57065117577E+01  0.29918148470E+02  0.00000000000E+00 0. -1.
</event>
<event>
 5    1  0.1103865E-009  0.9118800E+02  0.7818608E-02  0.1130116E+00
         25   -1    0    0    0    0  0.00000000000E+00  0.00000000000E+00  0.99999998245E-14  0.12500000000E+03  0.12500000000E+03 0.  0.
        -11    1    3    3    0    0 -0.15555473030E+02  0.37707397768E+02 -0.12704379443E+02  0.42722615146E+02  0.51100000000E-03 0.  1.
         23    2    1    0    0    0 -0.37789434098E+02  0.34195821066E+00 -0.68061197768E+01  0.86601021742E+02  0.77622518868E+02 0.  0.
         11    1    3    3    0    0 -0.22233961068E+02 -0.37365439557E+02  0.58982596666E+01  0.43878406596E+02  0.51100000000E-03 0. -1.
         22    1    1    0    0    0  0.37789434098E+02 -0.34195821066E+00  0.68061197768E+01  0.38398978258E+02  0.00000000000E+00 0.  1.
</event>
<event>
 5    1  0.1103865E-009  0.9118800E+02  0.7818608E-02  0.1130116E+00
         25   -1    0    0    0    0  0.00000000000E+00  0.00000000000E+00  0.99999998245E-14  0.12500000000E+03  0.12500000000E+03 0.  0.
        -11    1    3    3    0    0  0.43187111815E+02  0.38044259819E+02  0.26400764530E+01  0.57614775327E+02  0.51100000000E-03 0. -1.
         23    2    1    0    0    0  0.21570318752E+02  0.15841709370E+02 -0.16041253297E+02  0.93798073550E+02  0.88456307789E+02 0.  0.
         11    1    3    3    0    0 -0.21616793063E+02 -0.22202550449E+02 -0.18681329750E+02  0.36183298223E+02  0.51100000000E-03 0.  1.
         22    1    1    0    0    0 -0.21570318752E+02 -0.15841709370E+02  0.16041253297E+02  0.31201926450E+02  0.00000000000E+00 0. -1.
</event>
<event>
 5    1  0.1103865E-009  0.9118800E+02  0.7818608E-02  0.1130116E+00
         25   -1    0    0    0    0  0.00000000000E+00  0.00000000000E+00  0.99999998245E-14  0.12500000000E+03  0.12500000000E+03 0.  0.
        -11    1    3    3    0    0  0.46770708298E+02 -0.11073020583E+02  0.30988823346E+02  0.57187569559E+02  0.51100000000E-03 0.  1.
         23    2    1    0    0    0  0.19169881996E+02  0.13377967449E+02  0.13597164107E+02  0.97956752034E+02  0.94149816827E+02 0.  0.
         11    1    3    3    0    0 -0.27600826302E+02  0.24450988032E+02 -0.17391659239E+02  0.40769182474E+02  0.51100000000E-03 0. -1.
         22    1    1    0    0    0 -0.19169881996E+02 -0.13377967449E+02 -0.13597164107E+02  0.27043247966E+02  0.00000000000E+00 0.  1.
</event>
<event>
 5    1  0.1103865E-009  0.9118800E+02  0.7818608E-02  0.1130116E+00
         25   -1    0    0    0    0  0.00000000000E+00  0.00000000000E+00  0.99999998245E-14  0.12500000000E+03  0.12500000000E+03 0.  0.
        -11    1    3    3    0    0 -0.29150264766E+02  0.15546653920E+02  0.86985821836E+00  0.33048343947E+02  0.51100000000E-03 0.  1.
         23    2    1    0    0    0  0.24484656219E+02 -0.15801158440E+02 -0.49408634448E+01  0.95443492598E+02  0.90751711552E+02 0.  0.
         11    1    3    3    0    0  0.53634920985E+02 -0.31347812360E+02 -0.58107216631E+01  0.62395148652E+02  0.51100000000E-03 0. -1.
         22    1    1    0    0    0 -0.24484656219E+02  0.15801158440E+02  0.49408634448E+01  0.29556507402E+02  0.00000000000E+00 0. -1.
</event>
<event>
 5    1  0.1103865E-009  0.9118800E+02  0.7818608E-02  0.1130116E+00
         25   -1    0    0    0    0  0.00000000000E+00  0.00000000000E+00  0.99999998245E-14  0.12500000000E+03  0.12500000000E+03 0.  0.
        -11    1    3    3    0    0 -0.30742649658E+02  0.46638124016E+02  0.85534294764E+01  0.56510054643E+02  0.51100000000E-03 0. -1.
         23    2    1    0    0    0 -0.26934008345E+02  0.10482374008E+02 -0.56664463597E+01  0.95547842444E+02  0.90895327773E+02 0.  0.
         11    1    3    3    0    0  0.38086413133E+01 -0.36155750008E+02 -0.14219875836E+02  0.39037787800E+02  0.51100000000E-03 0.  1.
         22    1    1    0    0    0  0.26934008345E+02 -0.10482374008E+02  0.56664463597E+01  0.29452157556E+02  0.00000000000E+00 0. -1.
</event>
<event>
 5    1  0.1103865E-009  0.9118800E+02  0.7818608E-02  0.1130116E+00
         25   -1    0    0    0    0  0.00000000000E+00  0.00000000000E+00  0.99999998245E-14  0.12500000000E+03  0.12500000000E+03 0.  0.
        -11    1    3    3    0    0 -0.33232555679E+02  0.34761424905E+02  0.47705220187E+01  0.48327190059E+02  0.51100000000E-03 0. -1.
         23    2    1    0    0    0  0.75499834323E+01  0.16898870474E+02  0.22161468725E+02  0.96126053800E+02  0.91687040796E+02 0.  0.
         11    1    3    3    0    0  0.40782539112E+02 -0.17862554432E+02  0.17390946707E+02  0.47798863740E+02  0.51100000000E-03 0.  1.
         22    1    1    0    0    0 -0.75499834323E+01 -0.16898870474E+02 -0.22161468725E+02  0.28873946200E+02  0.00000000000E+00 0. -1.
</event>
<event>
 5    1  0.1103865E-009  0.9118800E+02  0.7818608E-02  0.1130116E+00
         25   -1    0    0    0    0  0.00000000000E+00  0.00000000000E+00  0.99999998245E-14  0.12500000000E+03  0.12500000000E+03 0.  0.
        -11    1    3    3    0    0  0.68848369369E+01  0.28669141882E+02 -0.40754533538E+02  0.50301617072E+02  0.51100000000E-03 0.  1.
         23    2    1    0    0    0 -0.24116718011E+02  0.16376775597E+02 -0.16907225404E+02  0.91300309535E+02  0.84853269729E+02 0.  0.
         11    1    3    3    0    0 -0.31001554948E+02 -0.12292366285E+02  0.23847308134E+02  0.40998692462E+02  0.51100000000E-03 0. -1.
         22    1    1    0    0    0  0.24116718011E+02 -0.16376775597E+02  0.16907225404E+02  0.33699690465E+02  0.00000000000E+00 0.  1.
</event>
<event>
 5    1  0.1103865E-009  0.9118800E+02  0.7818608E-02  0.1130116E+00
         25   -1    0    0    0    0  0.00000000000E+00  0.00000000000E+00  0.99999998245E-14  0.12500000000E+03  0.12500000000E+03 0.  0.
        -11    1    3    3    0    0 -0.27222598845E+02 -0.18428304479E+02  0.14925280209E+02  0.36103133983E+02  0.51100000000E-03 0. -1.
         23    2    1    0    0    0 -0.10268788277E+01  0.28833010204E+02 -0.83890157369E+01  0.94953826490E+02  0.90074727990E+02 0.  0.
         11    1    3    3    0    0  0.26195720017E+02  0.47261314683E+02 -0.23314295946E+02  0.58850692507E+02  0.51100000000E-03 0.  1.
         22    1    1    0    0    0  0.10268788277E+01 -0.28833010204E+02  0.83890157369E+01  0.30046173510E+02  0.00000000000E+00 0.  1.
</event>
<event>
 5    1  0.1103865E-009  0.9118800E+02  0.7818608E-02  0.1130116E+00
         25   -1    0    0    0    0  0.00000000000E+00  0.00000000000E+00  0.99999998245E-14  0.12500000000E+03  0.12500000000E+03 0.  0.
        -11    1    3    3    0    0  0.37096692624E+00 -0.21726669274E+02  0.29537791746E+02  0.36669700240E+02  0.51100000000E-03 0. -1.
         23    2    1    0    0    0  0.22253648199E+02  0.15996426613E+02 -0.10285495806E+02  0.95727112432E+02  0.91141527901E+02 0.  0.
         11    1    3    3    0    0  0.21882681273E+02  0.37723095887E+02 -0.39823287552E+02  0.59057412192E+02  0.51100000000E-03 0.  1.
         22    1    1    0    0    0 -0.22253648199E+02 -0.15996426613E+02  0.10285495806E+02  0.29272887568E+02  0.00000000000E+00 0.  1.
</event>
<event>
 5    1  0.1103865E-009  0.9118800E+02  0.7818608E-02  0.1130116E+00
         25   -1    0    0    0    0  0.00000000000E+00  0.00000000000E+00  0.99999998245E-14  0.12500000000E+03  0.12500000000E+03 0.  0.
        -11    1    3    3    0    0 -0.85839433023E+01  0.39760539103E+02  0.33779205490E+02  0.52873616069E+02  0.51100000000E-03 0.  1.
         23    2    1    0    0    0  0.20110163392E+02  0.21212004113E+02  0.11930238568E+02  0.93429469716E+02  0.87933881007E+02 0.  0.
         11    1    3    3    0    0  0.28694106694E+02 -0.18548534991E+02 -0.21848966922E+02  0.40555853647E+02  0.51100000000E-03 0. -1.
         22    1    1    0    0    0 -0.20110163392E+02 -0.21212004113E+02 -0.11930238568E+02  0.31570530284E+02  0.00000000000E+00 0.  1.
</event>
<event>
 5    1  0.1103865E-009  0.9118800E+02  0.7818608E-02  0.1130116E+00
         25   -1    0    0    0    0  0.00000000000E+00  0.00000000000E+00  0.99999998245E-14  0.12500000000E+03  0.12500000000E+03 0.  0.
        -11    1    3    3    0    0 -0.37780859220E+01  0.27000501534E+02 -0.28408685201E+02  0.39374540142E+02  0.51100000000E-03 0.  1.
         23    2    1    0    0    0  0.12281862403E+02 -0.48317670669E+01  0.20935240592E+02  0.10025177954E+03  0.97149085874E+02 0.  0.
         11    1    3    3    0    0  0.16059948325E+02 -0.31832268601E+02  0.49343925792E+02  0.60877239403E+02  0.51100000000E-03 0. -1.
         22    1    1    0    0    0 -0.12281862403E+02  0.48317670669E+01 -0.20935240592E+02  0.24748220455E+02  0.00000000000E+00 0. -1.
</event>
<event>
 5    1  0.1103865E-009  0.9118800E+02  0.7818608E-02  0.1130116E+00
         25   -1    0    0    0    0  0.00000000000E+00  0.00000000000E+00  0.99999998245E-14  0.12500000000E+03  0.12500000000E+03 0.  0.
        -11    1    3    3    0    0 -0.41669952706E+02 -0.39964537960E+02 -0.67009259287E+01  0.58124449773E+02  0.51100000000E-03 0.  1.
         23    2    1    0    0    0 -0.10080749593E+02 -0.22683142394E+02 -0.16194269947E+02  0.95362172139E+02  0.90639632803E+02 0.  0.
         11    1    3    3    0    0  0.31589203113E+02  0.17281395566E+02 -0.94933440185E+01  0.37237722365E+02  0.51100000000E-03 0. -1.
         22    1    1    0    0    0  0.10080749593E+02  0.22683142394E+02  0.16194269947E+02  0.29637827861E+02  0.00000000000E+00 0.  1.
</event>
<event>
 5    1  0.1103865E-009  0.9118800E+02  0.7818608E-02  0.1130116E+00
         25   -1    0    0    0    0  0.00000000000E+00  0.00000000000E+00  0.99999998245E-14  0.12500000000E+03  0.12500000000E+03 0.  0.
        -11    1    3    3    0    0  0.20889025021E+02  0.27212506555E+02 -0.62723132187E+01  0.34874256877E+02  0.51100000000E-03 0. -1.
         23    2    1    0    0    0  0.48728469816E+01 -0.29864209294E+02  0.17207686759E+01  0.94691970053E+02  0.89710604241E+02 0.  0.
         11    1    3    3    0    0 -0.16016178040E+02 -0.57076715849E+02  0.79930818946E+01  0.59817713176E+02  0.51100000000E-03 0.  1.
         22    1    1    0    0    0 -0.48728469816E+01  0.29864209294E+02 -0.17207686759E+01  0.30308029947E+02  0.00000000000E+00 0.  1.
</event>
<event>
 5    1  0.1103865E-009  0.9118800E+02  0.7818608E-02  0.1130116E+00
         25   -1    0    0    0    0  0.00000000000E+00  0.00000000000E+00  0.99999998245E-14  0.12500000000E+03  0.12500000000E+03 0.  0.
        -11    1    3    3    0    0  0.30480910064E+02  0.34025849299E+02 -0.26459659566E+02  0.52791645963E+02  0.51100000000E-03 0. -1.
         23    2    1    0    0    0  0.19451750295E+02 -0.65715287211E+01 -0.21695542294E+02  0.95129410205E+02  0.90318063261E+02 0.  0.
         11    1    3    3    0    0 -0.11029159769E+02 -0.40597378020E+02  0.47641172727E+01  0.42337764242E+02  0.51100000000E-03 0.  1.
         22    1    1    0    0    0 -0.19451750295E+02  0.65715287211E+01  0.21695542294E+02  0.29870589795E+02  0.00000000000E+00 0. -1.
</event>
<event>
 5    1  0.1103865E-009  0.9118800E+02  0.7818608E-02  0.1130116E+00
         25   -1    0    0    0    0  0.00000000000E+00  0.00000000000E+00  0.99999998245E-14  0.12500000000E+03  0.12500000000E+03 0.  0.
        -11    1    3    3    0    0 -0.15437588154E+02  0.54688064761E+01 -0.27397383707E+02  0.31919329669E+02  0.51100000000E-03 0. -1.
         23    2    1    0    0    0  0.10182208709E+02  0.10129197408E+02  0.28222483019E+02  0.93333194634E+02  0.87796917135E+02 0.  0.
         11    1    3    3    0    0  0.25619796863E+02  0.46603909317E+01  0.55619866726E+02  0.61413864964E+02  0.51100000000E-03 0.  1.
         22    1    1    0    0    0 -0.10182208709E+02 -0.10129197408E+02 -0.28222483019E+02  0.31666805366E+02  0.00000000000E+00 0.  1.
</event>
<event>
 5    1  0.1103865E-009  0.9118800E+02  0.7818608E-02  0.1130116E+00
         25   -1    0    0    0    0  0.00000000000E+00  0.00000000000E+00  0.99999998245E-14  0.12500000000E+03  0.12500000000E+03 0.  0.
        -11    1    3    3    0    0 -0.37103346288E+02  0.61967424866E+01  0.16028329150E+02  0.40889671786E+02  0.51100000000E-03 0. -1.
         23    2    1    0    0    0  0.10211410330E+02  0.26154376189E+02 -0.51809275342E+01  0.96448882599E+02  0.92126112746E+02 0.  0.
         11    1    3    3    0    0  0.47314756617E+02  0.19957633703E+02 -0.21209256684E+02  0.55559210812E+02  0.51100000000E-03 0.  1.
         22    1    1    0    0    0 -0.10211410330E+02 -0.26154376189E+02  0.51809275342E+01  0.28551117401E+02  0.00000000000E+00 0.  1.
</event>
<event>
 5    1  0.1103865E-009  0.9118800E+02  0.7818608E-02  0.1130116E+00
         25   -1    0    0    0    0  0.00000000000E+00  0.00000000000E+00  0.99999998245E-14  0.12500000000E+03  0.12500000000E+03 0.  0.
        -11    1    3    3    0    0  0.31637139550E+02  0.13831797229E+02 -0.12115010685E+01  0.34549890717E+02  0.51100000000E-03 0.  1.
         23    2    1    0    0    0 -0.26756635062E+02  0.61377038985E+01 -0.13014929916E+02  0.94619458041E+02  0.89609511271E+02 0.  0.
         11    1    3    3    0    0 -0.58393774612E+02 -0.76940933303E+01 -0.11803428847E+02  0.60069567324E+02  0.51100000000E-03 0. -1.
         22    1    1    0    0    0  0.26756635062E+02 -0.61377038985E+01  0.13014929916E+02  0.30380541959E+02  0.00000000000E+00 0. -1.
</event>
<event>
 5    1  0.1103865E-009  0.9118800E+02  0.7818608E-02  0.1130116E+00
         25   -1    0    0    0    0  0.00000000000E+00  0.00000000000E+00  0.99999998245E-14  0.12500000000E+03  0.12500000000E+03 0.  0.
        -11    1    3    3    0    0 -0.15369775386E+02 -0.12785713088E+02 -0.37642942933E+02  0.42622712343E+02  0.51100000000E-03 0.  1.
         23    2    1    0    0    0 -0.16959816096E+02 -0.21150716408E+02  0.13670402835E+02  0.94637719449E+02  0.89634981242E+02 0.  0.
         11    1    3    3    0    0 -0.15900407097E+01 -0.83650033200E+01  0.51313345768E+02  0.52015007105E+02  0.51100000000E-03 0. -1.
         22    1    1    0    0    0  0.16959816096E+02  0.21150716408E+02 -0.13670402835E+02  0.30362280551E+02  0.00000000000E+00 0. -1.
</event>
<event>
 5    1  0.1103865E-009  0.9118800E+02  0.7818608E-02  0.1130116E+00
         25   -1    0    0    0    0  0.00000000000E+00  0.00000000000E+00  0.99999998245E-14  0.12500000000E+03  0.12500000000E+03 0.  0.
        -11    1    3    3    0    0  0.20308332987E+01 -0.56711666873E+01  0.39206557413E+02  0.39666617702E+02  0.51100000000E-03 0.  1.
         23    2    1    0    0    0  0.26900149166E+02  0.42128595423E+01 -0.10255790459E+02  0.95904511542E+02  0.91384505719E+02 0.  0.
         11    1    3    3    0    0  0.24869315867E+02  0.98840262296E+01 -0.49462347872E+02  0.56237893840E+02  0.51100000000E-03 0. -1.
         22    1    1    0    0    0 -0.26900149166E+02 -0.42128595423E+01  0.10255790459E+02  0.29095488458E+02  0.00000000000E+00 0. -1.
</event>
<event>
 5    1  0.1103865E-009  0.9118800E+02  0.7818608E-02  0.1130116E+00
         25   -1    0    0    0    0  0.00000000000E+00  0.00000000000E+00  0.99999998245E-14  0.12500000000E+03  0.12500000000E+03 0.  0.
        -11    1    3    3    0    0  0.38548665844E+02 -0.12473755395E+02  0.44634884716E+02  0.60281565556E+02  0.51100000000E-03 0.  1.
         23    2    1    0    0    0  0.20427430248E+02 -0.11050964639E+02  0.93688439997E+01  0.99956458639E+02  0.96768355674E+02 0.  0.
         11    1    3    3    0    0 -0.18121235596E+02  0.14227907558E+01 -0.35266040717E+02  0.39674893083E+02  0.51100000000E-03 0. -1.
         22    1    1    0    0    0 -0.20427430248E+02  0.11050964639E+02 -0.93688439997E+01  0.25043541361E+02  0.00000000000E+00 0.  1.
</event>
<event>
 5    1  0.1103865E-009  0.9118800E+02  0.7818608E-02  0.1130116E+00
         25   -1    0    0    0    0  0.00000000000E+00  0.00000000000E+00  0.99999998245E-14  0.12500000000E+03  0.12500000000E+03 0.  0.
        -11    1    3    3    0    0  0.43298778817E+01 -0.29921941219E+02 -0.38206446397E+02  0.48721688757E+02  0.51100000000E-03 0. -1.
         23    2    1    0    0    0  0.28274164505E+02 -0.11866469560E+02 -0.42194154227E+01  0.94047698877E+02  0.88808359512E+02 0.  0.
         11    1    3    3    0    0  0.23944286624E+02  0.18055471658E+02  0.33987030974E+02  0.45326010120E+02  0.51100000000E-03 0.  1.
         22    1    1    0    0    0 -0.28274164505E+02  0.11866469560E+02  0.42194154227E+01  0.30952301123E+02  0.00000000000E+00 0.  1.
</event>
<event>
 5    1  0.1103865E-009  0.9118800E+02  0.7818608E-02  0.1130116E+00
         25   -1    0    0    0    0  0.00000000000E+00  0.00000000000E+00  0.99999998245E-14  0.12500000000E+03  0.12500000000E+03 0.  0.
        -11    1    3    3    0    0  0.50278540362E+02 -0.24516311020E+02 -0.70596497368E+01  0.56381023240E+02  0.51100000000E-03 0.  1.
         23    2    1    0    0    0  0.14312522581E+02 -0.74654186527E+01 -0.20962510113E+02  0.98542343102E+02  0.94924105345E+02 0.  0.
         11    1    3    3    0    0 -0.35966017781E+02  0.17050892367E+02 -0.13902860377E+02  0.42161319862E+02  0.51100000000E-03 0. -1.
         22    1    1    0    0    0 -0.14312522581E+02  0.74654186527E+01  0.20962510113E+02  0.26457656898E+02  0.00000000000E+00 0.  1.
</event>
<event>
 5    1  0.1103865E-009  0.9118800E+02  0.7818608E-02  0.1130116E+00
         25   -1    0    0    0    0  0.00000000000E+00  0.00000000000E+00  0.99999998245E-14  0.12500000000E+03  0.12500000000E+03 0.  0.
        -11    1    3    3    0    0  0.36507282491E+02  0.75719048909E+00 -0.24091632897E+02  0.43746563159E+02  0.51100000000E-03 0. -1.
         23    2    1    0    0    0 -0.74774287192E+01  0.20539512989E+02 -0.24749978730E+02  0.91979627785E+02  0.85848162160E+02 0.  0.
         11    1    3    3    0    0 -0.43984711210E+02  0.19782322500E+02 -0.65834583297E+00  0.48233064626E+02  0.51100000000E-03 0.  1.
         22    1    1    0    0    0  0.74774287192E+01 -0.20539512989E+02  0.24749978730E+02  0.33020372215E+02  0.00000000000E+00 0. -1.
</event>
<event>
 5    1  0.1103865E-009  0.9118800E+02  0.7818608E-02  0.1130116E+00
         25   -1    0    0    0    0  0.00000000000E+00  0.00000000000E+00  0.99999998245E-14  0.12500000000E+03  0.12500000000E+03 0.  0.
        -11    1    3    3    0    0 -0.11798356569E+02 -0.19112169280E+02  0.31130200821E+02  0.38387050365E+02  0.51100000000E-03 0.  1.
         23    2    1    0    0    0  0.30881331759E+02  0.48815441685E+00  0.11740849694E+01  0.94092502181E+02  0.88871398915E+02 0.  0.
         11    1    3    3    0    0  0.42679688328E+02  0.19600323697E+02 -0.29956115852E+02  0.55705451816E+02  0.51100000000E-03 0. -1.
         22    1    1    0    0    0 -0.30881331759E+02 -0.48815441685E+00 -0.11740849694E+01  0.30907497819E+02  0.00000000000E+00 0. -1.
</event>
<event>
 5    1  0.1103865E-009  0.9118800E+02  0.7818608E-02  0.1130116E+00
         25   -1    0    0    0    0  0.00000000000E+00  0.00000000000E+00  0.99999998245E-14  0.12500000000E+03  0.12500000000E+03 0.  0.
        -11    1    3    3    0    0  0.67457910395E+01  0.23765870893E+01  0.51486823651E+02  0.51981216539E+02  0.51100000000E-03 0. -1.
         23    2    1    0    0    0  0.62918386720E+01  0.24924095263E+02  0.13999970708E+02  0.95728906095E+02  0.91143987865E+02 0.  0.
         11    1    3    3    0    0 -0.45395236753E+00  0.22547508174E+02 -0.37486852944E+02  0.43747689556E+02  0.51100000000E-03 0.  1.
         22    1    1    0    0    0 -0.62918386720E+01 -0.24924095263E+02 -0.13999970708E+02  0.29271093905E+02  0.00000000000E+00 0. -1.
</event>
<event>
 5    1  0.1103865E-009  0.9118800E+02  0.7818608E-02  0.1130116E+00
         25   -1    0    0    0    0  0.00000000000E+00  0.00000000000E+00  0.99999998245E-14  0.12500000000E+03  0.12500000000E+03 0.  0.
        -11    1    3    3    0    0  0.48783701524E+02  0.72853094923E+01  0.12913891935E+02  0.50987193235E+02  0.51100000000E-03 0. -1.
         23    2    1    0    0    0  0.52119778646E+01  0.16843866128E+02 -0.13468330084E+02  0.10281269609E+03  0.10039010919E+03 0.  0.
         11    1    3    3    0    0 -0.43571723660E+02  0.95585566360E+01 -0.26382222018E+02  0.51825502858E+02  0.51100000000E-03 0.  1.
         22    1    1    0    0    0 -0.52119778646E+01 -0.16843866128E+02  0.13468330084E+02  0.22187303907E+02  0.00000000000E+00 0.  1.
</event>
<event>
 5    1  0.1103865E-009  0.9118800E+02  0.7818608E-02  0.1130116E+00
         25   -1    0    0    0    0  0.00000000000E+00  0.00000000000E+00  0.99999998245E-14  0.12500000000E+03  0.12500000000E+03 0.  0.
        -11    1    3    3    0    0  0.37703932155E+02  0.30822223186E+01  0.27947414015E+02  0.47033440708E+02  0.51100000000E-03 0. -1.
         23    2    1    0    0    0  0.82879303574E+01 -0.27329277508E+02  0.26755106592E+01  0.96316597901E+02  0.91946448954E+02 0.  0.
         11    1    3    3    0    0 -0.29416001798E+02 -0.30411499826E+02 -0.25271903356E+02  0.49283157193E+02  0.51100000000E-03 0.  1.
         22    1    1    0    0    0 -0.82879303574E+01  0.27329277508E+02 -0.26755106592E+01  0.28683402099E+02  0.00000000000E+00 0.  1.
</event>
<event>
 5    1  0.1103865E-009  0.9118800E+02  0.7818608E-02  0.1130116E+00
         25   -1    0    0    0    0  0.00000000000E+00  0.00000000000E+00  0.99999998245E-14  0.12500000000E+03  0.12500000000E+03 0.  0.
        -11    1    3    3    0    0  0.32528102083E+01  0.17651441253E+02 -0.36045860062E+02  0.40267333912E+02  0.51100000000E-03 0. -1.
         23    2    1    0    0    0 -0.26721391213E+02 -0.12180643407E+02 -0.31347769031E+00  0.95631665175E+02  0.91010528477E+02 0.  0.
         11    1    3    3    0    0 -0.29974201421E+02 -0.29832084660E+02  0.35732382371E+02  0.55364331263E+02  0.51100000000E-03 0.  1.
         22    1    1    0    0    0  0.26721391213E+02  0.12180643407E+02  0.31347769031E+00  0.29368334825E+02  0.00000000000E+00 0.  1.
</event>
<event>
 5    1  0.1103865E-009  0.9118800E+02  0.7818608E-02  0.1130116E+00
         25   -1    0    0    0    0  0.00000000000E+00  0.00000000000E+00  0.99999998245E-14  0.12500000000E+03  0.12500000000E+03 0.  0.
        -11    1    3    3    0    0 -0.32992879154E+02 -0.11262501087E+02  0.70388251437E+01  0.35565700686E+02  0.51100000000E-03 0. -1.
         23    2    1    0    0    0  0.19501284304E+02 -0.17525679957E+02 -0.17115510407E+02  0.93688815992E+02  0.88301778001E+02 0.  0.
         11    1    3    3    0    0  0.52494163459E+02 -0.62631788696E+01 -0.24154335551E+02  0.58123115306E+02  0.51100000000E-03 0.  1.
         22    1    1    0    0    0 -0.19501284304E+02  0.17525679957E+02  0.17115510407E+02  0.31311184008E+02  0.00000000000E+00 0.  1.
</event>
<event>
 5    1  0.1103865E-009  0.9118800E+02  0.7818608E-02  0.1130116E+00
         25   -1    0    0    0    0  0.00000000000E+00  0.00000000000E+00  0.99999998245E-14  0.12500000000E+03  0.12500000000E+03 0.  0.
        -11    1    3    3    0    0 -0.49135635551E+02 -0.25669218063E+02 -0.12272236204E+02  0.56778756755E+02  0.51100000000E-03 0.  1.
         23    2    1    0    0    0 -0.15441073010E+02 -0.81725167499E+01 -0.22892509429E+02  0.96202712737E+02  0.91791492984E+02 0.  0.
         11    1    3    3    0    0  0.33694562541E+02  0.17496701313E+02 -0.10620273225E+02  0.39423955982E+02  0.51100000000E-03 0. -1.
         22    1    1    0    0    0  0.15441073010E+02  0.81725167499E+01  0.22892509429E+02  0.28797287263E+02  0.00000000000E+00 0.  1.
</event>
<event>
 5    1  0.1103865E-009  0.9118800E+02  0.7818608E-02  0.1130116E+00
         25   -1    0    0    0    0  0.00000000000E+00  0.00000000000E+00  0.99999998245E-14  0.12500000000E+03  0.12500000000E+03 0.  0.
        -11    1    3    3    0    0 -0.49044735290E+02 -0.13017516438E+02 -0.47899784952E+01  0.50968477396E+02  0.51100000000E-03 0. -1.
         23    2    1    0    0    0 -0.19467766585E+02  0.15555862134E+02 -0.18108324768E+02  0.94195938443E+02  0.89016765896E+02 0.  0.
         11    1    3    3    0    0  0.29576968705E+02  0.28573378572E+02 -0.13318346273E+02  0.43227461046E+02  0.51100000000E-03 0.  1.
         22    1    1    0    0    0  0.19467766585E+02 -0.15555862134E+02  0.18108324768E+02  0.30804061557E+02  0.00000000000E+00 0. -1.
</event>
<event>
 5    1  0.1103865E-009  0.9118800E+02  0.7818608E-02  0.1130116E+00
         25   -1    0    0    0    0  0.00000000000E+00  0.00000000000E+00  0.99999998245E-14  0.12500000000E+03  0.12500000000E+03 0.  0.
        -11    1    3    3    0    0  0.64517303133E+01  0.36829047433E+02  0.71642729138E+00  0.37396748885E+02  0.51100000000E-03 0. -1.
         23    2    1    0    0    0 -0.10909673483E+02 -0.18530141718E+02 -0.16478461760E+02  0.97908916050E+02  0.94086284933E+02 0.  0.
         11    1    3    3    0    0 -0.17361403797E+02 -0.55359189151E+02 -0.17194889051E+02  0.60512167165E+02  0.51100000000E-03 0.  1.
         22    1    1    0    0    0  0.10909673483E+02  0.18530141718E+02  0.16478461760E+02  0.27091083950E+02  0.00000000000E+00 0.  1.
</event>
<event>
 5    1  0.1103865E-009  0.9118800E+02  0.7818608E-02  0.1130116E+00
         25   -1    0    0    0    0  0.00000000000E+00  0.00000000000E+00  0.99999998245E-14  0.12500000000E+03  0.12500000000E+03 0.  0.
        -11    1    3    3    0    0  0.12382696312E+02  0.17996729065E+02 -0.42985777532E+02  0.48218155246E+02  0.51100000000E-03 0.  1.
         23    2    1    0    0    0  0.12824474959E+02 -0.21007976168E+02 -0.16848246818E+02  0.95172736607E+02  0.90378007014E+02 0.  0.
         11    1    3    3    0    0  0.44177864686E+00 -0.39004705233E+02  0.26137530715E+02  0.46954581361E+02  0.51100000000E-03 0. -1.
         22    1    1    0    0    0 -0.12824474959E+02  0.21007976168E+02  0.16848246818E+02  0.29827263393E+02  0.00000000000E+00 0. -1.
</event>
<event>
 5    1  0.1103865E-009  0.9118800E+02  0.7818608E-02  0.1130116E+00
         25   -1    0    0    0    0  0.00000000000E+00  0.00000000000E+00  0.99999998245E-14  0.12500000000E+03  0.12500000000E+03 0.  0.
        -11    1    3    3    0    0 -0.28904831689E+02 -0.35652110521E+02 -0.18552031784E+02  0.49504950895E+02  0.51100000000E-03 0. -1.
         23    2    1    0    0    0 -0.11011757526E+02  0.55946597243E+01 -0.27051675673E+02  0.95261940582E+02  0.90501299136E+02 0.  0.
         11    1    3    3    0    0  0.17893074163E+02  0.41246770245E+02 -0.84996438887E+01  0.45756989686E+02  0.51100000000E-03 0.  1.
         22    1    1    0    0    0  0.11011757526E+02 -0.55946597243E+01  0.27051675673E+02  0.29738059418E+02  0.00000000000E+00 0. -1.
</event>
<event>
 5    1  0.1103865E-009  0.9118800E+02  0.7818608E-02  0.1130116E+00
         25   -1    0    0    0    0  0.00000000000E+00  0.00000000000E+00  0.99999998245E-14  0.12500000000E+03  0.12500000000E+03 0.  0.
        -11    1    3    3    0    0  0.16879623840E+02 -0.32182819766E+02  0.30751263713E+02  0.47605627916E+02  0.51100000000E-03 0.  1.
         23    2    1    0    0    0  0.25183706981E+02 -0.89760653410E+01 -0.11000446973E+02  0.96089817021E+02  0.91637624670E+02 0.  0.
         11    1    3    3    0    0  0.83040831407E+01  0.23206754425E+02 -0.41751710686E+02  0.48484189105E+02  0.51100000000E-03 0. -1.
         22    1    1    0    0    0 -0.25183706981E+02  0.89760653410E+01  0.11000446973E+02  0.28910182979E+02  0.00000000000E+00 0.  1.
</event>
<event>
 5    1  0.1103865E-009  0.9118800E+02  0.7818608E-02  0.1130116E+00
         25   -1    0    0    0    0  0.00000000000E+00  0.00000000000E+00  0.99999998245E-14  0.12500000000E+03  0.12500000000E+03 0.  0.
        -11    1    3    3    0    0 -0.58380751704E+02  0.52336520178E+01 -0.56628289147E+01  0.58887782388E+02  0.51100000000E-03 0.  1.
         23    2    1    0    0    0 -0.23780819473E+02  0.48451045780E+00 -0.17176099012E+02  0.95660938964E+02  0.91050726197E+02 0.  0.
         11    1    3    3    0    0  0.34599932231E+02 -0.47491415600E+01 -0.11513270097E+02  0.36773156576E+02  0.51100000000E-03 0. -1.
         22    1    1    0    0    0  0.23780819473E+02 -0.48451045780E+00  0.17176099012E+02  0.29339061036E+02  0.00000000000E+00 0.  1.
</event>
<event>
 5    1  0.1103865E-009  0.9118800E+02  0.7818608E-02  0.1130116E+00
         25   -1    0    0    0    0  0.00000000000E+00  0.00000000000E+00  0.99999998245E-14  0.12500000000E+03  0.12500000000E+03 0.  0.
        -11    1    3    3    0    0 -0.20350381237E+02  0.55225853945E+01  0.37749060629E+02  0.43239201479E+02  0.51100000000E-03 0. -1.
         23    2    1    0    0    0  0.14728646884E+02  0.25338273164E+02  0.47665929993E+01  0.95306877315E+02  0.90563344289E+02 0.  0.
         11    1    3    3    0    0  0.35079028121E+02  0.19815687770E+02 -0.32982467630E+02  0.52067675835E+02  0.51100000000E-03 0.  1.
         22    1    1    0    0    0 -0.14728646884E+02 -0.25338273164E+02 -0.47665929993E+01  0.29693122685E+02  0.00000000000E+00 0.  1.
</event>
<event>
 5    1  0.1103865E-009  0.9118800E+02  0.7818608E-02  0.1130116E+00
         25   -1    0    0    0    0  0.00000000000E+00  0.00000000000E+00  0.99999998245E-14  0.12500000000E+03  0.12500000000E+03 0.  0.
        -11    1    3    3    0    0  0.45619326773E+01  0.38028251102E+02 -0.11642884640E+02  0.40031436080E+02  0.51100000000E-03 0.  1.
         23    2    1    0    0    0 -0.23918621560E+02 -0.34423259388E+01  0.14593422042E+02  0.96770263336E+02  0.92561146460E+02 0.  0.
         11    1    3    3    0    0 -0.28480554238E+02 -0.41470577041E+02  0.26236306682E+02  0.56738827256E+02  0.51100000000E-03 0. -1.
         22    1    1    0    0    0  0.23918621560E+02  0.34423259388E+01 -0.14593422042E+02  0.28229736664E+02  0.00000000000E+00 0. -1.
</event>
<event>
 5    1  0.1103865E-009  0.9118800E+02  0.7818608E-02  0.1130116E+00
         25   -1    0    0    0    0  0.00000000000E+00  0.00000000000E+00  0.99999998245E-14  0.12500000000E+03  0.12500000000E+03 0.  0.
        -11    1    3    3    0    0 -0.39521599283E+02 -0.40883363890E+02 -0.32881239754E+01  0.56958037294E+02  0.51100000000E-03 0. -1.
         23    2    1    0    0    0 -0.26836991746E+02 -0.53971484481E+01  0.83178381799E+01  0.96389865968E+02  0.92046002042E+02 0.  0.
         11    1    3    3    0    0  0.12684607537E+02  0.35486215442E+02  0.11605962155E+02  0.39431828674E+02  0.51100000000E-03 0.  1.
         22    1    1    0    0    0  0.26836991746E+02  0.53971484481E+01 -0.83178381799E+01  0.28610134032E+02  0.00000000000E+00 0. -1.
</event>
<event>
 5    1  0.1103865E-009  0.9118800E+02  0.7818608E-02  0.1130116E+00
         25   -1    0    0    0    0  0.00000000000E+00  0.00000000000E+00  0.99999998245E-14  0.12500000000E+03  0.12500000000E+03 0.  0.
        -11    1    3    3    0    0  0.48731469776E+01  0.53389239519E+02  0.32189465601E+01  0.53707728262E+02  0.51100000000E-03 0. -1.
         23    2    1    0    0    0 -0.16038982079E+02  0.15775363982E+02  0.14546574594E+02  0.98209817333E+02  0.94485206955E+02 0.  0.
         11    1    3    3    0    0 -0.20912129057E+02 -0.37613875537E+02  0.11327628034E+02  0.44502089071E+02  0.51100000000E-03 0.  1.
         22    1    1    0    0    0  0.16038982079E+02 -0.15775363982E+02 -0.14546574594E+02  0.26790182667E+02  0.00000000000E+00 0. -1.
</event>
<event>
 5    1  0.1103865E-009  0.9118800E+02  0.7818608E-02  0.1130116E+00
         25   -1    0    0    0    0  0.00000000000E+00  0.00000000000E+00  0.99999998245E-14  0.12500000000E+03  0.12500000000E+03 0.  0.
        -11    1    3    3    0    0 -0.59863083842E+01  0.25800012898E+02  0.45349273745E+02  0.52516979950E+02  0.51100000000E-03 0. -1.
         23    2    1    0    0    0 -0.25688689236E+02  0.19985428789E+02  0.15005903672E+02  0.89160032596E+02  0.81639501156E+02 0.  0.
         11    1    3    3    0    0 -0.19702380852E+02 -0.58145841089E+01 -0.30343370073E+02  0.36643052646E+02  0.51100000000E-03 0.  1.
         22    1    1    0    0    0  0.25688689236E+02 -0.19985428789E+02 -0.15005903672E+02  0.35839967404E+02  0.00000000000E+00 0.  1.
</event>
<event>
 5    1  0.1103865E-009  0.9118800E+02  0.7818608E-02  0.1130116E+00
         25   -1    0    0    0    0  0.00000000000E+00  0.00000000000E+00  0.99999998245E-14  0.12500000000E+03  0.12500000000E+03 0.  0.
        -11    1    3    3    0    0  0.53385086989E+02 -0.29845083208E+02  0.10853169091E+02  0.62116727088E+02  0.51100000000E-03 0.  1.
         23    2    1    0    0    0  0.22231267257E+02 -0.17073303230E+02  0.76802816573E+01  0.95936042021E+02  0.91427624410E+02 0.  0.
         11    1    3    3    0    0 -0.31153819731E+02  0.12771779978E+02 -0.31728874338E+01  0.33819314934E+02  0.51100000000E-03 0. -1.
         22    1    1    0    0    0 -0.22231267257E+02  0.17073303230E+02 -0.76802816573E+01  0.29063957979E+02  0.00000000000E+00 0.  1.
</event>
<event>
 5    1  0.1103865E-009  0.9118800E+02  0.7818608E-02  0.1130116E+00
         25   -1    0    0    0    0  0.00000000000E+00  0.00000000000E+00  0.99999998245E-14  0.12500000000E+03  0.12500000000E+03 0.  0.
        -11    1    3    3    0    0 -0.30504421768E+02 -0.31280802401E+02 -0.39445079365E+01  0.43869892744E+02  0.51100000000E-03 0.  1.
         23    2    1    0    0    0  0.19597072719E+02 -0.20525675825E+02  0.58093834953E+01  0.96032819195E+02  0.91559842718E+02 0.  0.
         11    1    3    3    0    0  0.50101494487E+02  0.10755126577E+02  0.97538914318E+01  0.52162926450E+02  0.51100000000E-03 0. -1.
         22    1    1    0    0    0 -0.19597072719E+02  0.20525675825E+02 -0.58093834953E+01  0.28967180805E+02  0.00000000000E+00 0. -1.
</event>
<event>
 5    1  0.1103865E-009  0.9118800E+02  0.7818608E-02  0.1130116E+00
         25   -1    0    0    0    0  0.00000000000E+00  0.00000000000E+00  0.99999998245E-14  0.12500000000E+03  0.12500000000E+03 0.  0.
        -11    1    3    3    0    0  0.38900654549E+02  0.14347051287E+02 -0.18272728126E+01  0.41502261759E+02  0.51100000000E-03 0. -1.
         23    2    1    0    0    0  0.12856337381E+01 -0.14036137414E+02  0.25419240065E+02  0.95934491694E+02  0.91425504776E+02 0.  0.
         11    1    3    3    0    0 -0.37615020811E+02 -0.28383188701E+02  0.27246512878E+02  0.54432229935E+02  0.51100000000E-03 0.  1.
         22    1    1    0    0    0 -0.12856337381E+01  0.14036137414E+02 -0.25419240065E+02  0.29065508306E+02  0.00000000000E+00 0.  1.
</event>
<event>
 5    1  0.1103865E-009  0.9118800E+02  0.7818608E-02  0.1130116E+00
         25   -1    0    0    0    0  0.00000000000E+00  0.00000000000E+00  0.99999998245E-14  0.12500000000E+03  0.12500000000E+03 0.  0.
        -11    1    3    3    0    0  0.37770455457E+02  0.15617835250E+02  0.45460682969E+01  0.41124090513E+02  0.51100000000E-03 0.  1.
         23    2    1    0    0    0  0.83851136610E+01 -0.28550684576E+02 -0.43881470925E+01  0.94921643068E+02  0.90030054798E+02 0.  0.
         11    1    3    3    0    0 -0.29385341796E+02 -0.44168519825E+02 -0.89342153894E+01  0.53797552555E+02  0.51100000000E-03 0. -1.
         22    1    1    0    0    0 -0.83851136610E+01  0.28550684576E+02  0.43881470925E+01  0.30078356932E+02  0.00000000000E+00 0. -1.
</event>
<event>
 5    1  0.1103865E-009  0.9118800E+02  0.7818608E-02  0.1130116E+00
         25   -1    0    0    0    0  0.00000000000E+00  0.00000000000E+00  0.99999998245E-14  0.12500000000E+03  0.12500000000E+03 0.  0.
        -11    1    3    3    0    0 -0.45596904252E+02 -0.24953608620E+02  0.15729195910E+02  0.54306241490E+02  0.51100000000E-03 0.  1.
         23    2    1    0    0    0 -0.28178028002E+01 -0.25977754425E+02  0.58799223244E+01  0.98216474763E+02  0.94494014047E+02 0.  0.
         11    1    3    3    0    0  0.42779101452E+02 -0.10241458053E+01 -0.98492735859E+01  0.43910233273E+02  0.51100000000E-03 0. -1.
         22    1    1    0    0    0  0.28178028002E+01  0.25977754425E+02 -0.58799223244E+01  0.26783525237E+02  0.00000000000E+00 0.  1.
</event>
<event>
 5    1  0.1103865E-009  0.9118800E+02  0.7818608E-02  0.1130116E+00
         25   -1    0    0    0    0  0.00000000000E+00  0.00000000000E+00  0.99999998245E-14  0.12500000000E+03  0.12500000000E+03 0.  0.
        -11    1    3    3    0    0 -0.26917256591E+01  0.54578129319E+02  0.91160733066E+01  0.55399642416E+02  0.51100000000E-03 0. -1.
         23    2    1    0    0    0  0.19317740074E+02  0.30162714421E+02  0.80485423585E+01  0.88288374363E+02  0.80293795469E+02 0.  0.
         11    1    3    3    0    0  0.22009465733E+02 -0.24415414898E+02 -0.10675309481E+01  0.32888731947E+02  0.51100000000E-03 0.  1.
         22    1    1    0    0    0 -0.19317740074E+02 -0.30162714421E+02 -0.80485423585E+01  0.36711625637E+02  0.00000000000E+00 0. -1.
</event>
<event>
 5    1  0.1103865E-009  0.9118800E+02  0.7818608E-02  0.1130116E+00
         25   -1    0    0    0    0  0.00000000000E+00  0.00000000000E+00  0.99999998245E-14  0.12500000000E+03  0.12500000000E+03 0.  0.
        -11    1    3    3    0    0  0.12087801349E+02 -0.32993959505E+02  0.43276144223E+02  0.55745322354E+02  0.51100000000E-03 0.  1.
         23    2    1    0    0    0  0.20721077393E+02 -0.18701764709E+02  0.62012010735E+01  0.96406749986E+02  0.92068927965E+02 0.  0.
         11    1    3    3    0    0  0.86332760447E+01  0.14292194796E+02 -0.37074943149E+02  0.40661427633E+02  0.51100000000E-03 0. -1.
         22    1    1    0    0    0 -0.20721077393E+02  0.18701764709E+02 -0.62012010735E+01  0.28593250014E+02  0.00000000000E+00 0.  1.
</event>
<event>
 5    1  0.1103865E-009  0.9118800E+02  0.7818608E-02  0.1130116E+00
         25   -1    0    0    0    0  0.00000000000E+00  0.00000000000E+00  0.99999998245E-14  0.12500000000E+03  0.12500000000E+03 0.  0.
        -11    1    3    3    0    0 -0.17194165012E+02 -0.32113394938E+02  0.26324310164E+00  0.36427719419E+02  0.51100000000E-03 0. -1.
         23    2    1    0    0    0 -0.13151623434E+02  0.25300775778E+02  0.99612444283E+01  0.94795350615E+02  0.89854536077E+02 0.  0.
         11    1    3    3    0    0  0.40425415780E+01  0.57414170716E+02  0.96980013267E+01  0.58367631196E+02  0.51100000000E-03 0.  1.
         22    1    1    0    0    0  0.13151623434E+02 -0.25300775778E+02 -0.99612444283E+01  0.30204649385E+02  0.00000000000E+00 0.  1.
</event>
<event>
 5    1  0.1103865E-009  0.9118800E+02  0.7818608E-02  0.1130116E+00
         25   -1    0    0    0    0  0.00000000000E+00  0.00000000000E+00  0.99999998245E-14  0.12500000000E+03  0.12500000000E+03 0.  0.
        -11    1    3    3    0    0 -0.85033468893E+01 -0.58009583967E+02 -0.48431043428E+01  0.58829196836E+02  0.51100000000E-03 0.  1.
         23    2    1    0    0    0  0.99807555855E+01 -0.28495912166E+02  0.34008863049E+01  0.94615817933E+02  0.89604433391E+02 0.  0.
         11    1    3    3    0    0  0.18484102475E+02  0.29513671801E+02  0.82439906478E+01  0.35786621097E+02  0.51100000000E-03 0. -1.
         22    1    1    0    0    0 -0.99807555855E+01  0.28495912166E+02 -0.34008863049E+01  0.30384182067E+02  0.00000000000E+00 0.  1.
</event>
<event>
 5    1  0.1103865E-009  0.9118800E+02  0.7818608E-02  0.1130116E+00
         25   -1    0    0    0    0  0.00000000000E+00  0.00000000000E+00  0.99999998245E-14  0.12500000000E+03  0.12500000000E+03 0.  0.
        -11    1    3    3    0    0 -0.16156216488E+02 -0.42118628261E+02  0.49134406229E+01  0.45377792772E+02  0.51100000000E-03 0. -1.
         23    2    1    0    0    0  0.24036816644E+02 -0.16424054511E+02 -0.80184534348E+01  0.94803746649E+02  0.89866215356E+02 0.  0.
         11    1    3    3    0    0  0.40193033132E+02  0.25694573750E+02 -0.12931894058E+02  0.49425953878E+02  0.51100000000E-03 0.  1.
         22    1    1    0    0    0 -0.24036816644E+02  0.16424054511E+02  0.80184534348E+01  0.30196253351E+02  0.00000000000E+00 0.  1.
</event>
<event>
 5    1  0.1103865E-009  0.9118800E+02  0.7818608E-02  0.1130116E+00
         25   -1    0    0    0    0  0.00000000000E+00  0.00000000000E+00  0.99999998245E-14  0.12500000000E+03  0.12500000000E+03 0.  0.
        -11    1    3    3    0    0 -0.29244536554E+02  0.21381332866E+02  0.17144253463E+02  0.40079043657E+02  0.51100000000E-03 0. -1.
         23    2    1    0    0    0  0.21472704953E+02  0.17569363505E+02 -0.70100364398E+01  0.96383567608E+02  0.92037448368E+02 0.  0.
         11    1    3    3    0    0  0.50717241506E+02 -0.38119693611E+01 -0.24154289903E+02  0.56304523952E+02  0.51100000000E-03 0.  1.
         22    1    1    0    0    0 -0.21472704953E+02 -0.17569363505E+02  0.70100364398E+01  0.28616432392E+02  0.00000000000E+00 0.  1.
</event>
<event>
 5    1  0.1103865E-009  0.9118800E+02  0.7818608E-02  0.1130116E+00
         25   -1    0    0    0    0  0.00000000000E+00  0.00000000000E+00  0.99999998245E-14  0.12500000000E+03  0.12500000000E+03 0.  0.
        -11    1    3    3    0    0  0.46425874917E-01 -0.12178523356E+01 -0.34809186265E+02  0.34830514902E+02  0.51100000000E-03 0.  1.
         23    2    1    0    0    0  0.14292386865E+02 -0.50769760723E+01  0.24629855934E+02  0.96074616482E+02  0.91616887747E+02 0.  0.
         11    1    3    3    0    0  0.14245960990E+02 -0.38591237367E+01  0.59439042199E+02  0.61244101580E+02  0.51100000000E-03 0. -1.
         22    1    1    0    0    0 -0.14292386865E+02  0.50769760723E+01 -0.24629855934E+02  0.28925383518E+02  0.00000000000E+00 0. -1.
</event>
<event>
 5    1  0.1103865E-009  0.9118800E+02  0.7818608E-02  0.1130116E+00
         25   -1    0    0    0    0  0.00000000000E+00  0.00000000000E+00  0.99999998245E-14  0.12500000000E+03  0.12500000000E+03 0.  0.
        -11    1    3    3    0    0 -0.45655338083E+01  0.93213693611E+01 -0.33529492240E+02  0.35099271728E+02  0.51100000000E-03 0. -1.
         23    2    1    0    0    0 -0.35123257143E+02  0.13290148055E+02  0.77932681636E+01  0.86646300617E+02  0.77695399828E+02 0.  0.
         11    1    3    3    0    0 -0.30557723335E+02  0.39687786941E+01  0.41322760403E+02  0.51547028889E+02  0.51100000000E-03 0.  1.
         22    1    1    0    0    0  0.35123257143E+02 -0.13290148055E+02 -0.77932681636E+01  0.38353699383E+02  0.00000000000E+00 0.  1.
</event>
<event>
 5    1  0.1103865E-009  0.9118800E+02  0.7818608E-02  0.1130116E+00
         25   -1    0    0    0    0  0.00000000000E+00  0.00000000000E+00  0.99999998245E-14  0.12500000000E+03  0.12500000000E+03 0.  0.
        -11    1    3    3    0    0 -0.38810678172E+02 -0.59856275455E+00  0.47002503042E+02  0.60957873241E+02  0.51100000000E-03 0.  1.
         23    2    1    0    0    0 -0.11015282789E+02 -0.57067179702E+01  0.26076694361E+02  0.96122723922E+02  0.91682500950E+02 0.  0.
         11    1    3    3    0    0  0.27795395383E+02 -0.51081552157E+01 -0.20925808681E+02  0.35164850682E+02  0.51100000000E-03 0. -1.
         22    1    1    0    0    0  0.11015282789E+02  0.57067179702E+01 -0.26076694361E+02  0.28877276078E+02  0.00000000000E+00 0.  1.
</event>
<event>
 5    1  0.1103865E-009  0.9118800E+02  0.7818608E-02  0.1130116E+00
         25   -1    0    0    0    0  0.00000000000E+00  0.00000000000E+00  0.99999998245E-14  0.12500000000E+03  0.12500000000E+03 0.  0.
        -11    1    3    3    0    0 -0.18639240239E+02 -0.18276223448E+02  0.48409818837E+02  0.54999565274E+02  0.51100000000E-03 0.  1.
         23    2    1    0    0    0  0.10708273833E+02  0.24567113364E+00  0.27432442699E+02  0.95550612991E+02  0.90899137772E+02 0.  0.
         11    1    3    3    0    0  0.29347514072E+02  0.18521894582E+02 -0.20977376138E+02  0.40551047717E+02  0.51100000000E-03 0. -1.
         22    1    1    0    0    0 -0.10708273833E+02 -0.24567113364E+00 -0.27432442699E+02  0.29449387009E+02  0.00000000000E+00 0.  1.
</event>
<event>
 5    1  0.1103865E-009  0.9118800E+02  0.7818608E-02  0.1130116E+00
         25   -1    0    0    0    0  0.00000000000E+00  0.00000000000E+00  0.99999998245E-14  0.12500000000E+03  0.12500000000E+03 0.  0.
        -11    1    3    3    0    0 -0.16631896761E+02  0.34935624111E+02  0.46385246499E+02  0.60404543827E+02  0.51100000000E-03 0. -1.
         23    2    1    0    0    0 -0.76030765398E+01  0.58558867449E+01  0.26611627275E+02  0.96710834430E+02  0.92480855356E+02 0.  0.
         11    1    3    3    0    0  0.90288202209E+01 -0.29079737366E+02 -0.19773619224E+02  0.36306290603E+02  0.51100000000E-03 0.  1.
         22    1    1    0    0    0  0.76030765398E+01 -0.58558867449E+01 -0.26611627275E+02  0.28289165570E+02  0.00000000000E+00 0. -1.
</event>
<event>
 5    1  0.1103865E-009  0.9118800E+02  0.7818608E-02  0.1130116E+00
         25   -1    0    0    0    0  0.00000000000E+00  0.00000000000E+00  0.99999998245E-14  0.12500000000E+03  0.12500000000E+03 0.  0.
        -11    1    3    3    0    0 -0.22306713373E+02  0.22010265101E+02 -0.22574268550E+02  0.38621740408E+02  0.51100000000E-03 0. -1.
         23    2    1    0    0    0  0.18681850180E+02 -0.16597864981E+02 -0.16033059150E+02  0.95308930067E+02  0.90566177553E+02 0.  0.
         11    1    3    3    0    0  0.40988563553E+02 -0.38608130083E+02  0.65412094005E+01  0.56687189658E+02  0.51100000000E-03 0.  1.
         22    1    1    0    0    0 -0.18681850180E+02  0.16597864981E+02  0.16033059150E+02  0.29691069933E+02  0.00000000000E+00 0.  1.
</event>
<event>
 5    1  0.1103865E-009  0.9118800E+02  0.7818608E-02  0.1130116E+00
         25   -1    0    0    0    0  0.00000000000E+00  0.00000000000E+00  0.99999998245E-14  0.12500000000E+03  0.12500000000E+03 0.  0.
        -11    1    3    3    0    0  0.31871849336E+02  0.20565822755E+02  0.67004600442E+01  0.38518359399E+02  0.51100000000E-03 0.  1.
         23    2    1    0    0    0 -0.24864210269E+02  0.99363113262E+01  0.10198508957E+02  0.96347446536E+02  0.91988377712E+02 0.  0.
         11    1    3    3    0    0 -0.56736059605E+02 -0.10629511429E+02  0.34980489125E+01  0.57829087137E+02  0.51100000000E-03 0. -1.
         22    1    1    0    0    0  0.24864210269E+02 -0.99363113262E+01 -0.10198508957E+02  0.28652553464E+02  0.00000000000E+00 0. -1.
</event>
<event>
 5    1  0.1103865E-009  0.9118800E+02  0.7818608E-02  0.1130116E+00
         25   -1    0    0    0    0  0.00000000000E+00  0.00000000000E+00  0.99999998245E-14  0.12500000000E+03  0.12500000000E+03 0.  0.
        -11    1    3    3    0    0 -0.41243758811E+02  0.26560486561E+02 -0.35974340760E+02  0.60833052534E+02  0.51100000000E-03 0.  1.
         23    2    1    0    0    0 -0.13277959187E+02  0.20540705361E+02 -0.18216975858E+02  0.94502738052E+02  0.89446545563E+02 0.  0.
         11    1    3    3    0    0  0.27965799625E+02 -0.60197811995E+01  0.17757364903E+02  0.33669685518E+02  0.51100000000E-03 0. -1.
         22    1    1    0    0    0  0.13277959187E+02 -0.20540705361E+02  0.18216975858E+02  0.30497261948E+02  0.00000000000E+00 0.  1.
</event>
<event>
 5    1  0.1103865E-009  0.9118800E+02  0.7818608E-02  0.1130116E+00
         25   -1    0    0    0    0  0.00000000000E+00  0.00000000000E+00  0.99999998245E-14  0.12500000000E+03  0.12500000000E+03 0.  0.
        -11    1    3    3    0    0 -0.17484644546E+02 -0.10355732309E+02 -0.24095483926E+02  0.31520569989E+02  0.51100000000E-03 0. -1.
         23    2    1    0    0    0  0.20649132964E+02  0.61173216096E+01  0.22438857540E+02  0.93898381978E+02  0.88597942948E+02 0.  0.
         11    1    3    3    0    0  0.38133777511E+02  0.16473053919E+02  0.46534341466E+02  0.62377811989E+02  0.51100000000E-03 0.  1.
         22    1    1    0    0    0 -0.20649132964E+02 -0.61173216096E+01 -0.22438857540E+02  0.31101618022E+02  0.00000000000E+00 0.  1.
</event>
<event>
 5    1  0.1103865E-009  0.9118800E+02  0.7818608E-02  0.1130116E+00
         25   -1    0    0    0    0  0.00000000000E+00  0.00000000000E+00  0.99999998245E-14  0.12500000000E+03  0.12500000000E+03 0.  0.
        -11    1    3    3    0    0  0.19561276444E+02 -0.30620670056E+02  0.45998960027E+01  0.36625510430E+02  0.51100000000E-03 0.  1.
         23    2    1    0    0    0 -0.18363377981E+02  0.12085682831E+02  0.19458674827E+02  0.95641570097E+02  0.91024131548E+02 0.  0.
         11    1    3    3    0    0 -0.37924654425E+02  0.42706352887E+02  0.14858778825E+02  0.59016059666E+02  0.51100000000E-03 0. -1.
         22    1    1    0    0    0  0.18363377981E+02 -0.12085682831E+02 -0.19458674827E+02  0.29358429903E+02  0.00000000000E+00 0. -1.
</event>
<event>
 5    1  0.1103865E-009  0.9118800E+02  0.7818608E-02  0.1130116E+00
         25   -1    0    0    0    0  0.00000000000E+00  0.00000000000E+00  0.99999998245E-14  0.12500000000E+03  0.12500000000E+03 0.  0.
        -11    1    3    3    0    0  0.30603354633E+02 -0.12766078165E+02  0.22940986805E+02  0.40321544394E+02  0.51100000000E-03 0.  1.
         23    2    1    0    0    0  0.10312964984E+02  0.26364319113E+02 -0.95963764739E+01  0.95108111293E+02  0.90288580802E+02 0.  0.
         11    1    3    3    0    0 -0.20290389649E+02  0.39130397277E+02 -0.32537363279E+02  0.54786566899E+02  0.51100000000E-03 0. -1.
         22    1    1    0    0    0 -0.10312964984E+02 -0.26364319113E+02  0.95963764739E+01  0.29891888707E+02  0.00000000000E+00 0. -1.
</event>
<event>
 5    1  0.1103865E-009  0.9118800E+02  0.7818608E-02  0.1130116E+00
         25   -1    0    0    0    0  0.00000000000E+00  0.00000000000E+00  0.99999998245E-14  0.12500000000E+03  0.12500000000E+03 0.  0.
        -11    1    3    3    0    0  0.32513206299E+02 -0.16640307463E+02  0.20968825809E+02  0.42115318738E+02  0.51100000000E-03 0. -1.
         23    2    1    0    0    0 -0.19490366637E+02 -0.86645320649E+01  0.21479260979E+02  0.94729434103E+02  0.89762790318E+02 0.  0.
         11    1    3    3    0    0 -0.52003572936E+02  0.79757753978E+01  0.51043517048E+00  0.52614115365E+02  0.51100000000E-03 0.  1.
         22    1    1    0    0    0  0.19490366637E+02  0.86645320649E+01 -0.21479260979E+02  0.30270565897E+02  0.00000000000E+00 0.  1.
</event>
<event>
 5    1  0.1103865E-009  0.9118800E+02  0.7818608E-02  0.1130116E+00
         25   -1    0    0    0    0  0.00000000000E+00  0.00000000000E+00  0.99999998245E-14  0.12500000000E+03  0.12500000000E+03 0.  0.
        -11    1    3    3    0    0 -0.94457432055E+01 -0.37571952046E+01 -0.36479792884E+02  0.37869695928E+02  0.51100000000E-03 0. -1.
         23    2    1    0    0    0  0.23699539292E+02  0.14860016712E+02  0.75358576605E+01  0.96029715052E+02  0.91555604760E+02 0.  0.
         11    1    3    3    0    0  0.33145282497E+02  0.18617211917E+02  0.44015650545E+02  0.58160019124E+02  0.51100000000E-03 0.  1.
         22    1    1    0    0    0 -0.23699539292E+02 -0.14860016712E+02 -0.75358576605E+01  0.28970284948E+02  0.00000000000E+00 0.  1.
</event>
<event>
 5    1  0.1103865E-009  0.9118800E+02  0.7818608E-02  0.1130116E+00
         25   -1    0    0    0    0  0.00000000000E+00  0.00000000000E+00  0.99999998245E-14  0.12500000000E+03  0.12500000000E+03 0.  0.
        -11    1    3    3    0    0 -0.51220160366E+02 -0.64735944454E+01  0.21300450730E+01  0.51671552573E+02  0.51100000000E-03 0.  1.
         23    2    1    0    0    0 -0.25652254476E+02  0.72506015517E+01  0.24873268993E+02  0.88540585675E+02  0.80685478363E+02 0.  0.
         11    1    3    3    0    0  0.25567905890E+02  0.13724195997E+02  0.22743223920E+02  0.36869033102E+02  0.51100000000E-03 0. -1.
         22    1    1    0    0    0  0.25652254476E+02 -0.72506015517E+01 -0.24873268993E+02  0.36459414325E+02  0.00000000000E+00 0.  1.
</event>
<event>
 5    1  0.1103865E-009  0.9118800E+02  0.7818608E-02  0.1130116E+00
         25   -1    0    0    0    0  0.00000000000E+00  0.00000000000E+00  0.99999998245E-14  0.12500000000E+03  0.12500000000E+03 0.  0.
        -11    1    3    3    0    0 -0.27001364437E+02 -0.32459040756E+02  0.31872361574E+02  0.52900949338E+02  0.51100000000E-03 0. -1.
         23    2    1    0    0    0  0.80956666116E+01 -0.27609936789E+02  0.99972824256E+01  0.94540287538E+02  0.89499004935E+02 0.  0.
         11    1    3    3    0    0  0.35097031049E+02  0.48491039673E+01 -0.21875079148E+02  0.41639338200E+02  0.51100000000E-03 0.  1.
         22    1    1    0    0    0 -0.80956666116E+01  0.27609936789E+02 -0.99972824256E+01  0.30459712462E+02  0.00000000000E+00 0. -1.
</event>
<event>
 5    1  0.1103865E-009  0.9118800E+02  0.7818608E-02  0.1130116E+00
         25   -1    0    0    0    0  0.00000000000E+00  0.00000000000E+00  0.99999998245E-14  0.12500000000E+03  0.12500000000E+03 0.  0.
        -11    1    3    3    0    0 -0.15999232459E+02  0.32754377937E+02 -0.18083021644E+02  0.40691772945E+02  0.51100000000E-03 0. -1.
         23    2    1    0    0    0 -0.16110969634E+02 -0.34972687688E+01  0.23776535810E+02  0.96067010412E+02  0.91606509611E+02 0.  0.
         11    1    3    3    0    0 -0.11173717517E+00 -0.36251646706E+02  0.41859557454E+02  0.55375237468E+02  0.51100000000E-03 0.  1.
         22    1    1    0    0    0  0.16110969634E+02  0.34972687688E+01 -0.23776535810E+02  0.28932989588E+02  0.00000000000E+00 0.  1.
</event>
<event>
 5    1  0.1103865E-009  0.9118800E+02  0.7818608E-02  0.1130116E+00
         25   -1    0    0    0    0  0.00000000000E+00  0.00000000000E+00  0.99999998245E-14  0.12500000000E+03  0.12500000000E+03 0.  0.
        -11    1    3    3    0    0  0.42656599706E+02  0.18645354208E+02  0.41673053713E+02  0.62481022224E+02  0.51100000000E-03 0. -1.
         23    2    1    0    0    0  0.18863215827E+02  0.94267804693E+01  0.18931630579E+02  0.96661126738E+02  0.92413644472E+02 0.  0.
         11    1    3    3    0    0 -0.23793383879E+02 -0.92185737388E+01 -0.22741423134E+02  0.34180104515E+02  0.51100000000E-03 0.  1.
         22    1    1    0    0    0 -0.18863215827E+02 -0.94267804693E+01 -0.18931630579E+02  0.28338873262E+02  0.00000000000E+00 0. -1.
</event>
<event>
 5    1  0.1103865E-009  0.9118800E+02  0.7818608E-02  0.1130116E+00
         25   -1    0    0    0    0  0.00000000000E+00  0.00000000000E+00  0.99999998245E-14  0.12500000000E+03  0.12500000000E+03 0.  0.
        -11    1    3    3    0    0 -0.31611224176E+02  0.48137841138E+02 -0.10732958254E+02  0.58580864081E+02  0.51100000000E-03 0. -1.
         23    2    1    0    0    0 -0.12002740424E+02  0.21681303585E+01 -0.11024841415E+02  0.10855878061E+03  0.10730654757E+03 0.  0.
         11    1    3    3    0    0  0.19608483752E+02 -0.45969710779E+02 -0.29188316054E+00  0.49977916525E+02  0.51100000000E-03 0.  1.
         22    1    1    0    0    0  0.12002740424E+02 -0.21681303585E+01  0.11024841415E+02  0.16441219394E+02  0.00000000000E+00 0. -1.
</event>
<event>
 5    1  0.1103865E-009  0.9118800E+02  0.7818608E-02  0.1130116E+00
         25   -1    0    0    0    0  0.00000000000E+00  0.00000000000E+00  0.99999998245E-14  0.12500000000E+03  0.12500000000E+03 0.  0.
        -11    1    3    3    0    0 -0.13691516901E+02  0.19271974784E+02  0.56041235719E+02  0.60823406253E+02  0.51100000000E-03 0.  1.
         23    2    1    0    0    0  0.23116310252E+01  0.40641636420E+01  0.28491929114E+02  0.96126983380E+02  0.91688308115E+02 0.  0.
         11    1    3    3    0    0  0.16003147926E+02 -0.15207811142E+02 -0.27549306605E+02  0.35303577126E+02  0.51100000000E-03 0. -1.
         22    1    1    0    0    0 -0.23116310252E+01 -0.40641636420E+01 -0.28491929114E+02  0.28873016620E+02  0.00000000000E+00 0.  1.
</event>
<event>
 5    1  0.1103865E-009  0.9118800E+02  0.7818608E-02  0.1130116E+00
         25   -1    0    0    0    0  0.00000000000E+00  0.00000000000E+00  0.99999998245E-14  0.12500000000E+03  0.12500000000E+03 0.  0.
        -11    1    3    3    0    0  0.21109514447E+02 -0.49917263643E+02 -0.64381738724E+01  0.54578337213E+02  0.51100000000E-03 0. -1.
         23    2    1    0    0    0 -0.90530582884E+01 -0.22336512205E+02 -0.15370511725E+02  0.96414509405E+02  0.92079462158E+02 0.  0.
         11    1    3    3    0    0 -0.30162572735E+02  0.27580751438E+02 -0.89323378531E+01  0.41836172192E+02  0.51100000000E-03 0.  1.
         22    1    1    0    0    0  0.90530582884E+01  0.22336512205E+02  0.15370511725E+02  0.28585490595E+02  0.00000000000E+00 0. -1.
</event>
<event>
 5    1  0.1103865E-009  0.9118800E+02  0.7818608E-02  0.1130116E+00
         25   -1    0    0    0    0  0.00000000000E+00  0.00000000000E+00  0.99999998245E-14  0.12500000000E+03  0.12500000000E+03 0.  0.
        -11    1    3    3    0    0  0.41287897173E+02 -0.82820594503E+01 -0.22367541896E+01  0.42169728850E+02  0.51100000000E-03 0.  1.
         23    2    1    0    0    0 -0.77712452562E+01  0.11826701133E+02  0.20688816857E+02  0.99934281270E+02  0.96739703935E+02 0.  0.
         11    1    3    3    0    0 -0.49059142430E+02  0.20108760584E+02  0.22925571046E+02  0.57764552419E+02  0.51100000000E-03 0. -1.
         22    1    1    0    0    0  0.77712452562E+01 -0.11826701133E+02 -0.20688816857E+02  0.25065718730E+02  0.00000000000E+00 0. -1.
</event>
<event>
 5    1  0.1103865E-009  0.9118800E+02  0.7818608E-02  0.1130116E+00
         25   -1    0    0    0    0  0.00000000000E+00  0.00000000000E+00  0.99999998245E-14  0.12500000000E+03  0.12500000000E+03 0.  0.
        -11    1    3    3    0    0  0.29980837942E+02 -0.47885441294E+02 -0.18690571986E+02  0.59508013016E+02  0.51100000000E-03 0.  1.
         23    2    1    0    0    0  0.94341247256E+01 -0.26796234811E+02  0.34992438284E+01  0.96376834264E+02  0.92028303070E+02 0.  0.
         11    1    3    3    0    0 -0.20546713216E+02  0.21089206483E+02  0.22189815814E+02  0.36868821248E+02  0.51100000000E-03 0. -1.
         22    1    1    0    0    0 -0.94341247256E+01  0.26796234811E+02 -0.34992438284E+01  0.28623165736E+02  0.00000000000E+00 0.  1.
</event>
<event>
 5    1  0.1103865E-009  0.9118800E+02  0.7818608E-02  0.1130116E+00
         25   -1    0    0    0    0  0.00000000000E+00  0.00000000000E+00  0.99999998245E-14  0.12500000000E+03  0.12500000000E+03 0.  0.
        -11    1    3    3    0    0  0.34905749337E+02 -0.40972641435E+02  0.19556723504E+02  0.57268089871E+02  0.51100000000E-03 0. -1.
         23    2    1    0    0    0  0.18624042723E+02 -0.90801690625E+01  0.23934681644E+02  0.93342877216E+02  0.87810701535E+02 0.  0.
         11    1    3    3    0    0 -0.16281706614E+02  0.31892472373E+02  0.43779581399E+01  0.36074787346E+02  0.51100000000E-03 0.  1.
         22    1    1    0    0    0 -0.18624042723E+02  0.90801690625E+01 -0.23934681644E+02  0.31657122784E+02  0.00000000000E+00 0. -1.
</event>
<event>
 5    1  0.1103865E-009  0.9118800E+02  0.7818608E-02  0.1130116E+00
         25   -1    0    0    0    0  0.00000000000E+00  0.00000000000E+00  0.99999998245E-14  0.12500000000E+03  0.12500000000E+03 0.  0.
        -11    1    3    3    0    0 -0.30289869452E+02  0.22953787452E+02 -0.32133607261E+02  0.49768677556E+02  0.51100000000E-03 0. -1.
         23    2    1    0    0    0  0.96164879311E+01  0.80869093675E+01 -0.30076966425E+02  0.92404005575E+02  0.86463873345E+02 0.  0.
         11    1    3    3    0    0  0.39906357383E+02 -0.14866878084E+02  0.20566408364E+01  0.42635328019E+02  0.51100000000E-03 0.  1.
         22    1    1    0    0    0 -0.96164879311E+01 -0.80869093675E+01  0.30076966425E+02  0.32595994425E+02  0.00000000000E+00 0. -1.
</event>
<event>
 5    1  0.1103865E-009  0.9118800E+02  0.7818608E-02  0.1130116E+00
         25   -1    0    0    0    0  0.00000000000E+00  0.00000000000E+00  0.99999998245E-14  0.12500000000E+03  0.12500000000E+03 0.  0.
        -11    1    3    3    0    0  0.24882033779E+02  0.13189396032E+02 -0.17088887660E+02  0.32940944953E+02  0.51100000000E-03 0.  1.
         23    2    1    0    0    0 -0.23132005705E+02  0.24637456179E+02  0.10657012714E+02  0.89564624245E+02  0.82256647521E+02 0.  0.
         11    1    3    3    0    0 -0.48014039484E+02  0.11448060147E+02  0.27745900374E+02  0.56623679292E+02  0.51100000000E-03 0. -1.
         22    1    1    0    0    0  0.23132005705E+02 -0.24637456179E+02 -0.10657012714E+02  0.35435375755E+02  0.00000000000E+00 0. -1.
</event>
<event>
 5    1  0.1103865E-009  0.9118800E+02  0.7818608E-02  0.1130116E+00
         25   -1    0    0    0    0  0.00000000000E+00  0.00000000000E+00  0.99999998245E-14  0.12500000000E+03  0.12500000000E+03 0.  0.
        -11    1    3    3    0    0  0.20564070744E+02 -0.16812431773E+02 -0.39495008713E+02  0.47596161412E+02  0.51100000000E-03 0.  1.
         23    2    1    0    0    0 -0.10402453587E+02  0.50938690824E+01 -0.37689592015E+02  0.85570773669E+02  0.75945331767E+02 0.  0.
         11    1    3    3    0    0 -0.30966524331E+02  0.21906300855E+02  0.18054166984E+01  0.37974612256E+02  0.51100000000E-03 0. -1.
         22    1    1    0    0    0  0.10402453587E+02 -0.50938690824E+01  0.37689592015E+02  0.39429226331E+02  0.00000000000E+00 0.  1.
</event>
<event>
 5    1  0.1103865E-009  0.9118800E+02  0.7818608E-02  0.1130116E+00
         25   -1    0    0    0    0  0.00000000000E+00  0.00000000000E+00  0.99999998245E-14  0.12500000000E+03  0.12500000000E+03 0.  0.
        -11    1    3    3    0    0  0.60495249960E+02 -0.26694868061E+01  0.11879237875E+02  0.61708327804E+02  0.51100000000E-03 0. -1.
         23    2    1    0    0    0  0.27575049465E+02  0.24868282841E+00  0.12405767358E+02  0.94761807926E+02  0.89807861469E+02 0.  0.
         11    1    3    3    0    0 -0.32920200495E+02  0.29181696345E+01  0.52652948236E+00  0.33053480123E+02  0.51100000000E-03 0.  1.
         22    1    1    0    0    0 -0.27575049465E+02 -0.24868282841E+00 -0.12405767358E+02  0.30238192074E+02  0.00000000000E+00 0. -1.
</event>
<event>
 5    1  0.1103865E-009  0.9118800E+02  0.7818608E-02  0.1130116E+00
         25   -1    0    0    0    0  0.00000000000E+00  0.00000000000E+00  0.99999998245E-14  0.12500000000E+03  0.12500000000E+03 0.  0.
        -11    1    3    3    0    0  0.50126202091E+02  0.48861560005E+01  0.35055906542E+01  0.50485639767E+02  0.51100000000E-03 0.  1.
         23    2    1    0    0    0  0.14995222932E+02 -0.15039958699E+02 -0.18810512097E+02  0.96629373750E+02  0.92370684947E+02 0.  0.
         11    1    3    3    0    0 -0.35130979159E+02 -0.19926114699E+02 -0.22316102751E+02  0.46143733984E+02  0.51100000000E-03 0. -1.
         22    1    1    0    0    0 -0.14995222932E+02  0.15039958699E+02  0.18810512097E+02  0.28370626250E+02  0.00000000000E+00 0. -1.
</event>
<event>
 5    1  0.1103865E-009  0.9118800E+02  0.7818608E-02  0.1130116E+00
         25   -1    0    0    0    0  0.00000000000E+00  0.00000000000E+00  0.99999998245E-14  0.12500000000E+03  0.12500000000E+03 0.  0.
        -11    1    3    3    0    0 -0.31945495123E+02  0.43999264884E+02 -0.20466543273E+02  0.58097584828E+02  0.51100000000E-03 0.  1.
         23    2    1    0    0    0 -0.25621825698E+02  0.13748938424E+02  0.12927702439E+01  0.95893600106E+02  0.91369579328E+02 0.  0.
         11    1    3    3    0    0  0.63236694248E+01 -0.30250326460E+02  0.21759313517E+02  0.37796015278E+02  0.51100000000E-03 0. -1.
         22    1    1    0    0    0  0.25621825698E+02 -0.13748938424E+02 -0.12927702439E+01  0.29106399894E+02  0.00000000000E+00 0.  1.
</event>
<event>
 5    1  0.1103865E-009  0.9118800E+02  0.7818608E-02  0.1130116E+00
         25   -1    0    0    0    0  0.00000000000E+00  0.00000000000E+00  0.99999998245E-14  0.12500000000E+03  0.12500000000E+03 0.  0.
        -11    1    3    3    0    0  0.10236324785E+02  0.38044739906E+02 -0.60331281477E+01  0.39857034701E+02  0.51100000000E-03 0.  1.
         23    2    1    0    0    0  0.17699285866E+02 -0.10552664837E+02  0.20674718345E+02  0.95809805860E+02  0.91254870911E+02 0.  0.
         11    1    3    3    0    0  0.74629610806E+01 -0.48597404743E+02  0.26707846492E+02  0.55952771159E+02  0.51100000000E-03 0. -1.
         22    1    1    0    0    0 -0.17699285866E+02  0.10552664837E+02 -0.20674718345E+02  0.29190194140E+02  0.00000000000E+00 0. -1.
</event>
<event>
 5    1  0.1103865E-009  0.9118800E+02  0.7818608E-02  0.1130116E+00
         25   -1    0    0    0    0  0.00000000000E+00  0.00000000000E+00  0.99999998245E-14  0.12500000000E+03  0.12500000000E+03 0.  0.
        -11    1    3    3    0    0 -0.97948844341E+01  0.49987496848E+02  0.29108843189E+02  0.58668682909E+02  0.51100000000E-03 0.  1.
         23    2    1    0    0    0  0.30239655897E+01  0.28511304562E+02  0.97552125904E+00  0.96312189044E+02  0.91940454975E+02 0.  0.
         11    1    3    3    0    0  0.12818850024E+02 -0.21476192286E+02 -0.28133321930E+02  0.37643506135E+02  0.51100000000E-03 0. -1.
         22    1    1    0    0    0 -0.30239655897E+01 -0.28511304562E+02 -0.97552125904E+00  0.28687810956E+02  0.00000000000E+00 0.  1.
</event>
<event>
 5    1  0.1103865E-009  0.9118800E+02  0.7818608E-02  0.1130116E+00
         25   -1    0    0    0    0  0.00000000000E+00  0.00000000000E+00  0.99999998245E-14  0.12500000000E+03  0.12500000000E+03 0.  0.
        -11    1    3    3    0    0 -0.18509319688E+02  0.22634273368E+02  0.43397045962E+02  0.52327897384E+02  0.51100000000E-03 0. -1.
         23    2    1    0    0    0  0.12530573818E+02 -0.29758593896E+01  0.25628546659E+02  0.96317367220E+02  0.91947494827E+02 0.  0.
         11    1    3    3    0    0  0.31039893506E+02 -0.25610132757E+02 -0.17768499302E+02  0.43989469836E+02  0.51100000000E-03 0.  1.
         22    1    1    0    0    0 -0.12530573818E+02  0.29758593896E+01 -0.25628546659E+02  0.28682632780E+02  0.00000000000E+00 0. -1.
</event>
<event>
 5    1  0.1103865E-009  0.9118800E+02  0.7818608E-02  0.1130116E+00
         25   -1    0    0    0    0  0.00000000000E+00  0.00000000000E+00  0.99999998245E-14  0.12500000000E+03  0.12500000000E+03 0.  0.
        -11    1    3    3    0    0 -0.34927339716E+02 -0.28230368501E+02 -0.68338816788E+01  0.45426585876E+02  0.51100000000E-03 0.  1.
         23    2    1    0    0    0  0.44823018897E+01 -0.73233326475E+01 -0.28652831127E+02  0.95088347373E+02  0.90261214501E+02 0.  0.
         11    1    3    3    0    0  0.39409641605E+02  0.20907035854E+02 -0.21818949448E+02  0.49661761496E+02  0.51100000000E-03 0. -1.
         22    1    1    0    0    0 -0.44823018897E+01  0.73233326475E+01  0.28652831127E+02  0.29911652627E+02  0.00000000000E+00 0. -1.
</event>
<event>
 5    1  0.1103865E-009  0.9118800E+02  0.7818608E-02  0.1130116E+00
         25   -1    0    0    0    0  0.00000000000E+00  0.00000000000E+00  0.99999998245E-14  0.12500000000E+03  0.12500000000E+03 0.  0.
        -11    1    3    3    0    0  0.31564445455E+02 -0.23358244151E+02 -0.28900428644E+02  0.48756092571E+02  0.51100000000E-03 0. -1.
         23    2    1    0    0    0 -0.14271795244E+02 -0.14787134648E+02 -0.20184684579E+02  0.96194358502E+02  0.91780115632E+02 0.  0.
         11    1    3    3    0    0 -0.45836240700E+02  0.85711095034E+01  0.87157440651E+01  0.47438265930E+02  0.51100000000E-03 0.  1.
         22    1    1    0    0    0  0.14271795244E+02  0.14787134648E+02  0.20184684579E+02  0.28805641498E+02  0.00000000000E+00 0. -1.
</event>
<event>
 5    1  0.1103865E-009  0.9118800E+02  0.7818608E-02  0.1130116E+00
         25   -1    0    0    0    0  0.00000000000E+00  0.00000000000E+00  0.99999998245E-14  0.12500000000E+03  0.12500000000E+03 0.  0.
        -11    1    3    3    0    0 -0.20215486535E+02  0.40837304806E+01  0.53253406573E+02  0.57107513187E+02  0.51100000000E-03 0. -1.
         23    2    1    0    0    0 -0.87216861561E+01  0.19498745459E+02  0.18888883864E+02  0.96485813750E+02  0.92176208630E+02 0.  0.
         11    1    3    3    0    0  0.11493800379E+02  0.15415014978E+02 -0.34364522709E+02  0.39378300563E+02  0.51100000000E-03 0.  1.
         22    1    1    0    0    0  0.87216861561E+01 -0.19498745459E+02 -0.18888883864E+02  0.28514186250E+02  0.00000000000E+00 0. -1.
</event>
<event>
 5    1  0.1103865E-009  0.9118800E+02  0.7818608E-02  0.1130116E+00
         25   -1    0    0    0    0  0.00000000000E+00  0.00000000000E+00  0.99999998245E-14  0.12500000000E+03  0.12500000000E+03 0.  0.
        -11    1    3    3    0    0  0.30935481215E+02 -0.95614697617E+01  0.21376281012E+02  0.38799112003E+02  0.51100000000E-03 0.  1.
         23    2    1    0    0    0 -0.21806236625E+02  0.12561777510E+02  0.13225403544E+02  0.96570763133E+02  0.92291336447E+02 0.  0.
         11    1    3    3    0    0 -0.52741717840E+02  0.22123247271E+02 -0.81508774683E+01  0.57771651130E+02  0.51100000000E-03 0. -1.
         22    1    1    0    0    0  0.21806236625E+02 -0.12561777510E+02 -0.13225403544E+02  0.28429236867E+02  0.00000000000E+00 0. -1.
</event>
<event>
 5    1  0.1103865E-009  0.9118800E+02  0.7818608E-02  0.1130116E+00
         25   -1    0    0    0    0  0.00000000000E+00  0.00000000000E+00  0.99999998245E-14  0.12500000000E+03  0.12500000000E+03 0.  0.
        -11    1    3    3    0    0  0.26022164350E+00  0.29280040193E+02  0.41604549357E+02  0.50875603156E+02  0.51100000000E-03 0.  1.
         23    2    1    0    0    0 -0.12903319063E+02  0.24813054726E+02 -0.23095016868E+01  0.96937264464E+02  0.92786400491E+02 0.  0.
         11    1    3    3    0    0 -0.13163540707E+02 -0.44669854670E+01 -0.43914051044E+02  0.46061661308E+02  0.51100000000E-03 0. -1.
         22    1    1    0    0    0  0.12903319063E+02 -0.24813054726E+02  0.23095016868E+01  0.28062735536E+02  0.00000000000E+00 0. -1.
</event>
<event>
 5    1  0.1103865E-009  0.9118800E+02  0.7818608E-02  0.1130116E+00
         25   -1    0    0    0    0  0.00000000000E+00  0.00000000000E+00  0.99999998245E-14  0.12500000000E+03  0.12500000000E+03 0.  0.
        -11    1    3    3    0    0  0.22886338387E+02  0.45743499244E+02  0.27097703021E+01  0.51221041215E+02  0.51100000000E-03 0. -1.
         23    2    1    0    0    0 -0.14691298125E+02  0.22867736581E+02  0.10431865375E+02  0.95886576427E+02  0.91359969936E+02 0.  0.
         11    1    3    3    0    0 -0.37577636511E+02 -0.22875762662E+02  0.77220950733E+01  0.44665535212E+02  0.51100000000E-03 0.  1.
         22    1    1    0    0    0  0.14691298125E+02 -0.22867736581E+02 -0.10431865375E+02  0.29113423573E+02  0.00000000000E+00 0.  1.
</event>
<event>
 5    1  0.1103865E-009  0.9118800E+02  0.7818608E-02  0.1130116E+00
         25   -1    0    0    0    0  0.00000000000E+00  0.00000000000E+00  0.99999998245E-14  0.12500000000E+03  0.12500000000E+03 0.  0.
        -11    1    3    3    0    0  0.38353723239E+02  0.11144449482E+02  0.25285834535E+02  0.47271347230E+02  0.51100000000E-03 0.  1.
         23    2    1    0    0    0 -0.70006970266E+01 -0.78736930410E+01  0.26516381455E+02  0.96467154253E+02  0.92150901044E+02 0.  0.
         11    1    3    3    0    0 -0.45354420266E+02 -0.19018142523E+02  0.12305469194E+01  0.49195807023E+02  0.51100000000E-03 0. -1.
         22    1    1    0    0    0  0.70006970266E+01  0.78736930410E+01 -0.26516381455E+02  0.28532845747E+02  0.00000000000E+00 0. -1.
</event>
<event>
 5    1  0.1103865E-009  0.9118800E+02  0.7818608E-02  0.1130116E+00
         25   -1    0    0    0    0  0.00000000000E+00  0.00000000000E+00  0.99999998245E-14  0.12500000000E+03  0.12500000000E+03 0.  0.
        -11    1    3    3    0    0 -0.32181264896E+02  0.14458823741E+02 -0.63584900871E+01  0.35848595380E+02  0.51100000000E-03 0. -1.
         23    2    1    0    0    0  0.24574576594E+02 -0.89648838574E+00  0.12259924176E+02  0.97522386439E+02  0.93571345025E+02 0.  0.
         11    1    3    3    0    0  0.56755841490E+02 -0.15355312127E+02  0.18618414263E+02  0.61673791059E+02  0.51100000000E-03 0.  1.
         22    1    1    0    0    0 -0.24574576594E+02  0.89648838574E+00 -0.12259924176E+02  0.27477613561E+02  0.00000000000E+00 0.  1.
</event>
<event>
 5    1  0.1103865E-009  0.9118800E+02  0.7818608E-02  0.1130116E+00
         25   -1    0    0    0    0  0.00000000000E+00  0.00000000000E+00  0.99999998245E-14  0.12500000000E+03  0.12500000000E+03 0.  0.
        -11    1    3    3    0    0  0.74275533824E+01 -0.11446490487E+02 -0.32949680787E+02  0.35663316699E+02  0.51100000000E-03 0. -1.
         23    2    1    0    0    0  0.15413864416E+02  0.27170760341E+01  0.24808654283E+02  0.95666758690E+02  0.91058715523E+02 0.  0.
         11    1    3    3    0    0  0.79863110334E+01  0.14163566522E+02  0.57758335070E+02  0.60003441992E+02  0.51100000000E-03 0.  1.
         22    1    1    0    0    0 -0.15413864416E+02 -0.27170760341E+01 -0.24808654283E+02  0.29333241310E+02  0.00000000000E+00 0.  1.
</event>
<event>
 5    1  0.1103865E-009  0.9118800E+02  0.7818608E-02  0.1130116E+00
         25   -1    0    0    0    0  0.00000000000E+00  0.00000000000E+00  0.99999998245E-14  0.12500000000E+03  0.12500000000E+03 0.  0.
        -11    1    3    3    0    0 -0.35611116568E+01 -0.46799305207E+02 -0.40630070514E+02  0.62077847211E+02  0.51100000000E-03 0. -1.
         23    2    1    0    0    0 -0.51098321303E+01 -0.23201714320E+02 -0.15244018362E+02  0.96772176357E+02  0.92563729880E+02 0.  0.
         11    1    3    3    0    0 -0.15487204735E+01  0.23597590888E+02  0.25386052152E+02  0.34694329146E+02  0.51100000000E-03 0.  1.
         22    1    1    0    0    0  0.51098321303E+01  0.23201714320E+02  0.15244018362E+02  0.28227823643E+02  0.00000000000E+00 0. -1.
</event>
<event>
 5    1  0.1103865E-009  0.9118800E+02  0.7818608E-02  0.1130116E+00
         25   -1    0    0    0    0  0.00000000000E+00  0.00000000000E+00  0.99999998245E-14  0.12500000000E+03  0.12500000000E+03 0.  0.
        -11    1    3    3    0    0 -0.16256706722E+02  0.17710638636E+02 -0.46319308812E+02  0.52186450382E+02  0.51100000000E-03 0.  1.
         23    2    1    0    0    0 -0.13711799153E+02  0.27236489890E+02 -0.57085987713E+01  0.93976977621E+02  0.88708761717E+02 0.  0.
         11    1    3    3    0    0  0.25449075685E+01  0.95258512544E+01  0.40610710041E+02  0.41790527240E+02  0.51100000000E-03 0. -1.
         22    1    1    0    0    0  0.13711799153E+02 -0.27236489890E+02  0.57085987713E+01  0.31023022379E+02  0.00000000000E+00 0.  1.
</event>
<event>
 5    1  0.1103865E-009  0.9118800E+02  0.7818608E-02  0.1130116E+00
         25   -1    0    0    0    0  0.00000000000E+00  0.00000000000E+00  0.99999998245E-14  0.12500000000E+03  0.12500000000E+03 0.  0.
        -11    1    3    3    0    0 -0.14964664483E+02  0.30340978785E+02 -0.12771369498E+02  0.36161084826E+02  0.51100000000E-03 0.  1.
         23    2    1    0    0    0 -0.50035975450E+01 -0.28124004556E+02 -0.28523444318E+01  0.96292309577E+02  0.91913423363E+02 0.  0.
         11    1    3    3    0    0  0.99610669381E+01 -0.58464983340E+02  0.99190250660E+01  0.60131224751E+02  0.51100000000E-03 0. -1.
         22    1    1    0    0    0  0.50035975450E+01  0.28124004556E+02  0.28523444318E+01  0.28707690423E+02  0.00000000000E+00 0. -1.
</event>
<event>
 5    1  0.1103865E-009  0.9118800E+02  0.7818608E-02  0.1130116E+00
         25   -1    0    0    0    0  0.00000000000E+00  0.00000000000E+00  0.99999998245E-14  0.12500000000E+03  0.12500000000E+03 0.  0.
        -11    1    3    3    0    0 -0.56525709352E+01 -0.99303567125E+01 -0.41557383182E+02  0.43099647792E+02  0.51100000000E-03 0.  1.
         23    2    1    0    0    0  0.39556734146E+01 -0.27652044232E+02  0.74490600073E+01  0.96090288875E+02  0.91638268309E+02 0.  0.
         11    1    3    3    0    0  0.96082443497E+01 -0.17721687519E+02  0.49006443189E+02  0.52990641083E+02  0.51100000000E-03 0. -1.
         22    1    1    0    0    0 -0.39556734146E+01  0.27652044232E+02 -0.74490600073E+01  0.28909711125E+02  0.00000000000E+00 0. -1.
</event>
<event>
 5    1  0.1103865E-009  0.9118800E+02  0.7818608E-02  0.1130116E+00
         25   -1    0    0    0    0  0.00000000000E+00  0.00000000000E+00  0.99999998245E-14  0.12500000000E+03  0.12500000000E+03 0.  0.
        -11    1    3    3    0    0  0.32790073445E+02 -0.20537387082E+02 -0.46563906932E+02  0.60540652571E+02  0.51100000000E-03 0. -1.
         23    2    1    0    0    0  0.89764279683E+01 -0.23589538604E+01 -0.27316706052E+02  0.96149638617E+02  0.91719189128E+02 0.  0.
         11    1    3    3    0    0 -0.23813645476E+02  0.18178433222E+02  0.19247200880E+02  0.35608986046E+02  0.51100000000E-03 0.  1.
         22    1    1    0    0    0 -0.89764279683E+01  0.23589538604E+01  0.27316706052E+02  0.28850361383E+02  0.00000000000E+00 0. -1.
</event>
<event>
 5    1  0.1103865E-009  0.9118800E+02  0.7818608E-02  0.1130116E+00
         25   -1    0    0    0    0  0.00000000000E+00  0.00000000000E+00  0.99999998245E-14  0.12500000000E+03  0.12500000000E+03 0.  0.
        -11    1    3    3    0    0  0.21849130335E+02  0.26836952060E+01  0.38041037447E+02  0.43951191641E+02  0.51100000000E-03 0. -1.
         23    2    1    0    0    0  0.80959536587E+01  0.30883203103E+02  0.24523077511E+00  0.93072318629E+02  0.87424708506E+02 0.  0.
         11    1    3    3    0    0 -0.13753176676E+02  0.28199507897E+02 -0.37795806672E+02  0.49121126988E+02  0.51100000000E-03 0.  1.
         22    1    1    0    0    0 -0.80959536587E+01 -0.30883203103E+02 -0.24523077511E+00  0.31927681371E+02  0.00000000000E+00 0.  1.
</event>
<event>
 5    1  0.1103865E-009  0.9118800E+02  0.7818608E-02  0.1130116E+00
         25   -1    0    0    0    0  0.00000000000E+00  0.00000000000E+00  0.99999998245E-14  0.12500000000E+03  0.12500000000E+03 0.  0.
        -11    1    3    3    0    0 -0.64995613621E+01 -0.43179138614E+02 -0.12788389284E+02  0.45499727583E+02  0.51100000000E-03 0.  1.
         23    2    1    0    0    0  0.24087568504E+02 -0.11083899295E+02  0.11551742120E+02  0.96077577452E+02  0.91620927539E+02 0.  0.
         11    1    3    3    0    0  0.30587129866E+02  0.32095239319E+02  0.24340131404E+02  0.50577849869E+02  0.51100000000E-03 0. -1.
         22    1    1    0    0    0 -0.24087568504E+02  0.11083899295E+02 -0.11551742120E+02  0.28922422548E+02  0.00000000000E+00 0. -1.
</event>
<event>
 5    1  0.1103865E-009  0.9118800E+02  0.7818608E-02  0.1130116E+00
         25   -1    0    0    0    0  0.00000000000E+00  0.00000000000E+00  0.99999998245E-14  0.12500000000E+03  0.12500000000E+03 0.  0.
        -11    1    3    3    0    0  0.44663271218E+02  0.20895542055E+02 -0.17201002452E+02  0.52223614957E+02  0.51100000000E-03 0.  1.
         23    2    1    0    0    0  0.27400936560E+02 -0.42156402233E+01  0.12330773710E+02  0.94658099480E+02  0.89663397605E+02 0.  0.
         11    1    3    3    0    0 -0.17262334657E+02 -0.25111182278E+02  0.29531776161E+02  0.42434484523E+02  0.51100000000E-03 0. -1.
         22    1    1    0    0    0 -0.27400936560E+02  0.42156402233E+01 -0.12330773710E+02  0.30341900520E+02  0.00000000000E+00 0.  1.
</event>
<event>
 5    1  0.1103865E-009  0.9118800E+02  0.7818608E-02  0.1130116E+00
         25   -1    0    0    0    0  0.00000000000E+00  0.00000000000E+00  0.99999998245E-14  0.12500000000E+03  0.12500000000E+03 0.  0.
        -11    1    3    3    0    0  0.13865647084E+02  0.54440128827E+01  0.32171299469E+02  0.35452587425E+02  0.51100000000E-03 0. -1.
         23    2    1    0    0    0  0.79102444681E+01  0.52771924478E+01 -0.27748284387E+02  0.95667628563E+02  0.91059909624E+02 0.  0.
         11    1    3    3    0    0 -0.59554026163E+01 -0.16682043486E+00 -0.59919583857E+02  0.60215041138E+02  0.51100000000E-03 0.  1.
         22    1    1    0    0    0 -0.79102444681E+01 -0.52771924478E+01  0.27748284387E+02  0.29332371437E+02  0.00000000000E+00 0.  1.
</event>
<event>
 5    1  0.1103865E-009  0.9118800E+02  0.7818608E-02  0.1130116E+00
         25   -1    0    0    0    0  0.00000000000E+00  0.00000000000E+00  0.99999998245E-14  0.12500000000E+03  0.12500000000E+03 0.  0.
        -11    1    3    3    0    0 -0.38375281301E+02 -0.41030682548E+02  0.14480407328E+02  0.58016043660E+02  0.51100000000E-03 0.  1.
         23    2    1    0    0    0 -0.21652432125E+02 -0.77115344724E+01  0.18476275745E+02  0.95509860186E+02  0.90843079244E+02 0.  0.
         11    1    3    3    0    0  0.16722849176E+02  0.33319148076E+02  0.39958684165E+01  0.37493816527E+02  0.51100000000E-03 0. -1.
         22    1    1    0    0    0  0.21652432125E+02  0.77115344724E+01 -0.18476275745E+02  0.29490139814E+02  0.00000000000E+00 0.  1.
</event>
<event>
 5    1  0.1103865E-009  0.9118800E+02  0.7818608E-02  0.1130116E+00
         25   -1    0    0    0    0  0.00000000000E+00  0.00000000000E+00  0.99999998245E-14  0.12500000000E+03  0.12500000000E+03 0.  0.
        -11    1    3    3    0    0 -0.55813153572E+01 -0.42365452818E+02  0.44560920390E+02  0.61738628912E+02  0.51100000000E-03 0. -1.
         23    2    1    0    0    0  0.11595776857E+01 -0.23704706255E+02  0.16543270840E+02  0.96070127392E+02  0.91610762730E+02 0.  0.
         11    1    3    3    0    0  0.67408930429E+01  0.18660746563E+02 -0.28017649550E+02  0.34331498480E+02  0.51100000000E-03 0.  1.
         22    1    1    0    0    0 -0.11595776857E+01  0.23704706255E+02 -0.16543270840E+02  0.28929872608E+02  0.00000000000E+00 0. -1.
</event>
<event>
 5    1  0.1103865E-009  0.9118800E+02  0.7818608E-02  0.1130116E+00
         25   -1    0    0    0    0  0.00000000000E+00  0.00000000000E+00  0.99999998245E-14  0.12500000000E+03  0.12500000000E+03 0.  0.
        -11    1    3    3    0    0 -0.33864047867E+02  0.22601241234E+02  0.11010408882E+02  0.42176047079E+02  0.51100000000E-03 0. -1.
         23    2    1    0    0    0 -0.20461364240E+02 -0.22760877607E+02 -0.83342813171E+01  0.93279577225E+02  0.87720546659E+02 0.  0.
         11    1    3    3    0    0  0.13402683627E+02 -0.45362118841E+02 -0.19344690199E+02  0.51103530145E+02  0.51100000000E-03 0.  1.
         22    1    1    0    0    0  0.20461364240E+02  0.22760877607E+02  0.83342813171E+01  0.31720422775E+02  0.00000000000E+00 0.  1.
</event>
<event>
 5    1  0.1103865E-009  0.9118800E+02  0.7818608E-02  0.1130116E+00
         25   -1    0    0    0    0  0.00000000000E+00  0.00000000000E+00  0.99999998245E-14  0.12500000000E+03  0.12500000000E+03 0.  0.
        -11    1    3    3    0    0 -0.42256382339E+02 -0.14379897042E+02 -0.75802915628E+01  0.45275204116E+02  0.51100000000E-03 0. -1.
         23    2    1    0    0    0  0.65060400447E+01 -0.27491292705E+02  0.20319936229E+01  0.96676357407E+02  0.92434243394E+02 0.  0.
         11    1    3    3    0    0  0.48762422383E+02 -0.13111395663E+02  0.96122851856E+01  0.51401153291E+02  0.51100000000E-03 0.  1.
         22    1    1    0    0    0 -0.65060400447E+01  0.27491292705E+02 -0.20319936229E+01  0.28323642593E+02  0.00000000000E+00 0. -1.
</event>
<event>
 5    1  0.1103865E-009  0.9118800E+02  0.7818608E-02  0.1130116E+00
         25   -1    0    0    0    0  0.00000000000E+00  0.00000000000E+00  0.99999998245E-14  0.12500000000E+03  0.12500000000E+03 0.  0.
        -11    1    3    3    0    0  0.29487556016E+02  0.44385841640E+02  0.30699322754E+02  0.61498514744E+02  0.51100000000E-03 0.  1.
         23    2    1    0    0    0  0.72606364334E+01  0.21604473002E+02  0.18718115491E+02  0.95506984850E+02  0.90839122697E+02 0.  0.
         11    1    3    3    0    0 -0.22226919583E+02 -0.22781368638E+02 -0.11981207263E+02  0.34008470105E+02  0.51100000000E-03 0. -1.
         22    1    1    0    0    0 -0.72606364334E+01 -0.21604473002E+02 -0.18718115491E+02  0.29493015150E+02  0.00000000000E+00 0.  1.
</event>
<event>
 5    1  0.1103865E-009  0.9118800E+02  0.7818608E-02  0.1130116E+00
         25   -1    0    0    0    0  0.00000000000E+00  0.00000000000E+00  0.99999998245E-14  0.12500000000E+03  0.12500000000E+03 0.  0.
        -11    1    3    3    0    0  0.38017180791E+02 -0.77368818485E+01 -0.45186076326E+02  0.59556249630E+02  0.51100000000E-03 0. -1.
         23    2    1    0    0    0  0.25621284888E+02 -0.43076813350E+01 -0.97572791861E+01  0.97247327067E+02  0.93203174661E+02 0.  0.
         11    1    3    3    0    0 -0.12395895903E+02  0.34292005136E+01  0.35428797139E+02  0.37691077438E+02  0.51100000000E-03 0.  1.
         22    1    1    0    0    0 -0.25621284888E+02  0.43076813350E+01  0.97572791861E+01  0.27752672933E+02  0.00000000000E+00 0. -1.
</event>
<event>
 5    1  0.1103865E-009  0.9118800E+02  0.7818608E-02  0.1130116E+00
         25   -1    0    0    0    0  0.00000000000E+00  0.00000000000E+00  0.99999998245E-14  0.12500000000E+03  0.12500000000E+03 0.  0.
        -11    1    3    3    0    0 -0.40652350041E+02 -0.10174882224E+02  0.44203104954E+02  0.60910231324E+02  0.51100000000E-03 0. -1.
         23    2    1    0    0    0 -0.23685934295E+02 -0.10664257773E+02  0.14163264711E+02  0.95413720332E+02  0.90710694425E+02 0.  0.
         11    1    3    3    0    0  0.16966415746E+02 -0.48937554866E+00 -0.30039840243E+02  0.34503489008E+02  0.51100000000E-03 0.  1.
         22    1    1    0    0    0  0.23685934295E+02  0.10664257773E+02 -0.14163264711E+02  0.29586279668E+02  0.00000000000E+00 0. -1.
</event>
<event>
 5    1  0.1103865E-009  0.9118800E+02  0.7818608E-02  0.1130116E+00
         25   -1    0    0    0    0  0.00000000000E+00  0.00000000000E+00  0.99999998245E-14  0.12500000000E+03  0.12500000000E+03 0.  0.
        -11    1    3    3    0    0  0.16989581358E+02 -0.39212816182E+01  0.32650307382E+02  0.37014387698E+02  0.51100000000E-03 0.  1.
         23    2    1    0    0    0 -0.64227724251E+01 -0.21131116716E+02 -0.18729770715E+02  0.96041747112E+02  0.91572030544E+02 0.  0.
         11    1    3    3    0    0 -0.23412353783E+02 -0.17209835097E+02 -0.51380078098E+02  0.59027359414E+02  0.51100000000E-03 0. -1.
         22    1    1    0    0    0  0.64227724251E+01  0.21131116716E+02  0.18729770715E+02  0.28958252888E+02  0.00000000000E+00 0. -1.
</event>
<event>
 5    1  0.1103865E-009  0.9118800E+02  0.7818608E-02  0.1130116E+00
         25   -1    0    0    0    0  0.00000000000E+00  0.00000000000E+00  0.99999998245E-14  0.12500000000E+03  0.12500000000E+03 0.  0.
        -11    1    3    3    0    0 -0.37419861446E+02  0.22118317755E+01  0.17830581794E+02  0.41509852780E+02  0.51100000000E-03 0. -1.
         23    2    1    0    0    0  0.17332521119E+02  0.35353916407E+01  0.22387283860E+02  0.96467461364E+02  0.92151317630E+02 0.  0.
         11    1    3    3    0    0  0.54752382565E+02  0.13235598652E+01  0.45567020665E+01  0.54957608584E+02  0.51100000000E-03 0.  1.
         22    1    1    0    0    0 -0.17332521119E+02 -0.35353916407E+01 -0.22387283860E+02  0.28532538636E+02  0.00000000000E+00 0.  1.
</event>
<event>
 5    1  0.1103865E-009  0.9118800E+02  0.7818608E-02  0.1130116E+00
         25   -1    0    0    0    0  0.00000000000E+00  0.00000000000E+00  0.99999998245E-14  0.12500000000E+03  0.12500000000E+03 0.  0.
        -11    1    3    3    0    0 -0.13962457122E+02  0.67325409804E+01 -0.38626598375E+02  0.41620805124E+02  0.51100000000E-03 0.  1.
         23    2    1    0    0    0  0.11819750108E+02 -0.26713576258E+02 -0.55422761263E+01  0.95267215506E+02  0.90508584546E+02 0.  0.
         11    1    3    3    0    0  0.25782207230E+02 -0.33446117238E+02  0.33084322248E+02  0.53646410382E+02  0.51100000000E-03 0. -1.
         22    1    1    0    0    0 -0.11819750108E+02  0.26713576258E+02  0.55422761263E+01  0.29732784494E+02  0.00000000000E+00 0. -1.
</event>
<event>
 5    1  0.1103865E-009  0.9118800E+02  0.7818608E-02  0.1130116E+00
         25   -1    0    0    0    0  0.00000000000E+00  0.00000000000E+00  0.99999998245E-14  0.12500000000E+03  0.12500000000E+03 0.  0.
        -11    1    3    3    0    0  0.11182281736E+02  0.34408224277E+02 -0.59580409144E+01  0.36666982076E+02  0.51100000000E-03 0.  1.
         23    2    1    0    0    0 -0.27690438217E+02 -0.93959517688E+01 -0.55673379155E+01  0.95233583861E+02  0.90462124479E+02 0.  0.
         11    1    3    3    0    0 -0.38872719953E+02 -0.43804176046E+02  0.39070299891E+00  0.58566601785E+02  0.51100000000E-03 0. -1.
         22    1    1    0    0    0  0.27690438217E+02  0.93959517688E+01  0.55673379155E+01  0.29766416139E+02  0.00000000000E+00 0. -1.
</event>
<event>
 5    1  0.1103865E-009  0.9118800E+02  0.7818608E-02  0.1130116E+00
         25   -1    0    0    0    0  0.00000000000E+00  0.00000000000E+00  0.99999998245E-14  0.12500000000E+03  0.12500000000E+03 0.  0.
        -11    1    3    3    0    0 -0.47935925516E+01 -0.23277568250E+02  0.30285750555E+02  0.38497407707E+02  0.51100000000E-03 0. -1.
         23    2    1    0    0    0  0.29384754143E+01  0.27618837107E+02  0.22060796386E+01  0.97137810777E+02  0.93056180313E+02 0.  0.
         11    1    3    3    0    0  0.77320679659E+01  0.50896405357E+02 -0.28079670917E+02  0.58640403071E+02  0.51100000000E-03 0.  1.
         22    1    1    0    0    0 -0.29384754143E+01 -0.27618837107E+02 -0.22060796386E+01  0.27862189223E+02  0.00000000000E+00 0.  1.
</event>
<event>
 5    1  0.1103865E-009  0.9118800E+02  0.7818608E-02  0.1130116E+00
         25   -1    0    0    0    0  0.00000000000E+00  0.00000000000E+00  0.99999998245E-14  0.12500000000E+03  0.12500000000E+03 0.  0.
        -11    1    3    3    0    0 -0.33492840953E+02 -0.89959076839E+01 -0.36414051898E+02  0.50285981407E+02  0.51100000000E-03 0. -1.
         23    2    1    0    0    0 -0.14844338643E+02 -0.27896330323E+02 -0.25795421863E+01  0.93294895157E+02  0.87742371687E+02 0.  0.
         11    1    3    3    0    0  0.18648502310E+02 -0.18900422639E+02  0.33834509712E+02  0.43008913750E+02  0.51100000000E-03 0.  1.
         22    1    1    0    0    0  0.14844338643E+02  0.27896330323E+02  0.25795421863E+01  0.31705104843E+02  0.00000000000E+00 0. -1.
</event>
<event>
 5    1  0.1103865E-009  0.9118800E+02  0.7818608E-02  0.1130116E+00
         25   -1    0    0    0    0  0.00000000000E+00  0.00000000000E+00  0.99999998245E-14  0.12500000000E+03  0.12500000000E+03 0.  0.
        -11    1    3    3    0    0  0.27588502764E+02 -0.23409680298E+02 -0.27868909456E+02  0.45670720718E+02  0.51100000000E-03 0.  1.
         23    2    1    0    0    0  0.12415608284E+02  0.22259476997E+02 -0.14755542431E+02  0.95549063212E+02  0.90897006568E+02 0.  0.
         11    1    3    3    0    0 -0.15172894480E+02  0.45669157295E+02  0.13113367025E+02  0.49878342494E+02  0.51100000000E-03 0. -1.
         22    1    1    0    0    0 -0.12415608284E+02 -0.22259476997E+02  0.14755542431E+02  0.29450936788E+02  0.00000000000E+00 0. -1.
</event>
<event>
 5    1  0.1103865E-009  0.9118800E+02  0.7818608E-02  0.1130116E+00
         25   -1    0    0    0    0  0.00000000000E+00  0.00000000000E+00  0.99999998245E-14  0.12500000000E+03  0.12500000000E+03 0.  0.
        -11    1    3    3    0    0  0.52514679658E+02  0.23674947880E+02 -0.93449881977E+01  0.58357720495E+02  0.51100000000E-03 0.  1.
         23    2    1    0    0    0  0.16367669040E+02  0.24359911591E+02 -0.19409366482E+00  0.95651344922E+02  0.91037553958E+02 0.  0.
         11    1    3    3    0    0 -0.36147010618E+02  0.68496371110E+00  0.91508945329E+01  0.37293624427E+02  0.51100000000E-03 0. -1.
         22    1    1    0    0    0 -0.16367669040E+02 -0.24359911591E+02  0.19409366482E+00  0.29348655078E+02  0.00000000000E+00 0.  1.
</event>
<event>
 5    1  0.1103865E-009  0.9118800E+02  0.7818608E-02  0.1130116E+00
         25   -1    0    0    0    0  0.00000000000E+00  0.00000000000E+00  0.99999998245E-14  0.12500000000E+03  0.12500000000E+03 0.  0.
        -11    1    3    3    0    0  0.16789062220E+02 -0.39807183406E+02 -0.31604774182E+02  0.53528928742E+02  0.51100000000E-03 0. -1.
         23    2    1    0    0    0 -0.12659701259E+02 -0.27256151387E+02 -0.63978848681E+01  0.94273809947E+02  0.89126048306E+02 0.  0.
         11    1    3    3    0    0 -0.29448763480E+02  0.12551032019E+02  0.25206889314E+02  0.40744881204E+02  0.51100000000E-03 0.  1.
         22    1    1    0    0    0  0.12659701259E+02  0.27256151387E+02  0.63978848681E+01  0.30726190053E+02  0.00000000000E+00 0. -1.
</event>
<event>
 5    1  0.1103865E-009  0.9118800E+02  0.7818608E-02  0.1130116E+00
         25   -1    0    0    0    0  0.00000000000E+00  0.00000000000E+00  0.99999998245E-14  0.12500000000E+03  0.12500000000E+03 0.  0.
        -11    1    3    3    0    0 -0.34329237952E+02 -0.15068595067E+02 -0.21419109031E+02  0.43177973176E+02  0.51100000000E-03 0. -1.
         23    2    1    0    0    0 -0.19618130469E+02  0.23473624981E+01  0.23949436538E+02  0.93952348490E+02  0.88674049882E+02 0.  0.
         11    1    3    3    0    0  0.14711107482E+02  0.17415957565E+02  0.45368545569E+02  0.50774375314E+02  0.51100000000E-03 0.  1.
         22    1    1    0    0    0  0.19618130469E+02 -0.23473624981E+01 -0.23949436538E+02  0.31047651510E+02  0.00000000000E+00 0.  1.
</event>
<event>
 5    1  0.1103865E-009  0.9118800E+02  0.7818608E-02  0.1130116E+00
         25   -1    0    0    0    0  0.00000000000E+00  0.00000000000E+00  0.99999998245E-14  0.12500000000E+03  0.12500000000E+03 0.  0.
        -11    1    3    3    0    0 -0.46761480241E+02 -0.79759377030E+01 -0.39202959651E+02  0.61539610514E+02  0.51100000000E-03 0.  1.
         23    2    1    0    0    0 -0.18949744148E+02 -0.10820373617E+02 -0.19426664541E+02  0.95784103921E+02  0.91219657861E+02 0.  0.
         11    1    3    3    0    0  0.27811736092E+02 -0.28444359141E+01  0.19776295110E+02  0.34244493407E+02  0.51100000000E-03 0. -1.
         22    1    1    0    0    0  0.18949744148E+02  0.10820373617E+02  0.19426664541E+02  0.29215896079E+02  0.00000000000E+00 0.  1.
</event>
<event>
 5    1  0.1103865E-009  0.9118800E+02  0.7818608E-02  0.1130116E+00
         25   -1    0    0    0    0  0.00000000000E+00  0.00000000000E+00  0.99999998245E-14  0.12500000000E+03  0.12500000000E+03 0.  0.
        -11    1    3    3    0    0  0.17677328284E+02  0.24573303309E+02 -0.30655348656E+02  0.43082311594E+02  0.51100000000E-03 0.  1.
         23    2    1    0    0    0 -0.16887868112E+02  0.21365300244E+02  0.94949040952E+01  0.96158548101E+02  0.91731330663E+02 0.  0.
         11    1    3    3    0    0 -0.34565196396E+02 -0.32080030651E+01  0.40150252751E+02  0.53076236507E+02  0.51100000000E-03 0. -1.
         22    1    1    0    0    0  0.16887868112E+02 -0.21365300244E+02 -0.94949040952E+01  0.28841451899E+02  0.00000000000E+00 0. -1.
</event>
<event>
 5    1  0.1103865E-009  0.9118800E+02  0.7818608E-02  0.1130116E+00
         25   -1    0    0    0    0  0.00000000000E+00  0.00000000000E+00  0.99999998245E-14  0.12500000000E+03  0.12500000000E+03 0.  0.
        -11    1    3    3    0    0 -0.12154989568E+02  0.26850965420E+02 -0.49381194030E+02  0.57508437985E+02  0.51100000000E-03 0. -1.
         23    2    1    0    0    0  0.54299911728E+01  0.23885982504E+02 -0.14898294324E+02  0.96329734252E+02  0.91964305918E+02 0.  0.
         11    1    3    3    0    0  0.17584980741E+02 -0.29649829155E+01  0.34482899707E+02  0.38821296266E+02  0.51100000000E-03 0.  1.
         22    1    1    0    0    0 -0.54299911728E+01 -0.23885982504E+02  0.14898294324E+02  0.28670265748E+02  0.00000000000E+00 0. -1.
</event>
<event>
 5    1  0.1103865E-009  0.9118800E+02  0.7818608E-02  0.1130116E+00
         25   -1    0    0    0    0  0.00000000000E+00  0.00000000000E+00  0.99999998245E-14  0.12500000000E+03  0.12500000000E+03 0.  0.
        -11    1    3    3    0    0 -0.18799386976E+02  0.26521730860E+02 -0.52940212358E+02  0.62124755478E+02  0.51100000000E-03 0. -1.
         23    2    1    0    0    0 -0.11104338064E+02  0.81996509902E+01 -0.25478532716E+02  0.96022487520E+02  0.91545736547E+02 0.  0.
         11    1    3    3    0    0  0.76950489116E+01 -0.18322079870E+02  0.27461679642E+02  0.33897732041E+02  0.51100000000E-03 0.  1.
         22    1    1    0    0    0  0.11104338064E+02 -0.81996509902E+01  0.25478532716E+02  0.28977512480E+02  0.00000000000E+00 0. -1.
</event>
<event>
 5    1  0.1103865E-009  0.9118800E+02  0.7818608E-02  0.1130116E+00
         25   -1    0    0    0    0  0.00000000000E+00  0.00000000000E+00  0.99999998245E-14  0.12500000000E+03  0.12500000000E+03 0.  0.
        -11    1    3    3    0    0 -0.61081005747E+02 -0.87348887221E+01 -0.64003439716E+01  0.62033474409E+02  0.51100000000E-03 0.  1.
         23    2    1    0    0    0 -0.29602698549E+02  0.66241405197E+00 -0.54116687346E+01  0.94899423390E+02  0.89999199150E+02 0.  0.
         11    1    3    3    0    0  0.31478307198E+02  0.93973027741E+01  0.98867523703E+00  0.32865948982E+02  0.51100000000E-03 0. -1.
         22    1    1    0    0    0  0.29602698549E+02 -0.66241405197E+00  0.54116687346E+01  0.30100576610E+02  0.00000000000E+00 0.  1.
</event>
<event>
 5    1  0.1103865E-009  0.9118800E+02  0.7818608E-02  0.1130116E+00
         25   -1    0    0    0    0  0.00000000000E+00  0.00000000000E+00  0.99999998245E-14  0.12500000000E+03  0.12500000000E+03 0.  0.
        -11    1    3    3    0    0  0.59904189775E+01 -0.49205161300E+01  0.36733762338E+02  0.37542854105E+02  0.51100000000E-03 0.  1.
         23    2    1    0    0    0 -0.14291526475E+02 -0.62920611873E+01 -0.21045638780E+02  0.98793957287E+02  0.95254865082E+02 0.  0.
         11    1    3    3    0    0 -0.20281945453E+02 -0.13715450573E+01 -0.57779401119E+02  0.61251103183E+02  0.51100000000E-03 0. -1.
         22    1    1    0    0    0  0.14291526475E+02  0.62920611873E+01  0.21045638780E+02  0.26206042713E+02  0.00000000000E+00 0. -1.
</event>
<event>
 5    1  0.1103865E-009  0.9118800E+02  0.7818608E-02  0.1130116E+00
         25   -1    0    0    0    0  0.00000000000E+00  0.00000000000E+00  0.99999998245E-14  0.12500000000E+03  0.12500000000E+03 0.  0.
        -11    1    3    3    0    0 -0.18322549162E+02 -0.23499937134E+02  0.25864666607E+02  0.39458127579E+02  0.51100000000E-03 0. -1.
         23    2    1    0    0    0 -0.91897331001E+01 -0.75821613401E+01 -0.27038044145E+02  0.95453490964E+02  0.90765482100E+02 0.  0.
         11    1    3    3    0    0  0.91328160617E+01  0.15917775794E+02 -0.52902710752E+02  0.55995363385E+02  0.51100000000E-03 0.  1.
         22    1    1    0    0    0  0.91897331001E+01  0.75821613401E+01  0.27038044145E+02  0.29546509036E+02  0.00000000000E+00 0.  1.
</event>
<event>
 5    1  0.1103865E-009  0.9118800E+02  0.7818608E-02  0.1130116E+00
         25   -1    0    0    0    0  0.00000000000E+00  0.00000000000E+00  0.99999998245E-14  0.12500000000E+03  0.12500000000E+03 0.  0.
        -11    1    3    3    0    0 -0.24581108909E+02  0.29550982618E+02 -0.11463505032E+02  0.40111138562E+02  0.51100000000E-03 0.  1.
         23    2    1    0    0    0  0.20312459199E+02 -0.48988637694E+01 -0.18445329337E+02  0.97128418788E+02  0.93043563436E+02 0.  0.
         11    1    3    3    0    0  0.44893568107E+02 -0.34449846387E+02 -0.69818243050E+01  0.57017280226E+02  0.51100000000E-03 0. -1.
         22    1    1    0    0    0 -0.20312459199E+02  0.48988637694E+01  0.18445329337E+02  0.27871581212E+02  0.00000000000E+00 0. -1.
</event>
<event>
 5    1  0.1103865E-009  0.9118800E+02  0.7818608E-02  0.1130116E+00
         25   -1    0    0    0    0  0.00000000000E+00  0.00000000000E+00  0.99999998245E-14  0.12500000000E+03  0.12500000000E+03 0.  0.
        -11    1    3    3    0    0  0.46690361307E+02 -0.38615351141E+01  0.16822198216E+02  0.49778385324E+02  0.51100000000E-03 0.  1.
         23    2    1    0    0    0  0.24469227163E+01  0.94439182790E+01  0.26306614075E+02  0.96942684245E+02  0.92793701625E+02 0.  0.
         11    1    3    3    0    0 -0.44243438590E+02  0.13305453393E+02  0.94844158596E+01  0.47164298921E+02  0.51100000000E-03 0. -1.
         22    1    1    0    0    0 -0.24469227163E+01 -0.94439182790E+01 -0.26306614075E+02  0.28057315755E+02  0.00000000000E+00 0.  1.
</event>
<event>
 5    1  0.1103865E-009  0.9118800E+02  0.7818608E-02  0.1130116E+00
         25   -1    0    0    0    0  0.00000000000E+00  0.00000000000E+00  0.99999998245E-14  0.12500000000E+03  0.12500000000E+03 0.  0.
        -11    1    3    3    0    0  0.43754011634E+02 -0.21902850732E+02 -0.38041799300E+02  0.61978438981E+02  0.51100000000E-03 0.  1.
         23    2    1    0    0    0  0.30099583819E+02 -0.95335795835E+01 -0.26989263139E+02  0.83463336550E+02  0.72393605640E+02 0.  0.
         11    1    3    3    0    0 -0.13654427814E+02  0.12369271149E+02  0.11052536162E+02  0.21484897569E+02  0.51100000000E-03 0. -1.
         22    1    1    0    0    0 -0.30099583819E+02  0.95335795835E+01  0.26989263139E+02  0.41536663450E+02  0.00000000000E+00 0.  1.
</event>
<event>
 5    1  0.1103865E-009  0.9118800E+02  0.7818608E-02  0.1130116E+00
         25   -1    0    0    0    0  0.00000000000E+00  0.00000000000E+00  0.99999998245E-14  0.12500000000E+03  0.12500000000E+03 0.  0.
        -11    1    3    3    0    0 -0.48413001857E+02 -0.19518977575E+02 -0.29638634092E+02  0.60027142739E+02  0.51100000000E-03 0.  1.
         23    2    1    0    0    0 -0.26977890382E+02 -0.70274289342E+01 -0.21752977048E+01  0.97037109466E+02  0.92920812344E+02 0.  0.
         11    1    3    3    0    0  0.21435111475E+02  0.12491548641E+02  0.27463336387E+02  0.37009966727E+02  0.51100000000E-03 0. -1.
         22    1    1    0    0    0  0.26977890382E+02  0.70274289342E+01  0.21752977048E+01  0.27962890534E+02  0.00000000000E+00 0.  1.
</event>
<event>
 5    1  0.1103865E-009  0.9118800E+02  0.7818608E-02  0.1130116E+00
         25   -1    0    0    0    0  0.00000000000E+00  0.00000000000E+00  0.99999998245E-14  0.12500000000E+03  0.12500000000E+03 0.  0.
        -11    1    3    3    0    0  0.12439403944E+02 -0.58892558087E+01  0.46665425742E+02  0.48652688152E+02  0.51100000000E-03 0.  1.
         23    2    1    0    0    0 -0.97701159362E+01 -0.27392041095E+02  0.27174544266E+02  0.85197551120E+02  0.75328532310E+02 0.  0.
         11    1    3    3    0    0 -0.22209519880E+02 -0.21502785287E+02 -0.19490881476E+02  0.36544862968E+02  0.51100000000E-03 0. -1.
         22    1    1    0    0    0  0.97701159362E+01  0.27392041095E+02 -0.27174544266E+02  0.39802448880E+02  0.00000000000E+00 0.  1.
</event>
<event>
 5    1  0.1103865E-009  0.9118800E+02  0.7818608E-02  0.1130116E+00
         25   -1    0    0    0    0  0.00000000000E+00  0.00000000000E+00  0.99999998245E-14  0.12500000000E+03  0.12500000000E+03 0.  0.
        -11    1    3    3    0    0 -0.19356260717E+02  0.17913242201E+02  0.54931701658E+02  0.60934726736E+02  0.51100000000E-03 0.  1.
         23    2    1    0    0    0 -0.14216478624E+02  0.22109097218E+02  0.42435274283E+02  0.75083339978E+02  0.56087743711E+02 0.  0.
         11    1    3    3    0    0  0.51397820923E+01  0.41958550174E+01 -0.12496427375E+02  0.14148613242E+02  0.51100000000E-03 0. -1.
         22    1    1    0    0    0  0.14216478624E+02 -0.22109097218E+02 -0.42435274283E+02  0.49916660022E+02  0.00000000000E+00 0.  1.
</event>
<event>
 5    1  0.1103865E-009  0.9118800E+02  0.7818608E-02  0.1130116E+00
         25   -1    0    0    0    0  0.00000000000E+00  0.00000000000E+00  0.99999998245E-14  0.12500000000E+03  0.12500000000E+03 0.  0.
        -11    1    3    3    0    0 -0.50776238181E+02  0.11172007457E+02 -0.23940323195E+02  0.57237917409E+02  0.51100000000E-03 0.  1.
         23    2    1    0    0    0 -0.30488529442E+02  0.47961980282E+01  0.55958367673E+01  0.93633340436E+02  0.88223211850E+02 0.  0.
         11    1    3    3    0    0  0.20287708739E+02 -0.63758094287E+01  0.29536159963E+02  0.36395423027E+02  0.51100000000E-03 0. -1.
         22    1    1    0    0    0  0.30488529442E+02 -0.47961980282E+01 -0.55958367673E+01  0.31366659564E+02  0.00000000000E+00 0.  1.
</event>
<event>
 5    1  0.1103865E-009  0.9118800E+02  0.7818608E-02  0.1130116E+00
         25   -1    0    0    0    0  0.00000000000E+00  0.00000000000E+00  0.99999998245E-14  0.12500000000E+03  0.12500000000E+03 0.  0.
        -11    1    3    3    0    0  0.33931570284E+02  0.44746291260E+02  0.29976582938E+01  0.56236713977E+02  0.51100000000E-03 0.  1.
         23    2    1    0    0    0  0.12356855941E+02  0.20971321691E+02 -0.18111909400E+02  0.94659771188E+02  0.89665728107E+02 0.  0.
         11    1    3    3    0    0 -0.21574714343E+02 -0.23774969568E+02 -0.21109567694E+02  0.38423057211E+02  0.51100000000E-03 0. -1.
         22    1    1    0    0    0 -0.12356855941E+02 -0.20971321691E+02  0.18111909400E+02  0.30340228812E+02  0.00000000000E+00 0.  1.
</event>
<event>
 5    1  0.1103865E-009  0.9118800E+02  0.7818608E-02  0.1130116E+00
         25   -1    0    0    0    0  0.00000000000E+00  0.00000000000E+00  0.99999998245E-14  0.12500000000E+03  0.12500000000E+03 0.  0.
        -11    1    3    3    0    0 -0.33175303966E+01 -0.79162512348E+01 -0.30544687123E+02  0.31727763130E+02  0.51100000000E-03 0. -1.
         23    2    1    0    0    0  0.18087461281E+01 -0.29366706925E+01  0.31061756356E+02  0.93747347229E+02  0.88384595984E+02 0.  0.
         11    1    3    3    0    0  0.51262765248E+01  0.49795805423E+01  0.61606443479E+02  0.62019584099E+02  0.51100000000E-03 0.  1.
         22    1    1    0    0    0 -0.18087461281E+01  0.29366706925E+01 -0.31061756356E+02  0.31252652771E+02  0.00000000000E+00 0.  1.
</event>
<event>
 5    1  0.1103865E-009  0.9118800E+02  0.7818608E-02  0.1130116E+00
         25   -1    0    0    0    0  0.00000000000E+00  0.00000000000E+00  0.99999998245E-14  0.12500000000E+03  0.12500000000E+03 0.  0.
        -11    1    3    3    0    0 -0.24504218819E+02  0.55583501054E+01  0.18679012867E+02  0.31309064466E+02  0.51100000000E-03 0. -1.
         23    2    1    0    0    0 -0.15599433545E+02 -0.18362144662E+02 -0.30149252462E+02  0.86406113081E+02  0.77308009095E+02 0.  0.
         11    1    3    3    0    0  0.89047852741E+01 -0.23920494767E+02 -0.48828265329E+02  0.55097048614E+02  0.51100000000E-03 0.  1.
         22    1    1    0    0    0  0.15599433545E+02  0.18362144662E+02  0.30149252462E+02  0.38593886919E+02  0.00000000000E+00 0.  1.
</event>
<event>
 5    1  0.1103865E-009  0.9118800E+02  0.7818608E-02  0.1130116E+00
         25   -1    0    0    0    0  0.00000000000E+00  0.00000000000E+00  0.99999998245E-14  0.12500000000E+03  0.12500000000E+03 0.  0.
        -11    1    3    3    0    0  0.25494151855E+02 -0.28904054640E+02 -0.24713437673E+01  0.38619990856E+02  0.51100000000E-03 0.  1.
         23    2    1    0    0    0  0.61183303330E+01  0.23874662178E+02 -0.14899569263E+02  0.96200162771E+02  0.91788020421E+02 0.  0.
         11    1    3    3    0    0 -0.19375821522E+02  0.52778716818E+02 -0.12428225496E+02  0.57580171915E+02  0.51100000000E-03 0. -1.
         22    1    1    0    0    0 -0.61183303330E+01 -0.23874662178E+02  0.14899569263E+02  0.28799837229E+02  0.00000000000E+00 0. -1.
</event>
<event>
 5    1  0.1103865E-009  0.9118800E+02  0.7818608E-02  0.1130116E+00
         25   -1    0    0    0    0  0.00000000000E+00  0.00000000000E+00  0.99999998245E-14  0.12500000000E+03  0.12500000000E+03 0.  0.
        -11    1    3    3    0    0  0.23020955419E+02  0.32712231185E+02 -0.20343314472E+02  0.44876551800E+02  0.51100000000E-03 0.  1.
         23    2    1    0    0    0  0.42262037727E+01  0.18005838352E+02  0.23680553525E+02  0.94952710133E+02  0.90073178767E+02 0.  0.
         11    1    3    3    0    0 -0.18794751647E+02 -0.14706392833E+02  0.44023867997E+02  0.50076158332E+02  0.51100000000E-03 0. -1.
         22    1    1    0    0    0 -0.42262037727E+01 -0.18005838352E+02 -0.23680553525E+02  0.30047289867E+02  0.00000000000E+00 0. -1.
</event>
<event>
 5    1  0.1103865E-009  0.9118800E+02  0.7818608E-02  0.1130116E+00
         25   -1    0    0    0    0  0.00000000000E+00  0.00000000000E+00  0.99999998245E-14  0.12500000000E+03  0.12500000000E+03 0.  0.
        -11    1    3    3    0    0 -0.10880255242E+02 -0.25385617340E+02  0.74798315094E+01  0.28613937190E+02  0.51100000000E-03 0. -1.
         23    2    1    0    0    0  0.32486648050E+02  0.67880257870E+01  0.22789313731E+02  0.84740685352E+02  0.74566556431E+02 0.  0.
         11    1    3    3    0    0  0.43366903291E+02  0.32173643127E+02  0.15309482222E+02  0.56126748162E+02  0.51100000000E-03 0.  1.
         22    1    1    0    0    0 -0.32486648050E+02 -0.67880257870E+01 -0.22789313731E+02  0.40259314648E+02  0.00000000000E+00 0.  1.
</event>
<event>
 5    1  0.1103865E-009  0.9118800E+02  0.7818608E-02  0.1130116E+00
         25   -1    0    0    0    0  0.00000000000E+00  0.00000000000E+00  0.99999998245E-14  0.12500000000E+03  0.12500000000E+03 0.  0.
        -11    1    3    3    0    0  0.35344207205E+02 -0.15412117698E+02 -0.35906826215E+02  0.52688200994E+02  0.51100000000E-03 0.  1.
         23    2    1    0    0    0  0.30025525415E+02  0.22508518917E+01  0.19781022754E+01  0.94825318571E+02  0.89896215954E+02 0.  0.
         11    1    3    3    0    0 -0.53186817896E+01  0.17662969590E+02  0.37884928491E+02  0.42137117577E+02  0.51100000000E-03 0. -1.
         22    1    1    0    0    0 -0.30025525415E+02 -0.22508518917E+01 -0.19781022754E+01  0.30174681429E+02  0.00000000000E+00 0. -1.
</event>
<event>
 5    1  0.1103865E-009  0.9118800E+02  0.7818608E-02  0.1130116E+00
         25   -1    0    0    0    0  0.00000000000E+00  0.00000000000E+00  0.99999998245E-14  0.12500000000E+03  0.12500000000E+03 0.  0.
        -11    1    3    3    0    0  0.35754711903E+02 -0.17490585751E+02 -0.17381967142E+02  0.43433314346E+02  0.51100000000E-03 0. -1.
         23    2    1    0    0    0  0.12007963141E+02  0.43223662783E+01  0.25144594622E+02  0.96802044972E+02  0.92604056299E+02 0.  0.
         11    1    3    3    0    0 -0.23746748761E+02  0.21812952029E+02  0.42526561763E+02  0.53368730626E+02  0.51100000000E-03 0.  1.
         22    1    1    0    0    0 -0.12007963141E+02 -0.43223662783E+01 -0.25144594622E+02  0.28197955028E+02  0.00000000000E+00 0.  1.
</event>
<event>
 5    1  0.1103865E-009  0.9118800E+02  0.7818608E-02  0.1130116E+00
         25   -1    0    0    0    0  0.00000000000E+00  0.00000000000E+00  0.99999998245E-14  0.12500000000E+03  0.12500000000E+03 0.  0.
        -11    1    3    3    0    0  0.48044526035E+02 -0.19670255335E+02  0.32381265498E+02  0.61186124100E+02  0.51100000000E-03 0.  1.
         23    2    1    0    0    0  0.26005108178E+02 -0.32658412448E+01  0.89211145012E+01  0.97313944768E+02  0.93292476610E+02 0.  0.
         11    1    3    3    0    0 -0.22039417857E+02  0.16404414090E+02 -0.23460150997E+02  0.36127820668E+02  0.51100000000E-03 0. -1.
         22    1    1    0    0    0 -0.26005108178E+02  0.32658412448E+01 -0.89211145012E+01  0.27686055232E+02  0.00000000000E+00 0.  1.
</event>
<event>
 5    1  0.1103865E-009  0.9118800E+02  0.7818608E-02  0.1130116E+00
         25   -1    0    0    0    0  0.00000000000E+00  0.00000000000E+00  0.99999998245E-14  0.12500000000E+03  0.12500000000E+03 0.  0.
        -11    1    3    3    0    0  0.25488905144E+02 -0.10748473994E+01  0.43054266463E+02  0.50045074117E+02  0.51100000000E-03 0.  1.
         23    2    1    0    0    0  0.24343141918E+02 -0.15506859285E+02 -0.69650201973E+00  0.96128970257E+02  0.91691016814E+02 0.  0.
         11    1    3    3    0    0 -0.11457632261E+01 -0.14432011885E+02 -0.43750768483E+02  0.46083896141E+02  0.51100000000E-03 0. -1.
         22    1    1    0    0    0 -0.24343141918E+02  0.15506859285E+02  0.69650201973E+00  0.28871029743E+02  0.00000000000E+00 0. -1.
</event>
<event>
 5    1  0.1103865E-009  0.9118800E+02  0.7818608E-02  0.1130116E+00
         25   -1    0    0    0    0  0.00000000000E+00  0.00000000000E+00  0.99999998245E-14  0.12500000000E+03  0.12500000000E+03 0.  0.
        -11    1    3    3    0    0 -0.45366407283E+01  0.25698881541E+02  0.12054263349E+01  0.26124063131E+02  0.51100000000E-03 0.  1.
         23    2    1    0    0    0 -0.63770282729E+01 -0.16172487845E+02 -0.37810042118E+02  0.83384916945E+02  0.72258073848E+02 0.  0.
         11    1    3    3    0    0 -0.18403875446E+01 -0.41871369386E+02 -0.39015468453E+02  0.57260853814E+02  0.51100000000E-03 0. -1.
         22    1    1    0    0    0  0.63770282729E+01  0.16172487845E+02  0.37810042118E+02  0.41615083055E+02  0.00000000000E+00 0. -1.
</event>
<event>
 5    1  0.1103865E-009  0.9118800E+02  0.7818608E-02  0.1130116E+00
         25   -1    0    0    0    0  0.00000000000E+00  0.00000000000E+00  0.99999998245E-14  0.12500000000E+03  0.12500000000E+03 0.  0.
        -11    1    3    3    0    0 -0.88653712765E+01  0.78130538782E+00 -0.32367338311E+02  0.33568584057E+02  0.51100000000E-03 0.  1.
         23    2    1    0    0    0  0.36051814030E+02 -0.63137915550E+01 -0.18121438077E+01  0.88354657542E+02  0.80396917761E+02 0.  0.
         11    1    3    3    0    0  0.44917185307E+02 -0.70950969428E+01  0.30555194503E+02  0.54786073485E+02  0.51100000000E-03 0. -1.
         22    1    1    0    0    0 -0.36051814030E+02  0.63137915550E+01  0.18121438077E+01  0.36645342458E+02  0.00000000000E+00 0.  1.
</event>
<event>
 5    1  0.1103865E-009  0.9118800E+02  0.7818608E-02  0.1130116E+00
         25   -1    0    0    0    0  0.00000000000E+00  0.00000000000E+00  0.99999998245E-14  0.12500000000E+03  0.12500000000E+03 0.  0.
        -11    1    3    3    0    0  0.44945653350E+01 -0.35272370224E+02 -0.10432712179E+02  0.37056479898E+02  0.51100000000E-03 0.  1.
         23    2    1    0    0    0 -0.15584852872E+02  0.19844301026E+02 -0.14570760038E+02  0.95862550380E+02  0.91327091244E+02 0.  0.
         11    1    3    3    0    0 -0.20079418207E+02  0.55116671250E+02 -0.41380478586E+01  0.58806070482E+02  0.51100000000E-03 0. -1.
         22    1    1    0    0    0  0.15584852872E+02 -0.19844301026E+02  0.14570760038E+02  0.29137449620E+02  0.00000000000E+00 0. -1.
</event>
<event>
 5    1  0.1103865E-009  0.9118800E+02  0.7818608E-02  0.1130116E+00
         25   -1    0    0    0    0  0.00000000000E+00  0.00000000000E+00  0.99999998245E-14  0.12500000000E+03  0.12500000000E+03 0.  0.
        -11    1    3    3    0    0 -0.15504444656E+01 -0.11345506865E+02 -0.16388361719E+02  0.19992568723E+02  0.51100000000E-03 0.  1.
         23    2    1    0    0    0 -0.24414241850E+02  0.15969540512E+02  0.33043001391E+02  0.80921418238E+02  0.67862762687E+02 0.  0.
         11    1    3    3    0    0 -0.22863797384E+02  0.27315047377E+02  0.49431363110E+02  0.60928849515E+02  0.51100000000E-03 0. -1.
         22    1    1    0    0    0  0.24414241850E+02 -0.15969540512E+02 -0.33043001391E+02  0.44078581762E+02  0.00000000000E+00 0. -1.
</event>
<event>
 5    1  0.1103865E-009  0.9118800E+02  0.7818608E-02  0.1130116E+00
         25   -1    0    0    0    0  0.00000000000E+00  0.00000000000E+00  0.99999998245E-14  0.12500000000E+03  0.12500000000E+03 0.  0.
        -11    1    3    3    0    0  0.39828537171E+01 -0.38096853431E+02 -0.22482885154E+02  0.44415239391E+02  0.51100000000E-03 0. -1.
         23    2    1    0    0    0  0.25423843431E+02 -0.81932023317E+01  0.12787671919E+02  0.95385393260E+02  0.90671651110E+02 0.  0.
         11    1    3    3    0    0  0.21440989714E+02  0.29903651099E+02  0.35270557073E+02  0.50970153869E+02  0.51100000000E-03 0.  1.
         22    1    1    0    0    0 -0.25423843431E+02  0.81932023317E+01 -0.12787671919E+02  0.29614606740E+02  0.00000000000E+00 0.  1.
</event>
<event>
 5    1  0.1103865E-009  0.9118800E+02  0.7818608E-02  0.1130116E+00
         25   -1    0    0    0    0  0.00000000000E+00  0.00000000000E+00  0.99999998245E-14  0.12500000000E+03  0.12500000000E+03 0.  0.
        -11    1    3    3    0    0 -0.19932990699E+02 -0.23360273002E+02 -0.30605922495E+02  0.43356071835E+02  0.51100000000E-03 0. -1.
         23    2    1    0    0    0  0.23299300965E+02 -0.17588061164E+02 -0.15451918028E+01  0.95766715226E+02  0.91195826695E+02 0.  0.
         11    1    3    3    0    0  0.43232291665E+02  0.57722118382E+01  0.29060730692E+02  0.52410643391E+02  0.51100000000E-03 0.  1.
         22    1    1    0    0    0 -0.23299300965E+02  0.17588061164E+02  0.15451918028E+01  0.29233284774E+02  0.00000000000E+00 0.  1.
</event>
<event>
 5    1  0.1103865E-009  0.9118800E+02  0.7818608E-02  0.1130116E+00
         25   -1    0    0    0    0  0.00000000000E+00  0.00000000000E+00  0.99999998245E-14  0.12500000000E+03  0.12500000000E+03 0.  0.
        -11    1    3    3    0    0 -0.42914746575E+02 -0.12888686539E+01 -0.19092596727E+01  0.42976527649E+02  0.51100000000E-03 0.  1.
         23    2    1    0    0    0  0.27780465563E+01  0.19516454318E+00 -0.28833305132E+02  0.96032516217E+02  0.91559429084E+02 0.  0.
         11    1    3    3    0    0  0.45692793132E+02  0.14840331971E+01 -0.26924045460E+02  0.53055988568E+02  0.51100000000E-03 0. -1.
         22    1    1    0    0    0 -0.27780465563E+01 -0.19516454318E+00  0.28833305132E+02  0.28967483783E+02  0.00000000000E+00 0. -1.
</event>
<event>
 5    1  0.1103865E-009  0.9118800E+02  0.7818608E-02  0.1130116E+00
         25   -1    0    0    0    0  0.00000000000E+00  0.00000000000E+00  0.99999998245E-14  0.12500000000E+03  0.12500000000E+03 0.  0.
        -11    1    3    3    0    0 -0.17933001624E+02 -0.34455799950E+02 -0.44370562721E+02  0.58970683682E+02  0.51100000000E-03 0.  1.
         23    2    1    0    0    0 -0.10939805870E+02 -0.26929901225E+01 -0.26780295503E+02  0.95946329397E+02  0.91441688246E+02 0.  0.
         11    1    3    3    0    0  0.69931957538E+01  0.31762809827E+02  0.17590267218E+02  0.36975645715E+02  0.51100000000E-03 0. -1.
         22    1    1    0    0    0  0.10939805870E+02  0.26929901225E+01  0.26780295503E+02  0.29053670603E+02  0.00000000000E+00 0.  1.
</event>
<event>
 5    1  0.1103865E-009  0.9118800E+02  0.7818608E-02  0.1130116E+00
         25   -1    0    0    0    0  0.00000000000E+00  0.00000000000E+00  0.99999998245E-14  0.12500000000E+03  0.12500000000E+03 0.  0.
        -11    1    3    3    0    0 -0.21063284461E+02 -0.33697323719E+01  0.36317448786E+02  0.42118572330E+02  0.51100000000E-03 0.  1.
         23    2    1    0    0    0  0.25652058650E+02 -0.76170360675E+01  0.73505655736E+01  0.97249717737E+02  0.93206380867E+02 0.  0.
         11    1    3    3    0    0  0.46715343111E+02 -0.42473036956E+01 -0.28966883212E+02  0.55131145407E+02  0.51100000000E-03 0. -1.
         22    1    1    0    0    0 -0.25652058650E+02  0.76170360675E+01 -0.73505655736E+01  0.27750282263E+02  0.00000000000E+00 0. -1.
</event>
<event>
 5    1  0.1103865E-009  0.9118800E+02  0.7818608E-02  0.1130116E+00
         25   -1    0    0    0    0  0.00000000000E+00  0.00000000000E+00  0.99999998245E-14  0.12500000000E+03  0.12500000000E+03 0.  0.
        -11    1    3    3    0    0  0.33182130817E+02  0.48205505565E+02  0.16319372739E+02  0.60754806387E+02  0.51100000000E-03 0.  1.
         23    2    1    0    0    0  0.22665148451E+02  0.20144456990E+02  0.43064020012E+00  0.94673550279E+02  0.89684935021E+02 0.  0.
         11    1    3    3    0    0 -0.10516982366E+02 -0.28061048575E+02 -0.15888732539E+02  0.33918743891E+02  0.51100000000E-03 0. -1.
         22    1    1    0    0    0 -0.22665148451E+02 -0.20144456990E+02 -0.43064020012E+00  0.30326449721E+02  0.00000000000E+00 0.  1.
</event>
<event>
 5    1  0.1103865E-009  0.9118800E+02  0.7818608E-02  0.1130116E+00
         25   -1    0    0    0    0  0.00000000000E+00  0.00000000000E+00  0.99999998245E-14  0.12500000000E+03  0.12500000000E+03 0.  0.
        -11    1    3    3    0    0  0.44594193866E+02 -0.77154897749E+01 -0.38774465115E+01  0.45422521955E+02  0.51100000000E-03 0.  1.
         23    2    1    0    0    0  0.47319454836E+01 -0.21637040907E+02 -0.24125295073E+02  0.92249691458E+02  0.86240494343E+02 0.  0.
         11    1    3    3    0    0 -0.39862248383E+02 -0.13921551132E+02 -0.20247848561E+02  0.46827169503E+02  0.51100000000E-03 0. -1.
         22    1    1    0    0    0 -0.47319454836E+01  0.21637040907E+02  0.24125295073E+02  0.32750308542E+02  0.00000000000E+00 0.  1.
</event>
<event>
 5    1  0.1103865E-009  0.9118800E+02  0.7818608E-02  0.1130116E+00
         25   -1    0    0    0    0  0.00000000000E+00  0.00000000000E+00  0.99999998245E-14  0.12500000000E+03  0.12500000000E+03 0.  0.
        -11    1    3    3    0    0 -0.30691539609E+02 -0.21464050438E+02 -0.39605103144E+02  0.54509084198E+02  0.51100000000E-03 0.  1.
         23    2    1    0    0    0  0.58952196482E+01 -0.20313778963E+02 -0.19287892649E+02  0.96374381521E+02  0.92024971504E+02 0.  0.
         11    1    3    3    0    0  0.36586759257E+02  0.11502714742E+01  0.20317210495E+02  0.41865297323E+02  0.51100000000E-03 0. -1.
         22    1    1    0    0    0 -0.58952196482E+01  0.20313778963E+02  0.19287892649E+02  0.28625618479E+02  0.00000000000E+00 0.  1.
</event>
<event>
 5    1  0.1103865E-009  0.9118800E+02  0.7818608E-02  0.1130116E+00
         25   -1    0    0    0    0  0.00000000000E+00  0.00000000000E+00  0.99999998245E-14  0.12500000000E+03  0.12500000000E+03 0.  0.
        -11    1    3    3    0    0 -0.15802870126E+02  0.31110331750E+02 -0.37860691580E+02  0.51488012323E+02  0.51100000000E-03 0.  1.
         23    2    1    0    0    0  0.15196715469E+02  0.36652966044E+01 -0.26181378181E+02  0.94506736421E+02  0.89452133039E+02 0.  0.
         11    1    3    3    0    0  0.30999585596E+02 -0.27445035146E+02  0.11679313399E+02  0.43018724098E+02  0.51100000000E-03 0. -1.
         22    1    1    0    0    0 -0.15196715469E+02 -0.36652966044E+01  0.26181378181E+02  0.30493263579E+02  0.00000000000E+00 0.  1.
</event>
<event>
 5    1  0.1103865E-009  0.9118800E+02  0.7818608E-02  0.1130116E+00
         25   -1    0    0    0    0  0.00000000000E+00  0.00000000000E+00  0.99999998245E-14  0.12500000000E+03  0.12500000000E+03 0.  0.
        -11    1    3    3    0    0  0.18257283984E+02  0.17536157059E+01 -0.50306368606E+01  0.19018698536E+02  0.51100000000E-03 0. -1.
         23    2    1    0    0    0 -0.34897857775E+02  0.39473644821E+01  0.26627986046E+02  0.80926291233E+02  0.67871737920E+02 0.  0.
         11    1    3    3    0    0 -0.53155141758E+02  0.21937487762E+01  0.31658622906E+02  0.61907592698E+02  0.51100000000E-03 0.  1.
         22    1    1    0    0    0  0.34897857775E+02 -0.39473644821E+01 -0.26627986046E+02  0.44073708767E+02  0.00000000000E+00 0.  1.
</event>
<event>
 5    1  0.1103865E-009  0.9118800E+02  0.7818608E-02  0.1130116E+00
         25   -1    0    0    0    0  0.00000000000E+00  0.00000000000E+00  0.99999998245E-14  0.12500000000E+03  0.12500000000E+03 0.  0.
        -11    1    3    3    0    0 -0.46050936912E+02  0.60012207796E+01  0.16309067640E+02  0.49220820075E+02  0.51100000000E-03 0.  1.
         23    2    1    0    0    0 -0.13359431432E+00  0.23286346365E+02  0.12843966842E+02  0.98406029655E+02  0.94744432099E+02 0.  0.
         11    1    3    3    0    0  0.45917342597E+02  0.17285125585E+02 -0.34651007979E+01  0.49185209581E+02  0.51100000000E-03 0. -1.
         22    1    1    0    0    0  0.13359431432E+00 -0.23286346365E+02 -0.12843966842E+02  0.26593970345E+02  0.00000000000E+00 0.  1.
</event>
<event>
 5    1  0.1103865E-009  0.9118800E+02  0.7818608E-02  0.1130116E+00
         25   -1    0    0    0    0  0.00000000000E+00  0.00000000000E+00  0.99999998245E-14  0.12500000000E+03  0.12500000000E+03 0.  0.
        -11    1    3    3    0    0 -0.57997331358E+02  0.13088280008E+02 -0.62920993786E+01  0.59787825124E+02  0.51100000000E-03 0.  1.
         23    2    1    0    0    0 -0.27646396664E+02  0.10350340367E+02  0.93397859861E+01  0.94037370969E+02  0.88793821533E+02 0.  0.
         11    1    3    3    0    0  0.30350934694E+02 -0.27379396413E+01  0.15631885365E+02  0.34249545845E+02  0.51100000000E-03 0. -1.
         22    1    1    0    0    0  0.27646396664E+02 -0.10350340367E+02 -0.93397859861E+01  0.30962629031E+02  0.00000000000E+00 0.  1.
</event>
<event>
 5    1  0.1103865E-009  0.9118800E+02  0.7818608E-02  0.1130116E+00
         25   -1    0    0    0    0  0.00000000000E+00  0.00000000000E+00  0.99999998245E-14  0.12500000000E+03  0.12500000000E+03 0.  0.
        -11    1    3    3    0    0  0.19837138475E+01 -0.10070176154E+02  0.40312503799E+02  0.41598576072E+02  0.51100000000E-03 0.  1.
         23    2    1    0    0    0 -0.32662008233E+02 -0.16449851822E+00  0.51717828510E+01  0.91930661037E+02  0.85776834048E+02 0.  0.
         11    1    3    3    0    0 -0.34645722081E+02  0.99056776355E+01 -0.35140720948E+02  0.50332084965E+02  0.51100000000E-03 0. -1.
         22    1    1    0    0    0  0.32662008233E+02  0.16449851822E+00 -0.51717828510E+01  0.33069338963E+02  0.00000000000E+00 0. -1.
</event>
<event>
 5    1  0.1103865E-009  0.9118800E+02  0.7818608E-02  0.1130116E+00
         25   -1    0    0    0    0  0.00000000000E+00  0.00000000000E+00  0.99999998245E-14  0.12500000000E+03  0.12500000000E+03 0.  0.
        -11    1    3    3    0    0  0.13849042015E+02  0.26935689376E+02 -0.17972512633E+02  0.35218440305E+02  0.51100000000E-03 0.  1.
         23    2    1    0    0    0 -0.15075129458E+02 -0.34424829843E+01  0.25213771921E+02  0.95422229432E+02  0.90722419269E+02 0.  0.
         11    1    3    3    0    0 -0.28924171474E+02 -0.30378172360E+02  0.43186284555E+02  0.60203789127E+02  0.51100000000E-03 0. -1.
         22    1    1    0    0    0  0.15075129458E+02  0.34424829843E+01 -0.25213771921E+02  0.29577770568E+02  0.00000000000E+00 0. -1.
</event>
<event>
 5    1  0.1103865E-009  0.9118800E+02  0.7818608E-02  0.1130116E+00
         25   -1    0    0    0    0  0.00000000000E+00  0.00000000000E+00  0.99999998245E-14  0.12500000000E+03  0.12500000000E+03 0.  0.
        -11    1    3    3    0    0 -0.42129842597E+02 -0.27922438334E+02  0.70018806764E+01  0.51025606641E+02  0.51100000000E-03 0.  1.
         23    2    1    0    0    0 -0.30703439973E+01 -0.28284456392E+02 -0.11582014655E+02  0.94282243749E+02  0.89137875996E+02 0.  0.
         11    1    3    3    0    0  0.39059498600E+02 -0.36201805861E+00 -0.18583895331E+02  0.43256637108E+02  0.51100000000E-03 0. -1.
         22    1    1    0    0    0  0.30703439973E+01  0.28284456392E+02  0.11582014655E+02  0.30717756251E+02  0.00000000000E+00 0.  1.
</event>
<event>
 5    1  0.1103865E-009  0.9118800E+02  0.7818608E-02  0.1130116E+00
         25   -1    0    0    0    0  0.00000000000E+00  0.00000000000E+00  0.99999998245E-14  0.12500000000E+03  0.12500000000E+03 0.  0.
        -11    1    3    3    0    0 -0.36184149429E+02 -0.77697911952E+00  0.32258895039E+02  0.48482292395E+02  0.51100000000E-03 0.  1.
         23    2    1    0    0    0 -0.99250270734E+01  0.25297849028E+02 -0.37539066445E+00  0.97822284018E+02  0.93971117927E+02 0.  0.
         11    1    3    3    0    0  0.26259122355E+02  0.26074828147E+02 -0.32634285703E+02  0.49339991624E+02  0.51100000000E-03 0. -1.
         22    1    1    0    0    0  0.99250270734E+01 -0.25297849028E+02  0.37539066445E+00  0.27177715982E+02  0.00000000000E+00 0. -1.
</event>
<event>
 5    1  0.1103865E-009  0.9118800E+02  0.7818608E-02  0.1130116E+00
         25   -1    0    0    0    0  0.00000000000E+00  0.00000000000E+00  0.99999998245E-14  0.12500000000E+03  0.12500000000E+03 0.  0.
        -11    1    3    3    0    0 -0.39469277131E+02 -0.25411587428E+02  0.32734172305E+02  0.57228477611E+02  0.51100000000E-03 0.  1.
         23    2    1    0    0    0 -0.15002748389E+02  0.57141264944E+01  0.21087816825E+02  0.98496609288E+02  0.94863862044E+02 0.  0.
         11    1    3    3    0    0  0.24466528742E+02  0.31125713922E+02 -0.11646355480E+02  0.41268131677E+02  0.51100000000E-03 0. -1.
         22    1    1    0    0    0  0.15002748389E+02 -0.57141264944E+01 -0.21087816825E+02  0.26503390712E+02  0.00000000000E+00 0.  1.
</event>
<event>
 5    1  0.1103865E-009  0.9118800E+02  0.7818608E-02  0.1130116E+00
         25   -1    0    0    0    0  0.00000000000E+00  0.00000000000E+00  0.99999998245E-14  0.12500000000E+03  0.12500000000E+03 0.  0.
        -11    1    3    3    0    0 -0.28419251053E+02 -0.20847248216E+02 -0.72788185283E+01  0.35989481630E+02  0.51100000000E-03 0. -1.
         23    2    1    0    0    0  0.14253579359E+02  0.17975450273E+02 -0.19419477198E+02  0.94943429475E+02  0.90060298516E+02 0.  0.
         11    1    3    3    0    0  0.42672830412E+02  0.38822698489E+02 -0.12140658670E+02  0.58953947845E+02  0.51100000000E-03 0.  1.
         22    1    1    0    0    0 -0.14253579359E+02 -0.17975450273E+02  0.19419477198E+02  0.30056570525E+02  0.00000000000E+00 0.  1.
</event>
<event>
 5    1  0.1103865E-009  0.9118800E+02  0.7818608E-02  0.1130116E+00
         25   -1    0    0    0    0  0.00000000000E+00  0.00000000000E+00  0.99999998245E-14  0.12500000000E+03  0.12500000000E+03 0.  0.
        -11    1    3    3    0    0 -0.28525094842E+02  0.11962172243E+01  0.47787608385E+02  0.55666574232E+02  0.51100000000E-03 0. -1.
         23    2    1    0    0    0 -0.31573249272E+02 -0.46435366115E+00  0.12636382560E+02  0.90988768648E+02  0.84393081245E+02 0.  0.
         11    1    3    3    0    0 -0.30481544297E+01 -0.16605708854E+01 -0.35151225825E+02  0.35322194416E+02  0.51100000000E-03 0.  1.
         22    1    1    0    0    0  0.31573249272E+02  0.46435366115E+00 -0.12636382560E+02  0.34011231352E+02  0.00000000000E+00 0. -1.
</event>
<event>
 5    1  0.1103865E-009  0.9118800E+02  0.7818608E-02  0.1130116E+00
         25   -1    0    0    0    0  0.00000000000E+00  0.00000000000E+00  0.99999998245E-14  0.12500000000E+03  0.12500000000E+03 0.  0.
        -11    1    3    3    0    0 -0.51070117179E+01  0.15580840202E+02 -0.33154161587E+02  0.36987059641E+02  0.51100000000E-03 0.  1.
         23    2    1    0    0    0 -0.16010146784E+02  0.15571009029E+02  0.22262361278E+02  0.93465988966E+02  0.87985778632E+02 0.  0.
         11    1    3    3    0    0 -0.10903135066E+02 -0.98311730765E-02  0.55416522865E+02  0.56478929325E+02  0.51100000000E-03 0. -1.
         22    1    1    0    0    0  0.16010146784E+02 -0.15571009029E+02 -0.22262361278E+02  0.31534011034E+02  0.00000000000E+00 0. -1.
</event>
<event>
 5    1  0.1103865E-009  0.9118800E+02  0.7818608E-02  0.1130116E+00
         25   -1    0    0    0    0  0.00000000000E+00  0.00000000000E+00  0.99999998245E-14  0.12500000000E+03  0.12500000000E+03 0.  0.
        -11    1    3    3    0    0  0.30070567318E+02  0.47387571658E+02  0.21251152436E+02  0.60011935868E+02  0.51100000000E-03 0.  1.
         23    2    1    0    0    0  0.35085410442E+01  0.24595362154E+02  0.16114393770E+02  0.95387242845E+02  0.90674200913E+02 0.  0.
         11    1    3    3    0    0 -0.26562026274E+02 -0.22792209504E+02 -0.51367586663E+01  0.35375306977E+02  0.51100000000E-03 0. -1.
         22    1    1    0    0    0 -0.35085410442E+01 -0.24595362154E+02 -0.16114393770E+02  0.29612757155E+02  0.00000000000E+00 0.  1.
</event>
<event>
 5    1  0.1103865E-009  0.9118800E+02  0.7818608E-02  0.1130116E+00
         25   -1    0    0    0    0  0.00000000000E+00  0.00000000000E+00  0.99999998245E-14  0.12500000000E+03  0.12500000000E+03 0.  0.
        -11    1    3    3    0    0  0.24663456774E+02 -0.16098967985E+02  0.42988796465E+02  0.52110454729E+02  0.51100000000E-03 0.  1.
         23    2    1    0    0    0 -0.78725210760E+01 -0.23569771871E+02  0.13148022049E+02  0.96886280610E+02  0.92717690613E+02 0.  0.
         11    1    3    3    0    0 -0.32535977850E+02 -0.74708038855E+01 -0.29840774417E+02  0.44775825882E+02  0.51100000000E-03 0. -1.
         22    1    1    0    0    0  0.78725210760E+01  0.23569771871E+02 -0.13148022049E+02  0.28113719390E+02  0.00000000000E+00 0. -1.
</event>
<event>
 5    1  0.1103865E-009  0.9118800E+02  0.7818608E-02  0.1130116E+00
         25   -1    0    0    0    0  0.00000000000E+00  0.00000000000E+00  0.99999998245E-14  0.12500000000E+03  0.12500000000E+03 0.  0.
        -11    1    3    3    0    0  0.24256691112E+02  0.26711223969E+02  0.32434438294E+01  0.36227013094E+02  0.51100000000E-03 0.  1.
         23    2    1    0    0    0  0.15034565082E+01 -0.27986686672E+02 -0.64081347956E+01  0.96249709499E+02  0.91855470031E+02 0.  0.
         11    1    3    3    0    0 -0.22753234603E+02 -0.54697910641E+02 -0.96515786250E+01  0.60022696404E+02  0.51100000000E-03 0. -1.
         22    1    1    0    0    0 -0.15034565082E+01  0.27986686672E+02  0.64081347956E+01  0.28750290501E+02  0.00000000000E+00 0. -1.
</event>
<event>
 5    1  0.1103865E-009  0.9118800E+02  0.7818608E-02  0.1130116E+00
         25   -1    0    0    0    0  0.00000000000E+00  0.00000000000E+00  0.99999998245E-14  0.12500000000E+03  0.12500000000E+03 0.  0.
        -11    1    3    3    0    0  0.55885215844E+01 -0.17803517744E+02  0.50185243563E+02  0.53542090819E+02  0.51100000000E-03 0. -1.
         23    2    1    0    0    0 -0.18175437118E+02 -0.17334228014E+02  0.15852819357E+02  0.95299261679E+02  0.90552832202E+02 0.  0.
         11    1    3    3    0    0 -0.23763958702E+02  0.46928972969E+00 -0.34332424207E+02  0.41757170860E+02  0.51100000000E-03 0.  1.
         22    1    1    0    0    0  0.18175437118E+02  0.17334228014E+02 -0.15852819357E+02  0.29700738321E+02  0.00000000000E+00 0. -1.
</event>
<event>
 5    1  0.1103865E-009  0.9118800E+02  0.7818608E-02  0.1130116E+00
         25   -1    0    0    0    0  0.00000000000E+00  0.00000000000E+00  0.99999998245E-14  0.12500000000E+03  0.12500000000E+03 0.  0.
        -11    1    3    3    0    0  0.13439131928E+02  0.52111577512E+01 -0.34406226168E+02  0.37303549851E+02  0.51100000000E-03 0.  1.
         23    2    1    0    0    0 -0.10248941828E+02 -0.27523999782E+02  0.66262375756E+01  0.94891556051E+02  0.89988271529E+02 0.  0.
         11    1    3    3    0    0 -0.23688073757E+02 -0.32735157533E+02  0.41032463743E+02  0.57588006201E+02  0.51100000000E-03 0. -1.
         22    1    1    0    0    0  0.10248941828E+02  0.27523999782E+02 -0.66262375756E+01  0.30108443949E+02  0.00000000000E+00 0. -1.
</event>
<event>
 5    1  0.1103865E-009  0.9118800E+02  0.7818608E-02  0.1130116E+00
         25   -1    0    0    0    0  0.00000000000E+00  0.00000000000E+00  0.99999998245E-14  0.12500000000E+03  0.12500000000E+03 0.  0.
        -11    1    3    3    0    0 -0.43824452192E+02 -0.32372662649E+02 -0.72238525454E+01  0.54961404119E+02  0.51100000000E-03 0.  1.
         23    2    1    0    0    0 -0.57693081019E+01 -0.28621977130E+02 -0.11869205657E+02  0.93482060128E+02  0.88008607716E+02 0.  0.
         11    1    3    3    0    0  0.38055144090E+02  0.37506855184E+01 -0.46453531112E+01  0.38520656009E+02  0.51100000000E-03 0. -1.
         22    1    1    0    0    0  0.57693081019E+01  0.28621977130E+02  0.11869205657E+02  0.31517939872E+02  0.00000000000E+00 0.  1.
</event>
<event>
 5    1  0.1103865E-009  0.9118800E+02  0.7818608E-02  0.1130116E+00
         25   -1    0    0    0    0  0.00000000000E+00  0.00000000000E+00  0.99999998245E-14  0.12500000000E+03  0.12500000000E+03 0.  0.
        -11    1    3    3    0    0  0.30656907483E+02 -0.19680979087E+02 -0.53036576848E+01  0.36814612579E+02  0.51100000000E-03 0.  1.
         23    2    1    0    0    0 -0.26054032738E+02 -0.69703163145E+01 -0.12309731191E+02  0.95353290007E+02  0.90627382737E+02 0.  0.
         11    1    3    3    0    0 -0.56710940221E+02  0.12710662772E+02 -0.70060735060E+01  0.58538677428E+02  0.51100000000E-03 0. -1.
         22    1    1    0    0    0  0.26054032738E+02  0.69703163145E+01  0.12309731191E+02  0.29646709993E+02  0.00000000000E+00 0. -1.
</event>
<event>
 5    1  0.1103865E-009  0.9118800E+02  0.7818608E-02  0.1130116E+00
         25   -1    0    0    0    0  0.00000000000E+00  0.00000000000E+00  0.99999998245E-14  0.12500000000E+03  0.12500000000E+03 0.  0.
        -11    1    3    3    0    0  0.10104236632E+02 -0.21079114127E+01 -0.50663229130E+02  0.51703981225E+02  0.51100000000E-03 0. -1.
         23    2    1    0    0    0 -0.11721809887E+02  0.19066234608E+02 -0.18547206127E+02  0.95932475436E+02  0.91422748039E+02 0.  0.
         11    1    3    3    0    0 -0.21826046520E+02  0.21174146020E+02  0.32116023002E+02  0.44228494210E+02  0.51100000000E-03 0.  1.
         22    1    1    0    0    0  0.11721809887E+02 -0.19066234608E+02  0.18547206127E+02  0.29067524564E+02  0.00000000000E+00 0. -1.
</event>
<event>
 5    1  0.1103865E-009  0.9118800E+02  0.7818608E-02  0.1130116E+00
         25   -1    0    0    0    0  0.00000000000E+00  0.00000000000E+00  0.99999998245E-14  0.12500000000E+03  0.12500000000E+03 0.  0.
        -11    1    3    3    0    0 -0.95130080004E+01 -0.61306400896E+02 -0.12071283790E+00  0.62040202159E+02  0.51100000000E-03 0. -1.
         23    2    1    0    0    0 -0.81339422527E+01 -0.29848227453E+02  0.40337197813E+01  0.93801464875E+02  0.88461100031E+02 0.  0.
         11    1    3    3    0    0  0.13790657477E+01  0.31458173443E+02  0.41544326192E+01  0.31761262716E+02  0.51100000000E-03 0.  1.
         22    1    1    0    0    0  0.81339422527E+01  0.29848227453E+02 -0.40337197813E+01  0.31198535125E+02  0.00000000000E+00 0. -1.
</event>
<event>
 5    1  0.1103865E-009  0.9118800E+02  0.7818608E-02  0.1130116E+00
         25   -1    0    0    0    0  0.00000000000E+00  0.00000000000E+00  0.99999998245E-14  0.12500000000E+03  0.12500000000E+03 0.  0.
        -11    1    3    3    0    0  0.25928013477E+02 -0.29663509243E+02 -0.39327650473E+02  0.55667313169E+02  0.51100000000E-03 0. -1.
         23    2    1    0    0    0 -0.69896610457E+01 -0.10214116362E+02 -0.26081170381E+02  0.96131141639E+02  0.91693976955E+02 0.  0.
         11    1    3    3    0    0 -0.32917674523E+02  0.19449392881E+02  0.13246480092E+02  0.40463828470E+02  0.51100000000E-03 0.  1.
         22    1    1    0    0    0  0.69896610457E+01  0.10214116362E+02  0.26081170381E+02  0.28868858361E+02  0.00000000000E+00 0. -1.
</event>
<event>
 5    1  0.1103865E-009  0.9118800E+02  0.7818608E-02  0.1130116E+00
         25   -1    0    0    0    0  0.00000000000E+00  0.00000000000E+00  0.99999998245E-14  0.12500000000E+03  0.12500000000E+03 0.  0.
        -11    1    3    3    0    0  0.47289289649E+02  0.30936095299E+02 -0.25560180712E+02  0.62021300746E+02  0.51100000000E-03 0. -1.
         23    2    1    0    0    0  0.23876668166E+02  0.16147678095E+02 -0.70627929001E+01  0.95322974641E+02  0.90585559889E+02 0.  0.
         11    1    3    3    0    0 -0.23412621483E+02 -0.14788417204E+02  0.18497387812E+02  0.33301673896E+02  0.51100000000E-03 0.  1.
         22    1    1    0    0    0 -0.23876668166E+02 -0.16147678095E+02  0.70627929001E+01  0.29677025359E+02  0.00000000000E+00 0. -1.
</event>
<event>
 5    1  0.1103865E-009  0.9118800E+02  0.7818608E-02  0.1130116E+00
         25   -1    0    0    0    0  0.00000000000E+00  0.00000000000E+00  0.99999998245E-14  0.12500000000E+03  0.12500000000E+03 0.  0.
        -11    1    3    3    0    0 -0.42891009005E+02  0.16896658714E+02  0.96283817850E+01  0.47093964213E+02  0.51100000000E-03 0.  1.
         23    2    1    0    0    0 -0.17289328138E+02 -0.23524203321E+02  0.51247235700E+00  0.95801170619E+02  0.91243041678E+02 0.  0.
         11    1    3    3    0    0  0.25601680868E+02 -0.40420862035E+02 -0.91159094280E+01  0.48707206406E+02  0.51100000000E-03 0. -1.
         22    1    1    0    0    0  0.17289328138E+02  0.23524203321E+02 -0.51247235700E+00  0.29198829381E+02  0.00000000000E+00 0. -1.
</event>
<event>
 5    1  0.1103865E-009  0.9118800E+02  0.7818608E-02  0.1130116E+00
         25   -1    0    0    0    0  0.00000000000E+00  0.00000000000E+00  0.99999998245E-14  0.12500000000E+03  0.12500000000E+03 0.  0.
        -11    1    3    3    0    0 -0.26266538529E+02  0.42003114843E+02  0.33238867812E+02  0.59657480977E+02  0.51100000000E-03 0. -1.
         23    2    1    0    0    0 -0.43685295708E+01  0.26444005003E+02  0.68004357337E+01  0.97348320533E+02  0.93338524378E+02 0.  0.
         11    1    3    3    0    0  0.21898008958E+02 -0.15559109840E+02 -0.26438432079E+02  0.37690839555E+02  0.51100000000E-03 0.  1.
         22    1    1    0    0    0  0.43685295708E+01 -0.26444005003E+02 -0.68004357337E+01  0.27651679467E+02  0.00000000000E+00 0. -1.
</event>
<event>
 5    1  0.1103865E-009  0.9118800E+02  0.7818608E-02  0.1130116E+00
         25   -1    0    0    0    0  0.00000000000E+00  0.00000000000E+00  0.99999998245E-14  0.12500000000E+03  0.12500000000E+03 0.  0.
        -11    1    3    3    0    0  0.26689798239E+02  0.65172713098E+01  0.22877731314E+02  0.35752073306E+02  0.51100000000E-03 0. -1.
         23    2    1    0    0    0 -0.22104908106E+02 -0.19911573460E+02  0.14605307499E+02  0.91857689773E+02  0.85670429223E+02 0.  0.
         11    1    3    3    0    0 -0.48794706344E+02 -0.26428844770E+02 -0.82724238146E+01  0.56105616467E+02  0.51100000000E-03 0.  1.
         22    1    1    0    0    0  0.22104908106E+02  0.19911573460E+02 -0.14605307499E+02  0.33142310227E+02  0.00000000000E+00 0.  1.
</event>
<event>
 5    1  0.1103865E-009  0.9118800E+02  0.7818608E-02  0.1130116E+00
         25   -1    0    0    0    0  0.00000000000E+00  0.00000000000E+00  0.99999998245E-14  0.12500000000E+03  0.12500000000E+03 0.  0.
        -11    1    3    3    0    0  0.17174043326E+02  0.77556612965E+00 -0.51308313300E+02  0.54111849728E+02  0.51100000000E-03 0.  1.
         23    2    1    0    0    0  0.99909790380E+01 -0.22383289234E+02 -0.22973384346E+02  0.91405243157E+02  0.85007710175E+02 0.  0.
         11    1    3    3    0    0 -0.71830642879E+01 -0.23158855364E+02  0.28334928955E+02  0.37293393429E+02  0.51100000000E-03 0. -1.
         22    1    1    0    0    0 -0.99909790380E+01  0.22383289234E+02  0.22973384346E+02  0.33594756843E+02  0.00000000000E+00 0.  1.
</event>
<event>
 5    1  0.1103865E-009  0.9118800E+02  0.7818608E-02  0.1130116E+00
         25   -1    0    0    0    0  0.00000000000E+00  0.00000000000E+00  0.99999998245E-14  0.12500000000E+03  0.12500000000E+03 0.  0.
        -11    1    3    3    0    0  0.19000273501E+02 -0.41403022039E+01 -0.37704218924E+02  0.42423585662E+02  0.51100000000E-03 0.  1.
         23    2    1    0    0    0  0.10394969213E+02 -0.26852786413E+02  0.88020352989E+01  0.94890145326E+02  0.89986311912E+02 0.  0.
         11    1    3    3    0    0 -0.86053042881E+01 -0.22712484209E+02  0.46506254223E+02  0.52466559664E+02  0.51100000000E-03 0. -1.
         22    1    1    0    0    0 -0.10394969213E+02  0.26852786413E+02 -0.88020352989E+01  0.30109854674E+02  0.00000000000E+00 0. -1.
</event>
<event>
 5    1  0.1103865E-009  0.9118800E+02  0.7818608E-02  0.1130116E+00
         25   -1    0    0    0    0  0.00000000000E+00  0.00000000000E+00  0.99999998245E-14  0.12500000000E+03  0.12500000000E+03 0.  0.
        -11    1    3    3    0    0  0.16960740817E+02  0.43291514335E+02  0.10632852860E+02  0.47695696898E+02  0.51100000000E-03 0. -1.
         23    2    1    0    0    0  0.18111626844E+02  0.71997742700E+01 -0.21463072322E+02  0.96008083023E+02  0.91526065991E+02 0.  0.
         11    1    3    3    0    0  0.11508860271E+01 -0.36091740065E+02 -0.32095925182E+02  0.48312386125E+02  0.51100000000E-03 0.  1.
         22    1    1    0    0    0 -0.18111626844E+02 -0.71997742700E+01  0.21463072322E+02  0.28991916977E+02  0.00000000000E+00 0. -1.
</event>
<event>
 5    1  0.1103865E-009  0.9118800E+02  0.7818608E-02  0.1130116E+00
         25   -1    0    0    0    0  0.00000000000E+00  0.00000000000E+00  0.99999998245E-14  0.12500000000E+03  0.12500000000E+03 0.  0.
        -11    1    3    3    0    0 -0.82763976591E+01  0.23253109121E+02  0.26753946284E+02  0.36400267637E+02  0.51100000000E-03 0.  1.
         23    2    1    0    0    0 -0.29923180918E+02 -0.11204629324E+02 -0.10292742899E+02  0.91430951295E+02  0.85045504430E+02 0.  0.
         11    1    3    3    0    0 -0.21646783259E+02 -0.34457738445E+02 -0.37046689183E+02  0.55030683658E+02  0.51100000000E-03 0. -1.
         22    1    1    0    0    0  0.29923180918E+02  0.11204629324E+02  0.10292742899E+02  0.33569048705E+02  0.00000000000E+00 0. -1.
</event>
<event>
 5    1  0.1103865E-009  0.9118800E+02  0.7818608E-02  0.1130116E+00
         25   -1    0    0    0    0  0.00000000000E+00  0.00000000000E+00  0.99999998245E-14  0.12500000000E+03  0.12500000000E+03 0.  0.
        -11    1    3    3    0    0  0.40088277152E+02  0.20664365587E+02 -0.26378029305E+02  0.52248314810E+02  0.51100000000E-03 0. -1.
         23    2    1    0    0    0  0.10508889950E+01  0.26470213333E+01 -0.29506228143E+02  0.95356643429E+02  0.90632007906E+02 0.  0.
         11    1    3    3    0    0 -0.39037388157E+02 -0.18017344254E+02 -0.31281988371E+01  0.43108328619E+02  0.51100000000E-03 0.  1.
         22    1    1    0    0    0 -0.10508889950E+01 -0.26470213333E+01  0.29506228143E+02  0.29643356571E+02  0.00000000000E+00 0. -1.
</event>
<event>
 5    1  0.1103865E-009  0.9118800E+02  0.7818608E-02  0.1130116E+00
         25   -1    0    0    0    0  0.00000000000E+00  0.00000000000E+00  0.99999998245E-14  0.12500000000E+03  0.12500000000E+03 0.  0.
        -11    1    3    3    0    0  0.19467450982E+02 -0.32221467294E+02  0.10738908483E+02  0.39147525566E+02  0.51100000000E-03 0.  1.
         23    2    1    0    0    0  0.17130754472E+02  0.12712403572E+02 -0.21664580900E+02  0.94595690784E+02  0.89576351209E+02 0.  0.
         11    1    3    3    0    0 -0.23366965098E+01  0.44933870866E+02 -0.32403489383E+02  0.55448165218E+02  0.51100000000E-03 0. -1.
         22    1    1    0    0    0 -0.17130754472E+02 -0.12712403572E+02  0.21664580900E+02  0.30404309216E+02  0.00000000000E+00 0. -1.
</event>
<event>
 5    1  0.1103865E-009  0.9118800E+02  0.7818608E-02  0.1130116E+00
         25   -1    0    0    0    0  0.00000000000E+00  0.00000000000E+00  0.99999998245E-14  0.12500000000E+03  0.12500000000E+03 0.  0.
        -11    1    3    3    0    0  0.28088722148E+02  0.22024255805E+02 -0.23879866969E+02  0.42945223278E+02  0.51100000000E-03 0.  1.
         23    2    1    0    0    0 -0.19005924684E+02 -0.45285389121E+01 -0.19831246600E+02  0.97160977397E+02  0.93087294242E+02 0.  0.
         11    1    3    3    0    0 -0.47094646832E+02 -0.26552794717E+02  0.40486203695E+01  0.54215754119E+02  0.51100000000E-03 0. -1.
         22    1    1    0    0    0  0.19005924684E+02  0.45285389121E+01  0.19831246600E+02  0.27839022603E+02  0.00000000000E+00 0.  1.
</event>
<event>
 5    1  0.1103865E-009  0.9118800E+02  0.7818608E-02  0.1130116E+00
         25   -1    0    0    0    0  0.00000000000E+00  0.00000000000E+00  0.99999998245E-14  0.12500000000E+03  0.12500000000E+03 0.  0.
        -11    1    3    3    0    0 -0.26695544326E+02 -0.31494364613E+02 -0.13530662570E+02  0.43446817134E+02  0.51100000000E-03 0.  1.
         23    2    1    0    0    0 -0.24552107183E+02  0.17689036169E+02  0.82762001459E+00  0.94728017531E+02  0.89760817637E+02 0.  0.
         11    1    3    3    0    0  0.21434371431E+01  0.49183400781E+02  0.14358282584E+02  0.51281200398E+02  0.51100000000E-03 0. -1.
         22    1    1    0    0    0  0.24552107183E+02 -0.17689036169E+02 -0.82762001459E+00  0.30271982469E+02  0.00000000000E+00 0. -1.
</event>
<event>
 5    1  0.1103865E-009  0.9118800E+02  0.7818608E-02  0.1130116E+00
         25   -1    0    0    0    0  0.00000000000E+00  0.00000000000E+00  0.99999998245E-14  0.12500000000E+03  0.12500000000E+03 0.  0.
        -11    1    3    3    0    0 -0.47755949264E+01  0.23354195165E+02 -0.31498113949E+02  0.39501340753E+02  0.51100000000E-03 0.  1.
         23    2    1    0    0    0  0.27525876359E+02 -0.55808056566E+01  0.53509038815E+01  0.96408892406E+02  0.92071836636E+02 0.  0.
         11    1    3    3    0    0  0.32301471286E+02 -0.28935000821E+02  0.36849017831E+02  0.56907551653E+02  0.51100000000E-03 0. -1.
         22    1    1    0    0    0 -0.27525876359E+02  0.55808056566E+01 -0.53509038815E+01  0.28591107594E+02  0.00000000000E+00 0. -1.
</event>
<event>
 5    1  0.1103865E-009  0.9118800E+02  0.7818608E-02  0.1130116E+00
         25   -1    0    0    0    0  0.00000000000E+00  0.00000000000E+00  0.99999998245E-14  0.12500000000E+03  0.12500000000E+03 0.  0.
        -11    1    3    3    0    0  0.16067950896E+02 -0.27142607886E+01  0.38812411546E+02  0.42094531093E+02  0.51100000000E-03 0. -1.
         23    2    1    0    0    0 -0.50574321983E+01  0.20033918574E+02 -0.11603782895E+02  0.10130225134E+03  0.98491435344E+02 0.  0.
         11    1    3    3    0    0 -0.21125383095E+02  0.22748179363E+02 -0.50416194441E+02  0.59207720252E+02  0.51100000000E-03 0.  1.
         22    1    1    0    0    0  0.50574321983E+01 -0.20033918574E+02  0.11603782895E+02  0.23697748656E+02  0.00000000000E+00 0.  1.
</event>
<event>
 5    1  0.1103865E-009  0.9118800E+02  0.7818608E-02  0.1130116E+00
         25   -1    0    0    0    0  0.00000000000E+00  0.00000000000E+00  0.99999998245E-14  0.12500000000E+03  0.12500000000E+03 0.  0.
        -11    1    3    3    0    0 -0.23552835818E+00  0.34328387351E+02  0.27895038213E+02  0.44233774527E+02  0.51100000000E-03 0. -1.
         23    2    1    0    0    0 -0.25197136988E+02  0.11239931722E+02 -0.10462429928E+02  0.95492471850E+02  0.90819149757E+02 0.  0.
         11    1    3    3    0    0 -0.24961608630E+02 -0.23088455629E+02 -0.38357468141E+02  0.51258697323E+02  0.51100000000E-03 0.  1.
         22    1    1    0    0    0  0.25197136988E+02 -0.11239931722E+02  0.10462429928E+02  0.29507528150E+02  0.00000000000E+00 0.  1.
</event>
<event>
 5    1  0.1103865E-009  0.9118800E+02  0.7818608E-02  0.1130116E+00
         25   -1    0    0    0    0  0.00000000000E+00  0.00000000000E+00  0.99999998245E-14  0.12500000000E+03  0.12500000000E+03 0.  0.
        -11    1    3    3    0    0  0.90940369125E+01 -0.81917417086E+01 -0.41768815737E+02  0.43525166374E+02  0.51100000000E-03 0.  1.
         23    2    1    0    0    0  0.20221163099E+02  0.25430573349E+02 -0.10260473795E+02  0.90928210783E+02  0.84303337394E+02 0.  0.
         11    1    3    3    0    0  0.11127126187E+02  0.33622315058E+02  0.31508341942E+02  0.47403044409E+02  0.51100000000E-03 0. -1.
         22    1    1    0    0    0 -0.20221163099E+02 -0.25430573349E+02  0.10260473795E+02  0.34071789217E+02  0.00000000000E+00 0.  1.
</event>
<event>
 5    1  0.1103865E-009  0.9118800E+02  0.7818608E-02  0.1130116E+00
         25   -1    0    0    0    0  0.00000000000E+00  0.00000000000E+00  0.99999998245E-14  0.12500000000E+03  0.12500000000E+03 0.  0.
        -11    1    3    3    0    0 -0.29214031656E+02 -0.21203161370E+02 -0.29307194284E+02  0.46496723914E+02  0.51100000000E-03 0. -1.
         23    2    1    0    0    0 -0.98900446861E+01 -0.21377746406E+02  0.16518575195E+02  0.96230496151E+02  0.91829320141E+02 0.  0.
         11    1    3    3    0    0  0.19323986969E+02 -0.17458503581E+00  0.45825769479E+02  0.49733772237E+02  0.51100000000E-03 0.  1.
         22    1    1    0    0    0  0.98900446861E+01  0.21377746406E+02 -0.16518575195E+02  0.28769503849E+02  0.00000000000E+00 0. -1.
</event>
<event>
 5    1  0.1103865E-009  0.9118800E+02  0.7818608E-02  0.1130116E+00
         25   -1    0    0    0    0  0.00000000000E+00  0.00000000000E+00  0.99999998245E-14  0.12500000000E+03  0.12500000000E+03 0.  0.
        -11    1    3    3    0    0 -0.31482651800E+02  0.13746989071E+02  0.15574894507E+02  0.37718886676E+02  0.51100000000E-03 0.  1.
         23    2    1    0    0    0  0.26310735366E+02  0.65782596012E+01  0.94666664881E+01  0.96274644140E+02  0.91889395661E+02 0.  0.
         11    1    3    3    0    0  0.57793387166E+02 -0.71687294698E+01 -0.61082280194E+01  0.58555757464E+02  0.51100000000E-03 0. -1.
         22    1    1    0    0    0 -0.26310735366E+02 -0.65782596012E+01 -0.94666664881E+01  0.28725355860E+02  0.00000000000E+00 0. -1.
</event>
<event>
 5    1  0.1103865E-009  0.9118800E+02  0.7818608E-02  0.1130116E+00
         25   -1    0    0    0    0  0.00000000000E+00  0.00000000000E+00  0.99999998245E-14  0.12500000000E+03  0.12500000000E+03 0.  0.
        -11    1    3    3    0    0  0.48728962364E+02  0.64074270185E+01 -0.45383856221E+01  0.49357510456E+02  0.51100000000E-03 0.  1.
         23    2    1    0    0    0  0.11030355746E+02  0.29191839540E+02  0.11515037548E+01  0.93772476811E+02  0.88420128946E+02 0.  0.
         11    1    3    3    0    0 -0.37698606619E+02  0.22784412522E+02  0.56898893770E+01  0.44414966355E+02  0.51100000000E-03 0. -1.
         22    1    1    0    0    0 -0.11030355746E+02 -0.29191839540E+02 -0.11515037548E+01  0.31227523189E+02  0.00000000000E+00 0.  1.
</event>
<event>
 5    1  0.1103865E-009  0.9118800E+02  0.7818608E-02  0.1130116E+00
         25   -1    0    0    0    0  0.00000000000E+00  0.00000000000E+00  0.99999998245E-14  0.12500000000E+03  0.12500000000E+03 0.  0.
        -11    1    3    3    0    0 -0.41963765647E+02  0.46683556753E+01  0.27495323529E+02  0.50385950306E+02  0.51100000000E-03 0. -1.
         23    2    1    0    0    0 -0.11250495305E+02 -0.24388496733E+02  0.13627108863E+02  0.94882388649E+02  0.89975536465E+02 0.  0.
         11    1    3    3    0    0  0.30713270342E+02 -0.29056852409E+02 -0.13868214665E+02  0.44496438343E+02  0.51100000000E-03 0.  1.
         22    1    1    0    0    0  0.11250495305E+02  0.24388496733E+02 -0.13627108863E+02  0.30117611351E+02  0.00000000000E+00 0.  1.
</event>
<event>
 5    1  0.1103865E-009  0.9118800E+02  0.7818608E-02  0.1130116E+00
         25   -1    0    0    0    0  0.00000000000E+00  0.00000000000E+00  0.99999998245E-14  0.12500000000E+03  0.12500000000E+03 0.  0.
        -11    1    3    3    0    0  0.48007528464E+02 -0.23013530268E+02 -0.19164296946E+02  0.56582821088E+02  0.51100000000E-03 0. -1.
         23    2    1    0    0    0  0.27960177956E+02  0.67524133934E+01 -0.25690974456E+01  0.96121514935E+02  0.91680852602E+02 0.  0.
         11    1    3    3    0    0 -0.20047350508E+02  0.29765943661E+02  0.16595199500E+02  0.39538693847E+02  0.51100000000E-03 0.  1.
         22    1    1    0    0    0 -0.27960177956E+02 -0.67524133934E+01  0.25690974456E+01  0.28878485065E+02  0.00000000000E+00 0. -1.
</event>
<event>
 5    1  0.1103865E-009  0.9118800E+02  0.7818608E-02  0.1130116E+00
         25   -1    0    0    0    0  0.00000000000E+00  0.00000000000E+00  0.99999998245E-14  0.12500000000E+03  0.12500000000E+03 0.  0.
        -11    1    3    3    0    0 -0.12364946879E+02  0.14211544990E+02  0.37436816073E+02  0.41909129319E+02  0.51100000000E-03 0.  1.
         23    2    1    0    0    0 -0.97561893410E+00 -0.78202406028E+01 -0.19475310684E+02  0.10399058017E+03  0.10184618325E+03 0.  0.
         11    1    3    3    0    0  0.11389327945E+02 -0.22031785592E+02 -0.56912126757E+02  0.62081450850E+02  0.51100000000E-03 0. -1.
         22    1    1    0    0    0  0.97561893410E+00  0.78202406028E+01  0.19475310684E+02  0.21009419831E+02  0.00000000000E+00 0. -1.
</event>
<event>
 5    1  0.1103865E-009  0.9118800E+02  0.7818608E-02  0.1130116E+00
         25   -1    0    0    0    0  0.00000000000E+00  0.00000000000E+00  0.99999998245E-14  0.12500000000E+03  0.12500000000E+03 0.  0.
        -11    1    3    3    0    0  0.19204157926E+02 -0.76614876839E+01 -0.35543593822E+02  0.41119887369E+02  0.51100000000E-03 0. -1.
         23    2    1    0    0    0 -0.21940178489E+02  0.17210750871E+02 -0.12270634715E+02  0.94534448077E+02  0.89490848801E+02 0.  0.
         11    1    3    3    0    0 -0.41144336415E+02  0.24872238555E+02  0.23272959107E+02  0.53414560708E+02  0.51100000000E-03 0.  1.
         22    1    1    0    0    0  0.21940178489E+02 -0.17210750871E+02  0.12270634715E+02  0.30465551923E+02  0.00000000000E+00 0.  1.
</event>
<event>
 5    1  0.1103865E-009  0.9118800E+02  0.7818608E-02  0.1130116E+00
         25   -1    0    0    0    0  0.00000000000E+00  0.00000000000E+00  0.99999998245E-14  0.12500000000E+03  0.12500000000E+03 0.  0.
        -11    1    3    3    0    0  0.30412804751E+02  0.11152709953E+02 -0.86155022464E+01  0.33519375163E+02  0.51100000000E-03 0. -1.
         23    2    1    0    0    0 -0.26282302257E+02 -0.39314033931E+01  0.12184807815E+02  0.95765005797E+02  0.91193483589E+02 0.  0.
         11    1    3    3    0    0 -0.56695107008E+02 -0.15084113346E+02  0.20800310062E+02  0.62245630634E+02  0.51100000000E-03 0.  1.
         22    1    1    0    0    0  0.26282302257E+02  0.39314033931E+01 -0.12184807815E+02  0.29234994203E+02  0.00000000000E+00 0.  1.
</event>
<event>
 5    1  0.1103865E-009  0.9118800E+02  0.7818608E-02  0.1130116E+00
         25   -1    0    0    0    0  0.00000000000E+00  0.00000000000E+00  0.99999998245E-14  0.12500000000E+03  0.12500000000E+03 0.  0.
        -11    1    3    3    0    0  0.32688880957E+02 -0.19967377196E+02 -0.16439889243E+02  0.41683678447E+02  0.51100000000E-03 0. -1.
         23    2    1    0    0    0 -0.10324989771E+02 -0.17164019016E+02  0.18927868089E+02  0.97441459528E+02  0.93463173935E+02 0.  0.
         11    1    3    3    0    0 -0.43013870728E+02  0.28033581797E+01  0.35367757332E+02  0.55757781081E+02  0.51100000000E-03 0.  1.
         22    1    1    0    0    0  0.10324989771E+02  0.17164019016E+02 -0.18927868089E+02  0.27558540472E+02  0.00000000000E+00 0.  1.
</event>
<event>
 5    1  0.1103865E-009  0.9118800E+02  0.7818608E-02  0.1130116E+00
         25   -1    0    0    0    0  0.00000000000E+00  0.00000000000E+00  0.99999998245E-14  0.12500000000E+03  0.12500000000E+03 0.  0.
        -11    1    3    3    0    0 -0.53100192577E+02  0.30476266088E+01  0.50271112632E+01  0.53424622858E+02  0.51100000000E-03 0.  1.
         23    2    1    0    0    0 -0.15775406328E+02 -0.10614802327E+02  0.21365966595E+02  0.96398566438E+02  0.92057816667E+02 0.  0.
         11    1    3    3    0    0  0.37324786249E+02 -0.13662428936E+02  0.16338855332E+02  0.42973943580E+02  0.51100000000E-03 0. -1.
         22    1    1    0    0    0  0.15775406328E+02  0.10614802327E+02 -0.21365966595E+02  0.28601433562E+02  0.00000000000E+00 0. -1.
</event>
<event>
 5    1  0.1103865E-009  0.9118800E+02  0.7818608E-02  0.1130116E+00
         25   -1    0    0    0    0  0.00000000000E+00  0.00000000000E+00  0.99999998245E-14  0.12500000000E+03  0.12500000000E+03 0.  0.
        -11    1    3    3    0    0 -0.19710082038E+01  0.43697095280E+02 -0.13304691657E+02  0.45720190612E+02  0.51100000000E-03 0.  1.
         23    2    1    0    0    0 -0.18759939690E+01 -0.16970117981E+01 -0.30598556186E+02  0.94297054815E+02  0.89158643460E+02 0.  0.
         11    1    3    3    0    0  0.95014234803E-01 -0.45394107078E+02 -0.17293864529E+02  0.48576864202E+02  0.51100000000E-03 0. -1.
         22    1    1    0    0    0  0.18759939690E+01  0.16970117981E+01  0.30598556186E+02  0.30702945185E+02  0.00000000000E+00 0. -1.
</event>
<event>
 5    1  0.1103865E-009  0.9118800E+02  0.7818608E-02  0.1130116E+00
         25   -1    0    0    0    0  0.00000000000E+00  0.00000000000E+00  0.99999998245E-14  0.12500000000E+03  0.12500000000E+03 0.  0.
        -11    1    3    3    0    0 -0.34830154830E+00 -0.44403744233E+02  0.41213648791E+02  0.60583650128E+02  0.51100000000E-03 0.  1.
         23    2    1    0    0    0  0.67662798747E+01 -0.12742696907E+02  0.23147518006E+02  0.97724251474E+02  0.93840624830E+02 0.  0.
         11    1    3    3    0    0  0.71145814230E+01  0.31661047326E+02 -0.18066130785E+02  0.37140601347E+02  0.51100000000E-03 0. -1.
         22    1    1    0    0    0 -0.67662798747E+01  0.12742696907E+02 -0.23147518006E+02  0.27275748526E+02  0.00000000000E+00 0.  1.
</event>
<event>
 5    1  0.1103865E-009  0.9118800E+02  0.7818608E-02  0.1130116E+00
         25   -1    0    0    0    0  0.00000000000E+00  0.00000000000E+00  0.99999998245E-14  0.12500000000E+03  0.12500000000E+03 0.  0.
        -11    1    3    3    0    0  0.39559705395E+01 -0.26532233789E+02 -0.39530593222E+02  0.47773182158E+02  0.51100000000E-03 0.  1.
         23    2    1    0    0    0  0.27114101956E+02 -0.62830697045E+01 -0.90398067885E+00  0.97152761881E+02  0.93076261583E+02 0.  0.
         11    1    3    3    0    0  0.23158131416E+02  0.20249164084E+02  0.38626612543E+02  0.49379579723E+02  0.51100000000E-03 0. -1.
         22    1    1    0    0    0 -0.27114101956E+02  0.62830697045E+01  0.90398067885E+00  0.27847238119E+02  0.00000000000E+00 0.  1.
</event>
<event>
 5    1  0.1103865E-009  0.9118800E+02  0.7818608E-02  0.1130116E+00
         25   -1    0    0    0    0  0.00000000000E+00  0.00000000000E+00  0.99999998245E-14  0.12500000000E+03  0.12500000000E+03 0.  0.
        -11    1    3    3    0    0  0.10743159866E+02 -0.62609838945E+01  0.58187426356E+02  0.59501193176E+02  0.51100000000E-03 0. -1.
         23    2    1    0    0    0  0.18410802246E+02 -0.28885989317E+01  0.24481399140E+02  0.94232475774E+02  0.89068057931E+02 0.  0.
         11    1    3    3    0    0  0.76676423794E+01  0.33723849628E+01 -0.33706027215E+02  0.34731282598E+02  0.51100000000E-03 0.  1.
         22    1    1    0    0    0 -0.18410802246E+02  0.28885989317E+01 -0.24481399140E+02  0.30767524226E+02  0.00000000000E+00 0. -1.
</event>
<event>
 5    1  0.1103865E-009  0.9118800E+02  0.7818608E-02  0.1130116E+00
         25   -1    0    0    0    0  0.00000000000E+00  0.00000000000E+00  0.99999998245E-14  0.12500000000E+03  0.12500000000E+03 0.  0.
        -11    1    3    3    0    0  0.34132867513E+02 -0.13133727083E+02 -0.77805397390E+01  0.37390964559E+02  0.51100000000E-03 0. -1.
         23    2    1    0    0    0 -0.75770106808E+01  0.12587913710E+02  0.24756105409E+02  0.96212304409E+02  0.91804553821E+02 0.  0.
         11    1    3    3    0    0 -0.41709878194E+02  0.25721640793E+02  0.32536645148E+02  0.58821339850E+02  0.51100000000E-03 0.  1.
         22    1    1    0    0    0  0.75770106808E+01 -0.12587913710E+02 -0.24756105409E+02  0.28787695591E+02  0.00000000000E+00 0.  1.
</event>
<event>
 5    1  0.1103865E-009  0.9118800E+02  0.7818608E-02  0.1130116E+00
         25   -1    0    0    0    0  0.00000000000E+00  0.00000000000E+00  0.99999998245E-14  0.12500000000E+03  0.12500000000E+03 0.  0.
        -11    1    3    3    0    0 -0.43880515723E+02  0.25119723900E+02 -0.29246585579E+02  0.58411154390E+02  0.51100000000E-03 0. -1.
         23    2    1    0    0    0 -0.11134383346E+02  0.59192998664E+01 -0.25496004276E+02  0.96556040405E+02  0.92271393732E+02 0.  0.
         11    1    3    3    0    0  0.32746132377E+02 -0.19200424033E+02  0.37505813027E+01  0.38144886015E+02  0.51100000000E-03 0.  1.
         22    1    1    0    0    0  0.11134383346E+02 -0.59192998664E+01  0.25496004276E+02  0.28443959595E+02  0.00000000000E+00 0. -1.
</event>
<event>
 5    1  0.1103865E-009  0.9118800E+02  0.7818608E-02  0.1130116E+00
         25   -1    0    0    0    0  0.00000000000E+00  0.00000000000E+00  0.99999998245E-14  0.12500000000E+03  0.12500000000E+03 0.  0.
        -11    1    3    3    0    0 -0.39621764147E+02 -0.43486011659E+01 -0.15961395491E+02  0.42936705422E+02  0.51100000000E-03 0. -1.
         23    2    1    0    0    0  0.14544993442E+01  0.18227114255E+02 -0.28210268590E+02  0.91382110175E+02  0.84973687361E+02 0.  0.
         11    1    3    3    0    0  0.41076263492E+02  0.22575715420E+02 -0.12248873099E+02  0.48445404753E+02  0.51100000000E-03 0.  1.
         22    1    1    0    0    0 -0.14544993442E+01 -0.18227114255E+02  0.28210268590E+02  0.33617889825E+02  0.00000000000E+00 0.  1.
</event>
<event>
 5    1  0.1103865E-009  0.9118800E+02  0.7818608E-02  0.1130116E+00
         25   -1    0    0    0    0  0.00000000000E+00  0.00000000000E+00  0.99999998245E-14  0.12500000000E+03  0.12500000000E+03 0.  0.
        -11    1    3    3    0    0  0.96068565584E+01  0.36789763271E+02  0.57666569162E+01  0.38458194272E+02  0.51100000000E-03 0. -1.
         23    2    1    0    0    0  0.19054550335E+02  0.69169726815E+00 -0.29548204906E+02  0.89833954633E+02  0.82664917941E+02 0.  0.
         11    1    3    3    0    0  0.94476937766E+01 -0.36098066003E+02 -0.35314861822E+02  0.51375760360E+02  0.51100000000E-03 0.  1.
         22    1    1    0    0    0 -0.19054550335E+02 -0.69169726815E+00  0.29548204906E+02  0.35166045367E+02  0.00000000000E+00 0.  1.
</event>
<event>
 5    1  0.1103865E-009  0.9118800E+02  0.7818608E-02  0.1130116E+00
         25   -1    0    0    0    0  0.00000000000E+00  0.00000000000E+00  0.99999998245E-14  0.12500000000E+03  0.12500000000E+03 0.  0.
        -11    1    3    3    0    0 -0.34581104384E+02  0.27429708579E+02  0.40701520488E+02  0.60040448561E+02  0.51100000000E-03 0. -1.
         23    2    1    0    0    0 -0.19377689385E+02  0.36332584631E+01  0.27372021148E+02  0.91266886377E+02  0.84804018739E+02 0.  0.
         11    1    3    3    0    0  0.15203414999E+02 -0.23796450116E+02 -0.13329499340E+02  0.31226437816E+02  0.51100000000E-03 0.  1.
         22    1    1    0    0    0  0.19377689385E+02 -0.36332584631E+01 -0.27372021148E+02  0.33733113623E+02  0.00000000000E+00 0. -1.
</event>
<event>
 5    1  0.1103865E-009  0.9118800E+02  0.7818608E-02  0.1130116E+00
         25   -1    0    0    0    0  0.00000000000E+00  0.00000000000E+00  0.99999998245E-14  0.12500000000E+03  0.12500000000E+03 0.  0.
        -11    1    3    3    0    0 -0.24263895850E+02 -0.38880032088E+02 -0.32609606803E+02  0.56247488771E+02  0.51100000000E-03 0.  1.
         23    2    1    0    0    0  0.59943542402E+00 -0.30583711757E+02 -0.55671181606E+01  0.93907950336E+02  0.88611441610E+02 0.  0.
         11    1    3    3    0    0  0.24863331274E+02  0.82963203308E+01  0.27042488642E+02  0.37660461565E+02  0.51100000000E-03 0. -1.
         22    1    1    0    0    0 -0.59943542402E+00  0.30583711757E+02  0.55671181606E+01  0.31092049664E+02  0.00000000000E+00 0.  1.
</event>
<event>
 5    1  0.1103865E-009  0.9118800E+02  0.7818608E-02  0.1130116E+00
         25   -1    0    0    0    0  0.00000000000E+00  0.00000000000E+00  0.99999998245E-14  0.12500000000E+03  0.12500000000E+03 0.  0.
        -11    1    3    3    0    0 -0.14469217464E+02 -0.37290593570E+02 -0.44783561739E+02  0.60045932628E+02  0.51100000000E-03 0.  1.
         23    2    1    0    0    0  0.32533295000E+01 -0.23250692342E+02 -0.29323527282E+02  0.87436079818E+02  0.78955810137E+02 0.  0.
         11    1    3    3    0    0  0.17722546964E+02  0.14039901229E+02  0.15460034457E+02  0.27390147190E+02  0.51100000000E-03 0. -1.
         22    1    1    0    0    0 -0.32533295000E+01  0.23250692342E+02  0.29323527282E+02  0.37563920182E+02  0.00000000000E+00 0.  1.
</event>
<event>
 5    1  0.1103865E-009  0.9118800E+02  0.7818608E-02  0.1130116E+00
         25   -1    0    0    0    0  0.00000000000E+00  0.00000000000E+00  0.99999998245E-14  0.12500000000E+03  0.12500000000E+03 0.  0.
        -11    1    3    3    0    0 -0.61826289149E+01  0.60442681824E+02 -0.13746807388E+02  0.62293799050E+02  0.51100000000E-03 0.  1.
         23    2    1    0    0    0  0.58633835595E+00  0.28017300461E+02 -0.73268649658E+01  0.96034574610E+02  0.91562239229E+02 0.  0.
         11    1    3    3    0    0  0.67689672709E+01 -0.32425381363E+02  0.64199424223E+01  0.33740775561E+02  0.51100000000E-03 0. -1.
         22    1    1    0    0    0 -0.58633835595E+00 -0.28017300461E+02  0.73268649658E+01  0.28965425390E+02  0.00000000000E+00 0.  1.
</event>
<event>
 5    1  0.1103865E-009  0.9118800E+02  0.7818608E-02  0.1130116E+00
         25   -1    0    0    0    0  0.00000000000E+00  0.00000000000E+00  0.99999998245E-14  0.12500000000E+03  0.12500000000E+03 0.  0.
        -11    1    3    3    0    0  0.30814135223E+02 -0.13340269504E+02  0.24490762349E+02  0.41560451883E+02  0.51100000000E-03 0. -1.
         23    2    1    0    0    0 -0.21811665725E+00 -0.20973861828E+02 -0.19785953032E+02  0.96165395924E+02  0.91740661546E+02 0.  0.
         11    1    3    3    0    0 -0.31032251880E+02 -0.76335923237E+01 -0.44276715381E+02  0.54604944041E+02  0.51100000000E-03 0.  1.
         22    1    1    0    0    0  0.21811665725E+00  0.20973861828E+02  0.19785953032E+02  0.28834604076E+02  0.00000000000E+00 0.  1.
</event>
<event>
 5    1  0.1103865E-009  0.9118800E+02  0.7818608E-02  0.1130116E+00
         25   -1    0    0    0    0  0.00000000000E+00  0.00000000000E+00  0.99999998245E-14  0.12500000000E+03  0.12500000000E+03 0.  0.
        -11    1    3    3    0    0 -0.10227224319E+02 -0.45937533153E+01 -0.43026741633E+02  0.44463458959E+02  0.51100000000E-03 0. -1.
         23    2    1    0    0    0 -0.12357903168E+02 -0.28209664302E+02  0.68745217795E+00  0.94194553708E+02  0.89014821389E+02 0.  0.
         11    1    3    3    0    0 -0.21306788485E+01 -0.23615910987E+02  0.43714193811E+02  0.49731094749E+02  0.51100000000E-03 0.  1.
         22    1    1    0    0    0  0.12357903168E+02  0.28209664302E+02 -0.68745217795E+00  0.30805446292E+02  0.00000000000E+00 0. -1.
</event>
<event>
 5    1  0.1103865E-009  0.9118800E+02  0.7818608E-02  0.1130116E+00
         25   -1    0    0    0    0  0.00000000000E+00  0.00000000000E+00  0.99999998245E-14  0.12500000000E+03  0.12500000000E+03 0.  0.
        -11    1    3    3    0    0  0.61471175739E+01 -0.34767855621E+02 -0.58561902181E+01  0.35789464973E+02  0.51100000000E-03 0. -1.
         23    2    1    0    0    0  0.18400319656E+02  0.23246907199E+02 -0.21951381613E+00  0.95351414130E+02  0.90624795352E+02 0.  0.
         11    1    3    3    0    0  0.12253202083E+02  0.58014762819E+02  0.56366764020E+01  0.59561949157E+02  0.51100000000E-03 0.  1.
         22    1    1    0    0    0 -0.18400319656E+02 -0.23246907199E+02  0.21951381613E+00  0.29648585870E+02  0.00000000000E+00 0.  1.
</event>
<event>
 5    1  0.1103865E-009  0.9118800E+02  0.7818608E-02  0.1130116E+00
         25   -1    0    0    0    0  0.00000000000E+00  0.00000000000E+00  0.99999998245E-14  0.12500000000E+03  0.12500000000E+03 0.  0.
        -11    1    3    3    0    0  0.23579313066E+02  0.32325896912E+02  0.18889449584E+02  0.44246569603E+02  0.51100000000E-03 0.  1.
         23    2    1    0    0    0 -0.10123020955E+02 -0.58435478367E+01  0.26786444790E+02  0.95774390870E+02  0.91206346914E+02 0.  0.
         11    1    3    3    0    0 -0.33702334021E+02 -0.38169444749E+02  0.78969952060E+01  0.51527821266E+02  0.51100000000E-03 0. -1.
         22    1    1    0    0    0  0.10123020955E+02  0.58435478367E+01 -0.26786444790E+02  0.29225609130E+02  0.00000000000E+00 0.  1.
</event>
<event>
 5    1  0.1103865E-009  0.9118800E+02  0.7818608E-02  0.1130116E+00
         25   -1    0    0    0    0  0.00000000000E+00  0.00000000000E+00  0.99999998245E-14  0.12500000000E+03  0.12500000000E+03 0.  0.
        -11    1    3    3    0    0  0.46737761116E+02 -0.10394380537E+02  0.25144120895E+02  0.54080387172E+02  0.51100000000E-03 0.  1.
         23    2    1    0    0    0  0.15094723302E+02 -0.26156313805E+02  0.62630733611E+01  0.94157991126E+02  0.88963463183E+02 0.  0.
         11    1    3    3    0    0 -0.31643037814E+02 -0.15761933269E+02 -0.18881047534E+02  0.40077603954E+02  0.51100000000E-03 0. -1.
         22    1    1    0    0    0 -0.15094723302E+02  0.26156313805E+02 -0.62630733611E+01  0.30842008874E+02  0.00000000000E+00 0.  1.
</event>
<event>
 5    1  0.1103865E-009  0.9118800E+02  0.7818608E-02  0.1130116E+00
         25   -1    0    0    0    0  0.00000000000E+00  0.00000000000E+00  0.99999998245E-14  0.12500000000E+03  0.12500000000E+03 0.  0.
        -11    1    3    3    0    0 -0.13541723675E+02 -0.43529074232E+02 -0.17301107106E+02  0.48759480011E+02  0.51100000000E-03 0.  1.
         23    2    1    0    0    0 -0.28814626456E+02 -0.90872428549E+00 -0.43898424495E+01  0.95838738121E+02  0.91294493428E+02 0.  0.
         11    1    3    3    0    0 -0.15272902781E+02  0.42620349946E+02  0.12911264657E+02  0.47079258110E+02  0.51100000000E-03 0. -1.
         22    1    1    0    0    0  0.28814626456E+02  0.90872428549E+00  0.43898424495E+01  0.29161261879E+02  0.00000000000E+00 0.  1.
</event>
<event>
 5    1  0.1103865E-009  0.9118800E+02  0.7818608E-02  0.1130116E+00
         25   -1    0    0    0    0  0.00000000000E+00  0.00000000000E+00  0.99999998245E-14  0.12500000000E+03  0.12500000000E+03 0.  0.
        -11    1    3    3    0    0 -0.99388607288E+01  0.26251719948E+02  0.30743941459E+02  0.41630802172E+02  0.51100000000E-03 0.  1.
         23    2    1    0    0    0 -0.90002159631E+01  0.28130015541E+02 -0.17995035440E+02  0.90414989342E+02  0.83538897140E+02 0.  0.
         11    1    3    3    0    0  0.93864476570E+00  0.18782955933E+01 -0.48738976899E+02  0.48784187169E+02  0.51100000000E-03 0. -1.
         22    1    1    0    0    0  0.90002159631E+01 -0.28130015541E+02  0.17995035440E+02  0.34585010658E+02  0.00000000000E+00 0. -1.
</event>
<event>
 5    1  0.1103865E-009  0.9118800E+02  0.7818608E-02  0.1130116E+00
         25   -1    0    0    0    0  0.00000000000E+00  0.00000000000E+00  0.99999998245E-14  0.12500000000E+03  0.12500000000E+03 0.  0.
        -11    1    3    3    0    0 -0.85705121247E+01 -0.39843078483E+02 -0.39862526524E+02  0.57008294152E+02  0.51100000000E-03 0.  1.
         23    2    1    0    0    0  0.14660258548E+02 -0.16964248074E+02 -0.17726943381E+02  0.96417603056E+02  0.92083661765E+02 0.  0.
         11    1    3    3    0    0  0.23230770673E+02  0.22878830409E+02  0.22135583143E+02  0.39409308904E+02  0.51100000000E-03 0. -1.
         22    1    1    0    0    0 -0.14660258548E+02  0.16964248074E+02  0.17726943381E+02  0.28582396944E+02  0.00000000000E+00 0.  1.
</event>
<event>
 5    1  0.1103865E-009  0.9118800E+02  0.7818608E-02  0.1130116E+00
         25   -1    0    0    0    0  0.00000000000E+00  0.00000000000E+00  0.99999998245E-14  0.12500000000E+03  0.12500000000E+03 0.  0.
        -11    1    3    3    0    0  0.34560863437E+02  0.22724436330E+02 -0.31655634831E+02  0.52085818654E+02  0.51100000000E-03 0.  1.
         23    2    1    0    0    0  0.33259623325E+02 -0.84440632603E+01 -0.13931275618E+02  0.87965081499E+02  0.79788911352E+02 0.  0.
         11    1    3    3    0    0 -0.13012401120E+01 -0.31168499590E+02  0.17724359213E+02  0.35879262845E+02  0.51100000000E-03 0. -1.
         22    1    1    0    0    0 -0.33259623325E+02  0.84440632603E+01  0.13931275618E+02  0.37034918501E+02  0.00000000000E+00 0.  1.
</event>
<event>
 5    1  0.1103865E-009  0.9118800E+02  0.7818608E-02  0.1130116E+00
         25   -1    0    0    0    0  0.00000000000E+00  0.00000000000E+00  0.99999998245E-14  0.12500000000E+03  0.12500000000E+03 0.  0.
        -11    1    3    3    0    0 -0.31206299145E+02  0.37753139065E+02 -0.24842248788E+02  0.54920578481E+02  0.51100000000E-03 0. -1.
         23    2    1    0    0    0  0.27954345875E+00  0.27637942821E+02  0.16753035333E+01  0.97309917482E+02  0.93287080405E+02 0.  0.
         11    1    3    3    0    0  0.31485842604E+02 -0.10115196244E+02  0.26517552321E+02  0.42389339001E+02  0.51100000000E-03 0.  1.
         22    1    1    0    0    0 -0.27954345875E+00 -0.27637942821E+02 -0.16753035333E+01  0.27690082518E+02  0.00000000000E+00 0.  1.
</event>
<event>
 5    1  0.1103865E-009  0.9118800E+02  0.7818608E-02  0.1130116E+00
         25   -1    0    0    0    0  0.00000000000E+00  0.00000000000E+00  0.99999998245E-14  0.12500000000E+03  0.12500000000E+03 0.  0.
        -11    1    3    3    0    0  0.35870641610E+01 -0.38984888000E+01 -0.61628764189E+02  0.61856041095E+02  0.51100000000E-03 0. -1.
         23    2    1    0    0    0  0.30481543394E+01 -0.77461666258E+01 -0.25906849550E+02  0.97788620104E+02  0.93926327651E+02 0.  0.
         11    1    3    3    0    0 -0.53890982164E+00 -0.38476778257E+01  0.35721914639E+02  0.35932579009E+02  0.51100000000E-03 0.  1.
         22    1    1    0    0    0 -0.30481543394E+01  0.77461666258E+01  0.25906849550E+02  0.27211379896E+02  0.00000000000E+00 0. -1.
</event>
<event>
 5    1  0.1103865E-009  0.9118800E+02  0.7818608E-02  0.1130116E+00
         25   -1    0    0    0    0  0.00000000000E+00  0.00000000000E+00  0.99999998245E-14  0.12500000000E+03  0.12500000000E+03 0.  0.
        -11    1    3    3    0    0  0.31419672949E+02  0.68688195794E+01  0.17801320390E+02  0.36759536702E+02  0.51100000000E-03 0.  1.
         23    2    1    0    0    0 -0.37794370621E+01 -0.47505118324E+01 -0.28380610103E+02  0.95977413330E+02  0.91484169847E+02 0.  0.
         11    1    3    3    0    0 -0.35199110011E+02 -0.11619331412E+02 -0.46181930493E+02  0.59217876628E+02  0.51100000000E-03 0. -1.
         22    1    1    0    0    0  0.37794370621E+01  0.47505118324E+01  0.28380610103E+02  0.29022586670E+02  0.00000000000E+00 0. -1.
</event>
<event>
 5    1  0.1103865E-009  0.9118800E+02  0.7818608E-02  0.1130116E+00
         25   -1    0    0    0    0  0.00000000000E+00  0.00000000000E+00  0.99999998245E-14  0.12500000000E+03  0.12500000000E+03 0.  0.
        -11    1    3    3    0    0  0.85172576392E+01 -0.36398747032E+02  0.31650622419E+02  0.48981367508E+02  0.51100000000E-03 0. -1.
         23    2    1    0    0    0 -0.11987260832E+02 -0.23813398762E+02 -0.95405894253E+01  0.96684011064E+02  0.92444592951E+02 0.  0.
         11    1    3    3    0    0 -0.20504518471E+02  0.12585348269E+02 -0.41191211844E+02  0.47702643556E+02  0.51100000000E-03 0.  1.
         22    1    1    0    0    0  0.11987260832E+02  0.23813398762E+02  0.95405894253E+01  0.28315988936E+02  0.00000000000E+00 0.  1.
</event>
<event>
 5    1  0.1103865E-009  0.9118800E+02  0.7818608E-02  0.1130116E+00
         25   -1    0    0    0    0  0.00000000000E+00  0.00000000000E+00  0.99999998245E-14  0.12500000000E+03  0.12500000000E+03 0.  0.
        -11    1    3    3    0    0  0.22725227737E+02  0.24585224148E+02 -0.61727847958E+01  0.34043685090E+02  0.51100000000E-03 0.  1.
         23    2    1    0    0    0 -0.11382516391E+02  0.22410243582E+01  0.32653358819E+02  0.90347067776E+02  0.83437203597E+02 0.  0.
         11    1    3    3    0    0 -0.34107744128E+02 -0.22344199789E+02  0.38826143614E+02  0.56303382687E+02  0.51100000000E-03 0. -1.
         22    1    1    0    0    0  0.11382516391E+02 -0.22410243582E+01 -0.32653358819E+02  0.34652932224E+02  0.00000000000E+00 0. -1.
</event>
<event>
 5    1  0.1103865E-009  0.9118800E+02  0.7818608E-02  0.1130116E+00
         25   -1    0    0    0    0  0.00000000000E+00  0.00000000000E+00  0.99999998245E-14  0.12500000000E+03  0.12500000000E+03 0.  0.
        -11    1    3    3    0    0  0.42535487819E+02 -0.26756142932E+02 -0.27991676126E+01  0.50328860987E+02  0.51100000000E-03 0. -1.
         23    2    1    0    0    0  0.23105487474E+02 -0.57803039382E+01  0.25184869634E+02  0.90336573690E+02  0.83421480582E+02 0.  0.
         11    1    3    3    0    0 -0.19430000345E+02  0.20975838994E+02  0.27984037247E+02  0.40007712704E+02  0.51100000000E-03 0.  1.
         22    1    1    0    0    0 -0.23105487474E+02  0.57803039382E+01 -0.25184869634E+02  0.34663426310E+02  0.00000000000E+00 0. -1.
</event>
<event>
 5    1  0.1103865E-009  0.9118800E+02  0.7818608E-02  0.1130116E+00
         25   -1    0    0    0    0  0.00000000000E+00  0.00000000000E+00  0.99999998245E-14  0.12500000000E+03  0.12500000000E+03 0.  0.
        -11    1    3    3    0    0  0.17906752747E+02  0.16804904789E+02 -0.29779849698E+02  0.38599171846E+02  0.51100000000E-03 0.  1.
         23    2    1    0    0    0  0.14048892786E+02  0.11706869501E+02  0.25152468297E+02  0.93902269480E+02  0.88603427530E+02 0.  0.
         11    1    3    3    0    0 -0.38578599609E+01 -0.50980352884E+01  0.54932317996E+02  0.55303097634E+02  0.51100000000E-03 0. -1.
         22    1    1    0    0    0 -0.14048892786E+02 -0.11706869501E+02 -0.25152468297E+02  0.31097730520E+02  0.00000000000E+00 0. -1.
</event>
<event>
 5    1  0.1103865E-009  0.9118800E+02  0.7818608E-02  0.1130116E+00
         25   -1    0    0    0    0  0.00000000000E+00  0.00000000000E+00  0.99999998245E-14  0.12500000000E+03  0.12500000000E+03 0.  0.
        -11    1    3    3    0    0 -0.41054326637E+02  0.26439567378E+02  0.76580285656E+01  0.49428269852E+02  0.51100000000E-03 0.  1.
         23    2    1    0    0    0 -0.23137711537E+02 -0.98239789271E+01 -0.14937464977E+02  0.95759751761E+02  0.91186281536E+02 0.  0.
         11    1    3    3    0    0  0.17916615100E+02 -0.36263546305E+02 -0.22595493542E+02  0.46331481909E+02  0.51100000000E-03 0. -1.
         22    1    1    0    0    0  0.23137711537E+02  0.98239789271E+01  0.14937464977E+02  0.29240248239E+02  0.00000000000E+00 0. -1.
</event>
<event>
 5    1  0.1103865E-009  0.9118800E+02  0.7818608E-02  0.1130116E+00
         25   -1    0    0    0    0  0.00000000000E+00  0.00000000000E+00  0.99999998245E-14  0.12500000000E+03  0.12500000000E+03 0.  0.
        -11    1    3    3    0    0 -0.12428332645E+02  0.24759354296E+02 -0.17677122920E+02  0.32862893245E+02  0.51100000000E-03 0.  1.
         23    2    1    0    0    0  0.56539712182E+01 -0.21991679502E+02  0.19337934831E+02  0.95174556476E+02  0.90380524003E+02 0.  0.
         11    1    3    3    0    0  0.18082303863E+02 -0.46751033798E+02  0.37015057750E+02  0.62311663231E+02  0.51100000000E-03 0. -1.
         22    1    1    0    0    0 -0.56539712182E+01  0.21991679502E+02 -0.19337934831E+02  0.29825443524E+02  0.00000000000E+00 0. -1.
</event>
<event>
 5    1  0.1103865E-009  0.9118800E+02  0.7818608E-02  0.1130116E+00
         25   -1    0    0    0    0  0.00000000000E+00  0.00000000000E+00  0.99999998245E-14  0.12500000000E+03  0.12500000000E+03 0.  0.
        -11    1    3    3    0    0 -0.52522172425E+01 -0.23254741426E+02 -0.25124149343E+02  0.34635121845E+02  0.51100000000E-03 0. -1.
         23    2    1    0    0    0 -0.47441329273E+01  0.23184712856E+01  0.29542229677E+02  0.94989577800E+02  0.90124327736E+02 0.  0.
         11    1    3    3    0    0  0.50808431524E+00  0.25573212711E+02  0.54666379021E+02  0.60354455954E+02  0.51100000000E-03 0.  1.
         22    1    1    0    0    0  0.47441329273E+01 -0.23184712856E+01 -0.29542229677E+02  0.30010422200E+02  0.00000000000E+00 0.  1.
</event>
<event>
 5    1  0.1103865E-009  0.9118800E+02  0.7818608E-02  0.1130116E+00
         25   -1    0    0    0    0  0.00000000000E+00  0.00000000000E+00  0.99999998245E-14  0.12500000000E+03  0.12500000000E+03 0.  0.
        -11    1    3    3    0    0  0.22699894476E+02  0.23687129392E+02 -0.23407212401E+02  0.40302145113E+02  0.51100000000E-03 0. -1.
         23    2    1    0    0    0 -0.14938984413E+02  0.25976323747E+02  0.12648358385E+02  0.92474262184E+02  0.86565383069E+02 0.  0.
         11    1    3    3    0    0 -0.37638878888E+02  0.22891943546E+01  0.36055570786E+02  0.52172117071E+02  0.51100000000E-03 0.  1.
         22    1    1    0    0    0  0.14938984413E+02 -0.25976323747E+02 -0.12648358385E+02  0.32525737816E+02  0.00000000000E+00 0.  1.
</event>
<event>
 5    1  0.1103865E-009  0.9118800E+02  0.7818608E-02  0.1130116E+00
         25   -1    0    0    0    0  0.00000000000E+00  0.00000000000E+00  0.99999998245E-14  0.12500000000E+03  0.12500000000E+03 0.  0.
        -11    1    3    3    0    0 -0.28761604050E+02  0.11241180600E+01  0.53842954319E+02  0.61053724203E+02  0.51100000000E-03 0. -1.
         23    2    1    0    0    0 -0.11707996310E+02 -0.84931082332E+01  0.28099852238E+02  0.93396016693E+02  0.87886313913E+02 0.  0.
         11    1    3    3    0    0  0.17053607740E+02 -0.96172262933E+01 -0.25743102081E+02  0.32342292490E+02  0.51100000000E-03 0.  1.
         22    1    1    0    0    0  0.11707996310E+02  0.84931082332E+01 -0.28099852238E+02  0.31603983307E+02  0.00000000000E+00 0. -1.
</event>
<event>
 5    1  0.1103865E-009  0.9118800E+02  0.7818608E-02  0.1130116E+00
         25   -1    0    0    0    0  0.00000000000E+00  0.00000000000E+00  0.99999998245E-14  0.12500000000E+03  0.12500000000E+03 0.  0.
        -11    1    3    3    0    0 -0.10761524953E+02 -0.26113859743E+01 -0.59345047397E+02  0.60369399589E+02  0.51100000000E-03 0.  1.
         23    2    1    0    0    0 -0.28615679253E+01  0.10138663239E+02 -0.26769497468E+02  0.96232187119E+02  0.91831621895E+02 0.  0.
         11    1    3    3    0    0  0.78999570279E+01  0.12750049213E+02  0.32575549929E+02  0.35862787530E+02  0.51100000000E-03 0. -1.
         22    1    1    0    0    0  0.28615679253E+01 -0.10138663239E+02  0.26769497468E+02  0.28767812881E+02  0.00000000000E+00 0.  1.
</event>
<event>
 5    1  0.1103865E-009  0.9118800E+02  0.7818608E-02  0.1130116E+00
         25   -1    0    0    0    0  0.00000000000E+00  0.00000000000E+00  0.99999998245E-14  0.12500000000E+03  0.12500000000E+03 0.  0.
        -11    1    3    3    0    0  0.52289836134E+02 -0.37747321266E+01  0.24938252153E+02  0.58055077179E+02  0.51100000000E-03 0.  1.
         23    2    1    0    0    0  0.28305523465E+02  0.47055853494E+01 -0.33633532611E+01  0.96109563222E+02  0.91664555884E+02 0.  0.
         11    1    3    3    0    0 -0.23984312670E+02  0.84803174760E+01 -0.28301605414E+02  0.38054486043E+02  0.51100000000E-03 0. -1.
         22    1    1    0    0    0 -0.28305523465E+02 -0.47055853494E+01  0.33633532611E+01  0.28890436778E+02  0.00000000000E+00 0.  1.
</event>
<event>
 5    1  0.1103865E-009  0.9118800E+02  0.7818608E-02  0.1130116E+00
         25   -1    0    0    0    0  0.00000000000E+00  0.00000000000E+00  0.99999998245E-14  0.12500000000E+03  0.12500000000E+03 0.  0.
        -11    1    3    3    0    0  0.55302295902E+02 -0.95712168624E+01  0.25493748692E+01  0.56182305371E+02  0.51100000000E-03 0.  1.
         23    2    1    0    0    0  0.18070824397E+02 -0.22374342380E+02  0.57022026243E+01  0.95679682709E+02  0.91076455120E+02 0.  0.
         11    1    3    3    0    0 -0.37231471505E+02 -0.12803125517E+02  0.31528277551E+01  0.39497377338E+02  0.51100000000E-03 0. -1.
         22    1    1    0    0    0 -0.18070824397E+02  0.22374342380E+02 -0.57022026243E+01  0.29320317291E+02  0.00000000000E+00 0. -1.
</event>
<event>
 5    1  0.1103865E-009  0.9118800E+02  0.7818608E-02  0.1130116E+00
         25   -1    0    0    0    0  0.00000000000E+00  0.00000000000E+00  0.99999998245E-14  0.12500000000E+03  0.12500000000E+03 0.  0.
        -11    1    3    3    0    0  0.22126336348E+01  0.10981819211E+02  0.38800338160E+02  0.40385174785E+02  0.51100000000E-03 0.  1.
         23    2    1    0    0    0  0.14743939344E+02 -0.24468597617E+02 -0.26036518001E+01  0.96314201782E+02  0.91943191404E+02 0.  0.
         11    1    3    3    0    0  0.12531305709E+02 -0.35450416827E+02 -0.41403989960E+02  0.55929026998E+02  0.51100000000E-03 0. -1.
         22    1    1    0    0    0 -0.14743939344E+02  0.24468597617E+02  0.26036518001E+01  0.28685798218E+02  0.00000000000E+00 0. -1.
</event>
<event>
 5    1  0.1103865E-009  0.9118800E+02  0.7818608E-02  0.1130116E+00
         25   -1    0    0    0    0  0.00000000000E+00  0.00000000000E+00  0.99999998245E-14  0.12500000000E+03  0.12500000000E+03 0.  0.
        -11    1    3    3    0    0  0.14318493841E+02  0.21807534272E+02 -0.47137633382E+02  0.53875266106E+02  0.51100000000E-03 0. -1.
         23    2    1    0    0    0  0.98137067980E+01  0.25640640868E+02 -0.41908521991E+01  0.97227449750E+02  0.93176512263E+02 0.  0.
         11    1    3    3    0    0 -0.45047870429E+01  0.38331065957E+01  0.42946781183E+02  0.43352183644E+02  0.51100000000E-03 0.  1.
         22    1    1    0    0    0 -0.98137067980E+01 -0.25640640868E+02  0.41908521991E+01  0.27772550250E+02  0.00000000000E+00 0.  1.
</event>
<event>
 5    1  0.1103865E-009  0.9118800E+02  0.7818608E-02  0.1130116E+00
         25   -1    0    0    0    0  0.00000000000E+00  0.00000000000E+00  0.99999998245E-14  0.12500000000E+03  0.12500000000E+03 0.  0.
        -11    1    3    3    0    0 -0.53905168558E+01  0.44783359244E+02  0.14067607676E+02  0.47249386484E+02  0.51100000000E-03 0. -1.
         23    2    1    0    0    0  0.24531192288E+02  0.64289833057E+01  0.14282140853E+02  0.95895176194E+02  0.91371735501E+02 0.  0.
         11    1    3    3    0    0  0.29921709144E+02 -0.38354375939E+02  0.21453317686E+00  0.48645789710E+02  0.51100000000E-03 0.  1.
         22    1    1    0    0    0 -0.24531192288E+02 -0.64289833057E+01 -0.14282140853E+02  0.29104823806E+02  0.00000000000E+00 0.  1.
</event>
<event>
 5    1  0.1103865E-009  0.9118800E+02  0.7818608E-02  0.1130116E+00
         25   -1    0    0    0    0  0.00000000000E+00  0.00000000000E+00  0.99999998245E-14  0.12500000000E+03  0.12500000000E+03 0.  0.
        -11    1    3    3    0    0 -0.30367317007E+02 -0.36650033121E+02 -0.18330944340E+02  0.51004140916E+02  0.51100000000E-03 0.  1.
         23    2    1    0    0    0 -0.86094072312E+01  0.43372432661E+01 -0.25296963144E+02  0.97928429740E+02  0.94112206620E+02 0.  0.
         11    1    3    3    0    0  0.21757909775E+02  0.40987276387E+02 -0.69660188047E+01  0.46924288824E+02  0.51100000000E-03 0. -1.
         22    1    1    0    0    0  0.86094072312E+01 -0.43372432661E+01  0.25296963144E+02  0.27071570260E+02  0.00000000000E+00 0. -1.
</event>
<event>
 5    1  0.1103865E-009  0.9118800E+02  0.7818608E-02  0.1130116E+00
         25   -1    0    0    0    0  0.00000000000E+00  0.00000000000E+00  0.99999998245E-14  0.12500000000E+03  0.12500000000E+03 0.  0.
        -11    1    3    3    0    0  0.16529593223E+02 -0.14102292445E+01 -0.32347106348E+02  0.36353149630E+02  0.51100000000E-03 0. -1.
         23    2    1    0    0    0 -0.12496611753E+02 -0.23662047346E+02  0.13521730985E+02  0.95018422344E+02  0.90164325462E+02 0.  0.
         11    1    3    3    0    0 -0.29026204976E+02 -0.22251818101E+02  0.45868837333E+02  0.58665272715E+02  0.51100000000E-03 0.  1.
         22    1    1    0    0    0  0.12496611753E+02  0.23662047346E+02 -0.13521730985E+02  0.29981577656E+02  0.00000000000E+00 0.  1.
</event>
<event>
 5    1  0.1103865E-009  0.9118800E+02  0.7818608E-02  0.1130116E+00
         25   -1    0    0    0    0  0.00000000000E+00  0.00000000000E+00  0.99999998245E-14  0.12500000000E+03  0.12500000000E+03 0.  0.
        -11    1    3    3    0    0  0.11587589063E+02 -0.24517833630E+02  0.19405700471E+02  0.33346328093E+02  0.51100000000E-03 0. -1.
         23    2    1    0    0    0 -0.16976339771E+02  0.18676656631E+02 -0.15113609897E+02  0.95581726444E+02  0.90941913389E+02 0.  0.
         11    1    3    3    0    0 -0.28563928834E+02  0.43194490261E+02 -0.34519310368E+02  0.62235398351E+02  0.51100000000E-03 0.  1.
         22    1    1    0    0    0  0.16976339771E+02 -0.18676656631E+02  0.15113609897E+02  0.29418273556E+02  0.00000000000E+00 0.  1.
</event>
<event>
 5    1  0.1103865E-009  0.9118800E+02  0.7818608E-02  0.1130116E+00
         25   -1    0    0    0    0  0.00000000000E+00  0.00000000000E+00  0.99999998245E-14  0.12500000000E+03  0.12500000000E+03 0.  0.
        -11    1    3    3    0    0  0.39445608794E+02  0.16141897631E+02 -0.30819435567E+02  0.52596145497E+02  0.51100000000E-03 0. -1.
         23    2    1    0    0    0  0.74485613580E+01 -0.12300455012E+02 -0.25484701447E+02  0.95738211475E+02  0.91156748894E+02 0.  0.
         11    1    3    3    0    0 -0.31997047436E+02 -0.28442352643E+02  0.53347341200E+01  0.43142065978E+02  0.51100000000E-03 0.  1.
         22    1    1    0    0    0 -0.74485613580E+01  0.12300455012E+02  0.25484701447E+02  0.29261788525E+02  0.00000000000E+00 0. -1.
</event>
<event>
 5    1  0.1103865E-009  0.9118800E+02  0.7818608E-02  0.1130116E+00
         25   -1    0    0    0    0  0.00000000000E+00  0.00000000000E+00  0.99999998245E-14  0.12500000000E+03  0.12500000000E+03 0.  0.
        -11    1    3    3    0    0 -0.12055610952E+02  0.54150923096E+02 -0.14721402602E+02  0.57396689124E+02  0.51100000000E-03 0. -1.
         23    2    1    0    0    0 -0.98271124029E+01  0.25089465069E+02  0.10637403450E+02  0.96030917381E+02  0.91557246274E+02 0.  0.
         11    1    3    3    0    0  0.22284985486E+01 -0.29061458027E+02  0.25358806052E+02  0.38634228257E+02  0.51100000000E-03 0.  1.
         22    1    1    0    0    0  0.98271124029E+01 -0.25089465069E+02 -0.10637403450E+02  0.28969082619E+02  0.00000000000E+00 0. -1.
</event>
<event>
 5    1  0.1103865E-009  0.9118800E+02  0.7818608E-02  0.1130116E+00
         25   -1    0    0    0    0  0.00000000000E+00  0.00000000000E+00  0.99999998245E-14  0.12500000000E+03  0.12500000000E+03 0.  0.
        -11    1    3    3    0    0  0.37362789263E+02  0.11518616504E+02 -0.22256271527E+02  0.44988867181E+02  0.51100000000E-03 0.  1.
         23    2    1    0    0    0  0.15385156533E+01  0.28990786518E+02 -0.27280351236E+02  0.85162200150E+02  0.75269848130E+02 0.  0.
         11    1    3    3    0    0 -0.35824273610E+02  0.17472170014E+02 -0.50240797083E+01  0.40173332969E+02  0.51100000000E-03 0. -1.
         22    1    1    0    0    0 -0.15385156533E+01 -0.28990786518E+02  0.27280351236E+02  0.39837799850E+02  0.00000000000E+00 0. -1.
</event>
<event>
 5    1  0.1103865E-009  0.9118800E+02  0.7818608E-02  0.1130116E+00
         25   -1    0    0    0    0  0.00000000000E+00  0.00000000000E+00  0.99999998245E-14  0.12500000000E+03  0.12500000000E+03 0.  0.
        -11    1    3    3    0    0  0.38103778368E+02 -0.75587044665E+01 -0.38334911917E+01  0.39034953492E+02  0.51100000000E-03 0.  1.
         23    2    1    0    0    0  0.72935454434E+00 -0.30032501951E+02  0.20170235332E+02  0.88815451850E+02  0.81110190250E+02 0.  0.
         11    1    3    3    0    0 -0.37374423824E+02 -0.22473797484E+02  0.24003726524E+02  0.49780498358E+02  0.51100000000E-03 0. -1.
         22    1    1    0    0    0 -0.72935454434E+00  0.30032501951E+02 -0.20170235332E+02  0.36184548150E+02  0.00000000000E+00 0. -1.
</event>
<event>
 5    1  0.1103865E-009  0.9118800E+02  0.7818608E-02  0.1130116E+00
         25   -1    0    0    0    0  0.00000000000E+00  0.00000000000E+00  0.99999998245E-14  0.12500000000E+03  0.12500000000E+03 0.  0.
        -11    1    3    3    0    0 -0.19880433241E+02  0.49290929889E+01  0.26537824325E+02  0.33522883284E+02  0.51100000000E-03 0. -1.
         23    2    1    0    0    0  0.90174092394E+01  0.34693272039E+01 -0.28065035467E+02  0.95318421262E+02  0.90579276412E+02 0.  0.
         11    1    3    3    0    0  0.28897842480E+02 -0.14597657850E+01 -0.54602859792E+02  0.61795537977E+02  0.51100000000E-03 0.  1.
         22    1    1    0    0    0 -0.90174092394E+01 -0.34693272039E+01  0.28065035467E+02  0.29681578738E+02  0.00000000000E+00 0.  1.
</event>
<event>
 5    1  0.1103865E-009  0.9118800E+02  0.7818608E-02  0.1130116E+00
         25   -1    0    0    0    0  0.00000000000E+00  0.00000000000E+00  0.99999998245E-14  0.12500000000E+03  0.12500000000E+03 0.  0.
        -11    1    3    3    0    0  0.28968081968E+01  0.54802783151E+01  0.56416085597E+02  0.56755613489E+02  0.51100000000E-03 0. -1.
         23    2    1    0    0    0 -0.14789166356E+02 -0.73817053856E+01  0.24641402568E+02  0.95328334452E+02  0.90592955647E+02 0.  0.
         11    1    3    3    0    0 -0.17685974553E+02 -0.12861983701E+02 -0.31774683029E+02  0.38572720963E+02  0.51100000000E-03 0.  1.
         22    1    1    0    0    0  0.14789166356E+02  0.73817053856E+01 -0.24641402568E+02  0.29671665548E+02  0.00000000000E+00 0. -1.
</event>
<event>
 5    1  0.1103865E-009  0.9118800E+02  0.7818608E-02  0.1130116E+00
         25   -1    0    0    0    0  0.00000000000E+00  0.00000000000E+00  0.99999998245E-14  0.12500000000E+03  0.12500000000E+03 0.  0.
        -11    1    3    3    0    0 -0.19044878764E+02  0.32376408619E+02 -0.35727768130E+02  0.51840260975E+02  0.51100000000E-03 0. -1.
         23    2    1    0    0    0 -0.21165099371E+02  0.15866536770E+02  0.69508145097E+01  0.97650004702E+02  0.93741672565E+02 0.  0.
         11    1    3    3    0    0 -0.21202206073E+01 -0.16509871849E+02  0.42678582639E+02  0.45809743726E+02  0.51100000000E-03 0.  1.
         22    1    1    0    0    0  0.21165099371E+02 -0.15866536770E+02 -0.69508145097E+01  0.27349995298E+02  0.00000000000E+00 0. -1.
</event>
<event>
 5    1  0.1103865E-009  0.9118800E+02  0.7818608E-02  0.1130116E+00
         25   -1    0    0    0    0  0.00000000000E+00  0.00000000000E+00  0.99999998245E-14  0.12500000000E+03  0.12500000000E+03 0.  0.
        -11    1    3    3    0    0  0.34830757860E+02  0.64034089704E+01 -0.12221285695E+02  0.37463918159E+02  0.51100000000E-03 0.  1.
         23    2    1    0    0    0 -0.72814846847E+01 -0.92436178768E+01  0.26008368275E+02  0.96453551692E+02  0.92132447720E+02 0.  0.
         11    1    3    3    0    0 -0.42112242545E+02 -0.15647026847E+02  0.38229653970E+02  0.58989633532E+02  0.51100000000E-03 0. -1.
         22    1    1    0    0    0  0.72814846847E+01  0.92436178768E+01 -0.26008368275E+02  0.28546448308E+02  0.00000000000E+00 0. -1.
</event>
<event>
 5    1  0.1103865E-009  0.9118800E+02  0.7818608E-02  0.1130116E+00
         25   -1    0    0    0    0  0.00000000000E+00  0.00000000000E+00  0.99999998245E-14  0.12500000000E+03  0.12500000000E+03 0.  0.
        -11    1    3    3    0    0  0.95668891506E+01 -0.27723005494E+02  0.30128157572E+02  0.42045169528E+02  0.51100000000E-03 0. -1.
         23    2    1    0    0    0 -0.15101863971E+02 -0.36968069480E+02 -0.36703695666E+01  0.84897929365E+02  0.74829688903E+02 0.  0.
         11    1    3    3    0    0 -0.24668753122E+02 -0.92450639856E+01 -0.33798527139E+02  0.42852759838E+02  0.51100000000E-03 0.  1.
         22    1    1    0    0    0  0.15101863971E+02  0.36968069480E+02  0.36703695666E+01  0.40102070635E+02  0.00000000000E+00 0. -1.
</event>
<event>
 5    1  0.1103865E-009  0.9118800E+02  0.7818608E-02  0.1130116E+00
         25   -1    0    0    0    0  0.00000000000E+00  0.00000000000E+00  0.99999998245E-14  0.12500000000E+03  0.12500000000E+03 0.  0.
        -11    1    3    3    0    0  0.18009894312E+02  0.25097647214E+02  0.32387467510E+02  0.44757080342E+02  0.51100000000E-03 0. -1.
         23    2    1    0    0    0  0.74069811281E+01 -0.22974452746E+02  0.12055034334E+02  0.98018289506E+02  0.94231482937E+02 0.  0.
         11    1    3    3    0    0 -0.10602913184E+02 -0.48072099959E+02 -0.20332433175E+02  0.53261209164E+02  0.51100000000E-03 0.  1.
         22    1    1    0    0    0 -0.74069811281E+01  0.22974452746E+02 -0.12055034334E+02  0.26981710494E+02  0.00000000000E+00 0.  1.
</event>
<event>
 5    1  0.1103865E-009  0.9118800E+02  0.7818608E-02  0.1130116E+00
         25   -1    0    0    0    0  0.00000000000E+00  0.00000000000E+00  0.99999998245E-14  0.12500000000E+03  0.12500000000E+03 0.  0.
        -11    1    3    3    0    0  0.39178705581E+02  0.80439271842E+01 -0.18052334795E+02  0.43881232063E+02  0.51100000000E-03 0. -1.
         23    2    1    0    0    0 -0.64139404346E+01  0.18212293459E+02  0.14530286104E+02  0.10083482921E+03  0.97896411084E+02 0.  0.
         11    1    3    3    0    0 -0.45592646016E+02  0.10168366275E+02  0.32582620898E+02  0.56953597150E+02  0.51100000000E-03 0.  1.
         22    1    1    0    0    0  0.64139404346E+01 -0.18212293459E+02 -0.14530286104E+02  0.24165170788E+02  0.00000000000E+00 0.  1.
</event>
<event>
 5    1  0.1103865E-009  0.9118800E+02  0.7818608E-02  0.1130116E+00
         25   -1    0    0    0    0  0.00000000000E+00  0.00000000000E+00  0.99999998245E-14  0.12500000000E+03  0.12500000000E+03 0.  0.
        -11    1    3    3    0    0 -0.59363186830E+02  0.79092562375E+01  0.94205927179E+00  0.59895173101E+02  0.51100000000E-03 0. -1.
         23    2    1    0    0    0 -0.32271340229E+02 -0.30980265648E+01  0.10915947012E+02  0.90791885934E+02  0.84100960063E+02 0.  0.
         11    1    3    3    0    0  0.27091846602E+02 -0.11007282802E+02  0.99738877406E+01  0.30896712833E+02  0.51100000000E-03 0.  1.
         22    1    1    0    0    0  0.32271340229E+02  0.30980265648E+01 -0.10915947012E+02  0.34208114066E+02  0.00000000000E+00 0. -1.
</event>
<event>
 5    1  0.1103865E-009  0.9118800E+02  0.7818608E-02  0.1130116E+00
         25   -1    0    0    0    0  0.00000000000E+00  0.00000000000E+00  0.99999998245E-14  0.12500000000E+03  0.12500000000E+03 0.  0.
        -11    1    3    3    0    0  0.71310733246E+01  0.40260064801E+02 -0.82238239091E+01  0.41705590806E+02  0.51100000000E-03 0. -1.
         23    2    1    0    0    0  0.12616478841E+02 -0.17243229962E+01  0.25934822733E+02  0.96107719745E+02  0.91662041960E+02 0.  0.
         11    1    3    3    0    0  0.54854055160E+01 -0.41984387797E+02  0.34158646642E+02  0.54402128939E+02  0.51100000000E-03 0.  1.
         22    1    1    0    0    0 -0.12616478841E+02  0.17243229962E+01 -0.25934822733E+02  0.28892280255E+02  0.00000000000E+00 0.  1.
</event>
<event>
 5    1  0.1103865E-009  0.9118800E+02  0.7818608E-02  0.1130116E+00
         25   -1    0    0    0    0  0.00000000000E+00  0.00000000000E+00  0.99999998245E-14  0.12500000000E+03  0.12500000000E+03 0.  0.
        -11    1    3    3    0    0 -0.24977121585E+02  0.18613128071E+02 -0.42409324871E+02  0.52619919950E+02  0.51100000000E-03 0.  1.
         23    2    1    0    0    0 -0.78324561801E+01 -0.16170912502E+02 -0.22482111450E+02  0.96219952811E+02  0.91814967204E+02 0.  0.
         11    1    3    3    0    0  0.17144665405E+02 -0.34784040574E+02  0.19927213421E+02  0.43600032861E+02  0.51100000000E-03 0. -1.
         22    1    1    0    0    0  0.78324561801E+01  0.16170912502E+02  0.22482111450E+02  0.28780047189E+02  0.00000000000E+00 0.  1.
</event>
<event>
 5    1  0.1103865E-009  0.9118800E+02  0.7818608E-02  0.1130116E+00
         25   -1    0    0    0    0  0.00000000000E+00  0.00000000000E+00  0.99999998245E-14  0.12500000000E+03  0.12500000000E+03 0.  0.
        -11    1    3    3    0    0  0.22436312570E+02 -0.11065458483E+02 -0.50317704986E+02  0.56193450940E+02  0.51100000000E-03 0.  1.
         23    2    1    0    0    0  0.26906705781E+02 -0.31343675100E+01 -0.12365300701E+02  0.95222563288E+02  0.90446895038E+02 0.  0.
         11    1    3    3    0    0  0.44703932109E+01  0.79310909726E+01  0.37952404285E+02  0.39029112349E+02  0.51100000000E-03 0. -1.
         22    1    1    0    0    0 -0.26906705781E+02  0.31343675100E+01  0.12365300701E+02  0.29777436712E+02  0.00000000000E+00 0.  1.
</event>
<event>
 5    1  0.1103865E-009  0.9118800E+02  0.7818608E-02  0.1130116E+00
         25   -1    0    0    0    0  0.00000000000E+00  0.00000000000E+00  0.99999998245E-14  0.12500000000E+03  0.12500000000E+03 0.  0.
        -11    1    3    3    0    0 -0.33006572473E+02  0.25958947803E+01  0.10402394171E+02  0.34704211573E+02  0.51100000000E-03 0.  1.
         23    2    1    0    0    0  0.26771998545E+02  0.11480844173E+02  0.11161389739E+01  0.95848748651E+02  0.91308198770E+02 0.  0.
         11    1    3    3    0    0  0.59778571018E+02  0.88849493924E+01 -0.92862551970E+01  0.61144537078E+02  0.51100000000E-03 0. -1.
         22    1    1    0    0    0 -0.26771998545E+02 -0.11480844173E+02 -0.11161389739E+01  0.29151251349E+02  0.00000000000E+00 0. -1.
</event>
<event>
 5    1  0.1103865E-009  0.9118800E+02  0.7818608E-02  0.1130116E+00
         25   -1    0    0    0    0  0.00000000000E+00  0.00000000000E+00  0.99999998245E-14  0.12500000000E+03  0.12500000000E+03 0.  0.
        -11    1    3    3    0    0  0.33025991638E+01 -0.84631614174E+01  0.39139275998E+02  0.40179785817E+02  0.51100000000E-03 0. -1.
         23    2    1    0    0    0  0.34109768646E+02 -0.71263542437E+01 -0.18601586985E+00  0.90153252034E+02  0.83146334907E+02 0.  0.
         11    1    3    3    0    0  0.30807169482E+02  0.13368071737E+01 -0.39325291868E+02  0.49973466217E+02  0.51100000000E-03 0.  1.
         22    1    1    0    0    0 -0.34109768646E+02  0.71263542437E+01  0.18601586985E+00  0.34846747966E+02  0.00000000000E+00 0.  1.
</event>
<event>
 5    1  0.1103865E-009  0.9118800E+02  0.7818608E-02  0.1130116E+00
         25   -1    0    0    0    0  0.00000000000E+00  0.00000000000E+00  0.99999998245E-14  0.12500000000E+03  0.12500000000E+03 0.  0.
        -11    1    3    3    0    0  0.16091774092E+02 -0.13883375411E+02 -0.51959762503E+02  0.56138313351E+02  0.51100000000E-03 0. -1.
         23    2    1    0    0    0 -0.86914574713E+01 -0.18070920271E+02 -0.22675788172E+02  0.94729701659E+02  0.89763162906E+02 0.  0.
         11    1    3    3    0    0 -0.24783231564E+02 -0.41875448593E+01  0.29283974331E+02  0.38591388308E+02  0.51100000000E-03 0.  1.
         22    1    1    0    0    0  0.86914574713E+01  0.18070920271E+02  0.22675788172E+02  0.30270298341E+02  0.00000000000E+00 0. -1.
</event>
<event>
 5    1  0.1103865E-009  0.9118800E+02  0.7818608E-02  0.1130116E+00
         25   -1    0    0    0    0  0.00000000000E+00  0.00000000000E+00  0.99999998245E-14  0.12500000000E+03  0.12500000000E+03 0.  0.
        -11    1    3    3    0    0  0.46743722007E+02 -0.71305471245E+01  0.16201389659E+02  0.49983049892E+02  0.51100000000E-03 0.  1.
         23    2    1    0    0    0  0.10210812387E+02 -0.21676641602E+02 -0.11833672143E+02  0.98275979398E+02  0.94572696110E+02 0.  0.
         11    1    3    3    0    0 -0.36532909620E+02 -0.14546094477E+02 -0.28035061802E+02  0.48292929507E+02  0.51100000000E-03 0. -1.
         22    1    1    0    0    0 -0.10210812387E+02  0.21676641602E+02  0.11833672143E+02  0.26724020602E+02  0.00000000000E+00 0. -1.
</event>
<event>
 5    1  0.1103865E-009  0.9118800E+02  0.7818608E-02  0.1130116E+00
         25   -1    0    0    0    0  0.00000000000E+00  0.00000000000E+00  0.99999998245E-14  0.12500000000E+03  0.12500000000E+03 0.  0.
        -11    1    3    3    0    0 -0.16780231206E+02  0.28229176391E+01 -0.34106412068E+02  0.38115513479E+02  0.51100000000E-03 0. -1.
         23    2    1    0    0    0  0.16728993687E+02 -0.21637305655E+02  0.72609063793E+01  0.96702420824E+02  0.92469482566E+02 0.  0.
         11    1    3    3    0    0  0.33509224893E+02 -0.24460223294E+02  0.41367318447E+02  0.58586907345E+02  0.51100000000E-03 0.  1.
         22    1    1    0    0    0 -0.16728993687E+02  0.21637305655E+02 -0.72609063793E+01  0.28297579176E+02  0.00000000000E+00 0.  1.
</event>
<event>
 5    1  0.1103865E-009  0.9118800E+02  0.7818608E-02  0.1130116E+00
         25   -1    0    0    0    0  0.00000000000E+00  0.00000000000E+00  0.99999998245E-14  0.12500000000E+03  0.12500000000E+03 0.  0.
        -11    1    3    3    0    0 -0.38194739797E+02 -0.20977268578E+01 -0.44231504309E+01  0.38507179410E+02  0.51100000000E-03 0.  1.
         23    2    1    0    0    0  0.16887206023E+02 -0.10200387213E+02 -0.20592132678E+02  0.96482258947E+02  0.92171387842E+02 0.  0.
         11    1    3    3    0    0  0.55081945820E+02 -0.81026603554E+01 -0.16168982247E+02  0.57975079537E+02  0.51100000000E-03 0. -1.
         22    1    1    0    0    0 -0.16887206023E+02  0.10200387213E+02  0.20592132678E+02  0.28517741053E+02  0.00000000000E+00 0. -1.
</event>
<event>
 5    1  0.1103865E-009  0.9118800E+02  0.7818608E-02  0.1130116E+00
         25   -1    0    0    0    0  0.00000000000E+00  0.00000000000E+00  0.99999998245E-14  0.12500000000E+03  0.12500000000E+03 0.  0.
        -11    1    3    3    0    0  0.46663599997E+02  0.76675179744E-02  0.76685102752E+01  0.47289509128E+02  0.51100000000E-03 0.  1.
         23    2    1    0    0    0  0.79013583919E+01  0.28150079956E+02  0.25419219981E+00  0.95760932306E+02  0.91187899835E+02 0.  0.
         11    1    3    3    0    0 -0.38762241605E+02  0.28142412438E+02 -0.74143180754E+01  0.48471423178E+02  0.51100000000E-03 0. -1.
         22    1    1    0    0    0 -0.79013583919E+01 -0.28150079956E+02 -0.25419219981E+00  0.29239067694E+02  0.00000000000E+00 0. -1.
</event>
<event>
 5    1  0.1103865E-009  0.9118800E+02  0.7818608E-02  0.1130116E+00
         25   -1    0    0    0    0  0.00000000000E+00  0.00000000000E+00  0.99999998245E-14  0.12500000000E+03  0.12500000000E+03 0.  0.
        -11    1    3    3    0    0  0.32466623365E+02 -0.33614544136E+02  0.21233184670E+02  0.51330958901E+02  0.51100000000E-03 0. -1.
         23    2    1    0    0    0  0.21647189183E+02 -0.10896243844E+02 -0.15774827116E+02  0.96083324881E+02  0.91628768518E+02 0.  0.
         11    1    3    3    0    0 -0.10819434182E+02  0.22718300292E+02 -0.37008011786E+02  0.44752365980E+02  0.51100000000E-03 0.  1.
         22    1    1    0    0    0 -0.21647189183E+02  0.10896243844E+02  0.15774827116E+02  0.28916675119E+02  0.00000000000E+00 0. -1.
</event>
<event>
 5    1  0.1103865E-009  0.9118800E+02  0.7818608E-02  0.1130116E+00
         25   -1    0    0    0    0  0.00000000000E+00  0.00000000000E+00  0.99999998245E-14  0.12500000000E+03  0.12500000000E+03 0.  0.
        -11    1    3    3    0    0  0.30756994852E+02 -0.52659097064E+02  0.18176323896E+01  0.61010466509E+02  0.51100000000E-03 0. -1.
         23    2    1    0    0    0  0.22675827458E+02 -0.19835432125E+02  0.18804924523E+01  0.94814344957E+02  0.89880955932E+02 0.  0.
         11    1    3    3    0    0 -0.80811673935E+01  0.32823664939E+02  0.62860062739E-01  0.33803878448E+02  0.51100000000E-03 0.  1.
         22    1    1    0    0    0 -0.22675827458E+02  0.19835432125E+02 -0.18804924523E+01  0.30185655043E+02  0.00000000000E+00 0. -1.
</event>
<event>
 5    1  0.1103865E-009  0.9118800E+02  0.7818608E-02  0.1130116E+00
         25   -1    0    0    0    0  0.00000000000E+00  0.00000000000E+00  0.99999998245E-14  0.12500000000E+03  0.12500000000E+03 0.  0.
        -11    1    3    3    0    0  0.35555334694E+01  0.37435122350E+02 -0.27091857247E+02  0.46346509393E+02  0.51100000000E-03 0. -1.
         23    2    1    0    0    0  0.17170434265E+01  0.22247442662E+02  0.19488003027E+02  0.95374348866E+02  0.90656424022E+02 0.  0.
         11    1    3    3    0    0 -0.18384900428E+01 -0.15187679687E+02  0.46579860274E+02  0.49027839472E+02  0.51100000000E-03 0.  1.
         22    1    1    0    0    0 -0.17170434265E+01 -0.22247442662E+02 -0.19488003027E+02  0.29625651134E+02  0.00000000000E+00 0. -1.
</event>
<event>
 5    1  0.1103865E-009  0.9118800E+02  0.7818608E-02  0.1130116E+00
         25   -1    0    0    0    0  0.00000000000E+00  0.00000000000E+00  0.99999998245E-14  0.12500000000E+03  0.12500000000E+03 0.  0.
        -11    1    3    3    0    0  0.60155606446E+01  0.59520096988E+02 -0.12130409625E+02  0.61040771237E+02  0.51100000000E-03 0.  1.
         23    2    1    0    0    0  0.10028827182E+02  0.27568101825E+02  0.57281632301E+00  0.95658804874E+02  0.91047796341E+02 0.  0.
         11    1    3    3    0    0  0.40132665370E+01 -0.31951995162E+02  0.12703225948E+02  0.34618033637E+02  0.51100000000E-03 0. -1.
         22    1    1    0    0    0 -0.10028827182E+02 -0.27568101825E+02 -0.57281632301E+00  0.29341195126E+02  0.00000000000E+00 0.  1.
</event>
<event>
 5    1  0.1103865E-009  0.9118800E+02  0.7818608E-02  0.1130116E+00
         25   -1    0    0    0    0  0.00000000000E+00  0.00000000000E+00  0.99999998245E-14  0.12500000000E+03  0.12500000000E+03 0.  0.
        -11    1    3    3    0    0  0.24273245727E+02  0.41841579648E+02  0.34733777462E+02  0.59551184225E+02  0.51100000000E-03 0.  1.
         23    2    1    0    0    0  0.19241577970E+01  0.28459673436E+02  0.12270964722E+02  0.93947915198E+02  0.88667800241E+02 0.  0.
         11    1    3    3    0    0 -0.22349087930E+02 -0.13381906212E+02 -0.22462812741E+02  0.34396730973E+02  0.51100000000E-03 0. -1.
         22    1    1    0    0    0 -0.19241577970E+01 -0.28459673436E+02 -0.12270964722E+02  0.31052084802E+02  0.00000000000E+00 0.  1.
</event>
<event>
 5    1  0.1103865E-009  0.9118800E+02  0.7818608E-02  0.1130116E+00
         25   -1    0    0    0    0  0.00000000000E+00  0.00000000000E+00  0.99999998245E-14  0.12500000000E+03  0.12500000000E+03 0.  0.
        -11    1    3    3    0    0  0.23352962766E+02  0.12497561877E+02 -0.55178287222E+02  0.61206154133E+02  0.51100000000E-03 0. -1.
         23    2    1    0    0    0  0.18189214714E+02  0.85968644220E+01 -0.21285132281E+02  0.95711598439E+02  0.91120248078E+02 0.  0.
         11    1    3    3    0    0 -0.51637480517E+01 -0.39006974551E+01  0.33893154941E+02  0.34505444305E+02  0.51100000000E-03 0.  1.
         22    1    1    0    0    0 -0.18189214714E+02 -0.85968644220E+01  0.21285132281E+02  0.29288401561E+02  0.00000000000E+00 0. -1.
</event>
<event>
 4    1  0.1103865E-009  0.9118800E+02  0.7818608E-02  0.1130116E+00
         25   -1    0    0    0    0  0.00000000000E+00  0.00000000000E+00  0.99999998245E-14  0.12500000000E+03  0.12500000000E+03 0.  0.
        -11    1    1    0    0    0 -0.32547349648E+01  0.11652542508E+02 -0.39879258870E+02  0.41674096689E+02  0.51100000000E-03 0.  1.
         11    1    1    0    0    0  0.29727375860E+02 -0.11896399194E+02 -0.38061766924E+01  0.32244816181E+02  0.51100000000E-03 0. -1.
         22    1    1    0    0    0 -0.26472640895E+02  0.24385668582E+00  0.43685435562E+02  0.51081087129E+02  0.00000000000E+00 0. -1.
</event>
<event>
 5    1  0.1103865E-009  0.9118800E+02  0.7818608E-02  0.1130116E+00
         25   -1    0    0    0    0  0.00000000000E+00  0.00000000000E+00  0.99999998245E-14  0.12500000000E+03  0.12500000000E+03 0.  0.
        -11    1    3    3    0    0 -0.14867303191E+02 -0.35308260404E+02  0.31110826664E+02  0.49351732420E+02  0.51100000000E-03 0. -1.
         23    2    1    0    0    0 -0.29582000185E+02  0.10481882805E+01  0.11064271953E+02  0.93399184386E+02  0.87890819182E+02 0.  0.
         11    1    3    3    0    0 -0.14714696995E+02  0.36356448684E+02 -0.20046554711E+02  0.44047451965E+02  0.51100000000E-03 0.  1.
         22    1    1    0    0    0  0.29582000185E+02 -0.10481882805E+01 -0.11064271953E+02  0.31600815614E+02  0.00000000000E+00 0. -1.
</event>
<event>
 5    1  0.1103865E-009  0.9118800E+02  0.7818608E-02  0.1130116E+00
         25   -1    0    0    0    0  0.00000000000E+00  0.00000000000E+00  0.99999998245E-14  0.12500000000E+03  0.12500000000E+03 0.  0.
        -11    1    3    3    0    0 -0.79968053802E+01  0.12792652918E+02  0.40757688090E+02  0.43460211731E+02  0.51100000000E-03 0.  1.
         23    2    1    0    0    0 -0.23760027060E+02  0.14776181207E+02 -0.89328000087E+01  0.95628766914E+02  0.91006547724E+02 0.  0.
         11    1    3    3    0    0 -0.15763221680E+02  0.19835282886E+01 -0.49690488099E+02  0.52168555184E+02  0.51100000000E-03 0. -1.
         22    1    1    0    0    0  0.23760027060E+02 -0.14776181207E+02  0.89328000087E+01  0.29371233086E+02  0.00000000000E+00 0. -1.
</event>
<event>
 5    1  0.1103865E-009  0.9118800E+02  0.7818608E-02  0.1130116E+00
         25   -1    0    0    0    0  0.00000000000E+00  0.00000000000E+00  0.99999998245E-14  0.12500000000E+03  0.12500000000E+03 0.  0.
        -11    1    3    3    0    0  0.46596596515E+02  0.38242343850E+01  0.41473650883E+02  0.62497450294E+02  0.51100000000E-03 0.  1.
         23    2    1    0    0    0  0.22291173197E+02  0.20972334796E+01  0.19463931679E+02  0.95332856100E+02  0.90599194395E+02 0.  0.
         11    1    3    3    0    0 -0.24305423317E+02 -0.17270009054E+01 -0.22009719204E+02  0.32835405806E+02  0.51100000000E-03 0. -1.
         22    1    1    0    0    0 -0.22291173197E+02 -0.20972334796E+01 -0.19463931679E+02  0.29667143900E+02  0.00000000000E+00 0.  1.
</event>
<event>
 5    1  0.1103865E-009  0.9118800E+02  0.7818608E-02  0.1130116E+00
         25   -1    0    0    0    0  0.00000000000E+00  0.00000000000E+00  0.99999998245E-14  0.12500000000E+03  0.12500000000E+03 0.  0.
        -11    1    3    3    0    0 -0.26493542814E+02 -0.53896703863E+02  0.27769041502E+01  0.60120493137E+02  0.51100000000E-03 0.  1.
         23    2    1    0    0    0 -0.76182598336E+01 -0.33672499975E+02 -0.75702489289E+01  0.89656205548E+02  0.82395700051E+02 0.  0.
         11    1    3    3    0    0  0.18875282980E+02  0.20224203888E+02 -0.10347153079E+02  0.29535712411E+02  0.51100000000E-03 0. -1.
         22    1    1    0    0    0  0.76182598336E+01  0.33672499975E+02  0.75702489289E+01  0.35343794452E+02  0.00000000000E+00 0.  1.
</event>
<event>
 5    1  0.1103865E-009  0.9118800E+02  0.7818608E-02  0.1130116E+00
         25   -1    0    0    0    0  0.00000000000E+00  0.00000000000E+00  0.99999998245E-14  0.12500000000E+03  0.12500000000E+03 0.  0.
        -11    1    3    3    0    0 -0.41004161937E+01 -0.32930923640E+01  0.30186999655E+02  0.30641684332E+02  0.51100000000E-03 0.  1.
         23    2    1    0    0    0 -0.89906972965E+01 -0.47576557942E+01 -0.31170804219E+02  0.92211481245E+02  0.86185093323E+02 0.  0.
         11    1    3    3    0    0 -0.48902811028E+01 -0.14645634303E+01 -0.61357803874E+02  0.61569796912E+02  0.51100000000E-03 0. -1.
         22    1    1    0    0    0  0.89906972965E+01  0.47576557942E+01  0.31170804219E+02  0.32788518755E+02  0.00000000000E+00 0. -1.
</event>
<event>
 5    1  0.1103865E-009  0.9118800E+02  0.7818608E-02  0.1130116E+00
         25   -1    0    0    0    0  0.00000000000E+00  0.00000000000E+00  0.99999998245E-14  0.12500000000E+03  0.12500000000E+03 0.  0.
        -11    1    3    3    0    0  0.42599742421E+02 -0.39527315830E+02  0.18108932408E+02  0.60869369836E+02  0.51100000000E-03 0. -1.
         23    2    1    0    0    0  0.24377463430E+02 -0.14446778401E+02  0.21876181050E+00  0.96662428012E+02  0.92415404576E+02 0.  0.
         11    1    3    3    0    0 -0.18222278990E+02  0.25080537429E+02 -0.17890170597E+02  0.35793058176E+02  0.51100000000E-03 0.  1.
         22    1    1    0    0    0 -0.24377463430E+02  0.14446778401E+02 -0.21876181050E+00  0.28337571988E+02  0.00000000000E+00 0. -1.
</event>
<event>
 5    1  0.1103865E-009  0.9118800E+02  0.7818608E-02  0.1130116E+00
         25   -1    0    0    0    0  0.00000000000E+00  0.00000000000E+00  0.99999998245E-14  0.12500000000E+03  0.12500000000E+03 0.  0.
        -11    1    3    3    0    0 -0.36309568837E+02  0.11253820569E+02 -0.20475966711E+02  0.43177522851E+02  0.51100000000E-03 0.  1.
         23    2    1    0    0    0  0.31596904310E+01 -0.22624733965E+02 -0.19119597286E+02  0.95210383840E+02  0.90430061152E+02 0.  0.
         11    1    3    3    0    0  0.39469259268E+02 -0.33878554534E+02  0.13563694252E+01  0.52032860989E+02  0.51100000000E-03 0. -1.
         22    1    1    0    0    0 -0.31596904310E+01  0.22624733965E+02  0.19119597286E+02  0.29789616160E+02  0.00000000000E+00 0. -1.
</event>
<event>
 5    1  0.1103865E-009  0.9118800E+02  0.7818608E-02  0.1130116E+00
         25   -1    0    0    0    0  0.00000000000E+00  0.00000000000E+00  0.99999998245E-14  0.12500000000E+03  0.12500000000E+03 0.  0.
        -11    1    3    3    0    0  0.58890066823E+02  0.10263970269E+02  0.87403834537E+01  0.60413436910E+02  0.51100000000E-03 0.  1.
         23    2    1    0    0    0  0.30733521470E+02  0.14995810241E+02  0.11060577215E+02  0.89058936646E+02  0.81484563946E+02 0.  0.
         11    1    3    3    0    0 -0.28156545353E+02  0.47318399721E+01  0.23201937611E+01  0.28645499736E+02  0.51100000000E-03 0. -1.
         22    1    1    0    0    0 -0.30733521470E+02 -0.14995810241E+02 -0.11060577215E+02  0.35941063354E+02  0.00000000000E+00 0.  1.
</event>
<event>
 5    1  0.1103865E-009  0.9118800E+02  0.7818608E-02  0.1130116E+00
         25   -1    0    0    0    0  0.00000000000E+00  0.00000000000E+00  0.99999998245E-14  0.12500000000E+03  0.12500000000E+03 0.  0.
        -11    1    3    3    0    0 -0.26973893407E+02  0.13195421261E+02 -0.53228030351E+02  0.61114100526E+02  0.51100000000E-03 0. -1.
         23    2    1    0    0    0 -0.11647135445E+02  0.15592774456E+02 -0.25076991000E+02  0.93256561986E+02  0.87687744278E+02 0.  0.
         11    1    3    3    0    0  0.15326757962E+02  0.23973531954E+01  0.28151039351E+02  0.32142461461E+02  0.51100000000E-03 0.  1.
         22    1    1    0    0    0  0.11647135445E+02 -0.15592774456E+02  0.25076991000E+02  0.31743438014E+02  0.00000000000E+00 0. -1.
</event>
<event>
 5    1  0.1103865E-009  0.9118800E+02  0.7818608E-02  0.1130116E+00
         25   -1    0    0    0    0  0.00000000000E+00  0.00000000000E+00  0.99999998245E-14  0.12500000000E+03  0.12500000000E+03 0.  0.
        -11    1    3    3    0    0 -0.33823777402E+02  0.39585009563E+02  0.11750648676E+02  0.53376948624E+02  0.51100000000E-03 0. -1.
         23    2    1    0    0    0 -0.21157468461E+02  0.36578369375E+00  0.20531514221E+02  0.95515845856E+02  0.90851315147E+02 0.  0.
         11    1    3    3    0    0  0.12666308940E+02 -0.39219225869E+02  0.87808655453E+01  0.42138897232E+02  0.51100000000E-03 0.  1.
         22    1    1    0    0    0  0.21157468461E+02 -0.36578369375E+00 -0.20531514221E+02  0.29484154144E+02  0.00000000000E+00 0. -1.
</event>
<event>
 5    1  0.1103865E-009  0.9118800E+02  0.7818608E-02  0.1130116E+00
         25   -1    0    0    0    0  0.00000000000E+00  0.00000000000E+00  0.99999998245E-14  0.12500000000E+03  0.12500000000E+03 0.  0.
        -11    1    3    3    0    0  0.46807068284E+01  0.30764838766E+02  0.27325635540E+02  0.41413460114E+02  0.51100000000E-03 0. -1.
         23    2    1    0    0    0  0.16343603487E+02 -0.20535293967E+02  0.67715997254E+01  0.97895272810E+02  0.94068157218E+02 0.  0.
         11    1    3    3    0    0  0.11662896659E+02 -0.51300132732E+02 -0.20554035815E+02  0.56481812695E+02  0.51100000000E-03 0.  1.
         22    1    1    0    0    0 -0.16343603487E+02  0.20535293967E+02 -0.67715997254E+01  0.27104727190E+02  0.00000000000E+00 0.  1.
</event>
<event>
 5    1  0.1103865E-009  0.9118800E+02  0.7818608E-02  0.1130116E+00
         25   -1    0    0    0    0  0.00000000000E+00  0.00000000000E+00  0.99999998245E-14  0.12500000000E+03  0.12500000000E+03 0.  0.
        -11    1    3    3    0    0  0.24250290104E+02 -0.11738093565E+01 -0.49175045352E+02  0.54841950040E+02  0.51100000000E-03 0.  1.
         23    2    1    0    0    0  0.11598296167E+02 -0.21563470188E+02 -0.33507252112E+02  0.83500124523E+02  0.72457098553E+02 0.  0.
         11    1    3    3    0    0 -0.12651993937E+02 -0.20389660832E+02  0.15667793240E+02  0.28658174483E+02  0.51100000000E-03 0. -1.
         22    1    1    0    0    0 -0.11598296167E+02  0.21563470188E+02  0.33507252112E+02  0.41499875477E+02  0.00000000000E+00 0.  1.
</event>
<event>
 5    1  0.1103865E-009  0.9118800E+02  0.7818608E-02  0.1130116E+00
         25   -1    0    0    0    0  0.00000000000E+00  0.00000000000E+00  0.99999998245E-14  0.12500000000E+03  0.12500000000E+03 0.  0.
        -11    1    3    3    0    0 -0.57667935516E+02 -0.28670971308E+01  0.17280170987E+02  0.60269522499E+02  0.51100000000E-03 0. -1.
         23    2    1    0    0    0 -0.24581197820E+02  0.97241177509E+01  0.31842190010E+01  0.98374204182E+02  0.94702434211E+02 0.  0.
         11    1    3    3    0    0  0.33086737696E+02  0.12591214882E+02 -0.14095951986E+02  0.38104681684E+02  0.51100000000E-03 0.  1.
         22    1    1    0    0    0  0.24581197820E+02 -0.97241177509E+01 -0.31842190010E+01  0.26625795818E+02  0.00000000000E+00 0. -1.
</event>
<event>
 5    1  0.1103865E-009  0.9118800E+02  0.7818608E-02  0.1130116E+00
         25   -1    0    0    0    0  0.00000000000E+00  0.00000000000E+00  0.99999998245E-14  0.12500000000E+03  0.12500000000E+03 0.  0.
        -11    1    3    3    0    0 -0.30646483858E+02 -0.17253772714E+02  0.30256217825E+02  0.46393300842E+02  0.51100000000E-03 0.  1.
         23    2    1    0    0    0  0.19154965293E+02  0.17561411480E+01  0.85680892611E+01  0.10394272381E+03  0.10178743022E+03 0.  0.
         11    1    3    3    0    0  0.49801449152E+02  0.19009913862E+02 -0.21688128563E+02  0.57549422964E+02  0.51100000000E-03 0. -1.
         22    1    1    0    0    0 -0.19154965293E+02 -0.17561411480E+01 -0.85680892611E+01  0.21057276194E+02  0.00000000000E+00 0. -1.
</event>
<event>
 5    1  0.1103865E-009  0.9118800E+02  0.7818608E-02  0.1130116E+00
         25   -1    0    0    0    0  0.00000000000E+00  0.00000000000E+00  0.99999998245E-14  0.12500000000E+03  0.12500000000E+03 0.  0.
        -11    1    3    3    0    0  0.41709377626E+02  0.39641899902E+02 -0.17799259782E+02  0.60232599636E+02  0.51100000000E-03 0.  1.
         23    2    1    0    0    0  0.22686078002E+02  0.19149363408E+02  0.31138872568E+01  0.95149496690E+02  0.90345858635E+02 0.  0.
         11    1    3    3    0    0 -0.19023299624E+02 -0.20492536494E+02  0.20913147039E+02  0.34916897054E+02  0.51100000000E-03 0. -1.
         22    1    1    0    0    0 -0.22686078002E+02 -0.19149363408E+02 -0.31138872568E+01  0.29850503310E+02  0.00000000000E+00 0.  1.
</event>
<event>
 5    1  0.1103865E-009  0.9118800E+02  0.7818608E-02  0.1130116E+00
         25   -1    0    0    0    0  0.00000000000E+00  0.00000000000E+00  0.99999998245E-14  0.12500000000E+03  0.12500000000E+03 0.  0.
        -11    1    3    3    0    0 -0.49451590087E+02  0.19706125078E+02  0.31822462751E+02  0.62019837661E+02  0.51100000000E-03 0.  1.
         23    2    1    0    0    0 -0.25737214586E+02  0.88362763071E+01  0.10074239401E+02  0.95983206705E+02  0.91492085320E+02 0.  0.
         11    1    3    3    0    0  0.23714375501E+02 -0.10869848771E+02 -0.21748223350E+02  0.33963369044E+02  0.51100000000E-03 0. -1.
         22    1    1    0    0    0  0.25737214586E+02 -0.88362763071E+01 -0.10074239401E+02  0.29016793295E+02  0.00000000000E+00 0.  1.
</event>
<event>
 5    1  0.1103865E-009  0.9118800E+02  0.7818608E-02  0.1130116E+00
         25   -1    0    0    0    0  0.00000000000E+00  0.00000000000E+00  0.99999998245E-14  0.12500000000E+03  0.12500000000E+03 0.  0.
        -11    1    3    3    0    0  0.17905232471E+02 -0.81697358739E+01  0.36624032303E+02  0.41577177352E+02  0.51100000000E-03 0.  1.
         23    2    1    0    0    0  0.14187258959E+02  0.25456538984E+02 -0.52267440210E+01  0.95392018865E+02  0.90680784713E+02 0.  0.
         11    1    3    3    0    0 -0.37179735125E+01  0.33626274858E+02 -0.41850776324E+02  0.53814841513E+02  0.51100000000E-03 0. -1.
         22    1    1    0    0    0 -0.14187258959E+02 -0.25456538984E+02  0.52267440210E+01  0.29607981135E+02  0.00000000000E+00 0. -1.
</event>
<event>
 5    1  0.1103865E-009  0.9118800E+02  0.7818608E-02  0.1130116E+00
         25   -1    0    0    0    0  0.00000000000E+00  0.00000000000E+00  0.99999998245E-14  0.12500000000E+03  0.12500000000E+03 0.  0.
        -11    1    3    3    0    0 -0.15661613960E+02  0.51042519204E+02 -0.26045791230E+02  0.59405455638E+02  0.51100000000E-03 0. -1.
         23    2    1    0    0    0 -0.17973552657E+02  0.13472988482E+02 -0.79292476261E+01  0.10117893828E+03  0.98334808531E+02 0.  0.
         11    1    3    3    0    0 -0.23119386975E+01 -0.37569530722E+02  0.18116543604E+02  0.41773482637E+02  0.51100000000E-03 0.  1.
         22    1    1    0    0    0  0.17973552657E+02 -0.13472988482E+02  0.79292476261E+01  0.23821061725E+02  0.00000000000E+00 0. -1.
</event>
<event>
 5    1  0.1103865E-009  0.9118800E+02  0.7818608E-02  0.1130116E+00
         25   -1    0    0    0    0  0.00000000000E+00  0.00000000000E+00  0.99999998245E-14  0.12500000000E+03  0.12500000000E+03 0.  0.
        -11    1    3    3    0    0  0.29976354205E+02 -0.22850646565E+02 -0.47412453111E+02  0.60569584530E+02  0.51100000000E-03 0. -1.
         23    2    1    0    0    0  0.20556193220E+02 -0.13618459060E+02 -0.13652427034E+02  0.96814750830E+02  0.92621205496E+02 0.  0.
         11    1    3    3    0    0 -0.94201609850E+01  0.92321875051E+01  0.33760026077E+02  0.36245166300E+02  0.51100000000E-03 0.  1.
         22    1    1    0    0    0 -0.20556193220E+02  0.13618459060E+02  0.13652427034E+02  0.28185249170E+02  0.00000000000E+00 0. -1.
</event>
<event>
 5    1  0.1103865E-009  0.9118800E+02  0.7818608E-02  0.1130116E+00
         25   -1    0    0    0    0  0.00000000000E+00  0.00000000000E+00  0.99999998245E-14  0.12500000000E+03  0.12500000000E+03 0.  0.
        -11    1    3    3    0    0 -0.48107123395E+02 -0.14038872475E+02 -0.23917823447E+02  0.55528799198E+02  0.51100000000E-03 0.  1.
         23    2    1    0    0    0 -0.18309080650E+02  0.10086666348E+02 -0.23055971582E+02  0.93878607071E+02  0.88570038770E+02 0.  0.
         11    1    3    3    0    0  0.29798042745E+02  0.24125538823E+02  0.86185186494E+00  0.38349807872E+02  0.51100000000E-03 0. -1.
         22    1    1    0    0    0  0.18309080650E+02 -0.10086666348E+02  0.23055971582E+02  0.31121392929E+02  0.00000000000E+00 0.  1.
</event>
<event>
 5    1  0.1103865E-009  0.9118800E+02  0.7818608E-02  0.1130116E+00
         25   -1    0    0    0    0  0.00000000000E+00  0.00000000000E+00  0.99999998245E-14  0.12500000000E+03  0.12500000000E+03 0.  0.
        -11    1    3    3    0    0 -0.28858298912E+02  0.48669648898E+02  0.10130737558E+02  0.57481892659E+02  0.51100000000E-03 0.  1.
         23    2    1    0    0    0 -0.17145497275E+02  0.40681590982E+02 -0.76207604784E+01  0.80200045626E+02  0.66520759215E+02 0.  0.
         11    1    3    3    0    0  0.11712801637E+02 -0.79880579161E+01 -0.17751498036E+02  0.22718152967E+02  0.51100000000E-03 0. -1.
         22    1    1    0    0    0  0.17145497275E+02 -0.40681590982E+02  0.76207604784E+01  0.44799954374E+02  0.00000000000E+00 0.  1.
</event>
<event>
 5    1  0.1103865E-009  0.9118800E+02  0.7818608E-02  0.1130116E+00
         25   -1    0    0    0    0  0.00000000000E+00  0.00000000000E+00  0.99999998245E-14  0.12500000000E+03  0.12500000000E+03 0.  0.
        -11    1    3    3    0    0 -0.76799488435E+01 -0.21841187137E+02  0.30166343501E+02  0.38026666305E+02  0.51100000000E-03 0. -1.
         23    2    1    0    0    0  0.15693092813E+02  0.24648443848E+02  0.71892404005E+01  0.94908404434E+02  0.90011672068E+02 0.  0.
         11    1    3    3    0    0  0.23373041657E+02  0.46489630985E+02 -0.22977103100E+02  0.56881738129E+02  0.51100000000E-03 0.  1.
         22    1    1    0    0    0 -0.15693092813E+02 -0.24648443848E+02 -0.71892404005E+01  0.30091595566E+02  0.00000000000E+00 0.  1.
</event>
<event>
 5    1  0.1103865E-009  0.9118800E+02  0.7818608E-02  0.1130116E+00
         25   -1    0    0    0    0  0.00000000000E+00  0.00000000000E+00  0.99999998245E-14  0.12500000000E+03  0.12500000000E+03 0.  0.
        -11    1    3    3    0    0  0.35741025346E+02 -0.95700125104E+01  0.90045149234E+00  0.37011036805E+02  0.51100000000E-03 0.  1.
         23    2    1    0    0    0 -0.15460722920E+02  0.75679034064E+01  0.23772766497E+02  0.95649505249E+02  0.91035027942E+02 0.  0.
         11    1    3    3    0    0 -0.51201748267E+02  0.17137915917E+02  0.22872315005E+02  0.58638468444E+02  0.51100000000E-03 0. -1.
         22    1    1    0    0    0  0.15460722920E+02 -0.75679034064E+01 -0.23772766497E+02  0.29350494751E+02  0.00000000000E+00 0. -1.
</event>
<event>
 5    1  0.1103865E-009  0.9118800E+02  0.7818608E-02  0.1130116E+00
         25   -1    0    0    0    0  0.00000000000E+00  0.00000000000E+00  0.99999998245E-14  0.12500000000E+03  0.12500000000E+03 0.  0.
        -11    1    3    3    0    0 -0.49187681703E+01  0.21809733195E+02  0.29486116835E+02  0.37003916395E+02  0.51100000000E-03 0. -1.
         23    2    1    0    0    0  0.23045765844E+02 -0.34315613140E+01 -0.16499455007E+02  0.96449781929E+02  0.92127332981E+02 0.  0.
         11    1    3    3    0    0  0.27964534015E+02 -0.25241294509E+02 -0.45985571842E+02  0.59445865533E+02  0.51100000000E-03 0.  1.
         22    1    1    0    0    0 -0.23045765844E+02  0.34315613140E+01  0.16499455007E+02  0.28550218071E+02  0.00000000000E+00 0.  1.
</event>
<event>
 5    1  0.1103865E-009  0.9118800E+02  0.7818608E-02  0.1130116E+00
         25   -1    0    0    0    0  0.00000000000E+00  0.00000000000E+00  0.99999998245E-14  0.12500000000E+03  0.12500000000E+03 0.  0.
        -11    1    3    3    0    0  0.24736541599E+02 -0.20648855397E+02 -0.14269968536E+02  0.35240654389E+02  0.51100000000E-03 0.  1.
         23    2    1    0    0    0 -0.69007743417E+01 -0.41345317384E+01  0.31049605120E+02  0.92925196535E+02  0.87214099397E+02 0.  0.
         11    1    3    3    0    0 -0.31637315941E+02  0.16514323658E+02  0.45319573657E+02  0.57684542145E+02  0.51100000000E-03 0. -1.
         22    1    1    0    0    0  0.69007743417E+01  0.41345317384E+01 -0.31049605120E+02  0.32074803465E+02  0.00000000000E+00 0. -1.
</event>
<event>
 5    1  0.1103865E-009  0.9118800E+02  0.7818608E-02  0.1130116E+00
         25   -1    0    0    0    0  0.00000000000E+00  0.00000000000E+00  0.99999998245E-14  0.12500000000E+03  0.12500000000E+03 0.  0.
        -11    1    3    3    0    0 -0.43788752758E+01  0.35923137808E+02  0.29926439898E+00  0.36190274082E+02  0.51100000000E-03 0. -1.
         23    2    1    0    0    0 -0.15574047989E+02 -0.17292846256E+02 -0.20078155050E+02  0.94263607684E+02  0.89111738402E+02 0.  0.
         11    1    3    3    0    0 -0.11195172714E+02 -0.53215984064E+02 -0.20377419449E+02  0.58073333602E+02  0.51100000000E-03 0.  1.
         22    1    1    0    0    0  0.15574047989E+02  0.17292846256E+02  0.20078155050E+02  0.30736392316E+02  0.00000000000E+00 0.  1.
</event>
<event>
 5    1  0.1103865E-009  0.9118800E+02  0.7818608E-02  0.1130116E+00
         25   -1    0    0    0    0  0.00000000000E+00  0.00000000000E+00  0.99999998245E-14  0.12500000000E+03  0.12500000000E+03 0.  0.
        -11    1    3    3    0    0 -0.22141554813E+00  0.93380361122E+01  0.17899095648E+02  0.20189739190E+02  0.51100000000E-03 0.  1.
         23    2    1    0    0    0 -0.94392959625E+01 -0.23860903446E+02 -0.33950384120E+02  0.82443313059E+02  0.70610397710E+02 0.  0.
         11    1    3    3    0    0 -0.92178804143E+01 -0.33198939558E+02 -0.51849479767E+02  0.62253573869E+02  0.51100000000E-03 0. -1.
         22    1    1    0    0    0  0.94392959625E+01  0.23860903446E+02  0.33950384120E+02  0.42556686941E+02  0.00000000000E+00 0. -1.
</event>
<event>
 5    1  0.1103865E-009  0.9118800E+02  0.7818608E-02  0.1130116E+00
         25   -1    0    0    0    0  0.00000000000E+00  0.00000000000E+00  0.99999998245E-14  0.12500000000E+03  0.12500000000E+03 0.  0.
        -11    1    3    3    0    0 -0.11492113554E+02  0.21837490378E+02  0.42917589160E+02  0.49506202839E+02  0.51100000000E-03 0.  1.
         23    2    1    0    0    0 -0.14905180039E+02  0.23981350758E+02 -0.38991234045E+01  0.96496092557E+02  0.92190146650E+02 0.  0.
         11    1    3    3    0    0 -0.34130664852E+01  0.21438603799E+01 -0.46816712565E+02  0.46989889719E+02  0.51100000000E-03 0. -1.
         22    1    1    0    0    0  0.14905180039E+02 -0.23981350758E+02  0.38991234045E+01  0.28503907443E+02  0.00000000000E+00 0. -1.
</event>
<event>
 5    1  0.1103865E-009  0.9118800E+02  0.7818608E-02  0.1130116E+00
         25   -1    0    0    0    0  0.00000000000E+00  0.00000000000E+00  0.99999998245E-14  0.12500000000E+03  0.12500000000E+03 0.  0.
        -11    1    3    3    0    0 -0.49408532673E+01 -0.30466609932E+02  0.16251555919E+02  0.34881792125E+02  0.51100000000E-03 0.  1.
         23    2    1    0    0    0 -0.49764652949E+01  0.21928710108E+02 -0.16888342526E+02  0.96877950873E+02  0.92706459959E+02 0.  0.
         11    1    3    3    0    0 -0.35612027571E-01  0.52395320040E+02 -0.33139898445E+02  0.61996158748E+02  0.51100000000E-03 0. -1.
         22    1    1    0    0    0  0.49764652949E+01 -0.21928710108E+02  0.16888342526E+02  0.28122049127E+02  0.00000000000E+00 0. -1.
</event>
<event>
 5    1  0.1103865E-009  0.9118800E+02  0.7818608E-02  0.1130116E+00
         25   -1    0    0    0    0  0.00000000000E+00  0.00000000000E+00  0.99999998245E-14  0.12500000000E+03  0.12500000000E+03 0.  0.
        -11    1    3    3    0    0 -0.37107807698E+02  0.76019037375E+01 -0.44977577798E+02  0.58802728146E+02  0.51100000000E-03 0.  1.
         23    2    1    0    0    0 -0.50613196790E+01  0.96302582179E+01 -0.27642246353E+02  0.95293896020E+02  0.90545425091E+02 0.  0.
         11    1    3    3    0    0  0.32046488019E+02  0.20283544804E+01  0.17335331445E+02  0.36491167874E+02  0.51100000000E-03 0. -1.
         22    1    1    0    0    0  0.50613196790E+01 -0.96302582179E+01  0.27642246353E+02  0.29706103980E+02  0.00000000000E+00 0.  1.
</event>
<event>
 5    1  0.1103865E-009  0.9118800E+02  0.7818608E-02  0.1130116E+00
         25   -1    0    0    0    0  0.00000000000E+00  0.00000000000E+00  0.99999998245E-14  0.12500000000E+03  0.12500000000E+03 0.  0.
        -11    1    3    3    0    0  0.41846910245E+01 -0.18293721021E+02  0.48170167162E+02  0.51696584727E+02  0.51100000000E-03 0.  1.
         23    2    1    0    0    0  0.26812700480E+02 -0.49259428830E+01  0.15449747533E+02  0.93665027219E+02  0.88268096189E+02 0.  0.
         11    1    3    3    0    0  0.22628009456E+02  0.13367778138E+02 -0.32720419629E+02  0.41968442493E+02  0.51100000000E-03 0. -1.
         22    1    1    0    0    0 -0.26812700480E+02  0.49259428830E+01 -0.15449747533E+02  0.31334972781E+02  0.00000000000E+00 0.  1.
</event>
<event>
 5    1  0.1103865E-009  0.9118800E+02  0.7818608E-02  0.1130116E+00
         25   -1    0    0    0    0  0.00000000000E+00  0.00000000000E+00  0.99999998245E-14  0.12500000000E+03  0.12500000000E+03 0.  0.
        -11    1    3    3    0    0 -0.22543880690E+02 -0.41237057218E+02  0.16086887576E+01  0.47024560863E+02  0.51100000000E-03 0. -1.
         23    2    1    0    0    0  0.20881237157E+02 -0.20775327019E+02 -0.36622230802E+01  0.95317477266E+02  0.90577973683E+02 0.  0.
         11    1    3    3    0    0  0.43425117848E+02  0.20461730199E+02 -0.52709118378E+01  0.48292916403E+02  0.51100000000E-03 0.  1.
         22    1    1    0    0    0 -0.20881237157E+02  0.20775327019E+02  0.36622230802E+01  0.29682522734E+02  0.00000000000E+00 0.  1.
</event>
<event>
 5    1  0.1103865E-009  0.9118800E+02  0.7818608E-02  0.1130116E+00
         25   -1    0    0    0    0  0.00000000000E+00  0.00000000000E+00  0.99999998245E-14  0.12500000000E+03  0.12500000000E+03 0.  0.
        -11    1    3    3    0    0  0.13378721379E+02  0.31934248578E+02 -0.49787071002E+01  0.34979621820E+02  0.51100000000E-03 0.  1.
         23    2    1    0    0    0 -0.16762718979E+02 -0.22231794697E+02 -0.13083959407E+00  0.97156534662E+02  0.93081328233E+02 0.  0.
         11    1    3    3    0    0 -0.30141440358E+02 -0.54166043275E+02  0.48478675061E+01  0.62176912842E+02  0.51100000000E-03 0. -1.
         22    1    1    0    0    0  0.16762718979E+02  0.22231794697E+02  0.13083959407E+00  0.27843465338E+02  0.00000000000E+00 0. -1.
</event>
<event>
 5    1  0.1103865E-009  0.9118800E+02  0.7818608E-02  0.1130116E+00
         25   -1    0    0    0    0  0.00000000000E+00  0.00000000000E+00  0.99999998245E-14  0.12500000000E+03  0.12500000000E+03 0.  0.
        -11    1    3    3    0    0 -0.36805587978E+02  0.36144360271E+02 -0.92772320426E+01  0.52413100657E+02  0.51100000000E-03 0.  1.
         23    2    1    0    0    0 -0.95049985191E+01 -0.92695754684E+01  0.95486499093E+01  0.10864620101E+03  0.10740833419E+03 0.  0.
         11    1    3    3    0    0  0.27300589459E+02 -0.45413935740E+02  0.18825881952E+02  0.56233100356E+02  0.51100000000E-03 0. -1.
         22    1    1    0    0    0  0.95049985191E+01  0.92695754684E+01 -0.95486499093E+01  0.16353798987E+02  0.00000000000E+00 0. -1.
</event>
<event>
 5    1  0.1103865E-009  0.9118800E+02  0.7818608E-02  0.1130116E+00
         25   -1    0    0    0    0  0.00000000000E+00  0.00000000000E+00  0.99999998245E-14  0.12500000000E+03  0.12500000000E+03 0.  0.
        -11    1    3    3    0    0  0.48452453824E+02 -0.95226745028E+01 -0.12805587980E+02  0.51012789524E+02  0.51100000000E-03 0.  1.
         23    2    1    0    0    0  0.16953610605E+02 -0.16155769833E+02  0.17919269769E+02  0.95512137404E+02  0.90846212639E+02 0.  0.
         11    1    3    3    0    0 -0.31498843219E+02 -0.66330953299E+01  0.30724857749E+02  0.44499347880E+02  0.51100000000E-03 0. -1.
         22    1    1    0    0    0 -0.16953610605E+02  0.16155769833E+02 -0.17919269769E+02  0.29487862596E+02  0.00000000000E+00 0.  1.
</event>
<event>
 5    1  0.1103865E-009  0.9118800E+02  0.7818608E-02  0.1130116E+00
         25   -1    0    0    0    0  0.00000000000E+00  0.00000000000E+00  0.99999998245E-14  0.12500000000E+03  0.12500000000E+03 0.  0.
        -11    1    3    3    0    0  0.13141025547E+02  0.20530220043E+02  0.30534045423E+02  0.39070505724E+02  0.51100000000E-03 0.  1.
         23    2    1    0    0    0 -0.29534310902E+02  0.40205637990E+01 -0.18618719322E+01  0.95135187582E+02  0.90326058784E+02 0.  0.
         11    1    3    3    0    0 -0.42675336448E+02 -0.16509656244E+02 -0.32395917355E+02  0.56064681857E+02  0.51100000000E-03 0. -1.
         22    1    1    0    0    0  0.29534310902E+02 -0.40205637990E+01  0.18618719322E+01  0.29864812418E+02  0.00000000000E+00 0. -1.
</event>
<event>
 5    1  0.1103865E-009  0.9118800E+02  0.7818608E-02  0.1130116E+00
         25   -1    0    0    0    0  0.00000000000E+00  0.00000000000E+00  0.99999998245E-14  0.12500000000E+03  0.12500000000E+03 0.  0.
        -11    1    3    3    0    0  0.61211586002E+02  0.83199186524E+01  0.35916951076E+01  0.61878749028E+02  0.51100000000E-03 0. -1.
         23    2    1    0    0    0  0.28470026929E+02  0.34678391080E+01 -0.45407836739E+01  0.95962316591E+02  0.91463539991E+02 0.  0.
         11    1    3    3    0    0 -0.32741559073E+02 -0.48520795444E+01 -0.81324787815E+01  0.34083567563E+02  0.51100000000E-03 0.  1.
         22    1    1    0    0    0 -0.28470026929E+02 -0.34678391080E+01  0.45407836739E+01  0.29037683409E+02  0.00000000000E+00 0. -1.
</event>
<event>
 5    1  0.1103865E-009  0.9118800E+02  0.7818608E-02  0.1130116E+00
         25   -1    0    0    0    0  0.00000000000E+00  0.00000000000E+00  0.99999998245E-14  0.12500000000E+03  0.12500000000E+03 0.  0.
        -11    1    3    3    0    0  0.34762141399E+02 -0.18909051225E+02  0.40353826018E+02  0.56518934592E+02  0.51100000000E-03 0. -1.
         23    2    1    0    0    0  0.11118082864E+02 -0.25485587834E+02  0.10233771873E+02  0.95371347641E+02  0.90652285743E+02 0.  0.
         11    1    3    3    0    0 -0.23644058536E+02 -0.65765366098E+01 -0.30120054145E+02  0.38852413049E+02  0.51100000000E-03 0.  1.
         22    1    1    0    0    0 -0.11118082864E+02  0.25485587834E+02 -0.10233771873E+02  0.29628652359E+02  0.00000000000E+00 0. -1.
</event>
<event>
 5    1  0.1103865E-009  0.9118800E+02  0.7818608E-02  0.1130116E+00
         25   -1    0    0    0    0  0.00000000000E+00  0.00000000000E+00  0.99999998245E-14  0.12500000000E+03  0.12500000000E+03 0.  0.
        -11    1    3    3    0    0 -0.56978224324E+02 -0.19359518666E+01 -0.14828929599E+02  0.58908090362E+02  0.51100000000E-03 0.  1.
         23    2    1    0    0    0 -0.20483288209E+02  0.20495186912E+01 -0.20374486392E+02  0.96036482976E+02  0.91564844476E+02 0.  0.
         11    1    3    3    0    0  0.36494936116E+02  0.39854705578E+01 -0.55455567923E+01  0.37128392613E+02  0.51100000000E-03 0. -1.
         22    1    1    0    0    0  0.20483288209E+02 -0.20495186912E+01  0.20374486392E+02  0.28963517024E+02  0.00000000000E+00 0.  1.
</event>
<event>
 5    1  0.1103865E-009  0.9118800E+02  0.7818608E-02  0.1130116E+00
         25   -1    0    0    0    0  0.00000000000E+00  0.00000000000E+00  0.99999998245E-14  0.12500000000E+03  0.12500000000E+03 0.  0.
        -11    1    3    3    0    0  0.20406267010E+02 -0.29478383160E+02 -0.66427290104E+01  0.36462537706E+02  0.51100000000E-03 0. -1.
         23    2    1    0    0    0 -0.98548785497E+01  0.22546852119E+02 -0.13322991257E+02  0.97018197560E+02  0.92895367969E+02 0.  0.
         11    1    3    3    0    0 -0.30261145560E+02  0.52025235279E+02 -0.66802622469E+01  0.60555659854E+02  0.51100000000E-03 0.  1.
         22    1    1    0    0    0  0.98548785497E+01 -0.22546852119E+02  0.13322991257E+02  0.27981802440E+02  0.00000000000E+00 0.  1.
</event>
<event>
 5    1  0.1103865E-009  0.9118800E+02  0.7818608E-02  0.1130116E+00
         25   -1    0    0    0    0  0.00000000000E+00  0.00000000000E+00  0.99999998245E-14  0.12500000000E+03  0.12500000000E+03 0.  0.
        -11    1    3    3    0    0  0.32638248479E+02  0.23552156476E+02 -0.32388356954E+02  0.51662026721E+02  0.51100000000E-03 0.  1.
         23    2    1    0    0    0 -0.24157743214E+01 -0.25288477206E+01 -0.29331247065E+02  0.95460990356E+02  0.90775809492E+02 0.  0.
         11    1    3    3    0    0 -0.35054022800E+02 -0.26081004196E+02  0.30571098896E+01  0.43798963635E+02  0.51100000000E-03 0. -1.
         22    1    1    0    0    0  0.24157743214E+01  0.25288477206E+01  0.29331247065E+02  0.29539009644E+02  0.00000000000E+00 0.  1.
</event>
<event>
 5    1  0.1103865E-009  0.9118800E+02  0.7818608E-02  0.1130116E+00
         25   -1    0    0    0    0  0.00000000000E+00  0.00000000000E+00  0.99999998245E-14  0.12500000000E+03  0.12500000000E+03 0.  0.
        -11    1    3    3    0    0  0.11341927256E+02  0.37469503861E+02 -0.27076422102E+02  0.47599744406E+02  0.51100000000E-03 0.  1.
         23    2    1    0    0    0 -0.76506116121E+01 -0.69487466399E+01 -0.27193992144E+02  0.95908246072E+02  0.91389613841E+02 0.  0.
         11    1    3    3    0    0 -0.18992538868E+02 -0.44418250501E+02 -0.11757004195E+00  0.48308501666E+02  0.51100000000E-03 0. -1.
         22    1    1    0    0    0  0.76506116121E+01  0.69487466399E+01  0.27193992144E+02  0.29091753928E+02  0.00000000000E+00 0.  1.
</event>
<event>
 5    1  0.1103865E-009  0.9118800E+02  0.7818608E-02  0.1130116E+00
         25   -1    0    0    0    0  0.00000000000E+00  0.00000000000E+00  0.99999998245E-14  0.12500000000E+03  0.12500000000E+03 0.  0.
        -11    1    3    3    0    0  0.27675954428E+02  0.18793959738E+02  0.48156026696E+02  0.58635947025E+02  0.51100000000E-03 0. -1.
         23    2    1    0    0    0  0.22576474078E+02  0.14905138009E+02  0.11916018400E+02  0.95439015318E+02  0.90745544405E+02 0.  0.
         11    1    3    3    0    0 -0.50994803499E+01 -0.38888217287E+01 -0.36240008295E+02  0.36803068293E+02  0.51100000000E-03 0.  1.
         22    1    1    0    0    0 -0.22576474078E+02 -0.14905138009E+02 -0.11916018400E+02  0.29560984682E+02  0.00000000000E+00 0. -1.
</event>
<event>
 5    1  0.1103865E-009  0.9118800E+02  0.7818608E-02  0.1130116E+00
         25   -1    0    0    0    0  0.00000000000E+00  0.00000000000E+00  0.99999998245E-14  0.12500000000E+03  0.12500000000E+03 0.  0.
        -11    1    3    3    0    0  0.28427997061E+02 -0.29644277203E+02 -0.46428167278E+02  0.61987973873E+02  0.51100000000E-03 0. -1.
         23    2    1    0    0    0  0.15914026610E+02 -0.16654846320E+02 -0.17531042670E+02  0.96052157144E+02  0.91586239611E+02 0.  0.
         11    1    3    3    0    0 -0.12513970450E+02  0.12989430883E+02  0.28897124608E+02  0.34064183272E+02  0.51100000000E-03 0.  1.
         22    1    1    0    0    0 -0.15914026610E+02  0.16654846320E+02  0.17531042670E+02  0.28947842856E+02  0.00000000000E+00 0. -1.
</event>
<event>
 5    1  0.1103865E-009  0.9118800E+02  0.7818608E-02  0.1130116E+00
         25   -1    0    0    0    0  0.00000000000E+00  0.00000000000E+00  0.99999998245E-14  0.12500000000E+03  0.12500000000E+03 0.  0.
        -11    1    3    3    0    0 -0.35011548966E+02 -0.11237411069E+02 -0.69387658298E+01  0.37419706573E+02  0.51100000000E-03 0. -1.
         23    2    1    0    0    0  0.17955235010E+02 -0.11289655685E+02  0.19115230724E+02  0.96447612440E+02  0.92124389333E+02 0.  0.
         11    1    3    3    0    0  0.52966783976E+02 -0.52244616131E-01  0.26053996554E+02  0.59027905866E+02  0.51100000000E-03 0.  1.
         22    1    1    0    0    0 -0.17955235010E+02  0.11289655685E+02 -0.19115230724E+02  0.28552387560E+02  0.00000000000E+00 0.  1.
</event>
<event>
 5    1  0.1103865E-009  0.9118800E+02  0.7818608E-02  0.1130116E+00
         25   -1    0    0    0    0  0.00000000000E+00  0.00000000000E+00  0.99999998245E-14  0.12500000000E+03  0.12500000000E+03 0.  0.
        -11    1    3    3    0    0 -0.36375139682E+02 -0.21716647377E+02  0.24118983954E+02  0.48749245609E+02  0.51100000000E-03 0.  1.
         23    2    1    0    0    0 -0.31279171819E+02  0.40790448283E+01 -0.10076822250E+02  0.91885538762E+02  0.85711053491E+02 0.  0.
         11    1    3    3    0    0  0.50959678627E+01  0.25795692205E+02 -0.34195806204E+02  0.43136293153E+02  0.51100000000E-03 0. -1.
         22    1    1    0    0    0  0.31279171819E+02 -0.40790448283E+01  0.10076822250E+02  0.33114461238E+02  0.00000000000E+00 0.  1.
</event>
<event>
 5    1  0.1103865E-009  0.9118800E+02  0.7818608E-02  0.1130116E+00
         25   -1    0    0    0    0  0.00000000000E+00  0.00000000000E+00  0.99999998245E-14  0.12500000000E+03  0.12500000000E+03 0.  0.
        -11    1    3    3    0    0  0.67191749496E+01 -0.90644386293E+01  0.43556315033E+02  0.44994043375E+02  0.51100000000E-03 0.  1.
         23    2    1    0    0    0 -0.27538440941E+02  0.37741225101E+01  0.78455351606E+01  0.96118134545E+02  0.91676243577E+02 0.  0.
         11    1    3    3    0    0 -0.34257615891E+02  0.12838561139E+02 -0.35710779873E+02  0.51124091171E+02  0.51100000000E-03 0. -1.
         22    1    1    0    0    0  0.27538440941E+02 -0.37741225101E+01 -0.78455351606E+01  0.28881865455E+02  0.00000000000E+00 0. -1.
</event>
<event>
 5    1  0.1103865E-009  0.9118800E+02  0.7818608E-02  0.1130116E+00
         25   -1    0    0    0    0  0.00000000000E+00  0.00000000000E+00  0.99999998245E-14  0.12500000000E+03  0.12500000000E+03 0.  0.
        -11    1    3    3    0    0 -0.34582233230E+02 -0.18485357611E+01  0.36984282243E+01  0.34828527261E+02  0.51100000000E-03 0. -1.
         23    2    1    0    0    0  0.17510491971E+02  0.21854530592E+02 -0.12535328574E+02  0.94318209000E+02  0.89188296598E+02 0.  0.
         11    1    3    3    0    0  0.52092725201E+02  0.23703066353E+02 -0.16233756799E+02  0.59489681739E+02  0.51100000000E-03 0.  1.
         22    1    1    0    0    0 -0.17510491971E+02 -0.21854530592E+02  0.12535328574E+02  0.30681791000E+02  0.00000000000E+00 0.  1.
</event>
<event>
 5    1  0.1103865E-009  0.9118800E+02  0.7818608E-02  0.1130116E+00
         25   -1    0    0    0    0  0.00000000000E+00  0.00000000000E+00  0.99999998245E-14  0.12500000000E+03  0.12500000000E+03 0.  0.
        -11    1    3    3    0    0  0.41937208368E+01 -0.43748949092E+02  0.11842863295E+02  0.45517153387E+02  0.51100000000E-03 0.  1.
         23    2    1    0    0    0 -0.15583230380E+02 -0.12120306352E+02 -0.21686094925E+02  0.95673806789E+02  0.91068390220E+02 0.  0.
         11    1    3    3    0    0 -0.19776951217E+02  0.31628642740E+02 -0.33528958219E+02  0.50156653403E+02  0.51100000000E-03 0. -1.
         22    1    1    0    0    0  0.15583230380E+02  0.12120306352E+02  0.21686094925E+02  0.29326193211E+02  0.00000000000E+00 0. -1.
</event>
<event>
 5    1  0.1103865E-009  0.9118800E+02  0.7818608E-02  0.1130116E+00
         25   -1    0    0    0    0  0.00000000000E+00  0.00000000000E+00  0.99999998245E-14  0.12500000000E+03  0.12500000000E+03 0.  0.
        -11    1    3    3    0    0 -0.97818649131E+01  0.43166539392E+02  0.12454106319E+02  0.45979775649E+02  0.51100000000E-03 0.  1.
         23    2    1    0    0    0 -0.29022684879E+02  0.32619010420E+01  0.18102169249E+02  0.90639488253E+02  0.83874144188E+02 0.  0.
         11    1    3    3    0    0 -0.19240819966E+02 -0.39904638350E+02  0.56480629301E+01  0.44659712604E+02  0.51100000000E-03 0. -1.
         22    1    1    0    0    0  0.29022684879E+02 -0.32619010420E+01 -0.18102169249E+02  0.34360511747E+02  0.00000000000E+00 0.  1.
</event>
<event>
 5    1  0.1103865E-009  0.9118800E+02  0.7818608E-02  0.1130116E+00
         25   -1    0    0    0    0  0.00000000000E+00  0.00000000000E+00  0.99999998245E-14  0.12500000000E+03  0.12500000000E+03 0.  0.
        -11    1    3    3    0    0 -0.29287054799E+02 -0.10984938610E+02 -0.21649693401E+02  0.38040894833E+02  0.51100000000E-03 0.  1.
         23    2    1    0    0    0  0.22551344529E+02  0.98137213516E+01 -0.18933537698E+02  0.93962101930E+02  0.88687797822E+02 0.  0.
         11    1    3    3    0    0  0.51838399329E+02  0.20798659961E+02  0.27161557026E+01  0.55921207097E+02  0.51100000000E-03 0. -1.
         22    1    1    0    0    0 -0.22551344529E+02 -0.98137213516E+01  0.18933537698E+02  0.31037898070E+02  0.00000000000E+00 0. -1.
</event>
<event>
 5    1  0.1103865E-009  0.9118800E+02  0.7818608E-02  0.1130116E+00
         25   -1    0    0    0    0  0.00000000000E+00  0.00000000000E+00  0.99999998245E-14  0.12500000000E+03  0.12500000000E+03 0.  0.
        -11    1    3    3    0    0  0.54032195576E+01 -0.68161873344E+01  0.32787814476E+02  0.33921909878E+02  0.51100000000E-03 0.  1.
         23    2    1    0    0    0 -0.59322052391E+01  0.23409944896E+02 -0.18537825844E+02  0.94555500233E+02  0.89520249432E+02 0.  0.
         11    1    3    3    0    0 -0.11335424797E+02  0.30226132230E+02 -0.51325640320E+02  0.60633590356E+02  0.51100000000E-03 0. -1.
         22    1    1    0    0    0  0.59322052391E+01 -0.23409944896E+02  0.18537825844E+02  0.30444499767E+02  0.00000000000E+00 0. -1.
</event>
<event>
 5    1  0.1103865E-009  0.9118800E+02  0.7818608E-02  0.1130116E+00
         25   -1    0    0    0    0  0.00000000000E+00  0.00000000000E+00  0.99999998245E-14  0.12500000000E+03  0.12500000000E+03 0.  0.
        -11    1    3    3    0    0  0.20414814275E+02 -0.15505513540E+02  0.34031557559E+02  0.42606718979E+02  0.51100000000E-03 0.  1.
         23    2    1    0    0    0 -0.55033527920E+01  0.25679826701E+02  0.14090064760E+02  0.95196135883E+02  0.90410364288E+02 0.  0.
         11    1    3    3    0    0 -0.25918167067E+02  0.41185340242E+02 -0.19941492799E+02  0.52589416903E+02  0.51100000000E-03 0. -1.
         22    1    1    0    0    0  0.55033527920E+01 -0.25679826701E+02 -0.14090064760E+02  0.29803864117E+02  0.00000000000E+00 0. -1.
</event>
<event>
 5    1  0.1103865E-009  0.9118800E+02  0.7818608E-02  0.1130116E+00
         25   -1    0    0    0    0  0.00000000000E+00  0.00000000000E+00  0.99999998245E-14  0.12500000000E+03  0.12500000000E+03 0.  0.
        -11    1    3    3    0    0  0.38008147449E+02 -0.17719900511E+02  0.23555917537E+02  0.48098808695E+02  0.51100000000E-03 0. -1.
         23    2    1    0    0    0  0.15225472310E+02  0.22370376103E+02  0.98267991643E+01  0.96210857674E+02  0.91802583943E+02 0.  0.
         11    1    3    3    0    0 -0.22782675139E+02  0.40090276613E+02 -0.13729118373E+02  0.48112048979E+02  0.51100000000E-03 0.  1.
         22    1    1    0    0    0 -0.15225472310E+02 -0.22370376103E+02 -0.98267991643E+01  0.28789142326E+02  0.00000000000E+00 0. -1.
</event>
<event>
 5    1  0.1103865E-009  0.9118800E+02  0.7818608E-02  0.1130116E+00
         25   -1    0    0    0    0  0.00000000000E+00  0.00000000000E+00  0.99999998245E-14  0.12500000000E+03  0.12500000000E+03 0.  0.
        -11    1    3    3    0    0  0.11514785235E+02  0.48161073308E+02 -0.45843349523E-01  0.49518495161E+02  0.51100000000E-03 0.  1.
         23    2    1    0    0    0 -0.34252266855E+01  0.11749734932E+02  0.25690299825E+02  0.96543367136E+02  0.92254223665E+02 0.  0.
         11    1    3    3    0    0 -0.14940011921E+02 -0.36411338376E+02  0.25736143175E+02  0.47024871975E+02  0.51100000000E-03 0. -1.
         22    1    1    0    0    0  0.34252266855E+01 -0.11749734932E+02 -0.25690299825E+02  0.28456632864E+02  0.00000000000E+00 0.  1.
</event>
<event>
 5    1  0.1103865E-009  0.9118800E+02  0.7818608E-02  0.1130116E+00
         25   -1    0    0    0    0  0.00000000000E+00  0.00000000000E+00  0.99999998245E-14  0.12500000000E+03  0.12500000000E+03 0.  0.
        -11    1    3    3    0    0  0.19746196777E+02  0.45914500771E+02  0.34666763174E+02  0.60826294787E+02  0.51100000000E-03 0.  1.
         23    2    1    0    0    0  0.15066210120E+01  0.25014410147E+02  0.97605389133E+01  0.98106529756E+02  0.94348462833E+02 0.  0.
         11    1    3    3    0    0 -0.18239575765E+02 -0.20900090624E+02 -0.24906224261E+02  0.37280234969E+02  0.51100000000E-03 0. -1.
         22    1    1    0    0    0 -0.15066210120E+01 -0.25014410147E+02 -0.97605389133E+01  0.26893470244E+02  0.00000000000E+00 0.  1.
</event>
<event>
 5    1  0.1103865E-009  0.9118800E+02  0.7818608E-02  0.1130116E+00
         25   -1    0    0    0    0  0.00000000000E+00  0.00000000000E+00  0.99999998245E-14  0.12500000000E+03  0.12500000000E+03 0.  0.
        -11    1    3    3    0    0 -0.31442283390E+02 -0.28524995864E+02  0.32079888184E+02  0.53211012018E+02  0.51100000000E-03 0.  1.
         23    2    1    0    0    0 -0.12410954172E+02 -0.29119961587E+02 -0.30805273404E+01  0.93196012908E+02  0.87601388271E+02 0.  0.
         11    1    3    3    0    0  0.19031329218E+02 -0.59496572218E+00 -0.35160415524E+02  0.39985000889E+02  0.51100000000E-03 0. -1.
         22    1    1    0    0    0  0.12410954172E+02  0.29119961587E+02  0.30805273404E+01  0.31803987092E+02  0.00000000000E+00 0.  1.
</event>
<event>
 5    1  0.1103865E-009  0.9118800E+02  0.7818608E-02  0.1130116E+00
         25   -1    0    0    0    0  0.00000000000E+00  0.00000000000E+00  0.99999998245E-14  0.12500000000E+03  0.12500000000E+03 0.  0.
        -11    1    3    3    0    0  0.45535347365E+02  0.76645401315E+01  0.35432277258E+02  0.58203602183E+02  0.51100000000E-03 0. -1.
         23    2    1    0    0    0  0.85743674705E+01  0.79626829570E+01  0.26206462269E+02  0.96299777666E+02  0.91923579219E+02 0.  0.
         11    1    3    3    0    0 -0.36960979895E+02  0.29814282555E+00 -0.92258149889E+01  0.38096175483E+02  0.51100000000E-03 0.  1.
         22    1    1    0    0    0 -0.85743674705E+01 -0.79626829570E+01 -0.26206462269E+02  0.28700222334E+02  0.00000000000E+00 0. -1.
</event>
<event>
 5    1  0.1103865E-009  0.9118800E+02  0.7818608E-02  0.1130116E+00
         25   -1    0    0    0    0  0.00000000000E+00  0.00000000000E+00  0.99999998245E-14  0.12500000000E+03  0.12500000000E+03 0.  0.
        -11    1    3    3    0    0  0.14818467571E+02  0.15302569301E+02 -0.46420195575E+02  0.51074359182E+02  0.51100000000E-03 0.  1.
         23    2    1    0    0    0 -0.18498692738E+02  0.15416731005E+02 -0.16985235849E+02  0.95531788912E+02  0.90873248142E+02 0.  0.
         11    1    3    3    0    0 -0.33317160308E+02  0.11416170389E+00  0.29434959725E+02  0.44457429730E+02  0.51100000000E-03 0. -1.
         22    1    1    0    0    0  0.18498692738E+02 -0.15416731005E+02  0.16985235849E+02  0.29468211088E+02  0.00000000000E+00 0. -1.
</event>
<event>
 5    1  0.1103865E-009  0.9118800E+02  0.7818608E-02  0.1130116E+00
         25   -1    0    0    0    0  0.00000000000E+00  0.00000000000E+00  0.99999998245E-14  0.12500000000E+03  0.12500000000E+03 0.  0.
        -11    1    3    3    0    0 -0.63460286258E+01  0.40077681035E+02  0.33281902984E+02  0.52480259746E+02  0.51100000000E-03 0.  1.
         23    2    1    0    0    0 -0.65560114050E+01 -0.59064901537E+00  0.31103661264E+02  0.93207423888E+02  0.87617669292E+02 0.  0.
         11    1    3    3    0    0 -0.20998277919E+00 -0.40668330050E+02 -0.21782417201E+01  0.40727164143E+02  0.51100000000E-03 0. -1.
         22    1    1    0    0    0  0.65560114050E+01  0.59064901537E+00 -0.31103661264E+02  0.31792576112E+02  0.00000000000E+00 0. -1.
</event>
<event>
 5    1  0.1103865E-009  0.9118800E+02  0.7818608E-02  0.1130116E+00
         25   -1    0    0    0    0  0.00000000000E+00  0.00000000000E+00  0.99999998245E-14  0.12500000000E+03  0.12500000000E+03 0.  0.
        -11    1    3    3    0    0 -0.24740555397E+02 -0.42253220656E+02  0.19310136126E+02  0.52633744828E+02  0.51100000000E-03 0.  1.
         23    2    1    0    0    0  0.34835000724E+01 -0.28805953549E+02 -0.88025398347E+01  0.94678350306E+02  0.89691624896E+02 0.  0.
         11    1    3    3    0    0  0.28224055470E+02  0.13447267107E+02 -0.28112675961E+02  0.42044605477E+02  0.51100000000E-03 0. -1.
         22    1    1    0    0    0 -0.34835000724E+01  0.28805953549E+02  0.88025398347E+01  0.30321649694E+02  0.00000000000E+00 0.  1.
</event>
<event>
 5    1  0.1103865E-009  0.9118800E+02  0.7818608E-02  0.1130116E+00
         25   -1    0    0    0    0  0.00000000000E+00  0.00000000000E+00  0.99999998245E-14  0.12500000000E+03  0.12500000000E+03 0.  0.
        -11    1    3    3    0    0 -0.22351894414E+02 -0.41971275598E+02  0.23287937263E+02  0.52948306691E+02  0.51100000000E-03 0.  1.
         23    2    1    0    0    0 -0.24284389037E+02  0.29927339441E+00  0.16081005159E+02  0.95872352612E+02  0.91340506638E+02 0.  0.
         11    1    3    3    0    0 -0.19324946227E+01  0.42270548993E+02 -0.72069321033E+01  0.42924045921E+02  0.51100000000E-03 0. -1.
         22    1    1    0    0    0  0.24284389037E+02 -0.29927339441E+00 -0.16081005159E+02  0.29127647388E+02  0.00000000000E+00 0.  1.
</event>
<event>
 5    1  0.1103865E-009  0.9118800E+02  0.7818608E-02  0.1130116E+00
         25   -1    0    0    0    0  0.00000000000E+00  0.00000000000E+00  0.99999998245E-14  0.12500000000E+03  0.12500000000E+03 0.  0.
        -11    1    3    3    0    0 -0.15757042304E+02 -0.41724076996E+02 -0.34695545366E+02  0.56506316919E+02  0.51100000000E-03 0.  1.
         23    2    1    0    0    0 -0.19201409600E+02 -0.48304445754E+01 -0.21328987602E+02  0.95897542414E+02  0.91374972522E+02 0.  0.
         11    1    3    3    0    0 -0.34443672965E+01  0.36893632420E+02  0.13366557763E+02  0.39391225494E+02  0.51100000000E-03 0. -1.
         22    1    1    0    0    0  0.19201409600E+02  0.48304445754E+01  0.21328987602E+02  0.29102457586E+02  0.00000000000E+00 0.  1.
</event>
<event>
 5    1  0.1103865E-009  0.9118800E+02  0.7818608E-02  0.1130116E+00
         25   -1    0    0    0    0  0.00000000000E+00  0.00000000000E+00  0.99999998245E-14  0.12500000000E+03  0.12500000000E+03 0.  0.
        -11    1    3    3    0    0  0.19533478282E+02 -0.55070065669E+01  0.25985461286E+02  0.32971625583E+02  0.51100000000E-03 0.  1.
         23    2    1    0    0    0 -0.21939744552E+02 -0.31759850185E+02  0.16771226426E+02  0.82913012574E+02  0.71437057215E+02 0.  0.
         11    1    3    3    0    0 -0.41473222833E+02 -0.26252843618E+02 -0.92142348601E+01  0.49941386991E+02  0.51100000000E-03 0. -1.
         22    1    1    0    0    0  0.21939744552E+02  0.31759850185E+02 -0.16771226426E+02  0.42086987426E+02  0.00000000000E+00 0. -1.
</event>
<event>
 5    1  0.1103865E-009  0.9118800E+02  0.7818608E-02  0.1130116E+00
         25   -1    0    0    0    0  0.00000000000E+00  0.00000000000E+00  0.99999998245E-14  0.12500000000E+03  0.12500000000E+03 0.  0.
        -11    1    3    3    0    0  0.20217686764E+02  0.29212477566E+02  0.42029510797E+00  0.35528866460E+02  0.51100000000E-03 0. -1.
         23    2    1    0    0    0 -0.25280037316E+02 -0.11209138221E+02  0.61905994240E+01  0.96661888073E+02  0.92414674258E+02 0.  0.
         11    1    3    3    0    0 -0.45497724081E+02 -0.40421615788E+02  0.57703043161E+01  0.61133021613E+02  0.51100000000E-03 0.  1.
         22    1    1    0    0    0  0.25280037316E+02  0.11209138221E+02 -0.61905994240E+01  0.28338111927E+02  0.00000000000E+00 0.  1.
</event>
<event>
 5    1  0.1103865E-009  0.9118800E+02  0.7818608E-02  0.1130116E+00
         25   -1    0    0    0    0  0.00000000000E+00  0.00000000000E+00  0.99999998245E-14  0.12500000000E+03  0.12500000000E+03 0.  0.
        -11    1    3    3    0    0  0.38942968652E+02  0.33135680527E+01  0.64141674446E+01  0.39606515688E+02  0.51100000000E-03 0.  1.
         23    2    1    0    0    0 -0.71019450957E+01 -0.28292148752E+02  0.44763532073E+01  0.95488628578E+02  0.90813859870E+02 0.  0.
         11    1    3    3    0    0 -0.46044913748E+02 -0.31605716805E+02 -0.19378142373E+01  0.55882112890E+02  0.51100000000E-03 0. -1.
         22    1    1    0    0    0  0.71019450957E+01  0.28292148752E+02 -0.44763532073E+01  0.29511371422E+02  0.00000000000E+00 0. -1.
</event>
<event>
 5    1  0.1103865E-009  0.9118800E+02  0.7818608E-02  0.1130116E+00
         25   -1    0    0    0    0  0.00000000000E+00  0.00000000000E+00  0.99999998245E-14  0.12500000000E+03  0.12500000000E+03 0.  0.
        -11    1    3    3    0    0  0.40117072500E+02 -0.26393540677E+01  0.31349759053E+02  0.50981889812E+02  0.51100000000E-03 0.  1.
         23    2    1    0    0    0  0.96935310256E+00  0.18254162607E+02  0.22116908586E+02  0.96306590594E+02  0.91932843144E+02 0.  0.
         11    1    3    3    0    0 -0.39147719397E+02  0.20893516675E+02 -0.92328504666E+01  0.45324700783E+02  0.51100000000E-03 0. -1.
         22    1    1    0    0    0 -0.96935310256E+00 -0.18254162607E+02 -0.22116908586E+02  0.28693409406E+02  0.00000000000E+00 0.  1.
</event>
<event>
 5    1  0.1103865E-009  0.9118800E+02  0.7818608E-02  0.1130116E+00
         25   -1    0    0    0    0  0.00000000000E+00  0.00000000000E+00  0.99999998245E-14  0.12500000000E+03  0.12500000000E+03 0.  0.
        -11    1    3    3    0    0 -0.24502493442E+02 -0.23696150664E+02 -0.17897329859E+02  0.38499274767E+02  0.51100000000E-03 0.  1.
         23    2    1    0    0    0  0.64005045714E+01 -0.12910961287E+02  0.27197613606E+02  0.94220630839E+02  0.89051432945E+02 0.  0.
         11    1    3    3    0    0  0.30902998014E+02  0.10785189377E+02  0.45094943465E+02  0.55721356072E+02  0.51100000000E-03 0. -1.
         22    1    1    0    0    0 -0.64005045714E+01  0.12910961287E+02 -0.27197613606E+02  0.30779369161E+02  0.00000000000E+00 0. -1.
</event>
<event>
 5    1  0.1103865E-009  0.9118800E+02  0.7818608E-02  0.1130116E+00
         25   -1    0    0    0    0  0.00000000000E+00  0.00000000000E+00  0.99999998245E-14  0.12500000000E+03  0.12500000000E+03 0.  0.
        -11    1    3    3    0    0  0.32125658609E+01 -0.58730581317E+00  0.33941248962E+02  0.34098004177E+02  0.51100000000E-03 0.  1.
         23    2    1    0    0    0  0.11836909726E+02 -0.79702227785E+00 -0.26927405484E+02  0.95574962320E+02  0.90932615601E+02 0.  0.
         11    1    3    3    0    0  0.86243438651E+01 -0.20971646468E+00 -0.60868654446E+02  0.61476958142E+02  0.51100000000E-03 0. -1.
         22    1    1    0    0    0 -0.11836909726E+02  0.79702227785E+00  0.26927405484E+02  0.29425037680E+02  0.00000000000E+00 0. -1.
</event>
<event>
 5    1  0.1103865E-009  0.9118800E+02  0.7818608E-02  0.1130116E+00
         25   -1    0    0    0    0  0.00000000000E+00  0.00000000000E+00  0.99999998245E-14  0.12500000000E+03  0.12500000000E+03 0.  0.
        -11    1    3    3    0    0 -0.19556458228E+02 -0.23228973326E+02  0.27058254970E+02  0.40671727557E+02  0.51100000000E-03 0.  1.
         23    2    1    0    0    0 -0.13195473180E+02  0.25292099978E+02  0.24659526905E+00  0.96471564309E+02  0.92156882962E+02 0.  0.
         11    1    3    3    0    0  0.63609850489E+01  0.48521073304E+02 -0.26811659701E+02  0.55799836752E+02  0.51100000000E-03 0. -1.
         22    1    1    0    0    0  0.13195473180E+02 -0.25292099978E+02 -0.24659526905E+00  0.28528435691E+02  0.00000000000E+00 0. -1.
</event>
<event>
 5    1  0.1103865E-009  0.9118800E+02  0.7818608E-02  0.1130116E+00
         25   -1    0    0    0    0  0.00000000000E+00  0.00000000000E+00  0.99999998245E-14  0.12500000000E+03  0.12500000000E+03 0.  0.
        -11    1    3    3    0    0  0.27172628807E+02  0.20332025825E+02  0.37562098685E+01  0.34144577070E+02  0.51100000000E-03 0.  1.
         23    2    1    0    0    0 -0.84159840529E+01 -0.26462494684E+02 -0.11598112155E+02  0.94906668212E+02  0.90009260930E+02 0.  0.
         11    1    3    3    0    0 -0.35588612860E+02 -0.46794520509E+02 -0.15354322024E+02  0.60762091143E+02  0.51100000000E-03 0. -1.
         22    1    1    0    0    0  0.84159840529E+01  0.26462494684E+02  0.11598112155E+02  0.30093331788E+02  0.00000000000E+00 0. -1.
</event>
<event>
 5    1  0.1103865E-009  0.9118800E+02  0.7818608E-02  0.1130116E+00
         25   -1    0    0    0    0  0.00000000000E+00  0.00000000000E+00  0.99999998245E-14  0.12500000000E+03  0.12500000000E+03 0.  0.
        -11    1    3    3    0    0  0.44498262493E+01 -0.32734671480E+00 -0.39778540311E+02  0.40027994941E+02  0.51100000000E-03 0. -1.
         23    2    1    0    0    0 -0.30279300620E+02 -0.61675960275E+01  0.12195779459E+01  0.94074886304E+02  0.88846618258E+02 0.  0.
         11    1    3    3    0    0 -0.34729126869E+02 -0.58402493127E+01  0.40998118256E+02  0.54046891362E+02  0.51100000000E-03 0.  1.
         22    1    1    0    0    0  0.30279300620E+02  0.61675960275E+01 -0.12195779459E+01  0.30925113696E+02  0.00000000000E+00 0. -1.
</event>
<event>
 5    1  0.1103865E-009  0.9118800E+02  0.7818608E-02  0.1130116E+00
         25   -1    0    0    0    0  0.00000000000E+00  0.00000000000E+00  0.99999998245E-14  0.12500000000E+03  0.12500000000E+03 0.  0.
        -11    1    3    3    0    0  0.29175562169E+01 -0.12623098243E+02 -0.42047152942E+02  0.43997929659E+02  0.51100000000E-03 0.  1.
         23    2    1    0    0    0  0.69191140809E+01 -0.26590599431E+02  0.82183266200E+01  0.96321174881E+02  0.91952671089E+02 0.  0.
         11    1    3    3    0    0  0.40015578640E+01 -0.13967501188E+02  0.50265479562E+02  0.52323245222E+02  0.51100000000E-03 0. -1.
         22    1    1    0    0    0 -0.69191140809E+01  0.26590599431E+02 -0.82183266200E+01  0.28678825119E+02  0.00000000000E+00 0. -1.
</event>
<event>
 5    1  0.1103865E-009  0.9118800E+02  0.7818608E-02  0.1130116E+00
         25   -1    0    0    0    0  0.00000000000E+00  0.00000000000E+00  0.99999998245E-14  0.12500000000E+03  0.12500000000E+03 0.  0.
        -11    1    3    3    0    0 -0.35301386867E+02 -0.55437312258E+00  0.84800074014E+01  0.36309857753E+02  0.51100000000E-03 0.  1.
         23    2    1    0    0    0  0.23467399442E+02  0.68462014362E+01  0.15648168199E+02  0.95974933614E+02  0.91480781608E+02 0.  0.
         11    1    3    3    0    0  0.58768786309E+02  0.74005745588E+01  0.71681607980E+01  0.59665075861E+02  0.51100000000E-03 0. -1.
         22    1    1    0    0    0 -0.23467399442E+02 -0.68462014362E+01 -0.15648168199E+02  0.29025066386E+02  0.00000000000E+00 0. -1.
</event>
<event>
 5    1  0.1103865E-009  0.9118800E+02  0.7818608E-02  0.1130116E+00
         25   -1    0    0    0    0  0.00000000000E+00  0.00000000000E+00  0.99999998245E-14  0.12500000000E+03  0.12500000000E+03 0.  0.
        -11    1    3    3    0    0 -0.36950285804E+01 -0.42219654260E+02  0.32114933081E+02  0.53174442819E+02  0.51100000000E-03 0.  1.
         23    2    1    0    0    0  0.13737943140E+02 -0.38722777826E+01 -0.55538174594E+01  0.10968430526E+03  0.10860974319E+03 0.  0.
         11    1    3    3    0    0  0.17432971721E+02  0.38347376477E+02 -0.37668750541E+02  0.56509862442E+02  0.51100000000E-03 0. -1.
         22    1    1    0    0    0 -0.13737943140E+02  0.38722777826E+01  0.55538174594E+01  0.15315694739E+02  0.00000000000E+00 0. -1.
</event>
<event>
 5    1  0.1103865E-009  0.9118800E+02  0.7818608E-02  0.1130116E+00
         25   -1    0    0    0    0  0.00000000000E+00  0.00000000000E+00  0.99999998245E-14  0.12500000000E+03  0.12500000000E+03 0.  0.
        -11    1    3    3    0    0  0.22947131113E+02  0.13539752777E+02  0.55867956983E+02  0.61896077011E+02  0.51100000000E-03 0.  1.
         23    2    1    0    0    0  0.16318783157E+02  0.59273291188E+01  0.23628974027E+02  0.95678261856E+02  0.91074505017E+02 0.  0.
         11    1    3    3    0    0 -0.66283479566E+01 -0.76124236587E+01 -0.32238982956E+02  0.33782184845E+02  0.51100000000E-03 0. -1.
         22    1    1    0    0    0 -0.16318783157E+02 -0.59273291188E+01 -0.23628974027E+02  0.29321738144E+02  0.00000000000E+00 0.  1.
</event>
<event>
 5    1  0.1103865E-009  0.9118800E+02  0.7818608E-02  0.1130116E+00
         25   -1    0    0    0    0  0.00000000000E+00  0.00000000000E+00  0.99999998245E-14  0.12500000000E+03  0.12500000000E+03 0.  0.
        -11    1    3    3    0    0 -0.19673749635E+02 -0.40145680879E+02  0.16906068532E+02  0.47796937887E+02  0.51100000000E-03 0.  1.
         23    2    1    0    0    0  0.10131902017E+02 -0.25723120187E+02  0.30717104305E+02  0.83673557526E+02  0.72755682813E+02 0.  0.
         11    1    3    3    0    0  0.29805651652E+02  0.14422560692E+02  0.13811035773E+02  0.35876619639E+02  0.51100000000E-03 0. -1.
         22    1    1    0    0    0 -0.10131902017E+02  0.25723120187E+02 -0.30717104305E+02  0.41326442474E+02  0.00000000000E+00 0.  1.
</event>
<event>
 5    1  0.1103865E-009  0.9118800E+02  0.7818608E-02  0.1130116E+00
         25   -1    0    0    0    0  0.00000000000E+00  0.00000000000E+00  0.99999998245E-14  0.12500000000E+03  0.12500000000E+03 0.  0.
        -11    1    3    3    0    0 -0.23602452838E+02 -0.59305025422E+01 -0.24721660737E+02  0.34690159270E+02  0.51100000000E-03 0. -1.
         23    2    1    0    0    0 -0.55640385585E+01 -0.47650960324E+01  0.30935449686E+02  0.93209015231E+02  0.87619939556E+02 0.  0.
         11    1    3    3    0    0  0.18038414279E+02  0.11654065098E+01  0.55657110423E+02  0.58518855961E+02  0.51100000000E-03 0.  1.
         22    1    1    0    0    0  0.55640385585E+01  0.47650960324E+01 -0.30935449686E+02  0.31790984769E+02  0.00000000000E+00 0.  1.
</event>
<event>
 5    1  0.1103865E-009  0.9118800E+02  0.7818608E-02  0.1130116E+00
         25   -1    0    0    0    0  0.00000000000E+00  0.00000000000E+00  0.99999998245E-14  0.12500000000E+03  0.12500000000E+03 0.  0.
        -11    1    3    3    0    0 -0.37463271302E+02 -0.27135811613E+02  0.33379771515E+01  0.46378778123E+02  0.51100000000E-03 0. -1.
         23    2    1    0    0    0 -0.16603150353E+02  0.16883099285E+02  0.15642853317E+02  0.96620385784E+02  0.92358521242E+02 0.  0.
         11    1    3    3    0    0  0.20860120949E+02  0.44018910898E+02  0.12304876166E+02  0.50241607661E+02  0.51100000000E-03 0.  1.
         22    1    1    0    0    0  0.16603150353E+02 -0.16883099285E+02 -0.15642853317E+02  0.28379614216E+02  0.00000000000E+00 0. -1.
</event>
<event>
 5    1  0.1103865E-009  0.9118800E+02  0.7818608E-02  0.1130116E+00
         25   -1    0    0    0    0  0.00000000000E+00  0.00000000000E+00  0.99999998245E-14  0.12500000000E+03  0.12500000000E+03 0.  0.
        -11    1    3    3    0    0  0.19026689163E+02 -0.25500575243E+02 -0.36118961102E+01  0.32020931154E+02  0.51100000000E-03 0. -1.
         23    2    1    0    0    0 -0.22133998363E+02  0.21188571349E+02 -0.22223596395E+01  0.94278536465E+02  0.89132677040E+02 0.  0.
         11    1    3    3    0    0 -0.41160687526E+02  0.46689146593E+02  0.13895364708E+01  0.62257605311E+02  0.51100000000E-03 0.  1.
         22    1    1    0    0    0  0.22133998363E+02 -0.21188571349E+02  0.22223596395E+01  0.30721463535E+02  0.00000000000E+00 0.  1.
</event>
<event>
 5    1  0.1103865E-009  0.9118800E+02  0.7818608E-02  0.1130116E+00
         25   -1    0    0    0    0  0.00000000000E+00  0.00000000000E+00  0.99999998245E-14  0.12500000000E+03  0.12500000000E+03 0.  0.
        -11    1    3    3    0    0 -0.15731635251E+02  0.26472811907E+02 -0.12778947019E+02  0.33340599951E+02  0.51100000000E-03 0.  1.
         23    2    1    0    0    0  0.26135950243E+02 -0.53405849217E+01  0.16606251253E+02  0.93577439266E+02  0.88143972094E+02 0.  0.
         11    1    3    3    0    0  0.41867585495E+02 -0.31813396828E+02  0.29385198271E+02  0.60236839315E+02  0.51100000000E-03 0. -1.
         22    1    1    0    0    0 -0.26135950243E+02  0.53405849217E+01 -0.16606251253E+02  0.31422560734E+02  0.00000000000E+00 0. -1.
</event>
<event>
 5    1  0.1103865E-009  0.9118800E+02  0.7818608E-02  0.1130116E+00
         25   -1    0    0    0    0  0.00000000000E+00  0.00000000000E+00  0.99999998245E-14  0.12500000000E+03  0.12500000000E+03 0.  0.
        -11    1    3    3    0    0  0.16714208309E+02  0.29006044465E+02  0.13085132568E+02  0.35943512203E+02  0.51100000000E-03 0.  1.
         23    2    1    0    0    0 -0.18573749501E-01 -0.28337242258E+02  0.33711325134E+01  0.96462933259E+02  0.92145175211E+02 0.  0.
         11    1    3    3    0    0 -0.16732782058E+02 -0.57343286723E+02 -0.97140000546E+01  0.60519421056E+02  0.51100000000E-03 0. -1.
         22    1    1    0    0    0  0.18573749501E-01  0.28337242258E+02 -0.33711325134E+01  0.28537066741E+02  0.00000000000E+00 0. -1.
</event>
<event>
 5    1  0.1103865E-009  0.9118800E+02  0.7818608E-02  0.1130116E+00
         25   -1    0    0    0    0  0.00000000000E+00  0.00000000000E+00  0.99999998245E-14  0.12500000000E+03  0.12500000000E+03 0.  0.
        -11    1    3    3    0    0 -0.40249592709E+01 -0.26394750495E+02 -0.22111226487E+02  0.34666835561E+02  0.51100000000E-03 0.  1.
         23    2    1    0    0    0 -0.84568231435E+01  0.25769182730E+02  0.10013331221E+02  0.96089181292E+02  0.91636757488E+02 0.  0.
         11    1    3    3    0    0 -0.44318638726E+01  0.52163933225E+02  0.32124557708E+02  0.61422345731E+02  0.51100000000E-03 0. -1.
         22    1    1    0    0    0  0.84568231435E+01 -0.25769182730E+02 -0.10013331221E+02  0.28910818708E+02  0.00000000000E+00 0. -1.
</event>
<event>
 5    1  0.1103865E-009  0.9118800E+02  0.7818608E-02  0.1130116E+00
         25   -1    0    0    0    0  0.00000000000E+00  0.00000000000E+00  0.99999998245E-14  0.12500000000E+03  0.12500000000E+03 0.  0.
        -11    1    3    3    0    0  0.10302019716E+02 -0.27794239426E+01  0.59777700309E+02  0.60722567981E+02  0.51100000000E-03 0. -1.
         23    2    1    0    0    0  0.55964211187E+01  0.91926252968E+01  0.26969632903E+02  0.95962345341E+02  0.91463579283E+02 0.  0.
         11    1    3    3    0    0 -0.47055985972E+01  0.11972049239E+02 -0.32808067407E+02  0.35239777360E+02  0.51100000000E-03 0.  1.
         22    1    1    0    0    0 -0.55964211187E+01 -0.91926252968E+01 -0.26969632903E+02  0.29037654659E+02  0.00000000000E+00 0. -1.
</event>
<event>
 5    1  0.1103865E-009  0.9118800E+02  0.7818608E-02  0.1130116E+00
         25   -1    0    0    0    0  0.00000000000E+00  0.00000000000E+00  0.99999998245E-14  0.12500000000E+03  0.12500000000E+03 0.  0.
        -11    1    3    3    0    0  0.67952462789E+01  0.41432494573E+02 -0.10537546614E+02  0.43288183924E+02  0.51100000000E-03 0.  1.
         23    2    1    0    0    0 -0.28230884905E+02  0.48430541573E+01  0.42232230859E+01  0.96047044204E+02  0.91579261031E+02 0.  0.
         11    1    3    3    0    0 -0.35026131184E+02 -0.36589440416E+02  0.14760769700E+02  0.52758860280E+02  0.51100000000E-03 0. -1.
         22    1    1    0    0    0  0.28230884905E+02 -0.48430541573E+01 -0.42232230859E+01  0.28952955796E+02  0.00000000000E+00 0. -1.
</event>
<event>
 5    1  0.1103865E-009  0.9118800E+02  0.7818608E-02  0.1130116E+00
         25   -1    0    0    0    0  0.00000000000E+00  0.00000000000E+00  0.99999998245E-14  0.12500000000E+03  0.12500000000E+03 0.  0.
        -11    1    3    3    0    0 -0.21639880096E+02 -0.41157815056E+02 -0.37512061263E+02  0.59744496744E+02  0.51100000000E-03 0.  1.
         23    2    1    0    0    0 -0.19987361709E+02 -0.17371533120E+02 -0.87371022922E+01  0.97114488574E+02  0.93024846915E+02 0.  0.
         11    1    3    3    0    0  0.16525183867E+01  0.23786281936E+02  0.28774958971E+02  0.37369991830E+02  0.51100000000E-03 0. -1.
         22    1    1    0    0    0  0.19987361709E+02  0.17371533120E+02  0.87371022922E+01  0.27885511426E+02  0.00000000000E+00 0.  1.
</event>
<event>
 5    1  0.1103865E-009  0.9118800E+02  0.7818608E-02  0.1130116E+00
         25   -1    0    0    0    0  0.00000000000E+00  0.00000000000E+00  0.99999998245E-14  0.12500000000E+03  0.12500000000E+03 0.  0.
        -11    1    3    3    0    0  0.21284975147E+02  0.54066236712E+02  0.18376522321E+02  0.60941813988E+02  0.51100000000E-03 0. -1.
         23    2    1    0    0    0  0.17800656683E+02  0.20667086642E+02  0.41567158812E+01  0.97408875784E+02  0.93419585452E+02 0.  0.
         11    1    3    3    0    0 -0.34843184643E+01 -0.33399150071E+02 -0.14219806439E+02  0.36467061796E+02  0.51100000000E-03 0.  1.
         22    1    1    0    0    0 -0.17800656683E+02 -0.20667086642E+02 -0.41567158812E+01  0.27591124216E+02  0.00000000000E+00 0. -1.
</event>
<event>
 5    1  0.1103865E-009  0.9118800E+02  0.7818608E-02  0.1130116E+00
         25   -1    0    0    0    0  0.00000000000E+00  0.00000000000E+00  0.99999998245E-14  0.12500000000E+03  0.12500000000E+03 0.  0.
        -11    1    3    3    0    0 -0.23323594693E+02 -0.22413290786E+02  0.52316091596E+02  0.61508691365E+02  0.51100000000E-03 0. -1.
         23    2    1    0    0    0 -0.10663086588E+02 -0.18276115568E+02  0.22780099655E+02  0.93908992359E+02  0.88612911530E+02 0.  0.
         11    1    3    3    0    0  0.12660508105E+02  0.41371752173E+01 -0.29535991942E+02  0.32400300994E+02  0.51100000000E-03 0.  1.
         22    1    1    0    0    0  0.10663086588E+02  0.18276115568E+02 -0.22780099655E+02  0.31091007641E+02  0.00000000000E+00 0. -1.
</event>
<event>
 5    1  0.1103865E-009  0.9118800E+02  0.7818608E-02  0.1130116E+00
         25   -1    0    0    0    0  0.00000000000E+00  0.00000000000E+00  0.99999998245E-14  0.12500000000E+03  0.12500000000E+03 0.  0.
        -11    1    3    3    0    0  0.54683556741E+02  0.27539133132E+02 -0.15989269103E+01  0.61247463613E+02  0.51100000000E-03 0. -1.
         23    2    1    0    0    0  0.18859787252E+02  0.17505316597E+02 -0.56044634327E+01  0.98664896152E+02  0.95085351332E+02 0.  0.
         11    1    3    3    0    0 -0.35823769489E+02 -0.10033816536E+02 -0.40055365224E+01  0.37417432539E+02  0.51100000000E-03 0.  1.
         22    1    1    0    0    0 -0.18859787252E+02 -0.17505316597E+02  0.56044634327E+01  0.26335103848E+02  0.00000000000E+00 0. -1.
</event>
<event>
 5    1  0.1103865E-009  0.9118800E+02  0.7818608E-02  0.1130116E+00
         25   -1    0    0    0    0  0.00000000000E+00  0.00000000000E+00  0.99999998245E-14  0.12500000000E+03  0.12500000000E+03 0.  0.
        -11    1    3    3    0    0  0.14466909539E+02  0.22759617787E+01 -0.58565680202E+02  0.60368952048E+02  0.51100000000E-03 0.  1.
         23    2    1    0    0    0 -0.35775788252E+01 -0.38388647181E+01 -0.28911472502E+02  0.95616174606E+02  0.90989250197E+02 0.  0.
         11    1    3    3    0    0 -0.18044488365E+02 -0.61148264968E+01  0.29654207700E+02  0.35247222558E+02  0.51100000000E-03 0. -1.
         22    1    1    0    0    0  0.35775788252E+01  0.38388647181E+01  0.28911472502E+02  0.29383825394E+02  0.00000000000E+00 0.  1.
</event>
<event>
 5    1  0.1103865E-009  0.9118800E+02  0.7818608E-02  0.1130116E+00
         25   -1    0    0    0    0  0.00000000000E+00  0.00000000000E+00  0.99999998245E-14  0.12500000000E+03  0.12500000000E+03 0.  0.
        -11    1    3    3    0    0 -0.65020605177E+01 -0.37614471098E+02 -0.22085474869E+02  0.44100945879E+02  0.51100000000E-03 0. -1.
         23    2    1    0    0    0  0.26441277344E+02 -0.11382570291E+02  0.71158164960E+01  0.95346351010E+02  0.90617811453E+02 0.  0.
         11    1    3    3    0    0  0.32943337862E+02  0.26231900807E+02  0.29201291365E+02  0.51245405131E+02  0.51100000000E-03 0.  1.
         22    1    1    0    0    0 -0.26441277344E+02  0.11382570291E+02 -0.71158164960E+01  0.29653648990E+02  0.00000000000E+00 0.  1.
</event>
<event>
 5    1  0.1103865E-009  0.9118800E+02  0.7818608E-02  0.1130116E+00
         25   -1    0    0    0    0  0.00000000000E+00  0.00000000000E+00  0.99999998245E-14  0.12500000000E+03  0.12500000000E+03 0.  0.
        -11    1    3    3    0    0 -0.20612562643E+02 -0.13566625530E+02  0.22843017757E+02  0.33626396290E+02  0.51100000000E-03 0.  1.
         23    2    1    0    0    0  0.13242338979E+02  0.52627545288E+01 -0.25628546058E+02  0.95676315035E+02  0.91071832960E+02 0.  0.
         11    1    3    3    0    0  0.33854901622E+02  0.18829380059E+02 -0.48471563816E+02  0.62049918744E+02  0.51100000000E-03 0. -1.
         22    1    1    0    0    0 -0.13242338979E+02 -0.52627545288E+01  0.25628546058E+02  0.29323684965E+02  0.00000000000E+00 0. -1.
</event>
<event>
 5    1  0.1103865E-009  0.9118800E+02  0.7818608E-02  0.1130116E+00
         25   -1    0    0    0    0  0.00000000000E+00  0.00000000000E+00  0.99999998245E-14  0.12500000000E+03  0.12500000000E+03 0.  0.
        -11    1    3    3    0    0  0.72931430229E+01 -0.22093562458E+02  0.35261921519E+02  0.42245929351E+02  0.51100000000E-03 0.  1.
         23    2    1    0    0    0 -0.56416134307E+00  0.19155251178E+02 -0.94918959931E+01  0.10361453729E+03  0.10138359987E+03 0.  0.
         11    1    3    3    0    0 -0.78573043660E+01  0.41248813636E+02 -0.44753817512E+02  0.61368607940E+02  0.51100000000E-03 0. -1.
         22    1    1    0    0    0  0.56416134307E+00 -0.19155251178E+02  0.94918959931E+01  0.21385462709E+02  0.00000000000E+00 0. -1.
</event>
<event>
 5    1  0.1103865E-009  0.9118800E+02  0.7818608E-02  0.1130116E+00
         25   -1    0    0    0    0  0.00000000000E+00  0.00000000000E+00  0.99999998245E-14  0.12500000000E+03  0.12500000000E+03 0.  0.
        -11    1    3    3    0    0 -0.58035536213E+02  0.17823449669E+02 -0.14127344321E+02  0.62332821848E+02  0.51100000000E-03 0.  1.
         23    2    1    0    0    0 -0.35963752720E+02  0.11138076042E+02 -0.11962295623E+02  0.85496268984E+02  0.75822603793E+02 0.  0.
         11    1    3    3    0    0  0.22071783493E+02 -0.66853736272E+01  0.21650486989E+01  0.23163447136E+02  0.51100000000E-03 0. -1.
         22    1    1    0    0    0  0.35963752720E+02 -0.11138076042E+02  0.11962295623E+02  0.39503731016E+02  0.00000000000E+00 0.  1.
</event>
<event>
 5    1  0.1103865E-009  0.9118800E+02  0.7818608E-02  0.1130116E+00
         25   -1    0    0    0    0  0.00000000000E+00  0.00000000000E+00  0.99999998245E-14  0.12500000000E+03  0.12500000000E+03 0.  0.
        -11    1    3    3    0    0  0.28249332076E+02 -0.41213741163E+02  0.57870485943E+01  0.50299971720E+02  0.51100000000E-03 0.  1.
         23    2    1    0    0    0 -0.32570020984E+01 -0.20554345936E+02 -0.20143772844E+02  0.96036906520E+02  0.91565422677E+02 0.  0.
         11    1    3    3    0    0 -0.31506334174E+02  0.20659395226E+02 -0.25930821438E+02  0.45736934800E+02  0.51100000000E-03 0. -1.
         22    1    1    0    0    0  0.32570020984E+01  0.20554345936E+02  0.20143772844E+02  0.28963093480E+02  0.00000000000E+00 0.  1.
</event>
<event>
 5    1  0.1103865E-009  0.9118800E+02  0.7818608E-02  0.1130116E+00
         25   -1    0    0    0    0  0.00000000000E+00  0.00000000000E+00  0.99999998245E-14  0.12500000000E+03  0.12500000000E+03 0.  0.
        -11    1    3    3    0    0  0.44622675800E+02  0.20748036943E+02  0.31555348170E+01  0.49311475671E+02  0.51100000000E-03 0.  1.
         23    2    1    0    0    0  0.16993567444E+02 -0.50711704913E+01 -0.23487061842E+02  0.95569740426E+02  0.90925437071E+02 0.  0.
         11    1    3    3    0    0 -0.27629108357E+02 -0.25819207435E+02 -0.26642596659E+02  0.46258264755E+02  0.51100000000E-03 0. -1.
         22    1    1    0    0    0 -0.16993567444E+02  0.50711704913E+01  0.23487061842E+02  0.29430259574E+02  0.00000000000E+00 0.  1.
</event>
<event>
 5    1  0.1103865E-009  0.9118800E+02  0.7818608E-02  0.1130116E+00
         25   -1    0    0    0    0  0.00000000000E+00  0.00000000000E+00  0.99999998245E-14  0.12500000000E+03  0.12500000000E+03 0.  0.
        -11    1    3    3    0    0  0.45066914337E+01  0.38764899870E+02  0.16554449716E+02  0.42391951303E+02  0.51100000000E-03 0.  1.
         23    2    1    0    0    0  0.11992569876E+02 -0.90937483967E+01  0.28930741805E+02  0.92388563149E+02  0.86441545493E+02 0.  0.
         11    1    3    3    0    0  0.74858784424E+01 -0.47858648266E+02  0.12376292089E+02  0.49996611846E+02  0.51100000000E-03 0. -1.
         22    1    1    0    0    0 -0.11992569876E+02  0.90937483967E+01 -0.28930741805E+02  0.32611436851E+02  0.00000000000E+00 0. -1.
</event>
<event>
 5    1  0.1103865E-009  0.9118800E+02  0.7818608E-02  0.1130116E+00
         25   -1    0    0    0    0  0.00000000000E+00  0.00000000000E+00  0.99999998245E-14  0.12500000000E+03  0.12500000000E+03 0.  0.
        -11    1    3    3    0    0 -0.13942705787E+02  0.26564722830E+02  0.28007648879E+02  0.41042806187E+02  0.51100000000E-03 0. -1.
         23    2    1    0    0    0 -0.25432454292E+02  0.24821379827E+01 -0.17662539646E+02  0.93936580243E+02  0.88651819275E+02 0.  0.
         11    1    3    3    0    0 -0.11489748505E+02 -0.24082584848E+02 -0.45670188525E+02  0.52893774056E+02  0.51100000000E-03 0.  1.
         22    1    1    0    0    0  0.25432454292E+02 -0.24821379827E+01  0.17662539646E+02  0.31063419757E+02  0.00000000000E+00 0. -1.
</event>
<event>
 5    1  0.1103865E-009  0.9118800E+02  0.7818608E-02  0.1130116E+00
         25   -1    0    0    0    0  0.00000000000E+00  0.00000000000E+00  0.99999998245E-14  0.12500000000E+03  0.12500000000E+03 0.  0.
        -11    1    3    3    0    0 -0.16364725878E+02 -0.47570299278E+02 -0.23132673485E+02  0.55370192426E+02  0.51100000000E-03 0.  1.
         23    2    1    0    0    0  0.12521429902E+02 -0.16472556589E+02 -0.16930433570E+02  0.98264800202E+02  0.94557919026E+02 0.  0.
         11    1    3    3    0    0  0.28886155780E+02  0.31097742688E+02  0.62022399151E+01  0.42894607776E+02  0.51100000000E-03 0. -1.
         22    1    1    0    0    0 -0.12521429902E+02  0.16472556589E+02  0.16930433570E+02  0.26735199798E+02  0.00000000000E+00 0.  1.
</event>
<event>
 5    1  0.1103865E-009  0.9118800E+02  0.7818608E-02  0.1130116E+00
         25   -1    0    0    0    0  0.00000000000E+00  0.00000000000E+00  0.99999998245E-14  0.12500000000E+03  0.12500000000E+03 0.  0.
        -11    1    3    3    0    0 -0.29419203522E+02 -0.32980568900E+02 -0.42215588077E+01  0.44396272590E+02  0.51100000000E-03 0. -1.
         23    2    1    0    0    0 -0.21859579699E+02  0.17941348526E+02 -0.67061231763E+01  0.95936185735E+02  0.91427820896E+02 0.  0.
         11    1    3    3    0    0  0.75596238226E+01  0.50921917426E+02 -0.24845643686E+01  0.51539913145E+02  0.51100000000E-03 0.  1.
         22    1    1    0    0    0  0.21859579699E+02 -0.17941348526E+02  0.67061231763E+01  0.29063814265E+02  0.00000000000E+00 0.  1.
</event>
<event>
 5    1  0.1103865E-009  0.9118800E+02  0.7818608E-02  0.1130116E+00
         25   -1    0    0    0    0  0.00000000000E+00  0.00000000000E+00  0.99999998245E-14  0.12500000000E+03  0.12500000000E+03 0.  0.
        -11    1    3    3    0    0 -0.81924731293E+00 -0.28779977475E+02  0.37128470711E+02  0.46983844108E+02  0.51100000000E-03 0.  1.
         23    2    1    0    0    0  0.13466385871E+02 -0.21007420979E+02 -0.10958615112E+02  0.97746623516E+02  0.93870420682E+02 0.  0.
         11    1    3    3    0    0  0.14285633184E+02  0.77725564956E+01 -0.48087085823E+02  0.50762779407E+02  0.51100000000E-03 0. -1.
         22    1    1    0    0    0 -0.13466385871E+02  0.21007420979E+02  0.10958615112E+02  0.27253376484E+02  0.00000000000E+00 0. -1.
</event>
<event>
 5    1  0.1103865E-009  0.9118800E+02  0.7818608E-02  0.1130116E+00
         25   -1    0    0    0    0  0.00000000000E+00  0.00000000000E+00  0.99999998245E-14  0.12500000000E+03  0.12500000000E+03 0.  0.
        -11    1    3    3    0    0 -0.65359056095E+01  0.45404890500E+02 -0.81112410959E+01  0.46584486429E+02  0.51100000000E-03 0. -1.
         23    2    1    0    0    0 -0.26487022033E+02 -0.15359210731E+01  0.12405168503E+01  0.98439497900E+02  0.94788577767E+02 0.  0.
         11    1    3    3    0    0 -0.19951116424E+02 -0.46940811574E+02  0.93517579461E+01  0.51855011471E+02  0.51100000000E-03 0.  1.
         22    1    1    0    0    0  0.26487022033E+02  0.15359210731E+01 -0.12405168503E+01  0.26560502100E+02  0.00000000000E+00 0.  1.
</event>
<event>
 5    1  0.1103865E-009  0.9118800E+02  0.7818608E-02  0.1130116E+00
         25   -1    0    0    0    0  0.00000000000E+00  0.00000000000E+00  0.99999998245E-14  0.12500000000E+03  0.12500000000E+03 0.  0.
        -11    1    3    3    0    0 -0.13248451889E+02  0.10869734638E+02  0.46582234150E+02  0.49634435095E+02  0.51100000000E-03 0. -1.
         23    2    1    0    0    0 -0.23083321940E+02 -0.13612011119E+02  0.68296795106E+01  0.97345504512E+02  0.93334753056E+02 0.  0.
         11    1    3    3    0    0 -0.98348700506E+01 -0.24481745757E+02 -0.39752554640E+02  0.47711069416E+02  0.51100000000E-03 0.  1.
         22    1    1    0    0    0  0.23083321940E+02  0.13612011119E+02 -0.68296795106E+01  0.27654495488E+02  0.00000000000E+00 0. -1.
</event>
<event>
 5    1  0.1103865E-009  0.9118800E+02  0.7818608E-02  0.1130116E+00
         25   -1    0    0    0    0  0.00000000000E+00  0.00000000000E+00  0.99999998245E-14  0.12500000000E+03  0.12500000000E+03 0.  0.
        -11    1    3    3    0    0  0.12004259386E+02  0.97483212205E+01  0.48273623625E+02  0.50689986666E+02  0.51100000000E-03 0.  1.
         23    2    1    0    0    0 -0.27465034325E+01  0.27430941243E+02  0.93975172442E+01  0.95874184150E+02  0.91343013074E+02 0.  0.
         11    1    3    3    0    0 -0.14750762819E+02  0.17682620023E+02 -0.38876106381E+02  0.45184197483E+02  0.51100000000E-03 0. -1.
         22    1    1    0    0    0  0.27465034325E+01 -0.27430941243E+02 -0.93975172442E+01  0.29125815850E+02  0.00000000000E+00 0.  1.
</event>
<event>
 5    1  0.1103865E-009  0.9118800E+02  0.7818608E-02  0.1130116E+00
         25   -1    0    0    0    0  0.00000000000E+00  0.00000000000E+00  0.99999998245E-14  0.12500000000E+03  0.12500000000E+03 0.  0.
        -11    1    3    3    0    0 -0.29785711488E+02 -0.17183129538E+01  0.28300499396E+02  0.41122493535E+02  0.51100000000E-03 0.  1.
         23    2    1    0    0    0  0.30094478176E+01  0.29061253321E+02 -0.25643297316E+01  0.95671021025E+02  0.91064566414E+02 0.  0.
         11    1    3    3    0    0  0.32795159306E+02  0.30779566275E+02 -0.30864829128E+02  0.54548527489E+02  0.51100000000E-03 0. -1.
         22    1    1    0    0    0 -0.30094478176E+01 -0.29061253321E+02  0.25643297316E+01  0.29328978975E+02  0.00000000000E+00 0.  1.
</event>
<event>
 5    1  0.1103865E-009  0.9118800E+02  0.7818608E-02  0.1130116E+00
         25   -1    0    0    0    0  0.00000000000E+00  0.00000000000E+00  0.99999998245E-14  0.12500000000E+03  0.12500000000E+03 0.  0.
        -11    1    3    3    0    0 -0.43363796450E+01 -0.15720316890E+02  0.46416624728E+02  0.49197922750E+02  0.51100000000E-03 0. -1.
         23    2    1    0    0    0 -0.22990325299E+02  0.11838541861E+02  0.14283249337E+02  0.95458210237E+02  0.90771981136E+02 0.  0.
         11    1    3    3    0    0 -0.18653945654E+02  0.27558858751E+02 -0.32133375391E+02  0.46260287487E+02  0.51100000000E-03 0.  1.
         22    1    1    0    0    0  0.22990325299E+02 -0.11838541861E+02 -0.14283249337E+02  0.29541789763E+02  0.00000000000E+00 0. -1.
</event>
<event>
 5    1  0.1103865E-009  0.9118800E+02  0.7818608E-02  0.1130116E+00
         25   -1    0    0    0    0  0.00000000000E+00  0.00000000000E+00  0.99999998245E-14  0.12500000000E+03  0.12500000000E+03 0.  0.
        -11    1    3    3    0    0  0.16205768066E+02 -0.31802851259E+02  0.14253842440E+02  0.38434623601E+02  0.51100000000E-03 0. -1.
         23    2    1    0    0    0 -0.23939612877E+02  0.26591639033E+01 -0.12653360051E+02  0.97791844275E+02  0.93930618378E+02 0.  0.
         11    1    3    3    0    0 -0.40145380942E+02  0.34462015162E+02 -0.26907202491E+02  0.59357220674E+02  0.51100000000E-03 0.  1.
         22    1    1    0    0    0  0.23939612877E+02 -0.26591639033E+01  0.12653360051E+02  0.27208155725E+02  0.00000000000E+00 0.  1.
</event>
<event>
 5    1  0.1103865E-009  0.9118800E+02  0.7818608E-02  0.1130116E+00
         25   -1    0    0    0    0  0.00000000000E+00  0.00000000000E+00  0.99999998245E-14  0.12500000000E+03  0.12500000000E+03 0.  0.
        -11    1    3    3    0    0 -0.28145161527E+02 -0.26068057537E+02  0.59533115194E+01  0.38821845132E+02  0.51100000000E-03 0.  1.
         23    2    1    0    0    0 -0.90894713343E+01  0.26937573300E+02 -0.48053519922E+01  0.96166985031E+02  0.91742826737E+02 0.  0.
         11    1    3    3    0    0  0.19055690193E+02  0.53005630837E+02 -0.10758663512E+02  0.57345139899E+02  0.51100000000E-03 0. -1.
         22    1    1    0    0    0  0.90894713343E+01 -0.26937573300E+02  0.48053519922E+01  0.28833014969E+02  0.00000000000E+00 0. -1.
</event>
<event>
 5    1  0.1103865E-009  0.9118800E+02  0.7818608E-02  0.1130116E+00
         25   -1    0    0    0    0  0.00000000000E+00  0.00000000000E+00  0.99999998245E-14  0.12500000000E+03  0.12500000000E+03 0.  0.
        -11    1    3    3    0    0  0.22197408694E+02 -0.18866363639E+02  0.21784739906E+02  0.36376359394E+02  0.51100000000E-03 0. -1.
         23    2    1    0    0    0  0.82280286628E+01  0.28890534307E+02 -0.74010132664E+01  0.94062346153E+02  0.88828973529E+02 0.  0.
         11    1    3    3    0    0 -0.13969380032E+02  0.47756897946E+02 -0.29185753172E+02  0.57685986759E+02  0.51100000000E-03 0.  1.
         22    1    1    0    0    0 -0.82280286628E+01 -0.28890534307E+02  0.74010132664E+01  0.30937653847E+02  0.00000000000E+00 0.  1.
</event>
<event>
 5    1  0.1103865E-009  0.9118800E+02  0.7818608E-02  0.1130116E+00
         25   -1    0    0    0    0  0.00000000000E+00  0.00000000000E+00  0.99999998245E-14  0.12500000000E+03  0.12500000000E+03 0.  0.
        -11    1    3    3    0    0  0.21660750669E+02 -0.28852969766E+02 -0.15607848214E+01  0.36112574450E+02  0.51100000000E-03 0.  1.
         23    2    1    0    0    0 -0.67755895423E+01  0.24355665963E+02 -0.11448288959E+02  0.97248055956E+02  0.93204152209E+02 0.  0.
         11    1    3    3    0    0 -0.28436340211E+02  0.53208635729E+02 -0.98875041376E+01  0.61135481507E+02  0.51100000000E-03 0. -1.
         22    1    1    0    0    0  0.67755895423E+01 -0.24355665963E+02  0.11448288959E+02  0.27751944044E+02  0.00000000000E+00 0. -1.
</event>
<event>
 5    1  0.1103865E-009  0.9118800E+02  0.7818608E-02  0.1130116E+00
         25   -1    0    0    0    0  0.00000000000E+00  0.00000000000E+00  0.99999998245E-14  0.12500000000E+03  0.12500000000E+03 0.  0.
        -11    1    3    3    0    0 -0.35956485123E+02  0.38221072693E+02  0.73469377327E+01  0.52987703427E+02  0.51100000000E-03 0.  1.
         23    2    1    0    0    0 -0.19715173595E+02  0.29031337677E+01  0.22709701788E+02  0.94786645158E+02  0.89842424775E+02 0.  0.
         11    1    3    3    0    0  0.16241311528E+02 -0.35317938925E+02  0.15362764055E+02  0.41798941730E+02  0.51100000000E-03 0. -1.
         22    1    1    0    0    0  0.19715173595E+02 -0.29031337677E+01 -0.22709701788E+02  0.30213354842E+02  0.00000000000E+00 0.  1.
</event>
<event>
 5    1  0.1103865E-009  0.9118800E+02  0.7818608E-02  0.1130116E+00
         25   -1    0    0    0    0  0.00000000000E+00  0.00000000000E+00  0.99999998245E-14  0.12500000000E+03  0.12500000000E+03 0.  0.
        -11    1    3    3    0    0  0.47593334261E+02 -0.37040745910E+02  0.35955064755E+01  0.60415809112E+02  0.51100000000E-03 0. -1.
         23    2    1    0    0    0  0.27725723315E+02 -0.75763206239E+01 -0.94865621834E+00  0.96242108628E+02  0.91845125929E+02 0.  0.
         11    1    3    3    0    0 -0.19867610946E+02  0.29464425286E+02 -0.45441626939E+01  0.35826299515E+02  0.51100000000E-03 0.  1.
         22    1    1    0    0    0 -0.27725723315E+02  0.75763206239E+01  0.94865621834E+00  0.28757891372E+02  0.00000000000E+00 0. -1.
</event>
<event>
 5    1  0.1103865E-009  0.9118800E+02  0.7818608E-02  0.1130116E+00
         25   -1    0    0    0    0  0.00000000000E+00  0.00000000000E+00  0.99999998245E-14  0.12500000000E+03  0.12500000000E+03 0.  0.
        -11    1    3    3    0    0 -0.43750819704E+01  0.31151283459E+02 -0.49349702626E+02  0.58522960904E+02  0.51100000000E-03 0.  1.
         23    2    1    0    0    0 -0.11811445111E+02  0.29649996894E+01 -0.27407042835E+02  0.95009210485E+02  0.90151553626E+02 0.  0.
         11    1    3    3    0    0 -0.74363631408E+01 -0.28186283770E+02  0.21942659791E+02  0.36486249581E+02  0.51100000000E-03 0. -1.
         22    1    1    0    0    0  0.11811445111E+02 -0.29649996894E+01  0.27407042835E+02  0.29990789515E+02  0.00000000000E+00 0.  1.
</event>
<event>
 5    1  0.1103865E-009  0.9118800E+02  0.7818608E-02  0.1130116E+00
         25   -1    0    0    0    0  0.00000000000E+00  0.00000000000E+00  0.99999998245E-14  0.12500000000E+03  0.12500000000E+03 0.  0.
        -11    1    3    3    0    0  0.60915135126E+01 -0.34277477777E+02 -0.17467753358E+02  0.38950923317E+02  0.51100000000E-03 0.  1.
         23    2    1    0    0    0 -0.13504391188E+01  0.22243528929E+02 -0.18603251776E+02  0.95971061996E+02  0.91475491247E+02 0.  0.
         11    1    3    3    0    0 -0.74419526314E+01  0.56521006706E+02 -0.11354984173E+01  0.57020138679E+02  0.51100000000E-03 0. -1.
         22    1    1    0    0    0  0.13504391188E+01 -0.22243528929E+02  0.18603251776E+02  0.29028938004E+02  0.00000000000E+00 0. -1.
</event>
<event>
 5    1  0.1103865E-009  0.9118800E+02  0.7818608E-02  0.1130116E+00
         25   -1    0    0    0    0  0.00000000000E+00  0.00000000000E+00  0.99999998245E-14  0.12500000000E+03  0.12500000000E+03 0.  0.
        -11    1    3    3    0    0  0.31660408384E+02 -0.34704354335E+01  0.44143748774E+02  0.54434326828E+02  0.51100000000E-03 0.  1.
         23    2    1    0    0    0  0.21548162083E+02  0.17982008482E+02  0.11768443444E+02  0.94566922941E+02  0.89536197905E+02 0.  0.
         11    1    3    3    0    0 -0.10112246301E+02  0.21452443916E+02 -0.32375305331E+02  0.40132596113E+02  0.51100000000E-03 0. -1.
         22    1    1    0    0    0 -0.21548162083E+02 -0.17982008482E+02 -0.11768443444E+02  0.30433077059E+02  0.00000000000E+00 0.  1.
</event>
<event>
 5    1  0.1103865E-009  0.9118800E+02  0.7818608E-02  0.1130116E+00
         25   -1    0    0    0    0  0.00000000000E+00  0.00000000000E+00  0.99999998245E-14  0.12500000000E+03  0.12500000000E+03 0.  0.
        -11    1    3    3    0    0 -0.36600576305E+02 -0.49183696535E+02 -0.15590451042E+01  0.61327553453E+02  0.51100000000E-03 0. -1.
         23    2    1    0    0    0 -0.10002066142E+02 -0.26389289391E+02 -0.42514300630E+01  0.96460368270E+02  0.92141695598E+02 0.  0.
         11    1    3    3    0    0  0.26598510163E+02  0.22794407144E+02 -0.26923849588E+01  0.35132814817E+02  0.51100000000E-03 0.  1.
         22    1    1    0    0    0  0.10002066142E+02  0.26389289391E+02  0.42514300630E+01  0.28539631730E+02  0.00000000000E+00 0. -1.
</event>
<event>
 5    1  0.1103865E-009  0.9118800E+02  0.7818608E-02  0.1130116E+00
         25   -1    0    0    0    0  0.00000000000E+00  0.00000000000E+00  0.99999998245E-14  0.12500000000E+03  0.12500000000E+03 0.  0.
        -11    1    3    3    0    0  0.56420716596E+02  0.25304634566E+02 -0.82743325634E+01  0.62386588073E+02  0.51100000000E-03 0.  1.
         23    2    1    0    0    0  0.26487886588E+02  0.10378693824E+02 -0.15117809135E+01  0.96511214436E+02  0.92210648024E+02 0.  0.
         11    1    3    3    0    0 -0.29932830009E+02 -0.14925940742E+02  0.67625516499E+01  0.34124626363E+02  0.51100000000E-03 0. -1.
         22    1    1    0    0    0 -0.26487886588E+02 -0.10378693824E+02  0.15117809135E+01  0.28488785564E+02  0.00000000000E+00 0.  1.
</event>
<event>
 5    1  0.1103865E-009  0.9118800E+02  0.7818608E-02  0.1130116E+00
         25   -1    0    0    0    0  0.00000000000E+00  0.00000000000E+00  0.99999998245E-14  0.12500000000E+03  0.12500000000E+03 0.  0.
        -11    1    3    3    0    0 -0.29526490386E+02 -0.24497722755E+02  0.15881062346E+02  0.41523008035E+02  0.51100000000E-03 0. -1.
         23    2    1    0    0    0  0.12111957867E+02 -0.14732609286E+02 -0.20010788323E+02  0.97356177018E+02  0.93349045279E+02 0.  0.
         11    1    3    3    0    0  0.41638448253E+02  0.97651134697E+01 -0.35891850670E+02  0.55833168984E+02  0.51100000000E-03 0.  1.
         22    1    1    0    0    0 -0.12111957867E+02  0.14732609286E+02  0.20010788323E+02  0.27643822982E+02  0.00000000000E+00 0. -1.
</event>
<event>
 5    1  0.1103865E-009  0.9118800E+02  0.7818608E-02  0.1130116E+00
         25   -1    0    0    0    0  0.00000000000E+00  0.00000000000E+00  0.99999998245E-14  0.12500000000E+03  0.12500000000E+03 0.  0.
        -11    1    3    3    0    0 -0.23537483172E+02 -0.29790081497E+02  0.19606403081E+02  0.42730236504E+02  0.51100000000E-03 0.  1.
         23    2    1    0    0    0 -0.54144858242E+01  0.20355221254E+02  0.19859944771E+02  0.96050576943E+02  0.91584082873E+02 0.  0.
         11    1    3    3    0    0  0.18122997348E+02  0.50145302751E+02  0.25354169015E+00  0.53320340438E+02  0.51100000000E-03 0. -1.
         22    1    1    0    0    0  0.54144858242E+01 -0.20355221254E+02 -0.19859944771E+02  0.28949423057E+02  0.00000000000E+00 0.  1.
</event>
<event>
 5    1  0.1103865E-009  0.9118800E+02  0.7818608E-02  0.1130116E+00
         25   -1    0    0    0    0  0.00000000000E+00  0.00000000000E+00  0.99999998245E-14  0.12500000000E+03  0.12500000000E+03 0.  0.
        -11    1    3    3    0    0  0.94064956234E+01  0.32159023227E+02  0.34030826044E+02  0.47757534027E+02  0.51100000000E-03 0. -1.
         23    2    1    0    0    0 -0.24655560129E+02  0.48728016756E+01  0.17255434600E+02  0.94514087439E+02  0.89462404729E+02 0.  0.
         11    1    3    3    0    0 -0.34062055752E+02 -0.27286221551E+02 -0.16775391445E+02  0.46756553412E+02  0.51100000000E-03 0.  1.
         22    1    1    0    0    0  0.24655560129E+02 -0.48728016756E+01 -0.17255434600E+02  0.30485912561E+02  0.00000000000E+00 0. -1.
</event>
<event>
 5    1  0.1103865E-009  0.9118800E+02  0.7818608E-02  0.1130116E+00
         25   -1    0    0    0    0  0.00000000000E+00  0.00000000000E+00  0.99999998245E-14  0.12500000000E+03  0.12500000000E+03 0.  0.
        -11    1    3    3    0    0 -0.14171026912E+02 -0.10625945121E+02 -0.31256825821E+02  0.35926562236E+02  0.51100000000E-03 0. -1.
         23    2    1    0    0    0 -0.21419206635E+02  0.25723448424E+02  0.86865318412E+01  0.90417720620E+02  0.83542983877E+02 0.  0.
         11    1    3    3    0    0 -0.72481797226E+01  0.36349393545E+02  0.39943357662E+02  0.54491158383E+02  0.51100000000E-03 0.  1.
         22    1    1    0    0    0  0.21419206635E+02 -0.25723448424E+02 -0.86865318412E+01  0.34582279380E+02  0.00000000000E+00 0.  1.
</event>
<event>
 5    1  0.1103865E-009  0.9118800E+02  0.7818608E-02  0.1130116E+00
         25   -1    0    0    0    0  0.00000000000E+00  0.00000000000E+00  0.99999998245E-14  0.12500000000E+03  0.12500000000E+03 0.  0.
        -11    1    3    3    0    0  0.86570281111E+01  0.23689645501E+02 -0.43275485119E+02  0.50089031257E+02  0.51100000000E-03 0.  1.
         23    2    1    0    0    0 -0.14705893651E+02 -0.11075005442E+02 -0.19196079275E+02  0.98402847650E+02  0.94740233863E+02 0.  0.
         11    1    3    3    0    0 -0.23362921762E+02 -0.34764650942E+02  0.24079405844E+02  0.48313816393E+02  0.51100000000E-03 0. -1.
         22    1    1    0    0    0  0.14705893651E+02  0.11075005442E+02  0.19196079275E+02  0.26597152350E+02  0.00000000000E+00 0.  1.
</event>
<event>
 5    1  0.1103865E-009  0.9118800E+02  0.7818608E-02  0.1130116E+00
         25   -1    0    0    0    0  0.00000000000E+00  0.00000000000E+00  0.99999998245E-14  0.12500000000E+03  0.12500000000E+03 0.  0.
        -11    1    3    3    0    0 -0.63450127550E+01  0.18606151269E+02 -0.40724789954E+02  0.45221196014E+02  0.51100000000E-03 0.  1.
         23    2    1    0    0    0 -0.88227108617E+01 -0.24021452601E+02 -0.11630697946E+02  0.96890507889E+02  0.92723389564E+02 0.  0.
         11    1    3    3    0    0 -0.24776981068E+01 -0.42627603870E+02  0.29094092008E+02  0.51669311875E+02  0.51100000000E-03 0. -1.
         22    1    1    0    0    0  0.88227108617E+01  0.24021452601E+02  0.11630697946E+02  0.28109492111E+02  0.00000000000E+00 0. -1.
</event>
<event>
 5    1  0.1103865E-009  0.9118800E+02  0.7818608E-02  0.1130116E+00
         25   -1    0    0    0    0  0.00000000000E+00  0.00000000000E+00  0.99999998245E-14  0.12500000000E+03  0.12500000000E+03 0.  0.
        -11    1    3    3    0    0  0.86791246028E+01  0.49252669367E+02 -0.21015488634E+02  0.54247611989E+02  0.51100000000E-03 0. -1.
         23    2    1    0    0    0  0.15878912396E+02  0.24191355408E+02  0.96461666760E+01  0.94497376066E+02  0.89439051965E+02 0.  0.
         11    1    3    3    0    0  0.71997877930E+01 -0.25061313959E+02  0.30661655310E+02  0.40249764077E+02  0.51100000000E-03 0.  1.
         22    1    1    0    0    0 -0.15878912396E+02 -0.24191355408E+02 -0.96461666760E+01  0.30502623934E+02  0.00000000000E+00 0.  1.
</event>
<event>
 5    1  0.1103865E-009  0.9118800E+02  0.7818608E-02  0.1130116E+00
         25   -1    0    0    0    0  0.00000000000E+00  0.00000000000E+00  0.99999998245E-14  0.12500000000E+03  0.12500000000E+03 0.  0.
        -11    1    3    3    0    0 -0.36142701705E+02  0.32471839101E+01 -0.89338628199E+00  0.36299273122E+02  0.51100000000E-03 0. -1.
         23    2    1    0    0    0  0.21173294209E+02  0.12791828632E+02 -0.14970389478E+02  0.96085439161E+02  0.91631652774E+02 0.  0.
         11    1    3    3    0    0  0.57315995913E+02  0.95446447223E+01 -0.14077003196E+02  0.59786166039E+02  0.51100000000E-03 0.  1.
         22    1    1    0    0    0 -0.21173294209E+02 -0.12791828632E+02  0.14970389478E+02  0.28914560839E+02  0.00000000000E+00 0.  1.
</event>
<event>
 5    1  0.1103865E-009  0.9118800E+02  0.7818608E-02  0.1130116E+00
         25   -1    0    0    0    0  0.00000000000E+00  0.00000000000E+00  0.99999998245E-14  0.12500000000E+03  0.12500000000E+03 0.  0.
        -11    1    3    3    0    0 -0.32830349115E+02  0.44810493310E+01  0.24621406397E+02  0.41281052304E+02  0.51100000000E-03 0. -1.
         23    2    1    0    0    0 -0.41577520758E+01  0.11309553358E+02 -0.24003605803E+02  0.98141742592E+02  0.94395103940E+02 0.  0.
         11    1    3    3    0    0  0.28672597039E+02  0.68285040267E+01 -0.48625012200E+02  0.56860690287E+02  0.51100000000E-03 0.  1.
         22    1    1    0    0    0  0.41577520758E+01 -0.11309553358E+02  0.24003605803E+02  0.26858257408E+02  0.00000000000E+00 0.  1.
</event>
<event>
 5    1  0.1103865E-009  0.9118800E+02  0.7818608E-02  0.1130116E+00
         25   -1    0    0    0    0  0.00000000000E+00  0.00000000000E+00  0.99999998245E-14  0.12500000000E+03  0.12500000000E+03 0.  0.
        -11    1    3    3    0    0  0.71120834803E+01 -0.49980724111E+02  0.23625948300E+02  0.55739034324E+02  0.51100000000E-03 0. -1.
         23    2    1    0    0    0 -0.16253390623E+02 -0.17116251859E+02  0.15175006695E+02  0.96939001931E+02  0.92788741142E+02 0.  0.
         11    1    3    3    0    0 -0.23365474104E+02  0.32864472252E+02 -0.84509416048E+01  0.41199967606E+02  0.51100000000E-03 0.  1.
         22    1    1    0    0    0  0.16253390623E+02  0.17116251859E+02 -0.15175006695E+02  0.28060998069E+02  0.00000000000E+00 0. -1.
</event>
<event>
 5    1  0.1103865E-009  0.9118800E+02  0.7818608E-02  0.1130116E+00
         25   -1    0    0    0    0  0.00000000000E+00  0.00000000000E+00  0.99999998245E-14  0.12500000000E+03  0.12500000000E+03 0.  0.
        -11    1    3    3    0    0  0.59765988191E+02  0.12397555938E+02  0.18434555834E+01  0.61066120447E+02  0.51100000000E-03 0.  1.
         23    2    1    0    0    0  0.27687252348E+02  0.13179759065E+02 -0.51466951224E+01  0.93906938679E+02  0.88610014501E+02 0.  0.
         11    1    3    3    0    0 -0.32078735843E+02  0.78220312626E+00 -0.69901507057E+01  0.32840818232E+02  0.51100000000E-03 0. -1.
         22    1    1    0    0    0 -0.27687252348E+02 -0.13179759065E+02  0.51466951224E+01  0.31093061321E+02  0.00000000000E+00 0.  1.
</event>
<event>
 5    1  0.1103865E-009  0.9118800E+02  0.7818608E-02  0.1130116E+00
         25   -1    0    0    0    0  0.00000000000E+00  0.00000000000E+00  0.99999998245E-14  0.12500000000E+03  0.12500000000E+03 0.  0.
        -11    1    3    3    0    0 -0.21549039765E+02 -0.16384019436E+02 -0.13094013080E+02  0.30070756334E+02  0.51100000000E-03 0. -1.
         23    2    1    0    0    0  0.19139469398E+02  0.22311083463E+02  0.14028424407E+02  0.92428533569E+02  0.86499325964E+02 0.  0.
         11    1    3    3    0    0  0.40688509163E+02  0.38695102899E+02  0.27122437487E+02  0.62357777236E+02  0.51100000000E-03 0.  1.
         22    1    1    0    0    0 -0.19139469398E+02 -0.22311083463E+02 -0.14028424407E+02  0.32571466431E+02  0.00000000000E+00 0.  1.
</event>
<event>
 5    1  0.1103865E-009  0.9118800E+02  0.7818608E-02  0.1130116E+00
         25   -1    0    0    0    0  0.00000000000E+00  0.00000000000E+00  0.99999998245E-14  0.12500000000E+03  0.12500000000E+03 0.  0.
        -11    1    3    3    0    0 -0.24271871273E+02 -0.21171234711E+02 -0.19606528958E+02  0.37706244739E+02  0.51100000000E-03 0. -1.
         23    2    1    0    0    0  0.24075338108E+01 -0.46356900237E+01  0.28981803307E+02  0.95551217955E+02  0.90899969685E+02 0.  0.
         11    1    3    3    0    0  0.26679405084E+02  0.16535544688E+02  0.48588332265E+02  0.57844973215E+02  0.51100000000E-03 0.  1.
         22    1    1    0    0    0 -0.24075338108E+01  0.46356900237E+01 -0.28981803307E+02  0.29448782045E+02  0.00000000000E+00 0.  1.
</event>
<event>
 5    1  0.1103865E-009  0.9118800E+02  0.7818608E-02  0.1130116E+00
         25   -1    0    0    0    0  0.00000000000E+00  0.00000000000E+00  0.99999998245E-14  0.12500000000E+03  0.12500000000E+03 0.  0.
        -11    1    3    3    0    0 -0.81718657228E+01 -0.32959003287E+02  0.91484687316E+01  0.35167737594E+02  0.51100000000E-03 0. -1.
         23    2    1    0    0    0  0.45596890389E+01  0.26652609383E+02 -0.43820339575E+01  0.97607399308E+02  0.93684843102E+02 0.  0.
         11    1    3    3    0    0  0.12731554762E+02  0.59611612670E+02 -0.13530502689E+02  0.62439661715E+02  0.51100000000E-03 0.  1.
         22    1    1    0    0    0 -0.45596890389E+01 -0.26652609383E+02  0.43820339575E+01  0.27392600692E+02  0.00000000000E+00 0.  1.
</event>
<event>
 5    1  0.1103865E-009  0.9118800E+02  0.7818608E-02  0.1130116E+00
         25   -1    0    0    0    0  0.00000000000E+00  0.00000000000E+00  0.99999998245E-14  0.12500000000E+03  0.12500000000E+03 0.  0.
        -11    1    3    3    0    0 -0.47846761470E+01 -0.20413482100E+02 -0.27501924238E+02  0.34582643253E+02  0.51100000000E-03 0.  1.
         23    2    1    0    0    0 -0.15308317139E+00  0.21819108482E+02  0.17910769604E+02  0.96770713838E+02  0.92561754842E+02 0.  0.
         11    1    3    3    0    0  0.46315929756E+01  0.42232590582E+02  0.45412693842E+02  0.62188070585E+02  0.51100000000E-03 0. -1.
         22    1    1    0    0    0  0.15308317139E+00 -0.21819108482E+02 -0.17910769604E+02  0.28229286162E+02  0.00000000000E+00 0. -1.
</event>
<event>
 5    1  0.1103865E-009  0.9118800E+02  0.7818608E-02  0.1130116E+00
         25   -1    0    0    0    0  0.00000000000E+00  0.00000000000E+00  0.99999998245E-14  0.12500000000E+03  0.12500000000E+03 0.  0.
        -11    1    3    3    0    0 -0.29101443745E+01 -0.17130929829E+02  0.38798944285E+02  0.42512301455E+02  0.51100000000E-03 0. -1.
         23    2    1    0    0    0 -0.20017504701E+02  0.22034512535E+02  0.12367919998E+02  0.92763596941E+02  0.86982177688E+02 0.  0.
         11    1    3    3    0    0 -0.17107360326E+02  0.39165442364E+02 -0.26431024287E+02  0.50251295486E+02  0.51100000000E-03 0.  1.
         22    1    1    0    0    0  0.20017504701E+02 -0.22034512535E+02 -0.12367919998E+02  0.32236403059E+02  0.00000000000E+00 0.  1.
</event>
<event>
 5    1  0.1103865E-009  0.9118800E+02  0.7818608E-02  0.1130116E+00
         25   -1    0    0    0    0  0.00000000000E+00  0.00000000000E+00  0.99999998245E-14  0.12500000000E+03  0.12500000000E+03 0.  0.
        -11    1    3    3    0    0 -0.22089527667E+02 -0.17181221612E+00  0.43379999326E+02  0.48680602850E+02  0.51100000000E-03 0.  1.
         23    2    1    0    0    0  0.18458377769E+02  0.93480201347E+01  0.18805238271E+02  0.97040490406E+02  0.92925360379E+02 0.  0.
         11    1    3    3    0    0  0.40547905436E+02  0.95198323508E+01 -0.24574761056E+02  0.48359887556E+02  0.51100000000E-03 0. -1.
         22    1    1    0    0    0 -0.18458377769E+02 -0.93480201347E+01 -0.18805238271E+02  0.27959509594E+02  0.00000000000E+00 0. -1.
</event>
<event>
 5    1  0.1103865E-009  0.9118800E+02  0.7818608E-02  0.1130116E+00
         25   -1    0    0    0    0  0.00000000000E+00  0.00000000000E+00  0.99999998245E-14  0.12500000000E+03  0.12500000000E+03 0.  0.
        -11    1    3    3    0    0  0.30510029160E+02  0.42738468747E+02  0.31004220064E+02  0.60981146695E+02  0.51100000000E-03 0.  1.
         23    2    1    0    0    0  0.84883144605E+01  0.26657496080E+02  0.10420781954E+02  0.95145916926E+02  0.90340905639E+02 0.  0.
         11    1    3    3    0    0 -0.22021714700E+02 -0.16080972667E+02 -0.20583438110E+02  0.34164770231E+02  0.51100000000E-03 0. -1.
         22    1    1    0    0    0 -0.84883144605E+01 -0.26657496080E+02 -0.10420781954E+02  0.29854083074E+02  0.00000000000E+00 0.  1.
</event>
<event>
 5    1  0.1103865E-009  0.9118800E+02  0.7818608E-02  0.1130116E+00
         25   -1    0    0    0    0  0.00000000000E+00  0.00000000000E+00  0.99999998245E-14  0.12500000000E+03  0.12500000000E+03 0.  0.
        -11    1    3    3    0    0  0.41748645168E+02  0.21340715213E+02  0.30537535587E+02  0.55954593906E+02  0.51100000000E-03 0. -1.
         23    2    1    0    0    0  0.59451339155E+01  0.47626523580E+01  0.28540464752E+02  0.95460440034E+02  0.90775051685E+02 0.  0.
         11    1    3    3    0    0 -0.35803511253E+02 -0.16578062856E+02 -0.19970708350E+01  0.39505846128E+02  0.51100000000E-03 0.  1.
         22    1    1    0    0    0 -0.59451339155E+01 -0.47626523580E+01 -0.28540464752E+02  0.29539559966E+02  0.00000000000E+00 0. -1.
</event>
<event>
 5    1  0.1103865E-009  0.9118800E+02  0.7818608E-02  0.1130116E+00
         25   -1    0    0    0    0  0.00000000000E+00  0.00000000000E+00  0.99999998245E-14  0.12500000000E+03  0.12500000000E+03 0.  0.
        -11    1    3    3    0    0 -0.22931403819E+02  0.45999663971E+02  0.30172622434E+02  0.59600381806E+02  0.51100000000E-03 0.  1.
         23    2    1    0    0    0 -0.35018865907E+01  0.28807656993E+02  0.53795341470E+01  0.95485872895E+02  0.90810066754E+02 0.  0.
         11    1    3    3    0    0  0.19429517229E+02 -0.17192006978E+02 -0.24793088287E+02  0.35885491090E+02  0.51100000000E-03 0. -1.
         22    1    1    0    0    0  0.35018865907E+01 -0.28807656993E+02 -0.53795341470E+01  0.29514127105E+02  0.00000000000E+00 0.  1.
</event>
<event>
 5    1  0.1103865E-009  0.9118800E+02  0.7818608E-02  0.1130116E+00
         25   -1    0    0    0    0  0.00000000000E+00  0.00000000000E+00  0.99999998245E-14  0.12500000000E+03  0.12500000000E+03 0.  0.
        -11    1    3    3    0    0 -0.52805127920E+02  0.26117741855E+02 -0.81293002143E+01  0.59469349219E+02  0.51100000000E-03 0. -1.
         23    2    1    0    0    0 -0.25051049919E+02  0.82592903283E+01  0.95959232839E+01  0.96931285700E+02  0.92778345669E+02 0.  0.
         11    1    3    3    0    0  0.27754078001E+02 -0.17858451527E+02  0.17725223498E+02  0.37461936481E+02  0.51100000000E-03 0.  1.
         22    1    1    0    0    0  0.25051049919E+02 -0.82592903283E+01 -0.95959232839E+01  0.28068714300E+02  0.00000000000E+00 0. -1.
</event>
<event>
 5    1  0.1103865E-009  0.9118800E+02  0.7818608E-02  0.1130116E+00
         25   -1    0    0    0    0  0.00000000000E+00  0.00000000000E+00  0.99999998245E-14  0.12500000000E+03  0.12500000000E+03 0.  0.
        -11    1    3    3    0    0  0.12935988268E+02  0.58568442794E+02  0.12768691446E+02  0.61324071663E+02  0.51100000000E-03 0. -1.
         23    2    1    0    0    0  0.11949795959E+02  0.26704889732E+02 -0.20747128176E+00  0.95742662401E+02  0.91162852085E+02 0.  0.
         11    1    3    3    0    0 -0.98619230926E+00 -0.31863553062E+02 -0.12976162728E+02  0.34418590738E+02  0.51100000000E-03 0.  1.
         22    1    1    0    0    0 -0.11949795959E+02 -0.26704889732E+02  0.20747128176E+00  0.29257337599E+02  0.00000000000E+00 0. -1.
</event>
<event>
 5    1  0.1103865E-009  0.9118800E+02  0.7818608E-02  0.1130116E+00
         25   -1    0    0    0    0  0.00000000000E+00  0.00000000000E+00  0.99999998245E-14  0.12500000000E+03  0.12500000000E+03 0.  0.
        -11    1    3    3    0    0 -0.46212401741E+01 -0.43354451437E+02  0.39954205203E+02  0.59137998223E+02  0.51100000000E-03 0.  1.
         23    2    1    0    0    0  0.10388419269E+02 -0.29161578422E+02  0.18423800961E+02  0.88975656108E+02  0.81356708556E+02 0.  0.
         11    1    3    3    0    0  0.15009659443E+02  0.14192873014E+02 -0.21530404242E+02  0.29837657885E+02  0.51100000000E-03 0. -1.
         22    1    1    0    0    0 -0.10388419269E+02  0.29161578422E+02 -0.18423800961E+02  0.36024343892E+02  0.00000000000E+00 0.  1.
</event>
<event>
 5    1  0.1103865E-009  0.9118800E+02  0.7818608E-02  0.1130116E+00
         25   -1    0    0    0    0  0.00000000000E+00  0.00000000000E+00  0.99999998245E-14  0.12500000000E+03  0.12500000000E+03 0.  0.
        -11    1    3    3    0    0 -0.29849479308E+02  0.56324420563E+01  0.60692445975E+01  0.30976629073E+02  0.51100000000E-03 0.  1.
         23    2    1    0    0    0  0.30751674411E+02 -0.72736043947E+01  0.54083638748E+01  0.92940349351E+02  0.87235814535E+02 0.  0.
         11    1    3    3    0    0  0.60601153719E+02 -0.12906046451E+02 -0.66088072269E+00  0.61963720278E+02  0.51100000000E-03 0. -1.
         22    1    1    0    0    0 -0.30751674411E+02  0.72736043947E+01 -0.54083638748E+01  0.32059650649E+02  0.00000000000E+00 0. -1.
</event>
<event>
 5    1  0.1103865E-009  0.9118800E+02  0.7818608E-02  0.1130116E+00
         25   -1    0    0    0    0  0.00000000000E+00  0.00000000000E+00  0.99999998245E-14  0.12500000000E+03  0.12500000000E+03 0.  0.
        -11    1    3    3    0    0  0.11184919316E+02  0.29770800347E+02 -0.22553639831E+02  0.38988070525E+02  0.51100000000E-03 0. -1.
         23    2    1    0    0    0 -0.23718301993E+02  0.25599874306E+01  0.14820922496E+02  0.96914930502E+02  0.92756307740E+02 0.  0.
         11    1    3    3    0    0 -0.34903221309E+02 -0.27210812916E+02  0.37374562327E+02  0.57926859976E+02  0.51100000000E-03 0.  1.
         22    1    1    0    0    0  0.23718301993E+02 -0.25599874306E+01 -0.14820922496E+02  0.28085069498E+02  0.00000000000E+00 0.  1.
</event>
<event>
 5    1  0.1103865E-009  0.9118800E+02  0.7818608E-02  0.1130116E+00
         25   -1    0    0    0    0  0.00000000000E+00  0.00000000000E+00  0.99999998245E-14  0.12500000000E+03  0.12500000000E+03 0.  0.
        -11    1    3    3    0    0 -0.21221589837E+02 -0.38057477948E+02  0.32974330092E+02  0.54644614997E+02  0.51100000000E-03 0. -1.
         23    2    1    0    0    0  0.91280314520E+01 -0.16824958010E+02  0.26600198403E+02  0.92228507429E+02  0.86209784000E+02 0.  0.
         11    1    3    3    0    0  0.30349621289E+02  0.21232519938E+02 -0.63741316882E+01  0.37583892432E+02  0.51100000000E-03 0.  1.
         22    1    1    0    0    0 -0.91280314520E+01  0.16824958010E+02 -0.26600198403E+02  0.32771492571E+02  0.00000000000E+00 0. -1.
</event>
<event>
 5    1  0.1103865E-009  0.9118800E+02  0.7818608E-02  0.1130116E+00
         25   -1    0    0    0    0  0.00000000000E+00  0.00000000000E+00  0.99999998245E-14  0.12500000000E+03  0.12500000000E+03 0.  0.
        -11    1    3    3    0    0 -0.27500142026E+02 -0.27876254048E+02 -0.71215156596E+01  0.39800242923E+02  0.51100000000E-03 0. -1.
         23    2    1    0    0    0  0.28884074935E+01 -0.28799358471E+00  0.29831285276E+02  0.95027822578E+02  0.90177356607E+02 0.  0.
         11    1    3    3    0    0  0.30388549520E+02  0.27588260463E+02  0.36952800936E+02  0.55227579655E+02  0.51100000000E-03 0.  1.
         22    1    1    0    0    0 -0.28884074935E+01  0.28799358471E+00 -0.29831285276E+02  0.29972177422E+02  0.00000000000E+00 0.  1.
</event>
<event>
 5    1  0.1103865E-009  0.9118800E+02  0.7818608E-02  0.1130116E+00
         25   -1    0    0    0    0  0.00000000000E+00  0.00000000000E+00  0.99999998245E-14  0.12500000000E+03  0.12500000000E+03 0.  0.
        -11    1    3    3    0    0  0.21583075954E+02 -0.88550005299E+01 -0.17268915320E+02  0.29025086367E+02  0.51100000000E-03 0.  1.
         23    2    1    0    0    0 -0.15310717257E+02 -0.23899045172E+02  0.25046469815E+02  0.87146227754E+02  0.78495585471E+02 0.  0.
         11    1    3    3    0    0 -0.36893793211E+02 -0.15044044642E+02  0.42315385135E+02  0.58121141387E+02  0.51100000000E-03 0. -1.
         22    1    1    0    0    0  0.15310717257E+02  0.23899045172E+02 -0.25046469815E+02  0.37853772246E+02  0.00000000000E+00 0. -1.
</event>
<event>
 5    1  0.1103865E-009  0.9118800E+02  0.7818608E-02  0.1130116E+00
         25   -1    0    0    0    0  0.00000000000E+00  0.00000000000E+00  0.99999998245E-14  0.12500000000E+03  0.12500000000E+03 0.  0.
        -11    1    3    3    0    0  0.52605069010E+02  0.89244565180E+01 -0.32086203422E+02  0.62261253280E+02  0.51100000000E-03 0.  1.
         23    2    1    0    0    0  0.21722518213E+02  0.74154627638E+01 -0.14874868931E+02  0.97648242996E+02  0.93739323386E+02 0.  0.
         11    1    3    3    0    0 -0.30882550797E+02 -0.15089937542E+01  0.17211334491E+02  0.35386989716E+02  0.51100000000E-03 0. -1.
         22    1    1    0    0    0 -0.21722518213E+02 -0.74154627638E+01  0.14874868931E+02  0.27351757004E+02  0.00000000000E+00 0.  1.
</event>
<event>
 5    1  0.1103865E-009  0.9118800E+02  0.7818608E-02  0.1130116E+00
         25   -1    0    0    0    0  0.00000000000E+00  0.00000000000E+00  0.99999998245E-14  0.12500000000E+03  0.12500000000E+03 0.  0.
        -11    1    3    3    0    0 -0.20853445595E+02 -0.47272365504E+02  0.25349681348E+02  0.57551273472E+02  0.51100000000E-03 0.  1.
         23    2    1    0    0    0 -0.21645667331E+02 -0.16703698484E+02 -0.59288051213E+00  0.97652240228E+02  0.93744653485E+02 0.  0.
         11    1    3    3    0    0 -0.79222173591E+00  0.30568667020E+02 -0.25942561860E+02  0.40100966756E+02  0.51100000000E-03 0. -1.
         22    1    1    0    0    0  0.21645667331E+02  0.16703698484E+02  0.59288051213E+00  0.27347759772E+02  0.00000000000E+00 0. -1.
</event>
<event>
 5    1  0.1103865E-009  0.9118800E+02  0.7818608E-02  0.1130116E+00
         25   -1    0    0    0    0  0.00000000000E+00  0.00000000000E+00  0.99999998245E-14  0.12500000000E+03  0.12500000000E+03 0.  0.
        -11    1    3    3    0    0 -0.16430918751E+02  0.29635426547E+02 -0.13388511873E+02  0.36434679195E+02  0.51100000000E-03 0.  1.
         23    2    1    0    0    0  0.13728724135E+02 -0.29170058642E+01  0.25794633924E+02  0.95634204781E+02  0.91014016477E+02 0.  0.
         11    1    3    3    0    0  0.30159642886E+02 -0.32552432411E+02  0.39183145796E+02  0.59199525586E+02  0.51100000000E-03 0. -1.
         22    1    1    0    0    0 -0.13728724135E+02  0.29170058642E+01 -0.25794633924E+02  0.29365795219E+02  0.00000000000E+00 0. -1.
</event>
<event>
 5    1  0.1103865E-009  0.9118800E+02  0.7818608E-02  0.1130116E+00
         25   -1    0    0    0    0  0.00000000000E+00  0.00000000000E+00  0.99999998245E-14  0.12500000000E+03  0.12500000000E+03 0.  0.
        -11    1    3    3    0    0 -0.20207445503E+02  0.11518248736E+01  0.27548497187E+02  0.34184605480E+02  0.51100000000E-03 0. -1.
         23    2    1    0    0    0  0.36937486838E+01 -0.14888044044E+02 -0.25904143595E+02  0.94894812902E+02  0.89992795410E+02 0.  0.
         11    1    3    3    0    0  0.23901194187E+02 -0.16039868918E+02 -0.53452640782E+02  0.60710207422E+02  0.51100000000E-03 0.  1.
         22    1    1    0    0    0 -0.36937486838E+01  0.14888044044E+02  0.25904143595E+02  0.30105187098E+02  0.00000000000E+00 0.  1.
</event>
<event>
 5    1  0.1103865E-009  0.9118800E+02  0.7818608E-02  0.1130116E+00
         25   -1    0    0    0    0  0.00000000000E+00  0.00000000000E+00  0.99999998245E-14  0.12500000000E+03  0.12500000000E+03 0.  0.
        -11    1    3    3    0    0  0.21650081562E+02  0.90914508710E+01  0.34480707318E+01  0.23733303660E+02  0.51100000000E-03 0.  1.
         23    2    1    0    0    0 -0.20915746479E+02 -0.32772771004E+02  0.12593689709E+02  0.84132849493E+02  0.73540549177E+02 0.  0.
         11    1    3    3    0    0 -0.42565828042E+02 -0.41864221875E+02  0.91456189777E+01  0.60399545833E+02  0.51100000000E-03 0. -1.
         22    1    1    0    0    0  0.20915746479E+02  0.32772771004E+02 -0.12593689709E+02  0.40867150507E+02  0.00000000000E+00 0. -1.
</event>
<event>
 5    1  0.1103865E-009  0.9118800E+02  0.7818608E-02  0.1130116E+00
         25   -1    0    0    0    0  0.00000000000E+00  0.00000000000E+00  0.99999998245E-14  0.12500000000E+03  0.12500000000E+03 0.  0.
        -11    1    3    3    0    0  0.17953434063E+02 -0.27935201772E+02 -0.32874745233E+01  0.33369279011E+02  0.51100000000E-03 0. -1.
         23    2    1    0    0    0 -0.21252802610E+02  0.20058248151E+02  0.28171390628E+01  0.95640994395E+02  0.91023340955E+02 0.  0.
         11    1    3    3    0    0 -0.39206236673E+02  0.47993449923E+02  0.61046135861E+01  0.62271715384E+02  0.51100000000E-03 0.  1.
         22    1    1    0    0    0  0.21252802610E+02 -0.20058248151E+02 -0.28171390628E+01  0.29359005605E+02  0.00000000000E+00 0.  1.
</event>
<event>
 5    1  0.1103865E-009  0.9118800E+02  0.7818608E-02  0.1130116E+00
         25   -1    0    0    0    0  0.00000000000E+00  0.00000000000E+00  0.99999998245E-14  0.12500000000E+03  0.12500000000E+03 0.  0.
        -11    1    3    3    0    0 -0.21967746673E+02 -0.15962080093E+02  0.28312095053E+02  0.39229384667E+02  0.51100000000E-03 0. -1.
         23    2    1    0    0    0  0.67678023852E+01  0.27640496046E+02  0.13460112903E+02  0.93520247616E+02  0.88062829298E+02 0.  0.
         11    1    3    3    0    0  0.28735549058E+02  0.43602576139E+02 -0.14851982150E+02  0.54290862949E+02  0.51100000000E-03 0.  1.
         22    1    1    0    0    0 -0.67678023852E+01 -0.27640496046E+02 -0.13460112903E+02  0.31479752384E+02  0.00000000000E+00 0.  1.
</event>
<event>
 5    1  0.1103865E-009  0.9118800E+02  0.7818608E-02  0.1130116E+00
         25   -1    0    0    0    0  0.00000000000E+00  0.00000000000E+00  0.99999998245E-14  0.12500000000E+03  0.12500000000E+03 0.  0.
        -11    1    3    3    0    0 -0.23680776923E+02 -0.10345068198E+02  0.27257411763E+01  0.25985174560E+02  0.51100000000E-03 0. -1.
         23    2    1    0    0    0  0.33379766309E+02  0.14790000708E+02 -0.13099001050E+01  0.88466881353E+02  0.80571212838E+02 0.  0.
         11    1    3    3    0    0  0.57060543233E+02  0.25135068906E+02 -0.40356412813E+01  0.62481706793E+02  0.51100000000E-03 0.  1.
         22    1    1    0    0    0 -0.33379766309E+02 -0.14790000708E+02  0.13099001050E+01  0.36533118647E+02  0.00000000000E+00 0.  1.
</event>
<event>
 5    1  0.1103865E-009  0.9118800E+02  0.7818608E-02  0.1130116E+00
         25   -1    0    0    0    0  0.00000000000E+00  0.00000000000E+00  0.99999998245E-14  0.12500000000E+03  0.12500000000E+03 0.  0.
        -11    1    3    3    0    0 -0.36758793071E+02 -0.18492560892E+02 -0.58917503704E+01  0.41567973237E+02  0.51100000000E-03 0.  1.
         23    2    1    0    0    0  0.14726262859E+02 -0.13386235237E+02 -0.21592214546E+02  0.95635432225E+02  0.91015702251E+02 0.  0.
         11    1    3    3    0    0  0.51485055930E+02  0.51063256556E+01 -0.15700464175E+02  0.54067458988E+02  0.51100000000E-03 0. -1.
         22    1    1    0    0    0 -0.14726262859E+02  0.13386235237E+02  0.21592214546E+02  0.29364567775E+02  0.00000000000E+00 0.  1.
</event>
<event>
 5    1  0.1103865E-009  0.9118800E+02  0.7818608E-02  0.1130116E+00
         25   -1    0    0    0    0  0.00000000000E+00  0.00000000000E+00  0.99999998245E-14  0.12500000000E+03  0.12500000000E+03 0.  0.
        -11    1    3    3    0    0  0.46752664303E+02  0.23375497458E+01  0.35931160230E+02  0.59011219560E+02  0.51100000000E-03 0.  1.
         23    2    1    0    0    0  0.16732367194E+02 -0.13135490206E+02  0.17288790964E+02  0.97588040788E+02  0.93659010228E+02 0.  0.
         11    1    3    3    0    0 -0.30020297109E+02 -0.15473039952E+02 -0.18642369267E+02  0.38576821228E+02  0.51100000000E-03 0. -1.
         22    1    1    0    0    0 -0.16732367194E+02  0.13135490206E+02 -0.17288790964E+02  0.27411959212E+02  0.00000000000E+00 0.  1.
</event>
<event>
 5    1  0.1103865E-009  0.9118800E+02  0.7818608E-02  0.1130116E+00
         25   -1    0    0    0    0  0.00000000000E+00  0.00000000000E+00  0.99999998245E-14  0.12500000000E+03  0.12500000000E+03 0.  0.
        -11    1    3    3    0    0 -0.71618021847E-01 -0.12673191283E+02 -0.32806467675E+02  0.35169293823E+02  0.51100000000E-03 0.  1.
         23    2    1    0    0    0  0.12908292093E+02 -0.26650659218E+00  0.25629767711E+02  0.96301916031E+02  0.91926486977E+02 0.  0.
         11    1    3    3    0    0  0.12979910115E+02  0.12406684690E+02  0.58436235387E+02  0.61132622208E+02  0.51100000000E-03 0. -1.
         22    1    1    0    0    0 -0.12908292093E+02  0.26650659218E+00 -0.25629767711E+02  0.28698083969E+02  0.00000000000E+00 0. -1.
</event>
<event>
 5    1  0.1103865E-009  0.9118800E+02  0.7818608E-02  0.1130116E+00
         25   -1    0    0    0    0  0.00000000000E+00  0.00000000000E+00  0.99999998245E-14  0.12500000000E+03  0.12500000000E+03 0.  0.
        -11    1    3    3    0    0 -0.31235445111E+01  0.17190843576E+02 -0.40010276280E+02  0.43658949156E+02  0.51100000000E-03 0. -1.
         23    2    1    0    0    0 -0.28546707733E+02 -0.62640419350E+01 -0.10546808939E+01  0.95755084279E+02  0.91179883032E+02 0.  0.
         11    1    3    3    0    0 -0.25423163222E+02 -0.23454885511E+02  0.38955595386E+02  0.52096135122E+02  0.51100000000E-03 0.  1.
         22    1    1    0    0    0  0.28546707733E+02  0.62640419350E+01  0.10546808939E+01  0.29244915721E+02  0.00000000000E+00 0.  1.
</event>
<event>
 5    1  0.1103865E-009  0.9118800E+02  0.7818608E-02  0.1130116E+00
         25   -1    0    0    0    0  0.00000000000E+00  0.00000000000E+00  0.99999998245E-14  0.12500000000E+03  0.12500000000E+03 0.  0.
        -11    1    3    3    0    0 -0.19064508569E+01  0.21670651481E+02  0.27073230268E+02  0.34730555536E+02  0.51100000000E-03 0.  1.
         23    2    1    0    0    0 -0.12511397696E+02 -0.83417542851E+01 -0.25037472681E+02  0.95793922291E+02  0.91233111165E+02 0.  0.
         11    1    3    3    0    0 -0.10604946839E+02 -0.30012405766E+02 -0.52110702949E+02  0.61063366755E+02  0.51100000000E-03 0. -1.
         22    1    1    0    0    0  0.12511397696E+02  0.83417542851E+01  0.25037472681E+02  0.29206077709E+02  0.00000000000E+00 0. -1.
</event>
<event>
 5    1  0.1103865E-009  0.9118800E+02  0.7818608E-02  0.1130116E+00
         25   -1    0    0    0    0  0.00000000000E+00  0.00000000000E+00  0.99999998245E-14  0.12500000000E+03  0.12500000000E+03 0.  0.
        -11    1    3    3    0    0  0.20274889789E+02 -0.27799135342E+02 -0.26124104256E+01  0.34506343913E+02  0.51100000000E-03 0. -1.
         23    2    1    0    0    0 -0.86539397716E+01 -0.19157273745E+01  0.35202652160E+02  0.88698658372E+02  0.80929998103E+02 0.  0.
         11    1    3    3    0    0 -0.28928829561E+02  0.25883407968E+02  0.37815062585E+02  0.54192314459E+02  0.51100000000E-03 0.  1.
         22    1    1    0    0    0  0.86539397716E+01  0.19157273745E+01 -0.35202652160E+02  0.36301341628E+02  0.00000000000E+00 0.  1.
</event>
<event>
 5    1  0.1103865E-009  0.9118800E+02  0.7818608E-02  0.1130116E+00
         25   -1    0    0    0    0  0.00000000000E+00  0.00000000000E+00  0.99999998245E-14  0.12500000000E+03  0.12500000000E+03 0.  0.
        -11    1    3    3    0    0 -0.47701699566E+02  0.11123150264E+02  0.30396524172E+01  0.49075616149E+02  0.51100000000E-03 0.  1.
         23    2    1    0    0    0 -0.12426198526E+02  0.23345746700E+02  0.21679251086E+02  0.90803154730E+02  0.84117707307E+02 0.  0.
         11    1    3    3    0    0  0.35275501041E+02  0.12222596436E+02  0.18639598668E+02  0.41727538582E+02  0.51100000000E-03 0. -1.
         22    1    1    0    0    0  0.12426198526E+02 -0.23345746700E+02 -0.21679251086E+02  0.34196845270E+02  0.00000000000E+00 0.  1.
</event>
<event>
 5    1  0.1103865E-009  0.9118800E+02  0.7818608E-02  0.1130116E+00
         25   -1    0    0    0    0  0.00000000000E+00  0.00000000000E+00  0.99999998245E-14  0.12500000000E+03  0.12500000000E+03 0.  0.
        -11    1    3    3    0    0  0.59299385079E+01  0.42517854988E+02 -0.20804566949E+02  0.47704949111E+02  0.51100000000E-03 0.  1.
         23    2    1    0    0    0  0.25533120306E+02  0.10730956336E+02  0.94164037721E+01  0.95746584534E+02  0.91168229847E+02 0.  0.
         11    1    3    3    0    0  0.19603181798E+02 -0.31786898652E+02  0.30220970721E+02  0.48041635423E+02  0.51100000000E-03 0. -1.
         22    1    1    0    0    0 -0.25533120306E+02 -0.10730956336E+02 -0.94164037721E+01  0.29253415466E+02  0.00000000000E+00 0. -1.
</event>
<event>
 5    1  0.1103865E-009  0.9118800E+02  0.7818608E-02  0.1130116E+00
         25   -1    0    0    0    0  0.00000000000E+00  0.00000000000E+00  0.99999998245E-14  0.12500000000E+03  0.12500000000E+03 0.  0.
        -11    1    3    3    0    0 -0.32338767193E+02 -0.45565050753E+02  0.13770115169E+02  0.57546379432E+02  0.51100000000E-03 0. -1.
         23    2    1    0    0    0 -0.13501142918E+01 -0.18208286322E+02  0.18323542397E+02  0.99132709741E+02  0.95698366941E+02 0.  0.
         11    1    3    3    0    0  0.30988652902E+02  0.27356764431E+02  0.45534272280E+01  0.41586330309E+02  0.51100000000E-03 0.  1.
         22    1    1    0    0    0  0.13501142918E+01  0.18208286322E+02 -0.18323542397E+02  0.25867290259E+02  0.00000000000E+00 0. -1.
</event>
<event>
 5    1  0.1103865E-009  0.9118800E+02  0.7818608E-02  0.1130116E+00
         25   -1    0    0    0    0  0.00000000000E+00  0.00000000000E+00  0.99999998245E-14  0.12500000000E+03  0.12500000000E+03 0.  0.
        -11    1    3    3    0    0 -0.61609026726E+01  0.29362118050E+02 -0.25460704452E+02  0.39348928443E+02  0.51100000000E-03 0. -1.
         23    2    1    0    0    0  0.14562135843E+02 -0.21216817688E+02 -0.15648148448E+02  0.94882335698E+02  0.89975462903E+02 0.  0.
         11    1    3    3    0    0  0.20723038516E+02 -0.50578935739E+02  0.98125560040E+01  0.55533407255E+02  0.51100000000E-03 0.  1.
         22    1    1    0    0    0 -0.14562135843E+02  0.21216817688E+02  0.15648148448E+02  0.30117664302E+02  0.00000000000E+00 0.  1.
</event>
<event>
 5    1  0.1103865E-009  0.9118800E+02  0.7818608E-02  0.1130116E+00
         25   -1    0    0    0    0  0.00000000000E+00  0.00000000000E+00  0.99999998245E-14  0.12500000000E+03  0.12500000000E+03 0.  0.
        -11    1    3    3    0    0  0.90243232641E+01  0.10426678595E+02  0.25768775011E+02  0.29226423023E+02  0.51100000000E-03 0.  1.
         23    2    1    0    0    0 -0.17559267855E+02 -0.28019656724E+01 -0.28685588179E+02  0.91250305655E+02  0.84779575451E+02 0.  0.
         11    1    3    3    0    0 -0.26583591119E+02 -0.13228644268E+02 -0.54454363190E+02  0.62023882631E+02  0.51100000000E-03 0. -1.
         22    1    1    0    0    0  0.17559267855E+02  0.28019656724E+01  0.28685588179E+02  0.33749694345E+02  0.00000000000E+00 0. -1.
</event>
<event>
 5    1  0.1103865E-009  0.9118800E+02  0.7818608E-02  0.1130116E+00
         25   -1    0    0    0    0  0.00000000000E+00  0.00000000000E+00  0.99999998245E-14  0.12500000000E+03  0.12500000000E+03 0.  0.
        -11    1    3    3    0    0 -0.42384544566E+00  0.21607236925E+02  0.39779138935E+02  0.45270655254E+02  0.51100000000E-03 0.  1.
         23    2    1    0    0    0 -0.27614733146E+01  0.27539341553E+02 -0.10086228813E+02  0.95542011614E+02  0.90887308815E+02 0.  0.
         11    1    3    3    0    0 -0.23376278689E+01  0.59321046282E+01 -0.49865367748E+02  0.50271356360E+02  0.51100000000E-03 0. -1.
         22    1    1    0    0    0  0.27614733146E+01 -0.27539341553E+02  0.10086228813E+02  0.29457988386E+02  0.00000000000E+00 0. -1.
</event>
<event>
 5    1  0.1103865E-009  0.9118800E+02  0.7818608E-02  0.1130116E+00
         25   -1    0    0    0    0  0.00000000000E+00  0.00000000000E+00  0.99999998245E-14  0.12500000000E+03  0.12500000000E+03 0.  0.
        -11    1    3    3    0    0  0.55664670030E+02 -0.22222139299E+02  0.42501821652E+01  0.60086962091E+02  0.51100000000E-03 0.  1.
         23    2    1    0    0    0  0.22195004899E+02 -0.20791184953E+02 -0.32447046703E+01  0.94415367869E+02  0.89324363794E+02 0.  0.
         11    1    3    3    0    0 -0.33469665131E+02  0.14309543459E+01 -0.74948868355E+01  0.34328405778E+02  0.51100000000E-03 0. -1.
         22    1    1    0    0    0 -0.22195004899E+02  0.20791184953E+02  0.32447046703E+01  0.30584632131E+02  0.00000000000E+00 0.  1.
</event>
<event>
 5    1  0.1103865E-009  0.9118800E+02  0.7818608E-02  0.1130116E+00
         25   -1    0    0    0    0  0.00000000000E+00  0.00000000000E+00  0.99999998245E-14  0.12500000000E+03  0.12500000000E+03 0.  0.
        -11    1    3    3    0    0 -0.28664391844E+02  0.26363786931E+02  0.29943452947E+01  0.39059732784E+02  0.51100000000E-03 0.  1.
         23    2    1    0    0    0  0.25508034186E+02  0.78624691084E+01  0.94880943342E+01  0.96671530881E+02  0.92427716191E+02 0.  0.
         11    1    3    3    0    0  0.54172426030E+02 -0.18501317823E+02  0.64937490396E+01  0.57611798097E+02  0.51100000000E-03 0. -1.
         22    1    1    0    0    0 -0.25508034186E+02 -0.78624691084E+01 -0.94880943342E+01  0.28328469119E+02  0.00000000000E+00 0. -1.
</event>
<event>
 5    1  0.1103865E-009  0.9118800E+02  0.7818608E-02  0.1130116E+00
         25   -1    0    0    0    0  0.00000000000E+00  0.00000000000E+00  0.99999998245E-14  0.12500000000E+03  0.12500000000E+03 0.  0.
        -11    1    3    3    0    0 -0.29213805882E+02  0.37595871463E+02 -0.17347223255E+02  0.50673683111E+02  0.51100000000E-03 0.  1.
         23    2    1    0    0    0 -0.27793336833E+02 -0.59909793613E+01 -0.39494019239E+01  0.96295310808E+02  0.91917504873E+02 0.  0.
         11    1    3    3    0    0  0.14204690485E+01 -0.43586850824E+02  0.13397821331E+02  0.45621627697E+02  0.51100000000E-03 0. -1.
         22    1    1    0    0    0  0.27793336833E+02  0.59909793613E+01  0.39494019239E+01  0.28704689192E+02  0.00000000000E+00 0. -1.
</event>
<event>
 5    1  0.1103865E-009  0.9118800E+02  0.7818608E-02  0.1130116E+00
         25   -1    0    0    0    0  0.00000000000E+00  0.00000000000E+00  0.99999998245E-14  0.12500000000E+03  0.12500000000E+03 0.  0.
        -11    1    3    3    0    0 -0.35337031569E+02  0.13002059461E+02 -0.16853318070E+02  0.41252802093E+02  0.51100000000E-03 0.  1.
         23    2    1    0    0    0  0.10163513866E+02  0.15720607496E+02  0.18304546726E+02  0.98818118001E+02  0.95286565161E+02 0.  0.
         11    1    3    3    0    0  0.45500545435E+02  0.27185480352E+01  0.35157864796E+02  0.57565315908E+02  0.51100000000E-03 0. -1.
         22    1    1    0    0    0 -0.10163513866E+02 -0.15720607496E+02 -0.18304546726E+02  0.26181881999E+02  0.00000000000E+00 0. -1.
</event>
<event>
 5    1  0.1103865E-009  0.9118800E+02  0.7818608E-02  0.1130116E+00
         25   -1    0    0    0    0  0.00000000000E+00  0.00000000000E+00  0.99999998245E-14  0.12500000000E+03  0.12500000000E+03 0.  0.
        -11    1    3    3    0    0 -0.46541361480E+02 -0.50112041640E+01 -0.37955013249E+02  0.60264363654E+02  0.51100000000E-03 0. -1.
         23    2    1    0    0    0 -0.24964945971E+02 -0.12011056037E+02 -0.11794156159E+02  0.94889933345E+02  0.89986017449E+02 0.  0.
         11    1    3    3    0    0  0.21576415509E+02 -0.69998518733E+01  0.26160857090E+02  0.34625569691E+02  0.51100000000E-03 0.  1.
         22    1    1    0    0    0  0.24964945971E+02  0.12011056037E+02  0.11794156159E+02  0.30110066655E+02  0.00000000000E+00 0. -1.
</event>
<event>
 5    1  0.1103865E-009  0.9118800E+02  0.7818608E-02  0.1130116E+00
         25   -1    0    0    0    0  0.00000000000E+00  0.00000000000E+00  0.99999998245E-14  0.12500000000E+03  0.12500000000E+03 0.  0.
        -11    1    3    3    0    0 -0.10059141090E+02 -0.30585997246E+01 -0.35267132431E+02  0.36800978002E+02  0.51100000000E-03 0.  1.
         23    2    1    0    0    0  0.14247694911E+02  0.22660083395E+02  0.11849991322E+02  0.95727171574E+02  0.91141609012E+02 0.  0.
         11    1    3    3    0    0  0.24306836001E+02  0.25718683120E+02  0.47117123753E+02  0.58926193571E+02  0.51100000000E-03 0. -1.
         22    1    1    0    0    0 -0.14247694911E+02 -0.22660083395E+02 -0.11849991322E+02  0.29272828426E+02  0.00000000000E+00 0. -1.
</event>
<event>
 5    1  0.1103865E-009  0.9118800E+02  0.7818608E-02  0.1130116E+00
         25   -1    0    0    0    0  0.00000000000E+00  0.00000000000E+00  0.99999998245E-14  0.12500000000E+03  0.12500000000E+03 0.  0.
        -11    1    3    3    0    0 -0.40773894175E+02  0.15562280433E+02 -0.17247103631E+02  0.46927152081E+02  0.51100000000E-03 0.  1.
         23    2    1    0    0    0  0.37778370447E+01  0.27695499096E+02  0.20528848593E+01  0.96972744352E+02  0.92834185988E+02 0.  0.
         11    1    3    3    0    0  0.44551731220E+02  0.12133218663E+02  0.19299988491E+02  0.50045592271E+02  0.51100000000E-03 0. -1.
         22    1    1    0    0    0 -0.37778370447E+01 -0.27695499096E+02 -0.20528848593E+01  0.28027255648E+02  0.00000000000E+00 0. -1.
</event>
<event>
 5    1  0.1103865E-009  0.9118800E+02  0.7818608E-02  0.1130116E+00
         25   -1    0    0    0    0  0.00000000000E+00  0.00000000000E+00  0.99999998245E-14  0.12500000000E+03  0.12500000000E+03 0.  0.
        -11    1    3    3    0    0  0.33645642468E+02 -0.39651254828E+02  0.21657816440E+02  0.56332160262E+02  0.51100000000E-03 0.  1.
         23    2    1    0    0    0  0.23555010374E+02 -0.13752275168E+02 -0.75972077011E+01  0.96686025520E+02  0.92447316780E+02 0.  0.
         11    1    3    3    0    0 -0.10090632094E+02  0.25898979660E+02 -0.29255024141E+02  0.40353865258E+02  0.51100000000E-03 0. -1.
         22    1    1    0    0    0 -0.23555010374E+02  0.13752275168E+02  0.75972077011E+01  0.28313974480E+02  0.00000000000E+00 0.  1.
</event>
<event>
 5    1  0.1103865E-009  0.9118800E+02  0.7818608E-02  0.1130116E+00
         25   -1    0    0    0    0  0.00000000000E+00  0.00000000000E+00  0.99999998245E-14  0.12500000000E+03  0.12500000000E+03 0.  0.
        -11    1    3    3    0    0  0.38727286436E+02 -0.12434800044E+02 -0.42025515939E+02  0.58485647445E+02  0.51100000000E-03 0. -1.
         23    2    1    0    0    0  0.25717695321E+02  0.68342149992E+01 -0.30779611952E+02  0.84312276309E+02  0.73844898790E+02 0.  0.
         11    1    3    3    0    0 -0.13009591116E+02  0.19269015043E+02  0.11245903987E+02  0.25826628864E+02  0.51100000000E-03 0.  1.
         22    1    1    0    0    0 -0.25717695321E+02 -0.68342149992E+01  0.30779611952E+02  0.40687723691E+02  0.00000000000E+00 0. -1.
</event>
<event>
 5    1  0.1103865E-009  0.9118800E+02  0.7818608E-02  0.1130116E+00
         25   -1    0    0    0    0  0.00000000000E+00  0.00000000000E+00  0.99999998245E-14  0.12500000000E+03  0.12500000000E+03 0.  0.
        -11    1    3    3    0    0 -0.33536870669E+02  0.49286702181E+01 -0.14278130109E+01  0.33927159248E+02  0.51100000000E-03 0. -1.
         23    2    1    0    0    0  0.21833636534E+02 -0.14641127403E+02 -0.15722389148E+02  0.94368907684E+02  0.89259324001E+02 0.  0.
         11    1    3    3    0    0  0.55370507203E+02 -0.19569797621E+02 -0.14294576137E+02  0.60441748436E+02  0.51100000000E-03 0.  1.
         22    1    1    0    0    0 -0.21833636534E+02  0.14641127403E+02  0.15722389148E+02  0.30631092316E+02  0.00000000000E+00 0.  1.
</event>
<event>
 5    1  0.1103865E-009  0.9118800E+02  0.7818608E-02  0.1130116E+00
         25   -1    0    0    0    0  0.00000000000E+00  0.00000000000E+00  0.99999998245E-14  0.12500000000E+03  0.12500000000E+03 0.  0.
        -11    1    3    3    0    0 -0.23215419884E+02  0.24744471379E+02 -0.27599755307E+02  0.43737753458E+02  0.51100000000E-03 0.  1.
         23    2    1    0    0    0 -0.22454529538E+01  0.21828021191E+02  0.19669269019E+02  0.95531632013E+02  0.90873032321E+02 0.  0.
         11    1    3    3    0    0  0.20969966930E+02 -0.29164501877E+01  0.47269024326E+02  0.51793878555E+02  0.51100000000E-03 0. -1.
         22    1    1    0    0    0  0.22454529538E+01 -0.21828021191E+02 -0.19669269019E+02  0.29468367987E+02  0.00000000000E+00 0. -1.
</event>
<event>
 5    1  0.1103865E-009  0.9118800E+02  0.7818608E-02  0.1130116E+00
         25   -1    0    0    0    0  0.00000000000E+00  0.00000000000E+00  0.99999998245E-14  0.12500000000E+03  0.12500000000E+03 0.  0.
        -11    1    3    3    0    0 -0.28903976188E+02 -0.81645537716E+01 -0.19544136638E+02  0.35833965103E+02  0.51100000000E-03 0.  1.
         23    2    1    0    0    0  0.27903116096E+02 -0.11266346898E+02 -0.75304703621E+01  0.93980289424E+02  0.88713428274E+02 0.  0.
         11    1    3    3    0    0  0.56807092285E+02 -0.31017931265E+01  0.12013666276E+02  0.58146324322E+02  0.51100000000E-03 0. -1.
         22    1    1    0    0    0 -0.27903116096E+02  0.11266346898E+02  0.75304703621E+01  0.31019710576E+02  0.00000000000E+00 0. -1.
</event>
<event>
 5    1  0.1103865E-009  0.9118800E+02  0.7818608E-02  0.1130116E+00
         25   -1    0    0    0    0  0.00000000000E+00  0.00000000000E+00  0.99999998245E-14  0.12500000000E+03  0.12500000000E+03 0.  0.
        -11    1    3    3    0    0  0.48543089917E+02  0.36048994823E+02  0.15114103560E+02  0.62324936688E+02  0.51100000000E-03 0. -1.
         23    2    1    0    0    0  0.21156481299E+02  0.19701810448E+02  0.63553138401E+01  0.95400201860E+02  0.90692063958E+02 0.  0.
         11    1    3    3    0    0 -0.27386608618E+02 -0.16347184375E+02 -0.87587897195E+01  0.33075265172E+02  0.51100000000E-03 0.  1.
         22    1    1    0    0    0 -0.21156481299E+02 -0.19701810448E+02 -0.63553138401E+01  0.29599798140E+02  0.00000000000E+00 0. -1.
</event>
<event>
 5    1  0.1103865E-009  0.9118800E+02  0.7818608E-02  0.1130116E+00
         25   -1    0    0    0    0  0.00000000000E+00  0.00000000000E+00  0.99999998245E-14  0.12500000000E+03  0.12500000000E+03 0.  0.
        -11    1    3    3    0    0  0.15388298508E+02  0.51647070319E+01 -0.37520041699E+02  0.40880648956E+02  0.51100000000E-03 0. -1.
         23    2    1    0    0    0  0.23437392431E+02  0.15923273515E+02  0.13480828710E+02  0.93621747243E+02  0.88206784380E+02 0.  0.
         11    1    3    3    0    0  0.80490939234E+01  0.10758566483E+02  0.51000870409E+02  0.52741098287E+02  0.51100000000E-03 0.  1.
         22    1    1    0    0    0 -0.23437392431E+02 -0.15923273515E+02 -0.13480828710E+02  0.31378252757E+02  0.00000000000E+00 0.  1.
</event>
<event>
 5    1  0.1103865E-009  0.9118800E+02  0.7818608E-02  0.1130116E+00
         25   -1    0    0    0    0  0.00000000000E+00  0.00000000000E+00  0.99999998245E-14  0.12500000000E+03  0.12500000000E+03 0.  0.
        -11    1    3    3    0    0 -0.21932912682E+02 -0.26711902818E+02 -0.23240754847E+02  0.41649863109E+02  0.51100000000E-03 0.  1.
         23    2    1    0    0    0  0.71896086459E+01 -0.16007109959E+02  0.22218040486E+02  0.96688176237E+02  0.92450224766E+02 0.  0.
         11    1    3    3    0    0  0.29122521328E+02  0.10704792859E+02  0.45458795333E+02  0.55038313129E+02  0.51100000000E-03 0. -1.
         22    1    1    0    0    0 -0.71896086459E+01  0.16007109959E+02 -0.22218040486E+02  0.28311823763E+02  0.00000000000E+00 0. -1.
</event>
<event>
 5    1  0.1103865E-009  0.9118800E+02  0.7818608E-02  0.1130116E+00
         25   -1    0    0    0    0  0.00000000000E+00  0.00000000000E+00  0.99999998245E-14  0.12500000000E+03  0.12500000000E+03 0.  0.
        -11    1    3    3    0    0 -0.28545244541E+02 -0.11617208834E+02 -0.12887429183E+00  0.30818941186E+02  0.51100000000E-03 0. -1.
         23    2    1    0    0    0  0.26925614477E+02 -0.14986873441E+02  0.18046915889E+02  0.89288849590E+02  0.81836497955E+02 0.  0.
         11    1    3    3    0    0  0.55470859018E+02 -0.33696646070E+01  0.18175790181E+02  0.58469908404E+02  0.51100000000E-03 0.  1.
         22    1    1    0    0    0 -0.26925614477E+02  0.14986873441E+02 -0.18046915889E+02  0.35711150410E+02  0.00000000000E+00 0.  1.
</event>
<event>
 5    1  0.1103865E-009  0.9118800E+02  0.7818608E-02  0.1130116E+00
         25   -1    0    0    0    0  0.00000000000E+00  0.00000000000E+00  0.99999998245E-14  0.12500000000E+03  0.12500000000E+03 0.  0.
        -11    1    3    3    0    0  0.38548656427E+02  0.10834640826E+02  0.47940846793E+01  0.40328297786E+02  0.51100000000E-03 0.  1.
         23    2    1    0    0    0 -0.47478154778E+01  0.83506536355E+00 -0.28652188133E+02  0.95945104186E+02  0.91440013377E+02 0.  0.
         11    1    3    3    0    0 -0.43296471904E+02 -0.99995754629E+01 -0.33446272812E+02  0.55616806400E+02  0.51100000000E-03 0. -1.
         22    1    1    0    0    0  0.47478154778E+01 -0.83506536355E+00  0.28652188133E+02  0.29054895814E+02  0.00000000000E+00 0. -1.
</event>
<event>
 5    1  0.1103865E-009  0.9118800E+02  0.7818608E-02  0.1130116E+00
         25   -1    0    0    0    0  0.00000000000E+00  0.00000000000E+00  0.99999998245E-14  0.12500000000E+03  0.12500000000E+03 0.  0.
        -11    1    3    3    0    0 -0.15173784084E+02 -0.35804357840E+02 -0.16729929329E+02  0.42333040281E+02  0.51100000000E-03 0. -1.
         23    2    1    0    0    0  0.26190175827E+02 -0.79685994376E+00 -0.10065854958E+02  0.96930768951E+02  0.92777649452E+02 0.  0.
         11    1    3    3    0    0  0.41363959911E+02  0.35007497897E+02  0.66640743709E+01  0.54597728671E+02  0.51100000000E-03 0.  1.
         22    1    1    0    0    0 -0.26190175827E+02  0.79685994376E+00  0.10065854958E+02  0.28069231049E+02  0.00000000000E+00 0.  1.
</event>
<event>
 5    1  0.1103865E-009  0.9118800E+02  0.7818608E-02  0.1130116E+00
         25   -1    0    0    0    0  0.00000000000E+00  0.00000000000E+00  0.99999998245E-14  0.12500000000E+03  0.12500000000E+03 0.  0.
        -11    1    3    3    0    0  0.57666777564E+01 -0.53343504167E+02 -0.13443086361E+02  0.55312752420E+02  0.51100000000E-03 0. -1.
         23    2    1    0    0    0  0.21279944408E+02 -0.18635702450E+02  0.26375043215E+01  0.96590813654E+02  0.92318489012E+02 0.  0.
         11    1    3    3    0    0  0.15513266652E+02  0.34707801717E+02  0.16080590682E+02  0.41278061233E+02  0.51100000000E-03 0.  1.
         22    1    1    0    0    0 -0.21279944408E+02  0.18635702450E+02 -0.26375043215E+01  0.28409186346E+02  0.00000000000E+00 0. -1.
</event>
<event>
 5    1  0.1103865E-009  0.9118800E+02  0.7818608E-02  0.1130116E+00
         25   -1    0    0    0    0  0.00000000000E+00  0.00000000000E+00  0.99999998245E-14  0.12500000000E+03  0.12500000000E+03 0.  0.
        -11    1    3    3    0    0  0.37371365012E+02 -0.39285011809E+02  0.23048416260E+02  0.58916555976E+02  0.51100000000E-03 0.  1.
         23    2    1    0    0    0  0.27343944115E+02 -0.71505957684E+01  0.99993708717E+01  0.95019844607E+02  0.90166297205E+02 0.  0.
         11    1    3    3    0    0 -0.10027420897E+02  0.32134416041E+02 -0.13049045389E+02  0.36103288631E+02  0.51100000000E-03 0. -1.
         22    1    1    0    0    0 -0.27343944115E+02  0.71505957684E+01 -0.99993708717E+01  0.29980155393E+02  0.00000000000E+00 0.  1.
</event>
<event>
 5    1  0.1103865E-009  0.9118800E+02  0.7818608E-02  0.1130116E+00
         25   -1    0    0    0    0  0.00000000000E+00  0.00000000000E+00  0.99999998245E-14  0.12500000000E+03  0.12500000000E+03 0.  0.
        -11    1    3    3    0    0  0.25212088737E+02  0.53698655024E+02 -0.17216061534E+02  0.61770443943E+02  0.51100000000E-03 0.  1.
         23    2    1    0    0    0  0.16407596303E+02  0.19300389880E+02 -0.73788169454E+01  0.98615133022E+02  0.95019909784E+02 0.  0.
         11    1    3    3    0    0 -0.88044924350E+01 -0.34398265144E+02  0.98372445882E+01  0.36844689079E+02  0.51100000000E-03 0. -1.
         22    1    1    0    0    0 -0.16407596303E+02 -0.19300389880E+02  0.73788169454E+01  0.26384866978E+02  0.00000000000E+00 0.  1.
</event>
<event>
 5    1  0.1103865E-009  0.9118800E+02  0.7818608E-02  0.1130116E+00
         25   -1    0    0    0    0  0.00000000000E+00  0.00000000000E+00  0.99999998245E-14  0.12500000000E+03  0.12500000000E+03 0.  0.
        -11    1    3    3    0    0 -0.12485791225E+02 -0.37206015656E+02 -0.42352981065E+02  0.57740432877E+02  0.51100000000E-03 0. -1.
         23    2    1    0    0    0  0.10728720398E+02 -0.13605306557E+02 -0.23390256806E+02  0.95891342846E+02  0.91366491185E+02 0.  0.
         11    1    3    3    0    0  0.23214511622E+02  0.23600709099E+02  0.18962724260E+02  0.38150909969E+02  0.51100000000E-03 0.  1.
         22    1    1    0    0    0 -0.10728720398E+02  0.13605306557E+02  0.23390256806E+02  0.29108657154E+02  0.00000000000E+00 0. -1.
</event>
<event>
 5    1  0.1103865E-009  0.9118800E+02  0.7818608E-02  0.1130116E+00
         25   -1    0    0    0    0  0.00000000000E+00  0.00000000000E+00  0.99999998245E-14  0.12500000000E+03  0.12500000000E+03 0.  0.
        -11    1    3    3    0    0  0.38527452709E+02 -0.17433420225E+02 -0.30256198131E+02  0.51997367997E+02  0.51100000000E-03 0.  1.
         23    2    1    0    0    0  0.13431566662E+02  0.16295581702E+02 -0.21348014889E+02  0.94971834793E+02  0.90099715306E+02 0.  0.
         11    1    3    3    0    0 -0.25095886047E+02  0.33729001927E+02  0.89081832423E+01  0.42974466796E+02  0.51100000000E-03 0. -1.
         22    1    1    0    0    0 -0.13431566662E+02 -0.16295581702E+02  0.21348014889E+02  0.30028165207E+02  0.00000000000E+00 0.  1.
</event>
<event>
 5    1  0.1103865E-009  0.9118800E+02  0.7818608E-02  0.1130116E+00
         25   -1    0    0    0    0  0.00000000000E+00  0.00000000000E+00  0.99999998245E-14  0.12500000000E+03  0.12500000000E+03 0.  0.
        -11    1    3    3    0    0 -0.36563806283E+02 -0.38766489230E+01  0.22010407799E+02  0.42853219115E+02  0.51100000000E-03 0. -1.
         23    2    1    0    0    0  0.17819700697E+02 -0.10219741945E+02  0.17889016017E+02  0.97760290890E+02  0.93888618706E+02 0.  0.
         11    1    3    3    0    0  0.54383506979E+02 -0.63430930221E+01 -0.41213917815E+01  0.54907071775E+02  0.51100000000E-03 0.  1.
         22    1    1    0    0    0 -0.17819700697E+02  0.10219741945E+02 -0.17889016017E+02  0.27239709110E+02  0.00000000000E+00 0.  1.
</event>
<event>
 5    1  0.1103865E-009  0.9118800E+02  0.7818608E-02  0.1130116E+00
         25   -1    0    0    0    0  0.00000000000E+00  0.00000000000E+00  0.99999998245E-14  0.12500000000E+03  0.12500000000E+03 0.  0.
        -11    1    3    3    0    0 -0.35856947517E+02  0.19914622583E+02  0.19071411147E+02  0.45233080828E+02  0.51100000000E-03 0. -1.
         23    2    1    0    0    0  0.78531805687E+01 -0.10066806563E+02  0.23326465646E+02  0.98407951584E+02  0.94746967741E+02 0.  0.
         11    1    3    3    0    0  0.43710128085E+02 -0.29981429146E+02  0.42550544985E+01  0.53174870756E+02  0.51100000000E-03 0.  1.
         22    1    1    0    0    0 -0.78531805687E+01  0.10066806563E+02 -0.23326465646E+02  0.26592048416E+02  0.00000000000E+00 0.  1.
</event>
<event>
 5    1  0.1103865E-009  0.9118800E+02  0.7818608E-02  0.1130116E+00
         25   -1    0    0    0    0  0.00000000000E+00  0.00000000000E+00  0.99999998245E-14  0.12500000000E+03  0.12500000000E+03 0.  0.
        -11    1    3    3    0    0 -0.31332278735E+02 -0.38960139584E+02 -0.13640695046E+02  0.51823476618E+02  0.51100000000E-03 0. -1.
         23    2    1    0    0    0 -0.24355996470E+02  0.64583008438E+01 -0.99023304749E+01  0.97926389921E+02  0.94109497291E+02 0.  0.
         11    1    3    3    0    0  0.69762822645E+01  0.45418440428E+02  0.37383645711E+01  0.46102913304E+02  0.51100000000E-03 0.  1.
         22    1    1    0    0    0  0.24355996470E+02 -0.64583008438E+01  0.99023304749E+01  0.27073610079E+02  0.00000000000E+00 0. -1.
</event>
<event>
 5    1  0.1103865E-009  0.9118800E+02  0.7818608E-02  0.1130116E+00
         25   -1    0    0    0    0  0.00000000000E+00  0.00000000000E+00  0.99999998245E-14  0.12500000000E+03  0.12500000000E+03 0.  0.
        -11    1    3    3    0    0 -0.50626995793E+02 -0.97759976459E+01 -0.30536528719E+01  0.51652566530E+02  0.51100000000E-03 0. -1.
         23    2    1    0    0    0 -0.14244108801E+02 -0.28869744423E+02 -0.10353683821E+01  0.92790858964E+02  0.87021346467E+02 0.  0.
         11    1    3    3    0    0  0.36382886992E+02 -0.19093746777E+02  0.20182844898E+01  0.41138292434E+02  0.51100000000E-03 0.  1.
         22    1    1    0    0    0  0.14244108801E+02  0.28869744423E+02  0.10353683821E+01  0.32209141036E+02  0.00000000000E+00 0.  1.
</event>
<event>
 5    1  0.1103865E-009  0.9118800E+02  0.7818608E-02  0.1130116E+00
         25   -1    0    0    0    0  0.00000000000E+00  0.00000000000E+00  0.99999998245E-14  0.12500000000E+03  0.12500000000E+03 0.  0.
        -11    1    3    3    0    0  0.35307992795E+02  0.66229017734E+01 -0.46991966666E+01  0.36229816901E+02  0.51100000000E-03 0.  1.
         23    2    1    0    0    0 -0.24506554254E+02  0.80162685164E+01  0.91459753475E+01  0.97641626010E+02  0.93730499318E+02 0.  0.
         11    1    3    3    0    0 -0.59814547049E+02  0.13933667430E+01  0.13845172014E+02  0.61411809108E+02  0.51100000000E-03 0. -1.
         22    1    1    0    0    0  0.24506554254E+02 -0.80162685164E+01 -0.91459753475E+01  0.27358373990E+02  0.00000000000E+00 0. -1.
</event>
<event>
 5    1  0.1103865E-009  0.9118800E+02  0.7818608E-02  0.1130116E+00
         25   -1    0    0    0    0  0.00000000000E+00  0.00000000000E+00  0.99999998245E-14  0.12500000000E+03  0.12500000000E+03 0.  0.
        -11    1    3    3    0    0 -0.11750852155E+02  0.23308408860E+02  0.55503588565E+02  0.61335249195E+02  0.51100000000E-03 0.  1.
         23    2    1    0    0    0  0.25333310815E+01  0.13765933889E+02  0.25735261388E+02  0.95704567234E+02  0.91110602065E+02 0.  0.
         11    1    3    3    0    0  0.14284183237E+02 -0.95424749711E+01 -0.29768327177E+02  0.34369318039E+02  0.51100000000E-03 0. -1.
         22    1    1    0    0    0 -0.25333310815E+01 -0.13765933889E+02 -0.25735261388E+02  0.29295432766E+02  0.00000000000E+00 0.  1.
</event>
<event>
 5    1  0.1103865E-009  0.9118800E+02  0.7818608E-02  0.1130116E+00
         25   -1    0    0    0    0  0.00000000000E+00  0.00000000000E+00  0.99999998245E-14  0.12500000000E+03  0.12500000000E+03 0.  0.
        -11    1    3    3    0    0  0.38865387999E+02  0.26242552384E+02 -0.23678283865E+02  0.52534284681E+02  0.51100000000E-03 0. -1.
         23    2    1    0    0    0  0.27366036488E+02 -0.46138899902E+01  0.57050175639E+01  0.96667418768E+02  0.92422154768E+02 0.  0.
         11    1    3    3    0    0 -0.11499351511E+02 -0.30856442374E+02  0.29383301429E+02  0.44133134086E+02  0.51100000000E-03 0.  1.
         22    1    1    0    0    0 -0.27366036488E+02  0.46138899902E+01 -0.57050175639E+01  0.28332581232E+02  0.00000000000E+00 0.  1.
</event>
<event>
 5    1  0.1103865E-009  0.9118800E+02  0.7818608E-02  0.1130116E+00
         25   -1    0    0    0    0  0.00000000000E+00  0.00000000000E+00  0.99999998245E-14  0.12500000000E+03  0.12500000000E+03 0.  0.
        -11    1    3    3    0    0  0.11987093339E+02  0.36788628825E+02  0.24696603864E+02  0.45902242432E+02  0.51100000000E-03 0. -1.
         23    2    1    0    0    0  0.24099233502E+02 -0.95366496174E+01  0.16838299740E+01  0.99027783601E+02  0.95561215460E+02 0.  0.
         11    1    3    3    0    0  0.12112140163E+02 -0.46325278443E+02 -0.23012773890E+02  0.53125541169E+02  0.51100000000E-03 0.  1.
         22    1    1    0    0    0 -0.24099233502E+02  0.95366496174E+01 -0.16838299740E+01  0.25972216399E+02  0.00000000000E+00 0.  1.
</event>
<event>
 5    1  0.1103865E-009  0.9118800E+02  0.7818608E-02  0.1130116E+00
         25   -1    0    0    0    0  0.00000000000E+00  0.00000000000E+00  0.99999998245E-14  0.12500000000E+03  0.12500000000E+03 0.  0.
        -11    1    3    3    0    0 -0.58771958443E+02  0.18894638421E+02  0.92368786232E+01  0.62421714068E+02  0.51100000000E-03 0.  1.
         23    2    1    0    0    0 -0.26271758839E+02  0.99997748697E+01  0.58529116660E+01  0.96286634037E+02  0.91905704444E+02 0.  0.
         11    1    3    3    0    0  0.32500199604E+02 -0.88948635517E+01 -0.33839669572E+01  0.33864919969E+02  0.51100000000E-03 0. -1.
         22    1    1    0    0    0  0.26271758839E+02 -0.99997748697E+01 -0.58529116660E+01  0.28713365963E+02  0.00000000000E+00 0.  1.
</event>
<event>
 5    1  0.1103865E-009  0.9118800E+02  0.7818608E-02  0.1130116E+00
         25   -1    0    0    0    0  0.00000000000E+00  0.00000000000E+00  0.99999998245E-14  0.12500000000E+03  0.12500000000E+03 0.  0.
        -11    1    3    3    0    0  0.18908539297E+02 -0.27203016289E+02 -0.24400308572E+02  0.41145011997E+02  0.51100000000E-03 0.  1.
         23    2    1    0    0    0  0.15431824375E+02 -0.11280921582E+02  0.25209238568E+02  0.93362899873E+02  0.87839199496E+02 0.  0.
         11    1    3    3    0    0 -0.34767149222E+01  0.15922094707E+02  0.49609547140E+02  0.52217887876E+02  0.51100000000E-03 0. -1.
         22    1    1    0    0    0 -0.15431824375E+02  0.11280921582E+02 -0.25209238568E+02  0.31637100127E+02  0.00000000000E+00 0. -1.
</event>
<event>
 5    1  0.1103865E-009  0.9118800E+02  0.7818608E-02  0.1130116E+00
         25   -1    0    0    0    0  0.00000000000E+00  0.00000000000E+00  0.99999998245E-14  0.12500000000E+03  0.12500000000E+03 0.  0.
        -11    1    3    3    0    0 -0.44851156117E+02 -0.35058227574E+02  0.55260815327E+01  0.57194782131E+02  0.51100000000E-03 0.  1.
         23    2    1    0    0    0 -0.11614104143E+02 -0.21414349118E+02  0.17431817815E+02  0.95044532460E+02  0.90200516157E+02 0.  0.
         11    1    3    3    0    0  0.33237051974E+02  0.13643878455E+02  0.11905736283E+02  0.37849750328E+02  0.51100000000E-03 0. -1.
         22    1    1    0    0    0  0.11614104143E+02  0.21414349118E+02 -0.17431817815E+02  0.29955467540E+02  0.00000000000E+00 0.  1.
</event>
<event>
 5    1  0.1103865E-009  0.9118800E+02  0.7818608E-02  0.1130116E+00
         25   -1    0    0    0    0  0.00000000000E+00  0.00000000000E+00  0.99999998245E-14  0.12500000000E+03  0.12500000000E+03 0.  0.
        -11    1    3    3    0    0  0.15562031420E+02 -0.13593204152E+01 -0.36709850164E+02  0.39895333978E+02  0.51100000000E-03 0. -1.
         23    2    1    0    0    0 -0.12221934828E+02  0.22591524929E+02  0.83432390251E+01  0.97993291075E+02  0.94198316167E+02 0.  0.
         11    1    3    3    0    0 -0.27783966248E+02  0.23950845344E+02  0.45053089189E+02  0.58097957097E+02  0.51100000000E-03 0.  1.
         22    1    1    0    0    0  0.12221934828E+02 -0.22591524929E+02 -0.83432390251E+01  0.27006708925E+02  0.00000000000E+00 0.  1.
</event>
<event>
 5    1  0.1103865E-009  0.9118800E+02  0.7818608E-02  0.1130116E+00
         25   -1    0    0    0    0  0.00000000000E+00  0.00000000000E+00  0.99999998245E-14  0.12500000000E+03  0.12500000000E+03 0.  0.
        -11    1    3    3    0    0  0.43680437864E+02  0.40570152152E+02  0.69051986846E+01  0.60013329076E+02  0.51100000000E-03 0. -1.
         23    2    1    0    0    0  0.21642643025E+02  0.26191256017E+02 -0.77755171989E+01  0.90145379696E+02  0.83134499000E+02 0.  0.
         11    1    3    3    0    0 -0.22037794840E+02 -0.14378896135E+02 -0.14680715884E+02  0.30132050620E+02  0.51100000000E-03 0.  1.
         22    1    1    0    0    0 -0.21642643025E+02 -0.26191256017E+02  0.77755171989E+01  0.34854620304E+02  0.00000000000E+00 0. -1.
</event>
<event>
 5    1  0.1103865E-009  0.9118800E+02  0.7818608E-02  0.1130116E+00
         25   -1    0    0    0    0  0.00000000000E+00  0.00000000000E+00  0.99999998245E-14  0.12500000000E+03  0.12500000000E+03 0.  0.
        -11    1    3    3    0    0  0.32067149621E+02  0.91149469227E+01  0.97251241872E+01  0.34726969101E+02  0.51100000000E-03 0. -1.
         23    2    1    0    0    0 -0.26644135119E+02 -0.88442479248E+01 -0.22960836220E+00  0.96925396217E+02  0.92770410445E+02 0.  0.
         11    1    3    3    0    0 -0.58711284739E+02 -0.17959194848E+02 -0.99547325494E+01  0.62198427116E+02  0.51100000000E-03 0.  1.
         22    1    1    0    0    0  0.26644135119E+02  0.88442479248E+01  0.22960836220E+00  0.28074603783E+02  0.00000000000E+00 0.  1.
</event>
<event>
 5    1  0.1103865E-009  0.9118800E+02  0.7818608E-02  0.1130116E+00
         25   -1    0    0    0    0  0.00000000000E+00  0.00000000000E+00  0.99999998245E-14  0.12500000000E+03  0.12500000000E+03 0.  0.
        -11    1    3    3    0    0 -0.31277508844E+02  0.43453728091E+01 -0.49336353099E+02  0.58576792006E+02  0.51100000000E-03 0. -1.
         23    2    1    0    0    0 -0.10185805165E+02  0.17030343913E+02 -0.21084978756E+02  0.96045560448E+02  0.91577235774E+02 0.  0.
         11    1    3    3    0    0  0.21091703679E+02  0.12684971104E+02  0.28251374343E+02  0.37468768442E+02  0.51100000000E-03 0.  1.
         22    1    1    0    0    0  0.10185805165E+02 -0.17030343913E+02  0.21084978756E+02  0.28954439552E+02  0.00000000000E+00 0. -1.
</event>
<event>
 5    1  0.1103865E-009  0.9118800E+02  0.7818608E-02  0.1130116E+00
         25   -1    0    0    0    0  0.00000000000E+00  0.00000000000E+00  0.99999998245E-14  0.12500000000E+03  0.12500000000E+03 0.  0.
        -11    1    3    3    0    0 -0.19034764905E+02 -0.41088085724E+02  0.20559167648E+02  0.49731604017E+02  0.51100000000E-03 0.  1.
         23    2    1    0    0    0  0.53934130180E+01 -0.35180852207E+01  0.28966114460E+02  0.95326752545E+02  0.90590772910E+02 0.  0.
         11    1    3    3    0    0  0.24428177923E+02  0.37570000503E+02  0.84069468112E+01  0.45595148529E+02  0.51100000000E-03 0. -1.
         22    1    1    0    0    0 -0.53934130180E+01  0.35180852207E+01 -0.28966114460E+02  0.29673247455E+02  0.00000000000E+00 0.  1.
</event>
<event>
 5    1  0.1103865E-009  0.9118800E+02  0.7818608E-02  0.1130116E+00
         25   -1    0    0    0    0  0.00000000000E+00  0.00000000000E+00  0.99999998245E-14  0.12500000000E+03  0.12500000000E+03 0.  0.
        -11    1    3    3    0    0  0.47278659513E+01  0.56566573553E+02 -0.16532607116E+02  0.59122390499E+02  0.51100000000E-03 0.  1.
         23    2    1    0    0    0 -0.69239156923E+01  0.27506375567E+02  0.36929945720E+01  0.96396162596E+02  0.92054552571E+02 0.  0.
         11    1    3    3    0    0 -0.11651781644E+02 -0.29060197986E+02  0.20225601688E+02  0.37273772097E+02  0.51100000000E-03 0. -1.
         22    1    1    0    0    0  0.69239156923E+01 -0.27506375567E+02 -0.36929945720E+01  0.28603837404E+02  0.00000000000E+00 0.  1.
</event>
<event>
 5    1  0.1103865E-009  0.9118800E+02  0.7818608E-02  0.1130116E+00
         25   -1    0    0    0    0  0.00000000000E+00  0.00000000000E+00  0.99999998245E-14  0.12500000000E+03  0.12500000000E+03 0.  0.
        -11    1    3    3    0    0 -0.29743114172E+02  0.51578528506E+01  0.42774712424E+01  0.30488572403E+02  0.51100000000E-03 0.  1.
         23    2    1    0    0    0  0.19964220209E+02 -0.28195399747E+02  0.10330925293E+01  0.90436754556E+02  0.83571458280E+02 0.  0.
         11    1    3    3    0    0  0.49707334381E+02 -0.33353252597E+02 -0.32443787131E+01  0.59948182154E+02  0.51100000000E-03 0. -1.
         22    1    1    0    0    0 -0.19964220209E+02  0.28195399747E+02 -0.10330925293E+01  0.34563245444E+02  0.00000000000E+00 0. -1.
</event>
<event>
 5    1  0.1103865E-009  0.9118800E+02  0.7818608E-02  0.1130116E+00
         25   -1    0    0    0    0  0.00000000000E+00  0.00000000000E+00  0.99999998245E-14  0.12500000000E+03  0.12500000000E+03 0.  0.
        -11    1    3    3    0    0  0.36452388069E+02  0.34968768980E+02 -0.24868491439E+02  0.56303048466E+02  0.51100000000E-03 0. -1.
         23    2    1    0    0    0  0.16776192589E+02  0.17770387677E+02  0.88903204854E+01  0.98994902148E+02  0.95518194795E+02 0.  0.
         11    1    3    3    0    0 -0.19676195480E+02 -0.17198381302E+02  0.33758811924E+02  0.42691853682E+02  0.51100000000E-03 0.  1.
         22    1    1    0    0    0 -0.16776192589E+02 -0.17770387677E+02 -0.88903204854E+01  0.26005097852E+02  0.00000000000E+00 0. -1.
</event>
<event>
 5    1  0.1103865E-009  0.9118800E+02  0.7818608E-02  0.1130116E+00
         25   -1    0    0    0    0  0.00000000000E+00  0.00000000000E+00  0.99999998245E-14  0.12500000000E+03  0.12500000000E+03 0.  0.
        -11    1    3    3    0    0 -0.16629139547E+02 -0.35491973639E+02 -0.10361307407E+02  0.40540907320E+02  0.51100000000E-03 0.  1.
         23    2    1    0    0    0  0.21990934618E+02 -0.70612802417E+01  0.17517162328E+02  0.96011832413E+02  0.91531186506E+02 0.  0.
         11    1    3    3    0    0  0.38620074165E+02  0.28430693398E+02  0.27878469736E+02  0.55470925093E+02  0.51100000000E-03 0. -1.
         22    1    1    0    0    0 -0.21990934618E+02  0.70612802417E+01 -0.17517162328E+02  0.28988167587E+02  0.00000000000E+00 0. -1.
</event>
<event>
 5    1  0.1103865E-009  0.9118800E+02  0.7818608E-02  0.1130116E+00
         25   -1    0    0    0    0  0.00000000000E+00  0.00000000000E+00  0.99999998245E-14  0.12500000000E+03  0.12500000000E+03 0.  0.
        -11    1    3    3    0    0 -0.29444795255E+02  0.28678049022E+02  0.38404035928E+01  0.41281656499E+02  0.51100000000E-03 0. -1.
         23    2    1    0    0    0  0.15964366225E+02  0.11870178832E+01  0.22358436983E+02  0.97501459953E+02  0.93543385593E+02 0.  0.
         11    1    3    3    0    0  0.45409161480E+02 -0.27491031139E+02  0.18518033390E+02  0.56219803453E+02  0.51100000000E-03 0.  1.
         22    1    1    0    0    0 -0.15964366225E+02 -0.11870178832E+01 -0.22358436983E+02  0.27498540047E+02  0.00000000000E+00 0.  1.
</event>
<event>
 5    1  0.1103865E-009  0.9118800E+02  0.7818608E-02  0.1130116E+00
         25   -1    0    0    0    0  0.00000000000E+00  0.00000000000E+00  0.99999998245E-14  0.12500000000E+03  0.12500000000E+03 0.  0.
        -11    1    3    3    0    0 -0.34216665674E+02 -0.31552941487E+02 -0.37174971150E+01  0.46692484527E+02  0.51100000000E-03 0.  1.
         23    2    1    0    0    0 -0.20036430315E+02  0.17841296303E+02 -0.10612507942E+01  0.98150481442E+02  0.94406675402E+02 0.  0.
         11    1    3    3    0    0  0.14180235358E+02  0.49394237790E+02  0.26562463208E+01  0.51457996914E+02  0.51100000000E-03 0. -1.
         22    1    1    0    0    0  0.20036430315E+02 -0.17841296303E+02  0.10612507942E+01  0.26849518558E+02  0.00000000000E+00 0. -1.
</event>
<event>
 5    1  0.1103865E-009  0.9118800E+02  0.7818608E-02  0.1130116E+00
         25   -1    0    0    0    0  0.00000000000E+00  0.00000000000E+00  0.99999998245E-14  0.12500000000E+03  0.12500000000E+03 0.  0.
        -11    1    3    3    0    0  0.29422935826E+02  0.80580994433E+00 -0.50303642103E+02  0.58282200468E+02  0.51100000000E-03 0. -1.
         23    2    1    0    0    0  0.50720227640E+01 -0.13372569707E+02 -0.25218122727E+02  0.96008540062E+02  0.91526690180E+02 0.  0.
         11    1    3    3    0    0 -0.24350913062E+02 -0.14178379651E+02  0.25085519376E+02  0.37726339594E+02  0.51100000000E-03 0.  1.
         22    1    1    0    0    0 -0.50720227640E+01  0.13372569707E+02  0.25218122727E+02  0.28991459938E+02  0.00000000000E+00 0. -1.
</event>
<event>
 5    1  0.1103865E-009  0.9118800E+02  0.7818608E-02  0.1130116E+00
         25   -1    0    0    0    0  0.00000000000E+00  0.00000000000E+00  0.99999998245E-14  0.12500000000E+03  0.12500000000E+03 0.  0.
        -11    1    3    3    0    0  0.81392583990E+00 -0.30139366525E+02 -0.48117813205E+02  0.56783517306E+02  0.51100000000E-03 0. -1.
         23    2    1    0    0    0  0.13980894453E+02  0.13837024382E+01 -0.16464139685E+02  0.10335634186E+03  0.10106475877E+03 0.  0.
         11    1    3    3    0    0  0.13166968613E+02  0.31523068963E+02  0.31653673520E+02  0.46572824553E+02  0.51100000000E-03 0.  1.
         22    1    1    0    0    0 -0.13980894453E+02 -0.13837024382E+01  0.16464139685E+02  0.21643658141E+02  0.00000000000E+00 0. -1.
</event>
<event>
 5    1  0.1103865E-009  0.9118800E+02  0.7818608E-02  0.1130116E+00
         25   -1    0    0    0    0  0.00000000000E+00  0.00000000000E+00  0.99999998245E-14  0.12500000000E+03  0.12500000000E+03 0.  0.
        -11    1    3    3    0    0 -0.23736512886E+02 -0.14691745557E+02  0.15546594447E+02  0.31952559063E+02  0.51100000000E-03 0. -1.
         23    2    1    0    0    0 -0.44304346960E+01  0.43089135648E+01 -0.35085042829E+02  0.89374788169E+02  0.81967658514E+02 0.  0.
         11    1    3    3    0    0  0.19306078190E+02  0.19000659122E+02 -0.50631637275E+02  0.57422229107E+02  0.51100000000E-03 0.  1.
         22    1    1    0    0    0  0.44304346960E+01 -0.43089135648E+01  0.35085042829E+02  0.35625211831E+02  0.00000000000E+00 0.  1.
</event>
<event>
 5    1  0.1103865E-009  0.9118800E+02  0.7818608E-02  0.1130116E+00
         25   -1    0    0    0    0  0.00000000000E+00  0.00000000000E+00  0.99999998245E-14  0.12500000000E+03  0.12500000000E+03 0.  0.
        -11    1    3    3    0    0 -0.78196770189E+00 -0.13700511329E+02 -0.39078169975E+02  0.41417615251E+02  0.51100000000E-03 0. -1.
         23    2    1    0    0    0  0.49016406144E+01 -0.25846386215E+02  0.13325953416E+02  0.95510293396E+02  0.90843675339E+02 0.  0.
         11    1    3    3    0    0  0.56836083163E+01 -0.12145874886E+02  0.52404123392E+02  0.54092678146E+02  0.51100000000E-03 0.  1.
         22    1    1    0    0    0 -0.49016406144E+01  0.25846386215E+02 -0.13325953416E+02  0.29489706604E+02  0.00000000000E+00 0.  1.
</event>
<event>
 5    1  0.1103865E-009  0.9118800E+02  0.7818608E-02  0.1130116E+00
         25   -1    0    0    0    0  0.00000000000E+00  0.00000000000E+00  0.99999998245E-14  0.12500000000E+03  0.12500000000E+03 0.  0.
        -11    1    3    3    0    0 -0.11225679776E+02 -0.53554479197E+01 -0.20264020486E+02  0.23776611099E+02  0.51100000000E-03 0.  1.
         23    2    1    0    0    0  0.23885647273E+02 -0.18244956199E+02  0.27375916759E+02  0.84344823321E+02  0.73899971789E+02 0.  0.
         11    1    3    3    0    0  0.35111327049E+02 -0.12889508280E+02  0.47639937245E+02  0.60568212222E+02  0.51100000000E-03 0. -1.
         22    1    1    0    0    0 -0.23885647273E+02  0.18244956199E+02 -0.27375916759E+02  0.40655176679E+02  0.00000000000E+00 0. -1.
</event>
<event>
 5    1  0.1103865E-009  0.9118800E+02  0.7818608E-02  0.1130116E+00
         25   -1    0    0    0    0  0.00000000000E+00  0.00000000000E+00  0.99999998245E-14  0.12500000000E+03  0.12500000000E+03 0.  0.
        -11    1    3    3    0    0  0.18378459530E-01 -0.19452515325E+02 -0.30109816860E+02  0.35846921232E+02  0.51100000000E-03 0. -1.
         23    2    1    0    0    0  0.48524029913E+00 -0.40083602023E+01  0.28375417191E+02  0.96338759440E+02  0.91976572343E+02 0.  0.
         11    1    3    3    0    0  0.46686183960E+00  0.15444155123E+02  0.58485234051E+02  0.60491838208E+02  0.51100000000E-03 0.  1.
         22    1    1    0    0    0 -0.48524029913E+00  0.40083602023E+01 -0.28375417191E+02  0.28661240560E+02  0.00000000000E+00 0.  1.
</event>
<event>
 5    1  0.1103865E-009  0.9118800E+02  0.7818608E-02  0.1130116E+00
         25   -1    0    0    0    0  0.00000000000E+00  0.00000000000E+00  0.99999998245E-14  0.12500000000E+03  0.12500000000E+03 0.  0.
        -11    1    3    3    0    0  0.18754476953E+02  0.27401293596E+02 -0.42982163434E+01  0.33481875104E+02  0.51100000000E-03 0. -1.
         23    2    1    0    0    0 -0.22791748474E+02 -0.18313597657E+02  0.26380953330E+01  0.95643378862E+02  0.91026615424E+02 0.  0.
         11    1    3    3    0    0 -0.41546225427E+02 -0.45714891253E+02  0.69363116764E+01  0.62161503758E+02  0.51100000000E-03 0.  1.
         22    1    1    0    0    0  0.22791748474E+02  0.18313597657E+02 -0.26380953330E+01  0.29356621138E+02  0.00000000000E+00 0.  1.
</event>
<event>
 5    1  0.1103865E-009  0.9118800E+02  0.7818608E-02  0.1130116E+00
         25   -1    0    0    0    0  0.00000000000E+00  0.00000000000E+00  0.99999998245E-14  0.12500000000E+03  0.12500000000E+03 0.  0.
        -11    1    3    3    0    0 -0.44279613316E+01  0.20932335641E+02 -0.36848736246E+02  0.42609844873E+02  0.51100000000E-03 0. -1.
         23    2    1    0    0    0  0.15834640833E+02  0.20028483547E+02  0.12943488945E+02  0.96374663154E+02  0.92025354052E+02 0.  0.
         11    1    3    3    0    0  0.20262602164E+02 -0.90385209376E+00  0.49792225191E+02  0.53764818281E+02  0.51100000000E-03 0.  1.
         22    1    1    0    0    0 -0.15834640833E+02 -0.20028483547E+02 -0.12943488945E+02  0.28625336846E+02  0.00000000000E+00 0.  1.
</event>
<event>
 5    1  0.1103865E-009  0.9118800E+02  0.7818608E-02  0.1130116E+00
         25   -1    0    0    0    0  0.00000000000E+00  0.00000000000E+00  0.99999998245E-14  0.12500000000E+03  0.12500000000E+03 0.  0.
        -11    1    3    3    0    0  0.12606258039E+02  0.30001105135E+02  0.22300329234E+01  0.32618355234E+02  0.51100000000E-03 0.  1.
         23    2    1    0    0    0  0.69893396387E+00 -0.28185135425E+02 -0.13031901464E+02  0.93940044698E+02  0.88656704058E+02 0.  0.
         11    1    3    3    0    0 -0.11907324075E+02 -0.58186240560E+02 -0.15261934388E+02  0.61321689464E+02  0.51100000000E-03 0. -1.
         22    1    1    0    0    0 -0.69893396387E+00  0.28185135425E+02  0.13031901464E+02  0.31059955302E+02  0.00000000000E+00 0. -1.
</event>
<event>
 5    1  0.1103865E-009  0.9118800E+02  0.7818608E-02  0.1130116E+00
         25   -1    0    0    0    0  0.00000000000E+00  0.00000000000E+00  0.99999998245E-14  0.12500000000E+03  0.12500000000E+03 0.  0.
        -11    1    3    3    0    0  0.17928804599E+02  0.23263413078E+02 -0.13994079784E+02  0.32534023601E+02  0.51100000000E-03 0.  1.
         23    2    1    0    0    0 -0.85158630235E+01 -0.23069693547E+02  0.17803933786E+02  0.94640310580E+02  0.89638594618E+02 0.  0.
         11    1    3    3    0    0 -0.26444667623E+02 -0.46333106625E+02  0.31798013569E+02  0.62106286980E+02  0.51100000000E-03 0. -1.
         22    1    1    0    0    0  0.85158630235E+01  0.23069693547E+02 -0.17803933786E+02  0.30359689420E+02  0.00000000000E+00 0. -1.
</event>
<event>
 5    1  0.1103865E-009  0.9118800E+02  0.7818608E-02  0.1130116E+00
         25   -1    0    0    0    0  0.00000000000E+00  0.00000000000E+00  0.99999998245E-14  0.12500000000E+03  0.12500000000E+03 0.  0.
        -11    1    3    3    0    0  0.46057950613E+01  0.25620683373E+02  0.22308766806E+02  0.34282850542E+02  0.51100000000E-03 0. -1.
         23    2    1    0    0    0 -0.43571590461E+01 -0.28286818668E+02 -0.58942979659E+01  0.95778916964E+02  0.91212549799E+02 0.  0.
         11    1    3    3    0    0 -0.89629541074E+01 -0.53907502041E+02 -0.28203064772E+02  0.61496066422E+02  0.51100000000E-03 0.  1.
         22    1    1    0    0    0  0.43571590461E+01  0.28286818668E+02  0.58942979659E+01  0.29221083036E+02  0.00000000000E+00 0.  1.
</event>
<event>
 5    1  0.1103865E-009  0.9118800E+02  0.7818608E-02  0.1130116E+00
         25   -1    0    0    0    0  0.00000000000E+00  0.00000000000E+00  0.99999998245E-14  0.12500000000E+03  0.12500000000E+03 0.  0.
        -11    1    3    3    0    0  0.33059097260E+02 -0.75206017423E+01  0.36109207443E+01  0.34095485201E+02  0.51100000000E-03 0.  1.
         23    2    1    0    0    0 -0.26094754236E+02 -0.25360640332E+01 -0.12995860792E+02  0.95738075641E+02  0.91156562629E+02 0.  0.
         11    1    3    3    0    0 -0.59153851496E+02  0.49845377092E+01 -0.16606781537E+02  0.61642590441E+02  0.51100000000E-03 0. -1.
         22    1    1    0    0    0  0.26094754236E+02  0.25360640332E+01  0.12995860792E+02  0.29261924359E+02  0.00000000000E+00 0. -1.
</event>
<event>
 5    1  0.1103865E-009  0.9118800E+02  0.7818608E-02  0.1130116E+00
         25   -1    0    0    0    0  0.00000000000E+00  0.00000000000E+00  0.99999998245E-14  0.12500000000E+03  0.12500000000E+03 0.  0.
        -11    1    3    3    0    0  0.98396800249E+01  0.72745365155E+01  0.47941300153E+02  0.49478343193E+02  0.51100000000E-03 0. -1.
         23    2    1    0    0    0  0.24307788925E+02  0.17670384363E+02  0.69772264031E+01  0.94148861054E+02  0.88950633857E+02 0.  0.
         11    1    3    3    0    0  0.14468108900E+02  0.10395847848E+02 -0.40964073749E+02  0.44670517862E+02  0.51100000000E-03 0.  1.
         22    1    1    0    0    0 -0.24307788925E+02 -0.17670384363E+02 -0.69772264031E+01  0.30851138946E+02  0.00000000000E+00 0. -1.
</event>
<event>
 5    1  0.1103865E-009  0.9118800E+02  0.7818608E-02  0.1130116E+00
         25   -1    0    0    0    0  0.00000000000E+00  0.00000000000E+00  0.99999998245E-14  0.12500000000E+03  0.12500000000E+03 0.  0.
        -11    1    3    3    0    0  0.17295680272E+02 -0.26259197840E+02  0.35645070157E+02  0.47531642661E+02  0.51100000000E-03 0.  1.
         23    2    1    0    0    0  0.50695180370E+01  0.17931676590E+02  0.23584251010E+02  0.94942356477E+02  0.90058809227E+02 0.  0.
         11    1    3    3    0    0 -0.12226162235E+02  0.44190874430E+02 -0.12060819147E+02  0.47410713817E+02  0.51100000000E-03 0. -1.
         22    1    1    0    0    0 -0.50695180370E+01 -0.17931676590E+02 -0.23584251010E+02  0.30057643523E+02  0.00000000000E+00 0.  1.
</event>
<event>
 5    1  0.1103865E-009  0.9118800E+02  0.7818608E-02  0.1130116E+00
         25   -1    0    0    0    0  0.00000000000E+00  0.00000000000E+00  0.99999998245E-14  0.12500000000E+03  0.12500000000E+03 0.  0.
        -11    1    3    3    0    0 -0.19040640930E+02  0.16442194832E+02  0.27536331306E+02  0.37298006917E+02  0.51100000000E-03 0.  1.
         23    2    1    0    0    0  0.20106914522E+02 -0.20515329649E+02  0.42237765279E+01  0.95965416305E+02  0.91467776163E+02 0.  0.
         11    1    3    3    0    0  0.39147555452E+02 -0.36957524481E+02 -0.23312554778E+02  0.58667409387E+02  0.51100000000E-03 0. -1.
         22    1    1    0    0    0 -0.20106914522E+02  0.20515329649E+02 -0.42237765279E+01  0.29034583695E+02  0.00000000000E+00 0. -1.
</event>
<event>
 5    1  0.1103865E-009  0.9118800E+02  0.7818608E-02  0.1130116E+00
         25   -1    0    0    0    0  0.00000000000E+00  0.00000000000E+00  0.99999998245E-14  0.12500000000E+03  0.12500000000E+03 0.  0.
        -11    1    3    3    0    0  0.16589675048E+02 -0.30967960042E+02 -0.18583222013E+02  0.39743779488E+02  0.51100000000E-03 0. -1.
         23    2    1    0    0    0  0.19324634223E+02  0.22474517865E+02 -0.51618679777E+01  0.94913618992E+02  0.90018913280E+02 0.  0.
         11    1    3    3    0    0  0.27349591743E+01  0.53442477907E+02  0.13421354035E+02  0.55169839504E+02  0.51100000000E-03 0.  1.
         22    1    1    0    0    0 -0.19324634223E+02 -0.22474517865E+02  0.51618679777E+01  0.30086381008E+02  0.00000000000E+00 0.  1.
</event>
<event>
 5    1  0.1103865E-009  0.9118800E+02  0.7818608E-02  0.1130116E+00
         25   -1    0    0    0    0  0.00000000000E+00  0.00000000000E+00  0.99999998245E-14  0.12500000000E+03  0.12500000000E+03 0.  0.
        -11    1    3    3    0    0 -0.20272333315E+02 -0.61576642475E+01 -0.28704837342E+02  0.35677051646E+02  0.51100000000E-03 0.  1.
         23    2    1    0    0    0  0.29673673269E+02  0.36333422011E+01  0.18615078411E+01  0.95046815323E+02  0.90203679696E+02 0.  0.
         11    1    3    3    0    0  0.49946006585E+02  0.97910064486E+01  0.30566345183E+02  0.59369763678E+02  0.51100000000E-03 0. -1.
         22    1    1    0    0    0 -0.29673673269E+02 -0.36333422011E+01 -0.18615078411E+01  0.29953184677E+02  0.00000000000E+00 0. -1.
</event>
<event>
 5    1  0.1103865E-009  0.9118800E+02  0.7818608E-02  0.1130116E+00
         25   -1    0    0    0    0  0.00000000000E+00  0.00000000000E+00  0.99999998245E-14  0.12500000000E+03  0.12500000000E+03 0.  0.
        -11    1    3    3    0    0  0.63166941480E+00 -0.26527875283E+02 -0.44096502468E+02  0.51464829772E+02  0.51100000000E-03 0.  1.
         23    2    1    0    0    0 -0.39316966431E+01  0.13186438430E+02 -0.26497053697E+02  0.95143103785E+02  0.90337013158E+02 0.  0.
         11    1    3    3    0    0 -0.45633660579E+01  0.39714313713E+02  0.17599448771E+02  0.43678274013E+02  0.51100000000E-03 0. -1.
         22    1    1    0    0    0  0.39316966431E+01 -0.13186438430E+02  0.26497053697E+02  0.29856896215E+02  0.00000000000E+00 0.  1.
</event>
<event>
 5    1  0.1103865E-009  0.9118800E+02  0.7818608E-02  0.1130116E+00
         25   -1    0    0    0    0  0.00000000000E+00  0.00000000000E+00  0.99999998245E-14  0.12500000000E+03  0.12500000000E+03 0.  0.
        -11    1    3    3    0    0 -0.27569355428E+02  0.24467170982E+02 -0.46996958893E+01  0.37159103276E+02  0.51100000000E-03 0. -1.
         23    2    1    0    0    0 -0.24128053998E+01 -0.13194074683E+02 -0.32181473714E+02  0.90135225700E+02  0.83119230175E+02 0.  0.
         11    1    3    3    0    0  0.25156550028E+02 -0.37661245665E+02 -0.27481777824E+02  0.52976122423E+02  0.51100000000E-03 0.  1.
         22    1    1    0    0    0  0.24128053998E+01  0.13194074683E+02  0.32181473714E+02  0.34864774300E+02  0.00000000000E+00 0. -1.
</event>
<event>
 5    1  0.1103865E-009  0.9118800E+02  0.7818608E-02  0.1130116E+00
         25   -1    0    0    0    0  0.00000000000E+00  0.00000000000E+00  0.99999998245E-14  0.12500000000E+03  0.12500000000E+03 0.  0.
        -11    1    3    3    0    0 -0.41852708053E+02 -0.29856899067E+02  0.31593116045E+02  0.60342427652E+02  0.51100000000E-03 0. -1.
         23    2    1    0    0    0 -0.12562186006E+02 -0.80579409866E+01  0.22551421977E+02  0.97957338087E+02  0.94150594909E+02 0.  0.
         11    1    3    3    0    0  0.29290522047E+02  0.21798958080E+02 -0.90416940677E+01  0.37614910435E+02  0.51100000000E-03 0.  1.
         22    1    1    0    0    0  0.12562186006E+02  0.80579409866E+01 -0.22551421977E+02  0.27042661913E+02  0.00000000000E+00 0. -1.
</event>
<event>
 5    1  0.1103865E-009  0.9118800E+02  0.7818608E-02  0.1130116E+00
         25   -1    0    0    0    0  0.00000000000E+00  0.00000000000E+00  0.99999998245E-14  0.12500000000E+03  0.12500000000E+03 0.  0.
        -11    1    3    3    0    0 -0.36264291270E+02  0.15542969307E+02 -0.85864171527E+01  0.40378326810E+02  0.51100000000E-03 0.  1.
         23    2    1    0    0    0 -0.36372197922E+01 -0.28850344922E+02 -0.36661963407E+01  0.95691080444E+02  0.91092096863E+02 0.  0.
         11    1    3    3    0    0  0.32627071478E+02 -0.44393314229E+02  0.49202208120E+01  0.55312753634E+02  0.51100000000E-03 0. -1.
         22    1    1    0    0    0  0.36372197922E+01  0.28850344922E+02  0.36661963407E+01  0.29308919556E+02  0.00000000000E+00 0. -1.
</event>
<event>
 5    1  0.1103865E-009  0.9118800E+02  0.7818608E-02  0.1130116E+00
         25   -1    0    0    0    0  0.00000000000E+00  0.00000000000E+00  0.99999998245E-14  0.12500000000E+03  0.12500000000E+03 0.  0.
        -11    1    3    3    0    0  0.36338047164E+02  0.12515223574E+02 -0.24911264523E+02  0.45800170231E+02  0.51100000000E-03 0.  1.
         23    2    1    0    0    0 -0.31464855538E+01  0.30307098151E+02 -0.28678670483E+01  0.94395339717E+02  0.89296332115E+02 0.  0.
         11    1    3    3    0    0 -0.39484532718E+02  0.17791874577E+02  0.22043397474E+02  0.48595169486E+02  0.51100000000E-03 0. -1.
         22    1    1    0    0    0  0.31464855538E+01 -0.30307098151E+02  0.28678670483E+01  0.30604660283E+02  0.00000000000E+00 0. -1.
</event>
<event>
 5    1  0.1103865E-009  0.9118800E+02  0.7818608E-02  0.1130116E+00
         25   -1    0    0    0    0  0.00000000000E+00  0.00000000000E+00  0.99999998245E-14  0.12500000000E+03  0.12500000000E+03 0.  0.
        -11    1    3    3    0    0  0.21513120940E+02  0.51885616540E+01  0.15729406542E+02  0.27150502298E+02  0.51100000000E-03 0. -1.
         23    2    1    0    0    0 -0.35393514780E+02  0.62707274579E+01  0.19341465500E+02  0.84181925584E+02  0.73623918640E+02 0.  0.
         11    1    3    3    0    0 -0.56906635720E+02  0.10821658038E+01  0.36120589576E+01  0.57031423286E+02  0.51100000000E-03 0.  1.
         22    1    1    0    0    0  0.35393514780E+02 -0.62707274579E+01 -0.19341465500E+02  0.40818074416E+02  0.00000000000E+00 0.  1.
</event>
<event>
 5    1  0.1103865E-009  0.9118800E+02  0.7818608E-02  0.1130116E+00
         25   -1    0    0    0    0  0.00000000000E+00  0.00000000000E+00  0.99999998245E-14  0.12500000000E+03  0.12500000000E+03 0.  0.
        -11    1    3    3    0    0  0.71088411681E+01  0.36254305611E+02 -0.14575723381E+02  0.39716017052E+02  0.51100000000E-03 0. -1.
         23    2    1    0    0    0 -0.32966998702E+01 -0.19906815085E+02 -0.19364475147E+02  0.97033369624E+02  0.92915781254E+02 0.  0.
         11    1    3    3    0    0 -0.10405541038E+02 -0.56161120697E+02 -0.47887517656E+01  0.57317352573E+02  0.51100000000E-03 0.  1.
         22    1    1    0    0    0  0.32966998702E+01  0.19906815085E+02  0.19364475147E+02  0.27966630376E+02  0.00000000000E+00 0.  1.
</event>
<event>
 5    1  0.1103865E-009  0.9118800E+02  0.7818608E-02  0.1130116E+00
         25   -1    0    0    0    0  0.00000000000E+00  0.00000000000E+00  0.99999998245E-14  0.12500000000E+03  0.12500000000E+03 0.  0.
        -11    1    3    3    0    0 -0.57736196112E+02 -0.31708114732E+00 -0.23652046695E+02  0.62393815359E+02  0.51100000000E-03 0.  1.
         23    2    1    0    0    0 -0.26948079372E+02  0.24202247958E+01 -0.10924508343E+02  0.95821217427E+02  0.91270501022E+02 0.  0.
         11    1    3    3    0    0  0.30788116740E+02  0.27373059431E+01  0.12727538352E+02  0.33427402068E+02  0.51100000000E-03 0. -1.
         22    1    1    0    0    0  0.26948079372E+02 -0.24202247958E+01  0.10924508343E+02  0.29178782573E+02  0.00000000000E+00 0.  1.
</event>
<event>
 5    1  0.1103865E-009  0.9118800E+02  0.7818608E-02  0.1130116E+00
         25   -1    0    0    0    0  0.00000000000E+00  0.00000000000E+00  0.99999998245E-14  0.12500000000E+03  0.12500000000E+03 0.  0.
        -11    1    3    3    0    0  0.47032615684E+02  0.77022014548E+01 -0.36936525189E+02  0.60296747330E+02  0.51100000000E-03 0. -1.
         23    2    1    0    0    0  0.18781284098E+02 -0.47292417290E+01 -0.24966609302E+02  0.93401994687E+02  0.87894815955E+02 0.  0.
         11    1    3    3    0    0 -0.28251331585E+02 -0.12431443184E+02  0.11969915887E+02  0.33105247357E+02  0.51100000000E-03 0.  1.
         22    1    1    0    0    0 -0.18781284098E+02  0.47292417290E+01  0.24966609302E+02  0.31598005313E+02  0.00000000000E+00 0. -1.
</event>
<event>
 5    1  0.1103865E-009  0.9118800E+02  0.7818608E-02  0.1130116E+00
         25   -1    0    0    0    0  0.00000000000E+00  0.00000000000E+00  0.99999998245E-14  0.12500000000E+03  0.12500000000E+03 0.  0.
        -11    1    3    3    0    0 -0.82182871869E+01 -0.24987716428E+02 -0.51445869292E+02  0.57780651468E+02  0.51100000000E-03 0. -1.
         23    2    1    0    0    0 -0.12996113100E+02  0.25863520344E+01 -0.26934897239E+02  0.94982057668E+02  0.90113896914E+02 0.  0.
         11    1    3    3    0    0 -0.47778259136E+01  0.27574068462E+02  0.24510972053E+02  0.37201406200E+02  0.51100000000E-03 0.  1.
         22    1    1    0    0    0  0.12996113100E+02 -0.25863520344E+01  0.26934897239E+02  0.30017942332E+02  0.00000000000E+00 0. -1.
</event>
<event>
 5    1  0.1103865E-009  0.9118800E+02  0.7818608E-02  0.1130116E+00
         25   -1    0    0    0    0  0.00000000000E+00  0.00000000000E+00  0.99999998245E-14  0.12500000000E+03  0.12500000000E+03 0.  0.
        -11    1    3    3    0    0 -0.23404932094E+02  0.41809916634E+02 -0.35788115623E+02  0.59805093390E+02  0.51100000000E-03 0. -1.
         23    2    1    0    0    0 -0.23053215679E+02  0.15817562987E+02 -0.13952372362E+02  0.93753964307E+02  0.88393953848E+02 0.  0.
         11    1    3    3    0    0  0.35171641535E+00 -0.25992353647E+02  0.21835743261E+02  0.33948870917E+02  0.51100000000E-03 0.  1.
         22    1    1    0    0    0  0.23053215679E+02 -0.15817562987E+02  0.13952372362E+02  0.31246035693E+02  0.00000000000E+00 0. -1.
</event>
<event>
 5    1  0.1103865E-009  0.9118800E+02  0.7818608E-02  0.1130116E+00
         25   -1    0    0    0    0  0.00000000000E+00  0.00000000000E+00  0.99999998245E-14  0.12500000000E+03  0.12500000000E+03 0.  0.
        -11    1    3    3    0    0 -0.24215252798E+02 -0.10933862641E+01 -0.35244718430E+02  0.42775742414E+02  0.51100000000E-03 0. -1.
         23    2    1    0    0    0  0.16678867216E+02  0.21777526303E+02 -0.12752181420E+02  0.94749985215E+02  0.89791404398E+02 0.  0.
         11    1    3    3    0    0  0.40894120015E+02  0.22870912567E+02  0.22492537009E+02  0.51974242802E+02  0.51100000000E-03 0.  1.
         22    1    1    0    0    0 -0.16678867216E+02 -0.21777526303E+02  0.12752181420E+02  0.30250014785E+02  0.00000000000E+00 0. -1.
</event>
<event>
 5    1  0.1103865E-009  0.9118800E+02  0.7818608E-02  0.1130116E+00
         25   -1    0    0    0    0  0.00000000000E+00  0.00000000000E+00  0.99999998245E-14  0.12500000000E+03  0.12500000000E+03 0.  0.
        -11    1    3    3    0    0 -0.19338212724E+02 -0.13641211386E+02 -0.50704479777E+02  0.55955280261E+02  0.51100000000E-03 0.  1.
         23    2    1    0    0    0  0.12366311537E+01  0.10421895816E+02 -0.28509351682E+02  0.94620264940E+02  0.89610636840E+02 0.  0.
         11    1    3    3    0    0  0.20574843878E+02  0.24063107202E+02  0.22195128095E+02  0.38664984679E+02  0.51100000000E-03 0. -1.
         22    1    1    0    0    0 -0.12366311537E+01 -0.10421895816E+02  0.28509351682E+02  0.30379735060E+02  0.00000000000E+00 0.  1.
</event>
<event>
 5    1  0.1103865E-009  0.9118800E+02  0.7818608E-02  0.1130116E+00
         25   -1    0    0    0    0  0.00000000000E+00  0.00000000000E+00  0.99999998245E-14  0.12500000000E+03  0.12500000000E+03 0.  0.
        -11    1    3    3    0    0  0.26396840016E+02  0.95341842128E+01  0.28503161525E+02  0.40001550577E+02  0.51100000000E-03 0.  1.
         23    2    1    0    0    0 -0.24288690616E+02  0.15823757064E+02  0.95543762036E+01  0.94477583908E+02  0.89411386171E+02 0.  0.
         11    1    3    3    0    0 -0.50685530631E+02  0.62895728511E+01 -0.18948785321E+02  0.54476033331E+02  0.51100000000E-03 0. -1.
         22    1    1    0    0    0  0.24288690616E+02 -0.15823757064E+02 -0.95543762036E+01  0.30522416092E+02  0.00000000000E+00 0. -1.
</event>
<event>
 5    1  0.1103865E-009  0.9118800E+02  0.7818608E-02  0.1130116E+00
         25   -1    0    0    0    0  0.00000000000E+00  0.00000000000E+00  0.99999998245E-14  0.12500000000E+03  0.12500000000E+03 0.  0.
        -11    1    3    3    0    0 -0.27307406552E+02  0.11024355205E+02  0.21615955565E+02  0.36530540586E+02  0.51100000000E-03 0.  1.
         23    2    1    0    0    0  0.14473575181E+02  0.23970858686E+02 -0.14692963237E+02  0.93377703856E+02  0.87860263852E+02 0.  0.
         11    1    3    3    0    0  0.41780981733E+02  0.12946503481E+02 -0.36308918803E+02  0.56847163270E+02  0.51100000000E-03 0. -1.
         22    1    1    0    0    0 -0.14473575181E+02 -0.23970858686E+02  0.14692963237E+02  0.31622296144E+02  0.00000000000E+00 0. -1.
</event>
<event>
 5    1  0.1103865E-009  0.9118800E+02  0.7818608E-02  0.1130116E+00
         25   -1    0    0    0    0  0.00000000000E+00  0.00000000000E+00  0.99999998245E-14  0.12500000000E+03  0.12500000000E+03 0.  0.
        -11    1    3    3    0    0  0.88650602620E+01 -0.33010940424E+02 -0.24559817802E+02  0.42089145059E+02  0.51100000000E-03 0.  1.
         23    2    1    0    0    0 -0.30498572028E+02 -0.74854615786E+01 -0.15912980997E+02  0.89794631162E+02  0.82605434389E+02 0.  0.
         11    1    3    3    0    0 -0.39363632290E+02  0.25525478845E+02  0.86468368044E+01  0.47705486103E+02  0.51100000000E-03 0. -1.
         22    1    1    0    0    0  0.30498572028E+02  0.74854615786E+01  0.15912980997E+02  0.35205368838E+02  0.00000000000E+00 0. -1.
</event>
<event>
 5    1  0.1103865E-009  0.9118800E+02  0.7818608E-02  0.1130116E+00
         25   -1    0    0    0    0  0.00000000000E+00  0.00000000000E+00  0.99999998245E-14  0.12500000000E+03  0.12500000000E+03 0.  0.
        -11    1    3    3    0    0  0.13924070984E+02  0.31983503229E+02  0.32551824391E+02  0.47712110654E+02  0.51100000000E-03 0. -1.
         23    2    1    0    0    0  0.96759472348E+01  0.19735350698E+02 -0.15902508395E+02  0.97870720700E+02  0.94035526133E+02 0.  0.
         11    1    3    3    0    0 -0.42481237488E+01 -0.12248152530E+02 -0.48454332786E+02  0.50158610047E+02  0.51100000000E-03 0.  1.
         22    1    1    0    0    0 -0.96759472348E+01 -0.19735350698E+02  0.15902508395E+02  0.27129279300E+02  0.00000000000E+00 0.  1.
</event>
<event>
 5    1  0.1103865E-009  0.9118800E+02  0.7818608E-02  0.1130116E+00
         25   -1    0    0    0    0  0.00000000000E+00  0.00000000000E+00  0.99999998245E-14  0.12500000000E+03  0.12500000000E+03 0.  0.
        -11    1    3    3    0    0 -0.31033557706E+02  0.31419147708E+01 -0.14151802718E+02  0.34252399226E+02  0.51100000000E-03 0. -1.
         23    2    1    0    0    0  0.19207951345E+02  0.93012182595E+01  0.20350900316E+02  0.95510727380E+02  0.90844272494E+02 0.  0.
         11    1    3    3    0    0  0.50241509051E+02  0.61593034887E+01  0.34502703034E+02  0.61258328153E+02  0.51100000000E-03 0.  1.
         22    1    1    0    0    0 -0.19207951345E+02 -0.93012182595E+01 -0.20350900316E+02  0.29489272620E+02  0.00000000000E+00 0.  1.
</event>
<event>
 5    1  0.1103865E-009  0.9118800E+02  0.7818608E-02  0.1130116E+00
         25   -1    0    0    0    0  0.00000000000E+00  0.00000000000E+00  0.99999998245E-14  0.12500000000E+03  0.12500000000E+03 0.  0.
        -11    1    3    3    0    0 -0.10859210143E+02 -0.59722087815E+02  0.10747313940E+02  0.61645397031E+02  0.51100000000E-03 0. -1.
         23    2    1    0    0    0 -0.77511722533E+00 -0.30043844137E+02 -0.48619648246E+00  0.94942226226E+02  0.90058628440E+02 0.  0.
         11    1    3    3    0    0  0.10084092918E+02  0.29678243678E+02 -0.11233510423E+02  0.33296829195E+02  0.51100000000E-03 0.  1.
         22    1    1    0    0    0  0.77511722533E+00  0.30043844137E+02  0.48619648246E+00  0.30057773774E+02  0.00000000000E+00 0. -1.
</event>
<event>
 5    1  0.1103865E-009  0.9118800E+02  0.7818608E-02  0.1130116E+00
         25   -1    0    0    0    0  0.00000000000E+00  0.00000000000E+00  0.99999998245E-14  0.12500000000E+03  0.12500000000E+03 0.  0.
        -11    1    3    3    0    0 -0.34499688127E+02  0.11776491225E+02 -0.27102998263E+02  0.45425617679E+02  0.51100000000E-03 0. -1.
         23    2    1    0    0    0 -0.12414761942E+02  0.29662347068E+00  0.21579690267E+02  0.10010226252E+03  0.96956514119E+02 0.  0.
         11    1    3    3    0    0  0.22084926185E+02 -0.11479867754E+02  0.48682688531E+02  0.54676644841E+02  0.51100000000E-03 0.  1.
         22    1    1    0    0    0  0.12414761942E+02 -0.29662347068E+00 -0.21579690267E+02  0.24897737479E+02  0.00000000000E+00 0.  1.
</event>
<event>
 5    1  0.1103865E-009  0.9118800E+02  0.7818608E-02  0.1130116E+00
         25   -1    0    0    0    0  0.00000000000E+00  0.00000000000E+00  0.99999998245E-14  0.12500000000E+03  0.12500000000E+03 0.  0.
        -11    1    3    3    0    0  0.20689165213E+02  0.71216107810E+01  0.21609461805E+02  0.30752686665E+02  0.51100000000E-03 0. -1.
         23    2    1    0    0    0 -0.88989509690E+01  0.20108682734E+02 -0.27654515302E+02  0.89668389985E+02  0.82414182616E+02 0.  0.
         11    1    3    3    0    0 -0.29588116182E+02  0.12987071953E+02 -0.49263977107E+02  0.58915703321E+02  0.51100000000E-03 0.  1.
         22    1    1    0    0    0  0.88989509690E+01 -0.20108682734E+02  0.27654515302E+02  0.35331610015E+02  0.00000000000E+00 0.  1.
</event>
<event>
 5    1  0.1103865E-009  0.9118800E+02  0.7818608E-02  0.1130116E+00
         25   -1    0    0    0    0  0.00000000000E+00  0.00000000000E+00  0.99999998245E-14  0.12500000000E+03  0.12500000000E+03 0.  0.
        -11    1    3    3    0    0 -0.22828013170E+01 -0.25568125386E+02 -0.35955869935E+02  0.44178782245E+02  0.51100000000E-03 0.  1.
         23    2    1    0    0    0  0.57089563807E+01  0.22004205037E+02 -0.19197110994E+02  0.95245902925E+02  0.90479145283E+02 0.  0.
         11    1    3    3    0    0  0.79917576977E+01  0.47572330423E+02  0.16758758941E+02  0.51067120680E+02  0.51100000000E-03 0. -1.
         22    1    1    0    0    0 -0.57089563807E+01 -0.22004205037E+02  0.19197110994E+02  0.29754097075E+02  0.00000000000E+00 0. -1.
</event>
<event>
 5    1  0.1103865E-009  0.9118800E+02  0.7818608E-02  0.1130116E+00
         25   -1    0    0    0    0  0.00000000000E+00  0.00000000000E+00  0.99999998245E-14  0.12500000000E+03  0.12500000000E+03 0.  0.
        -11    1    3    3    0    0 -0.26712314994E+02  0.51876617556E+01  0.42417572603E+02  0.50395536237E+02  0.51100000000E-03 0.  1.
         23    2    1    0    0    0 -0.28329063060E+02  0.58177942967E+01 -0.30709395175E+01  0.95917131953E+02  0.91401766877E+02 0.  0.
         11    1    3    3    0    0 -0.16167480656E+01  0.63013254113E+00 -0.45488512120E+02  0.45521595716E+02  0.51100000000E-03 0. -1.
         22    1    1    0    0    0  0.28329063060E+02 -0.58177942967E+01  0.30709395175E+01  0.29082868047E+02  0.00000000000E+00 0.  1.
</event>
<event>
 5    1  0.1103865E-009  0.9118800E+02  0.7818608E-02  0.1130116E+00
         25   -1    0    0    0    0  0.00000000000E+00  0.00000000000E+00  0.99999998245E-14  0.12500000000E+03  0.12500000000E+03 0.  0.
        -11    1    3    3    0    0  0.39148670054E+02  0.26465654847E+02  0.50853645923E+00  0.47257886781E+02  0.51100000000E-03 0. -1.
         23    2    1    0    0    0  0.46063588373E+00  0.15131870197E+02  0.25970320154E+02  0.94939341159E+02  0.90054623922E+02 0.  0.
         11    1    3    3    0    0 -0.38688034170E+02 -0.11333784650E+02  0.25461783694E+02  0.47681454378E+02  0.51100000000E-03 0.  1.
         22    1    1    0    0    0 -0.46063588373E+00 -0.15131870197E+02 -0.25970320154E+02  0.30060658841E+02  0.00000000000E+00 0. -1.
</event>
<event>
 5    1  0.1103865E-009  0.9118800E+02  0.7818608E-02  0.1130116E+00
         25   -1    0    0    0    0  0.00000000000E+00  0.00000000000E+00  0.99999998245E-14  0.12500000000E+03  0.12500000000E+03 0.  0.
        -11    1    3    3    0    0 -0.32252378978E+02 -0.40050395121E+02 -0.13398359087E+00  0.51422446956E+02  0.51100000000E-03 0.  1.
         23    2    1    0    0    0 -0.11309986997E+01 -0.18220298381E+02 -0.22885701964E+02  0.95725202212E+02  0.91138908009E+02 0.  0.
         11    1    3    3    0    0  0.31121380278E+02  0.21830096740E+02 -0.22751718373E+02  0.44302755256E+02  0.51100000000E-03 0. -1.
         22    1    1    0    0    0  0.11309986997E+01  0.18220298381E+02  0.22885701964E+02  0.29274797788E+02  0.00000000000E+00 0.  1.
</event>
<event>
 5    1  0.1103865E-009  0.9118800E+02  0.7818608E-02  0.1130116E+00
         25   -1    0    0    0    0  0.00000000000E+00  0.00000000000E+00  0.99999998245E-14  0.12500000000E+03  0.12500000000E+03 0.  0.
        -11    1    3    3    0    0  0.10672909736E+02  0.58532523163E+02  0.18540782432E+02  0.62319562607E+02  0.51100000000E-03 0. -1.
         23    2    1    0    0    0  0.81497855809E+01  0.27022326471E+02  0.76041803616E+01  0.95769045656E+02  0.91199020904E+02 0.  0.
         11    1    3    3    0    0 -0.25231241552E+01 -0.31510196693E+02 -0.10936602070E+02  0.33449483048E+02  0.51100000000E-03 0.  1.
         22    1    1    0    0    0 -0.81497855809E+01 -0.27022326471E+02 -0.76041803616E+01  0.29230954344E+02  0.00000000000E+00 0. -1.
</event>
<event>
 5    1  0.1103865E-009  0.9118800E+02  0.7818608E-02  0.1130116E+00
         25   -1    0    0    0    0  0.00000000000E+00  0.00000000000E+00  0.99999998245E-14  0.12500000000E+03  0.12500000000E+03 0.  0.
        -11    1    3    3    0    0 -0.12216607502E+01  0.10834640166E+02 -0.42295770631E+02  0.43678531294E+02  0.51100000000E-03 0. -1.
         23    2    1    0    0    0 -0.10137252760E+02  0.20295379426E+02  0.11879472256E+02  0.99391638462E+02  0.96035980839E+02 0.  0.
         11    1    3    3    0    0 -0.89155920097E+01  0.94607392596E+01  0.54175242887E+02  0.55713107168E+02  0.51100000000E-03 0.  1.
         22    1    1    0    0    0  0.10137252760E+02 -0.20295379426E+02 -0.11879472256E+02  0.25608361538E+02  0.00000000000E+00 0.  1.
</event>
<event>
 5    1  0.1103865E-009  0.9118800E+02  0.7818608E-02  0.1130116E+00
         25   -1    0    0    0    0  0.00000000000E+00  0.00000000000E+00  0.99999998245E-14  0.12500000000E+03  0.12500000000E+03 0.  0.
        -11    1    3    3    0    0  0.41848295275E+02 -0.17860722024E+01 -0.19315216190E+01  0.41930903250E+02  0.51100000000E-03 0.  1.
         23    2    1    0    0    0 -0.41683913357E+01 -0.98472285817E+01 -0.27716865696E+02  0.95291953261E+02  0.90542743029E+02 0.  0.
         11    1    3    3    0    0 -0.46016686611E+02 -0.80611563793E+01 -0.25785344077E+02  0.53361050011E+02  0.51100000000E-03 0. -1.
         22    1    1    0    0    0  0.41683913357E+01  0.98472285817E+01  0.27716865696E+02  0.29708046739E+02  0.00000000000E+00 0. -1.
</event>
<event>
 5    1  0.1103865E-009  0.9118800E+02  0.7818608E-02  0.1130116E+00
         25   -1    0    0    0    0  0.00000000000E+00  0.00000000000E+00  0.99999998245E-14  0.12500000000E+03  0.12500000000E+03 0.  0.
        -11    1    3    3    0    0 -0.19124358047E+02  0.19749038331E+02  0.41663879064E+02  0.49916374113E+02  0.51100000000E-03 0.  1.
         23    2    1    0    0    0 -0.17437528992E+02  0.25853592777E+02 -0.17276232748E+01  0.93767639234E+02  0.88413289773E+02 0.  0.
         11    1    3    3    0    0  0.16868290551E+01  0.61045544464E+01 -0.43391502339E+02  0.43851265121E+02  0.51100000000E-03 0. -1.
         22    1    1    0    0    0  0.17437528992E+02 -0.25853592777E+02  0.17276232748E+01  0.31232360766E+02  0.00000000000E+00 0. -1.
</event>
<event>
 5    1  0.1103865E-009  0.9118800E+02  0.7818608E-02  0.1130116E+00
         25   -1    0    0    0    0  0.00000000000E+00  0.00000000000E+00  0.99999998245E-14  0.12500000000E+03  0.12500000000E+03 0.  0.
        -11    1    3    3    0    0 -0.50867518519E+01 -0.15118684334E+02  0.51264366843E+02  0.53688778794E+02  0.51100000000E-03 0.  1.
         23    2    1    0    0    0 -0.16480863418E+02 -0.19948780473E+02  0.91980678782E+01  0.97537713969E+02  0.93591818511E+02 0.  0.
         11    1    3    3    0    0 -0.11394111566E+02 -0.48300961394E+01 -0.42066298964E+02  0.43848935174E+02  0.51100000000E-03 0. -1.
         22    1    1    0    0    0  0.16480863418E+02  0.19948780473E+02 -0.91980678782E+01  0.27462286031E+02  0.00000000000E+00 0.  1.
</event>
<event>
 5    1  0.1103865E-009  0.9118800E+02  0.7818608E-02  0.1130116E+00
         25   -1    0    0    0    0  0.00000000000E+00  0.00000000000E+00  0.99999998245E-14  0.12500000000E+03  0.12500000000E+03 0.  0.
        -11    1    3    3    0    0  0.22848119154E+02  0.52121589017E+02  0.19200308274E+02  0.60061205687E+02  0.51100000000E-03 0.  1.
         23    2    1    0    0    0  0.15229985291E+01  0.28288553926E+02  0.14601700099E+01  0.96632872825E+02  0.92375419924E+02 0.  0.
         11    1    3    3    0    0 -0.21325120625E+02 -0.23833035091E+02 -0.17740138264E+02  0.36571667138E+02  0.51100000000E-03 0. -1.
         22    1    1    0    0    0 -0.15229985291E+01 -0.28288553926E+02 -0.14601700099E+01  0.28367127175E+02  0.00000000000E+00 0.  1.
</event>
<event>
 5    1  0.1103865E-009  0.9118800E+02  0.7818608E-02  0.1130116E+00
         25   -1    0    0    0    0  0.00000000000E+00  0.00000000000E+00  0.99999998245E-14  0.12500000000E+03  0.12500000000E+03 0.  0.
        -11    1    3    3    0    0  0.31602525234E+02  0.28572062990E+02 -0.43263637272E+02  0.60719228379E+02  0.51100000000E-03 0.  1.
         23    2    1    0    0    0  0.23429592297E+02  0.11511883278E+02 -0.14521555042E+02  0.95127858921E+02  0.90315916262E+02 0.  0.
         11    1    3    3    0    0 -0.81729329372E+01 -0.17060179712E+02  0.28742082230E+02  0.34408630542E+02  0.51100000000E-03 0. -1.
         22    1    1    0    0    0 -0.23429592297E+02 -0.11511883278E+02  0.14521555042E+02  0.29872141079E+02  0.00000000000E+00 0.  1.
</event>
<event>
 5    1  0.1103865E-009  0.9118800E+02  0.7818608E-02  0.1130116E+00
         25   -1    0    0    0    0  0.00000000000E+00  0.00000000000E+00  0.99999998245E-14  0.12500000000E+03  0.12500000000E+03 0.  0.
        -11    1    3    3    0    0 -0.21184714270E+02 -0.30108996682E+02 -0.23181614992E+01  0.36887906865E+02  0.51100000000E-03 0. -1.
         23    2    1    0    0    0 -0.84305959504E+00  0.23248308909E+02  0.15894221169E+02  0.96825172882E+02  0.92635269851E+02 0.  0.
         11    1    3    3    0    0  0.20341654675E+02  0.53357305591E+02  0.18212382668E+02  0.59937266016E+02  0.51100000000E-03 0.  1.
         22    1    1    0    0    0  0.84305959504E+00 -0.23248308909E+02 -0.15894221169E+02  0.28174827118E+02  0.00000000000E+00 0.  1.
</event>
<event>
 5    1  0.1103865E-009  0.9118800E+02  0.7818608E-02  0.1130116E+00
         25   -1    0    0    0    0  0.00000000000E+00  0.00000000000E+00  0.99999998245E-14  0.12500000000E+03  0.12500000000E+03 0.  0.
        -11    1    3    3    0    0  0.17246427290E+02 -0.33491098704E+02  0.72212276253E+01  0.38356734420E+02  0.51100000000E-03 0.  1.
         23    2    1    0    0    0  0.19579675895E+02  0.22549604645E+02 -0.13933803690E+01  0.95103681052E+02  0.90282447148E+02 0.  0.
         11    1    3    3    0    0  0.23332486042E+01  0.56040703349E+02 -0.86146079944E+01  0.56746946632E+02  0.51100000000E-03 0. -1.
         22    1    1    0    0    0 -0.19579675895E+02 -0.22549604645E+02  0.13933803690E+01  0.29896318948E+02  0.00000000000E+00 0. -1.
</event>
<event>
 5    1  0.1103865E-009  0.9118800E+02  0.7818608E-02  0.1130116E+00
         25   -1    0    0    0    0  0.00000000000E+00  0.00000000000E+00  0.99999998245E-14  0.12500000000E+03  0.12500000000E+03 0.  0.
        -11    1    3    3    0    0  0.21842784686E+02  0.44128323222E+02  0.10879350059E+02  0.50425949779E+02  0.51100000000E-03 0.  1.
         23    2    1    0    0    0 -0.65077384816E+01  0.10646379099E+02  0.25450842680E+02  0.96654957378E+02  0.92405299332E+02 0.  0.
         11    1    3    3    0    0 -0.28350523168E+02 -0.33481944122E+02  0.14571492622E+02  0.46229007599E+02  0.51100000000E-03 0. -1.
         22    1    1    0    0    0  0.65077384816E+01 -0.10646379099E+02 -0.25450842680E+02  0.28345042622E+02  0.00000000000E+00 0. -1.
</event>
<event>
 5    1  0.1103865E-009  0.9118800E+02  0.7818608E-02  0.1130116E+00
         25   -1    0    0    0    0  0.00000000000E+00  0.00000000000E+00  0.99999998245E-14  0.12500000000E+03  0.12500000000E+03 0.  0.
        -11    1    3    3    0    0  0.53858804545E+02  0.11917965348E+02  0.13706350947E+02  0.56839007571E+02  0.51100000000E-03 0. -1.
         23    2    1    0    0    0  0.30180451495E+02 -0.53723314982E+01 -0.79994201091E+01  0.93318580836E+02  0.87776108418E+02 0.  0.
         11    1    3    3    0    0 -0.23678353050E+02 -0.17290296846E+02 -0.21705771056E+02  0.36479573265E+02  0.51100000000E-03 0.  1.
         22    1    1    0    0    0 -0.30180451495E+02  0.53723314982E+01  0.79994201091E+01  0.31681419164E+02  0.00000000000E+00 0. -1.
</event>
<event>
 5    1  0.1103865E-009  0.9118800E+02  0.7818608E-02  0.1130116E+00
         25   -1    0    0    0    0  0.00000000000E+00  0.00000000000E+00  0.99999998245E-14  0.12500000000E+03  0.12500000000E+03 0.  0.
        -11    1    3    3    0    0  0.20064567869E+02  0.25894007358E+02 -0.13014197270E+02  0.35248486942E+02  0.51100000000E-03 0.  1.
         23    2    1    0    0    0 -0.33584878988E+01 -0.28903592419E+02 -0.63831989714E+01  0.95210029796E+02  0.90429571761E+02 0.  0.
         11    1    3    3    0    0 -0.23423055768E+02 -0.54797599776E+02  0.66309982991E+01  0.59961542854E+02  0.51100000000E-03 0. -1.
         22    1    1    0    0    0  0.33584878988E+01  0.28903592419E+02  0.63831989714E+01  0.29789970204E+02  0.00000000000E+00 0. -1.
</event>
<event>
 5    1  0.1103865E-009  0.9118800E+02  0.7818608E-02  0.1130116E+00
         25   -1    0    0    0    0  0.00000000000E+00  0.00000000000E+00  0.99999998245E-14  0.12500000000E+03  0.12500000000E+03 0.  0.
        -11    1    3    3    0    0  0.84490075177E+01 -0.39505094665E+02 -0.28117387211E+02  0.49220175704E+02  0.51100000000E-03 0. -1.
         23    2    1    0    0    0 -0.19313456960E+02 -0.21924472510E+02  0.44027757902E+01  0.95452131223E+02  0.90763609480E+02 0.  0.
         11    1    3    3    0    0 -0.27762464478E+02  0.17580622154E+02  0.32520163001E+02  0.46231955519E+02  0.51100000000E-03 0.  1.
         22    1    1    0    0    0  0.19313456960E+02  0.21924472510E+02 -0.44027757902E+01  0.29547868777E+02  0.00000000000E+00 0. -1.
</event>
<event>
 5    1  0.1103865E-009  0.9118800E+02  0.7818608E-02  0.1130116E+00
         25   -1    0    0    0    0  0.00000000000E+00  0.00000000000E+00  0.99999998245E-14  0.12500000000E+03  0.12500000000E+03 0.  0.
        -11    1    3    3    0    0 -0.56244693143E+02 -0.25493076970E+02  0.15548428465E+01  0.61772000264E+02  0.51100000000E-03 0.  1.
         23    2    1    0    0    0 -0.27212755754E+02 -0.99291694118E+01  0.70970704564E+01  0.95175666143E+02  0.90382058706E+02 0.  0.
         11    1    3    3    0    0  0.29031937389E+02  0.15563907558E+02  0.55422276098E+01  0.33403665879E+02  0.51100000000E-03 0. -1.
         22    1    1    0    0    0  0.27212755754E+02  0.99291694118E+01 -0.70970704564E+01  0.29824333857E+02  0.00000000000E+00 0.  1.
</event>
<event>
 5    1  0.1103865E-009  0.9118800E+02  0.7818608E-02  0.1130116E+00
         25   -1    0    0    0    0  0.00000000000E+00  0.00000000000E+00  0.99999998245E-14  0.12500000000E+03  0.12500000000E+03 0.  0.
        -11    1    3    3    0    0 -0.12919214967E+02  0.25433326276E+02 -0.25259496634E+02  0.38102524474E+02  0.51100000000E-03 0. -1.
         23    2    1    0    0    0  0.35590658523E+01  0.18571149704E+01  0.26972183034E+02  0.97730704385E+02  0.93849220008E+02 0.  0.
         11    1    3    3    0    0  0.16478280819E+02 -0.23576211306E+02  0.52231679668E+02  0.59628179911E+02  0.51100000000E-03 0.  1.
         22    1    1    0    0    0 -0.35590658523E+01 -0.18571149704E+01 -0.26972183034E+02  0.27269295615E+02  0.00000000000E+00 0.  1.
</event>
<event>
 5    1  0.1103865E-009  0.9118800E+02  0.7818608E-02  0.1130116E+00
         25   -1    0    0    0    0  0.00000000000E+00  0.00000000000E+00  0.99999998245E-14  0.12500000000E+03  0.12500000000E+03 0.  0.
        -11    1    3    3    0    0 -0.78705545835E+01 -0.49779337384E+02 -0.13201175671E+01  0.50414985574E+02  0.51100000000E-03 0.  1.
         23    2    1    0    0    0 -0.17525567800E+02 -0.13615336628E+02  0.21374110583E+02  0.94188062031E+02  0.89005704917E+02 0.  0.
         11    1    3    3    0    0 -0.96550132168E+01  0.36164000756E+02  0.22694228150E+02  0.43773076457E+02  0.51100000000E-03 0. -1.
         22    1    1    0    0    0  0.17525567800E+02  0.13615336628E+02 -0.21374110583E+02  0.30811937969E+02  0.00000000000E+00 0. -1.
</event>
<event>
 5    1  0.1103865E-009  0.9118800E+02  0.7818608E-02  0.1130116E+00
         25   -1    0    0    0    0  0.00000000000E+00  0.00000000000E+00  0.99999998245E-14  0.12500000000E+03  0.12500000000E+03 0.  0.
        -11    1    3    3    0    0 -0.94389335601E+01  0.31121876447E+02  0.20752592888E+02  0.38578942082E+02  0.51100000000E-03 0. -1.
         23    2    1    0    0    0  0.28988772762E+02 -0.22741525198E+01 -0.47762947340E+01  0.95532497436E+02  0.90874222743E+02 0.  0.
         11    1    3    3    0    0  0.38427706323E+02 -0.33396028967E+02 -0.25528887622E+02  0.56953555354E+02  0.51100000000E-03 0.  1.
         22    1    1    0    0    0 -0.28988772762E+02  0.22741525198E+01  0.47762947340E+01  0.29467502564E+02  0.00000000000E+00 0.  1.
</event>
<event>
 5    1  0.1103865E-009  0.9118800E+02  0.7818608E-02  0.1130116E+00
         25   -1    0    0    0    0  0.00000000000E+00  0.00000000000E+00  0.99999998245E-14  0.12500000000E+03  0.12500000000E+03 0.  0.
        -11    1    3    3    0    0  0.46948215351E+01 -0.30309913909E+02 -0.27920366231E+02  0.41476247192E+02  0.51100000000E-03 0. -1.
         23    2    1    0    0    0  0.20447948009E+02 -0.75292816859E+01  0.19084362447E+02  0.96034131283E+02  0.91561634001E+02 0.  0.
         11    1    3    3    0    0  0.15753126474E+02  0.22780632223E+02  0.47004728678E+02  0.54557884092E+02  0.51100000000E-03 0.  1.
         22    1    1    0    0    0 -0.20447948009E+02  0.75292816859E+01 -0.19084362447E+02  0.28965868717E+02  0.00000000000E+00 0.  1.
</event>
<event>
 5    1  0.1103865E-009  0.9118800E+02  0.7818608E-02  0.1130116E+00
         25   -1    0    0    0    0  0.00000000000E+00  0.00000000000E+00  0.99999998245E-14  0.12500000000E+03  0.12500000000E+03 0.  0.
        -11    1    3    3    0    0  0.10375835199E+02  0.11582092018E+01  0.29608317496E+02  0.31395093085E+02  0.51100000000E-03 0.  1.
         23    2    1    0    0    0 -0.17225341163E+02 -0.21330933360E+02 -0.18996370818E+02  0.91644592635E+02  0.85358937194E+02 0.  0.
         11    1    3    3    0    0 -0.27601176362E+02 -0.22489142562E+02 -0.48604688314E+02  0.60249499550E+02  0.51100000000E-03 0. -1.
         22    1    1    0    0    0  0.17225341163E+02  0.21330933360E+02  0.18996370818E+02  0.33355407365E+02  0.00000000000E+00 0. -1.
</event>
<event>
 5    1  0.1103865E-009  0.9118800E+02  0.7818608E-02  0.1130116E+00
         25   -1    0    0    0    0  0.00000000000E+00  0.00000000000E+00  0.99999998245E-14  0.12500000000E+03  0.12500000000E+03 0.  0.
        -11    1    3    3    0    0 -0.34131597739E+02  0.15076526399E+02 -0.16759002726E+02  0.40903933614E+02  0.51100000000E-03 0.  1.
         23    2    1    0    0    0  0.20075799894E+02  0.18387016219E+02 -0.11434079638E+02  0.95472753532E+02  0.90792006162E+02 0.  0.
         11    1    3    3    0    0  0.54207397633E+02  0.33104898200E+01  0.53249230884E+01  0.54568819917E+02  0.51100000000E-03 0. -1.
         22    1    1    0    0    0 -0.20075799894E+02 -0.18387016219E+02  0.11434079638E+02  0.29527246468E+02  0.00000000000E+00 0. -1.
</event>
<event>
 5    1  0.1103865E-009  0.9118800E+02  0.7818608E-02  0.1130116E+00
         25   -1    0    0    0    0  0.00000000000E+00  0.00000000000E+00  0.99999998245E-14  0.12500000000E+03  0.12500000000E+03 0.  0.
        -11    1    3    3    0    0  0.40259454977E+00 -0.41572507227E+02 -0.24417408402E+02  0.48214575316E+02  0.51100000000E-03 0. -1.
         23    2    1    0    0    0  0.45336546812E+01 -0.25135693829E+02 -0.44007038516E+02  0.74118013326E+02  0.53893444234E+02 0.  0.
         11    1    3    3    0    0  0.41310601314E+01  0.16436813398E+02 -0.19589630113E+02  0.25903438010E+02  0.51100000000E-03 0.  1.
         22    1    1    0    0    0 -0.45336546812E+01  0.25135693829E+02  0.44007038516E+02  0.50881986674E+02  0.00000000000E+00 0.  1.
</event>
<event>
 5    1  0.1103865E-009  0.9118800E+02  0.7818608E-02  0.1130116E+00
         25   -1    0    0    0    0  0.00000000000E+00  0.00000000000E+00  0.99999998245E-14  0.12500000000E+03  0.12500000000E+03 0.  0.
        -11    1    3    3    0    0  0.12557587478E+02 -0.36005763178E+02  0.20442959475E+02  0.43266876218E+02  0.51100000000E-03 0. -1.
         23    2    1    0    0    0 -0.26761967963E+02 -0.10393003245E+02 -0.37240983272E+01  0.96050278861E+02  0.91583676030E+02 0.  0.
         11    1    3    3    0    0 -0.39319555440E+02  0.25612759933E+02 -0.24167057803E+02  0.52783402642E+02  0.51100000000E-03 0.  1.
         22    1    1    0    0    0  0.26761967963E+02  0.10393003245E+02  0.37240983272E+01  0.28949721139E+02  0.00000000000E+00 0.  1.
</event>
<event>
 5    1  0.1103865E-009  0.9118800E+02  0.7818608E-02  0.1130116E+00
         25   -1    0    0    0    0  0.00000000000E+00  0.00000000000E+00  0.99999998245E-14  0.12500000000E+03  0.12500000000E+03 0.  0.
        -11    1    3    3    0    0  0.15199242974E+02 -0.42023968498E+02  0.10637020850E+02  0.45936664312E+02  0.51100000000E-03 0. -1.
         23    2    1    0    0    0  0.23000023858E+02  0.57197805224E+01  0.18481451200E+02  0.94945365995E+02  0.90062986287E+02 0.  0.
         11    1    3    3    0    0  0.78007808847E+01  0.47743749020E+02  0.78444303492E+01  0.49008701683E+02  0.51100000000E-03 0.  1.
         22    1    1    0    0    0 -0.23000023858E+02 -0.57197805224E+01 -0.18481451200E+02  0.30054634005E+02  0.00000000000E+00 0. -1.
</event>
<event>
 5    1  0.1103865E-009  0.9118800E+02  0.7818608E-02  0.1130116E+00
         25   -1    0    0    0    0  0.00000000000E+00  0.00000000000E+00  0.99999998245E-14  0.12500000000E+03  0.12500000000E+03 0.  0.
        -11    1    3    3    0    0 -0.65751614607E+01 -0.31639271807E+02  0.40495701670E+02  0.51809054447E+02  0.51100000000E-03 0. -1.
         23    2    1    0    0    0 -0.24641159096E+02 -0.14917322705E+00  0.17326120795E+02  0.94876862114E+02  0.89967858308E+02 0.  0.
         11    1    3    3    0    0 -0.18065997636E+02  0.31490098580E+02 -0.23169580874E+02  0.43067807667E+02  0.51100000000E-03 0.  1.
         22    1    1    0    0    0  0.24641159096E+02  0.14917322705E+00 -0.17326120795E+02  0.30123137886E+02  0.00000000000E+00 0. -1.
</event>
<event>
 5    1  0.1103865E-009  0.9118800E+02  0.7818608E-02  0.1130116E+00
         25   -1    0    0    0    0  0.00000000000E+00  0.00000000000E+00  0.99999998245E-14  0.12500000000E+03  0.12500000000E+03 0.  0.
        -11    1    3    3    0    0  0.14905094540E+02 -0.42066056700E+02  0.74151763284E+01  0.45240466507E+02  0.51100000000E-03 0.  1.
         23    2    1    0    0    0 -0.24192061003E+02 -0.13129553199E+02  0.13644695974E+02  0.94278367377E+02  0.89132439910E+02 0.  0.
         11    1    3    3    0    0 -0.39097155544E+02  0.28936503501E+02  0.62295196459E+01  0.49037900870E+02  0.51100000000E-03 0. -1.
         22    1    1    0    0    0  0.24192061003E+02  0.13129553199E+02 -0.13644695974E+02  0.30721632623E+02  0.00000000000E+00 0.  1.
</event>
<event>
 5    1  0.1103865E-009  0.9118800E+02  0.7818608E-02  0.1130116E+00
         25   -1    0    0    0    0  0.00000000000E+00  0.00000000000E+00  0.99999998245E-14  0.12500000000E+03  0.12500000000E+03 0.  0.
        -11    1    3    3    0    0 -0.48575020168E+02  0.62466485511E+00  0.37727101971E+02  0.61508186560E+02  0.51100000000E-03 0. -1.
         23    2    1    0    0    0 -0.25839071074E+02  0.24967287020E+01  0.10581401552E+02  0.96966853423E+02  0.92826253591E+02 0.  0.
         11    1    3    3    0    0  0.22735949094E+02  0.18720638469E+01 -0.27145700418E+02  0.35458666863E+02  0.51100000000E-03 0.  1.
         22    1    1    0    0    0  0.25839071074E+02 -0.24967287020E+01 -0.10581401552E+02  0.28033146577E+02  0.00000000000E+00 0. -1.
</event>
<event>
 5    1  0.1103865E-009  0.9118800E+02  0.7818608E-02  0.1130116E+00
         25   -1    0    0    0    0  0.00000000000E+00  0.00000000000E+00  0.99999998245E-14  0.12500000000E+03  0.12500000000E+03 0.  0.
        -11    1    3    3    0    0  0.66460110182E+01  0.40256227819E+02  0.31985177233E+02  0.51843851164E+02  0.51100000000E-03 0. -1.
         23    2    1    0    0    0  0.24160137563E+02  0.30941110059E+01  0.15611230393E+02  0.96069111933E+02  0.91609377158E+02 0.  0.
         11    1    3    3    0    0  0.17514126545E+02 -0.37162116813E+02 -0.16373946840E+02  0.44225260768E+02  0.51100000000E-03 0.  1.
         22    1    1    0    0    0 -0.24160137563E+02 -0.30941110059E+01 -0.15611230393E+02  0.28930888067E+02  0.00000000000E+00 0. -1.
</event>
<event>
 5    1  0.1103865E-009  0.9118800E+02  0.7818608E-02  0.1130116E+00
         25   -1    0    0    0    0  0.00000000000E+00  0.00000000000E+00  0.99999998245E-14  0.12500000000E+03  0.12500000000E+03 0.  0.
        -11    1    3    3    0    0  0.29278170842E+02 -0.46852912007E+02 -0.67195352830E+01  0.55655716742E+02  0.51100000000E-03 0. -1.
         23    2    1    0    0    0 -0.58689454487E+01 -0.29016391199E+02 -0.28814079285E+01  0.95256126841E+02  0.90493268867E+02 0.  0.
         11    1    3    3    0    0 -0.35147116291E+02  0.17836520808E+02  0.38381273545E+01  0.39600410098E+02  0.51100000000E-03 0.  1.
         22    1    1    0    0    0  0.58689454487E+01  0.29016391199E+02  0.28814079285E+01  0.29743873159E+02  0.00000000000E+00 0. -1.
</event>
<event>
 5    1  0.1103865E-009  0.9118800E+02  0.7818608E-02  0.1130116E+00
         25   -1    0    0    0    0  0.00000000000E+00  0.00000000000E+00  0.99999998245E-14  0.12500000000E+03  0.12500000000E+03 0.  0.
        -11    1    3    3    0    0  0.49986970941E+02  0.24635726057E+02  0.16063136170E+01  0.55751201834E+02  0.51100000000E-03 0.  1.
         23    2    1    0    0    0  0.70973972348E+01  0.24428856151E+02  0.59917893485E+01  0.98864897170E+02  0.95347911841E+02 0.  0.
         11    1    3    3    0    0 -0.42889573706E+02 -0.20686990633E+00  0.43854757315E+01  0.43113695336E+02  0.51100000000E-03 0. -1.
         22    1    1    0    0    0 -0.70973972348E+01 -0.24428856151E+02 -0.59917893485E+01  0.26135102830E+02  0.00000000000E+00 0.  1.
</event>
<event>
 5    1  0.1103865E-009  0.9118800E+02  0.7818608E-02  0.1130116E+00
         25   -1    0    0    0    0  0.00000000000E+00  0.00000000000E+00  0.99999998245E-14  0.12500000000E+03  0.12500000000E+03 0.  0.
        -11    1    3    3    0    0 -0.30035378401E+02 -0.30631478247E+01 -0.16392099193E+02  0.34354151808E+02  0.51100000000E-03 0.  1.
         23    2    1    0    0    0  0.28192005585E+02 -0.69901052891E+01 -0.13983644717E+02  0.92763482347E+02  0.86982013006E+02 0.  0.
         11    1    3    3    0    0  0.58227383985E+02 -0.39269574644E+01  0.24084544760E+01  0.58409330538E+02  0.51100000000E-03 0. -1.
         22    1    1    0    0    0 -0.28192005585E+02  0.69901052891E+01  0.13983644717E+02  0.32236517653E+02  0.00000000000E+00 0. -1.
</event>
<event>
 5    1  0.1103865E-009  0.9118800E+02  0.7818608E-02  0.1130116E+00
         25   -1    0    0    0    0  0.00000000000E+00  0.00000000000E+00  0.99999998245E-14  0.12500000000E+03  0.12500000000E+03 0.  0.
        -11    1    3    3    0    0  0.34312483125E+02  0.43356063745E+02  0.17792874791E+02  0.58083398276E+02  0.51100000000E-03 0.  1.
         23    2    1    0    0    0  0.52480551212E+01  0.24523371528E+02 -0.48440767628E+01  0.99457820897E+02  0.96122084997E+02 0.  0.
         11    1    3    3    0    0 -0.29064428003E+02 -0.18832692217E+02 -0.22636951554E+02  0.41374422621E+02  0.51100000000E-03 0. -1.
         22    1    1    0    0    0 -0.52480551212E+01 -0.24523371528E+02  0.48440767628E+01  0.25542179103E+02  0.00000000000E+00 0.  1.
</event>
<event>
 5    1  0.1103865E-009  0.9118800E+02  0.7818608E-02  0.1130116E+00
         25   -1    0    0    0    0  0.00000000000E+00  0.00000000000E+00  0.99999998245E-14  0.12500000000E+03  0.12500000000E+03 0.  0.
        -11    1    3    3    0    0 -0.29407458485E+02 -0.84774038852E+01  0.41789303898E+02  0.51797788676E+02  0.51100000000E-03 0. -1.
         23    2    1    0    0    0 -0.47781728363E+01  0.20770482584E+02  0.19814454979E+02  0.95899200895E+02  0.91377241279E+02 0.  0.
         11    1    3    3    0    0  0.24629285648E+02  0.29247886470E+02 -0.21974848919E+02  0.44101412219E+02  0.51100000000E-03 0.  1.
         22    1    1    0    0    0  0.47781728363E+01 -0.20770482584E+02 -0.19814454979E+02  0.29100799105E+02  0.00000000000E+00 0. -1.
</event>
<event>
 5    1  0.1103865E-009  0.9118800E+02  0.7818608E-02  0.1130116E+00
         25   -1    0    0    0    0  0.00000000000E+00  0.00000000000E+00  0.99999998245E-14  0.12500000000E+03  0.12500000000E+03 0.  0.
        -11    1    3    3    0    0 -0.49243538143E+02 -0.30122424819E+02  0.17995415483E+02  0.60465870576E+02  0.51100000000E-03 0. -1.
         23    2    1    0    0    0 -0.25697487914E+02 -0.13400877045E+02 -0.25474421998E+01  0.95906463734E+02  0.91387175980E+02 0.  0.
         11    1    3    3    0    0  0.23546050229E+02  0.16721547774E+02 -0.20542857683E+02  0.35440593158E+02  0.51100000000E-03 0.  1.
         22    1    1    0    0    0  0.25697487914E+02  0.13400877045E+02  0.25474421998E+01  0.29093536266E+02  0.00000000000E+00 0. -1.
</event>
<event>
 5    1  0.1103865E-009  0.9118800E+02  0.7818608E-02  0.1130116E+00
         25   -1    0    0    0    0  0.00000000000E+00  0.00000000000E+00  0.99999998245E-14  0.12500000000E+03  0.12500000000E+03 0.  0.
        -11    1    3    3    0    0  0.30897265765E+01  0.31035411088E+01  0.50979273489E+02  0.51167027503E+02  0.51100000000E-03 0. -1.
         23    2    1    0    0    0  0.19496083591E+02 -0.16080367469E+02  0.13516948608E+02  0.96340212963E+02  0.91978547720E+02 0.  0.
         11    1    3    3    0    0  0.16406357015E+02 -0.19183908578E+02 -0.37462324881E+02  0.45173185460E+02  0.51100000000E-03 0.  1.
         22    1    1    0    0    0 -0.19496083591E+02  0.16080367469E+02 -0.13516948608E+02  0.28659787037E+02  0.00000000000E+00 0. -1.
</event>
<event>
 5    1  0.1103865E-009  0.9118800E+02  0.7818608E-02  0.1130116E+00
         25   -1    0    0    0    0  0.00000000000E+00  0.00000000000E+00  0.99999998245E-14  0.12500000000E+03  0.12500000000E+03 0.  0.
        -11    1    3    3    0    0 -0.29081516446E+02 -0.32903457396E+02  0.19234600068E+02  0.47941025724E+02  0.51100000000E-03 0.  1.
         23    2    1    0    0    0 -0.18001221601E+02 -0.10707755086E+02 -0.21084242770E+02  0.95280557016E+02  0.90527008422E+02 0.  0.
         11    1    3    3    0    0  0.11080294845E+02  0.22195702310E+02 -0.40318842838E+02  0.47339531292E+02  0.51100000000E-03 0. -1.
         22    1    1    0    0    0  0.18001221601E+02  0.10707755086E+02  0.21084242770E+02  0.29719442984E+02  0.00000000000E+00 0. -1.
</event>
<event>
 5    1  0.1103865E-009  0.9118800E+02  0.7818608E-02  0.1130116E+00
         25   -1    0    0    0    0  0.00000000000E+00  0.00000000000E+00  0.99999998245E-14  0.12500000000E+03  0.12500000000E+03 0.  0.
        -11    1    3    3    0    0  0.48274639915E+01  0.32108838438E+02  0.30461281600E+02  0.44521585679E+02  0.51100000000E-03 0. -1.
         23    2    1    0    0    0 -0.27554699923E+02  0.20490534991E+02 -0.28293419163E+00  0.90660466459E+02  0.83905402775E+02 0.  0.
         11    1    3    3    0    0 -0.32382163914E+02 -0.11618303447E+02 -0.30744215791E+02  0.46138880780E+02  0.51100000000E-03 0.  1.
         22    1    1    0    0    0  0.27554699923E+02 -0.20490534991E+02  0.28293419163E+00  0.34339533541E+02  0.00000000000E+00 0.  1.
</event>
<event>
 5    1  0.1103865E-009  0.9118800E+02  0.7818608E-02  0.1130116E+00
         25   -1    0    0    0    0  0.00000000000E+00  0.00000000000E+00  0.99999998245E-14  0.12500000000E+03  0.12500000000E+03 0.  0.
        -11    1    3    3    0    0 -0.15210262401E+02  0.15545714036E+02 -0.24202278689E+02  0.32538770739E+02  0.51100000000E-03 0. -1.
         23    2    1    0    0    0  0.90052310566E+01 -0.24070539920E+02  0.16645585529E+02  0.94380388702E+02  0.89275400731E+02 0.  0.
         11    1    3    3    0    0  0.24215493458E+02 -0.39616253955E+02  0.40847864218E+02  0.61841617963E+02  0.51100000000E-03 0.  1.
         22    1    1    0    0    0 -0.90052310566E+01  0.24070539920E+02 -0.16645585529E+02  0.30619611298E+02  0.00000000000E+00 0.  1.
</event>
<event>
 5    1  0.1103865E-009  0.9118800E+02  0.7818608E-02  0.1130116E+00
         25   -1    0    0    0    0  0.00000000000E+00  0.00000000000E+00  0.99999998245E-14  0.12500000000E+03  0.12500000000E+03 0.  0.
        -11    1    3    3    0    0 -0.24724224370E+02  0.22794356217E+02 -0.97982589201E+01  0.35026787237E+02  0.51100000000E-03 0.  1.
         23    2    1    0    0    0  0.16911336690E+01 -0.28273939467E+02  0.86074100875E+01  0.95396569549E+02  0.90687057440E+02 0.  0.
         11    1    3    3    0    0  0.26415358039E+02 -0.51068295684E+02  0.18405669008E+02  0.60369782311E+02  0.51100000000E-03 0. -1.
         22    1    1    0    0    0 -0.16911336690E+01  0.28273939467E+02 -0.86074100875E+01  0.29603430451E+02  0.00000000000E+00 0. -1.
</event>
<event>
 5    1  0.1103865E-009  0.9118800E+02  0.7818608E-02  0.1130116E+00
         25   -1    0    0    0    0  0.00000000000E+00  0.00000000000E+00  0.99999998245E-14  0.12500000000E+03  0.12500000000E+03 0.  0.
        -11    1    3    3    0    0 -0.45108347258E+02  0.67958156834E+01 -0.31595892944E+02  0.55490959213E+02  0.51100000000E-03 0. -1.
         23    2    1    0    0    0 -0.29253062320E+02  0.58746100966E+01 -0.41259879440E+02  0.74082121507E+02  0.53810132658E+02 0.  0.
         11    1    3    3    0    0  0.15855284938E+02 -0.92120558677E+00 -0.96639864954E+01  0.18591162294E+02  0.51100000000E-03 0.  1.
         22    1    1    0    0    0  0.29253062320E+02 -0.58746100966E+01  0.41259879440E+02  0.50917878493E+02  0.00000000000E+00 0. -1.
</event>
<event>
 5    1  0.1103865E-009  0.9118800E+02  0.7818608E-02  0.1130116E+00
         25   -1    0    0    0    0  0.00000000000E+00  0.00000000000E+00  0.99999998245E-14  0.12500000000E+03  0.12500000000E+03 0.  0.
        -11    1    3    3    0    0 -0.14707008229E+02 -0.62981577543E+00  0.34372031062E+02  0.37391566944E+02  0.51100000000E-03 0.  1.
         23    2    1    0    0    0  0.27451994362E+02  0.11603279452E+02 -0.30037464451E+01  0.95045524856E+02  0.90201891410E+02 0.  0.
         11    1    3    3    0    0  0.42159002591E+02  0.12233095227E+02 -0.37375777507E+02  0.57653957911E+02  0.51100000000E-03 0. -1.
         22    1    1    0    0    0 -0.27451994362E+02 -0.11603279452E+02  0.30037464451E+01  0.29954475144E+02  0.00000000000E+00 0. -1.
</event>
<event>
 5    1  0.1103865E-009  0.9118800E+02  0.7818608E-02  0.1130116E+00
         25   -1    0    0    0    0  0.00000000000E+00  0.00000000000E+00  0.99999998245E-14  0.12500000000E+03  0.12500000000E+03 0.  0.
        -11    1    3    3    0    0  0.32206243983E+02  0.75083220295E+01  0.33331018536E+02  0.46952889667E+02  0.51100000000E-03 0.  1.
         23    2    1    0    0    0  0.29188100854E+02  0.20309671799E+01 -0.12481495040E+02  0.93190287999E+02  0.87593218915E+02 0.  0.
         11    1    3    3    0    0 -0.30181431291E+01 -0.54773548495E+01 -0.45812513576E+02  0.46237398332E+02  0.51100000000E-03 0. -1.
         22    1    1    0    0    0 -0.29188100854E+02 -0.20309671799E+01  0.12481495040E+02  0.31809712001E+02  0.00000000000E+00 0. -1.
</event>
<event>
 5    1  0.1103865E-009  0.9118800E+02  0.7818608E-02  0.1130116E+00
         25   -1    0    0    0    0  0.00000000000E+00  0.00000000000E+00  0.99999998245E-14  0.12500000000E+03  0.12500000000E+03 0.  0.
        -11    1    3    3    0    0  0.92851576037E+01  0.59233814066E+02  0.92702280951E+01  0.60669564113E+02  0.51100000000E-03 0.  1.
         23    2    1    0    0    0  0.76843672550E+01  0.27342613780E+02 -0.58531591833E+01  0.96001250012E+02  0.91516733459E+02 0.  0.
         11    1    3    3    0    0 -0.16007903487E+01 -0.31891200286E+02 -0.15123387278E+02  0.35331685899E+02  0.51100000000E-03 0. -1.
         22    1    1    0    0    0 -0.76843672550E+01 -0.27342613780E+02  0.58531591833E+01  0.28998749988E+02  0.00000000000E+00 0.  1.
</event>
<event>
 5    1  0.1103865E-009  0.9118800E+02  0.7818608E-02  0.1130116E+00
         25   -1    0    0    0    0  0.00000000000E+00  0.00000000000E+00  0.99999998245E-14  0.12500000000E+03  0.12500000000E+03 0.  0.
        -11    1    3    3    0    0  0.37887558622E+01 -0.18667178103E+02 -0.30719605274E+02  0.36145710088E+02  0.51100000000E-03 0. -1.
         23    2    1    0    0    0 -0.34095856317E+02 -0.25161858259E+02 -0.51449745842E+01  0.82313734146E+02  0.70380633250E+02 0.  0.
         11    1    3    3    0    0 -0.37884612179E+02 -0.64946801562E+01  0.25574630690E+02  0.46168024059E+02  0.51100000000E-03 0.  1.
         22    1    1    0    0    0  0.34095856317E+02  0.25161858259E+02  0.51449745842E+01  0.42686265854E+02  0.00000000000E+00 0. -1.
</event>
<event>
 5    1  0.1103865E-009  0.9118800E+02  0.7818608E-02  0.1130116E+00
         25   -1    0    0    0    0  0.00000000000E+00  0.00000000000E+00  0.99999998245E-14  0.12500000000E+03  0.12500000000E+03 0.  0.
        -11    1    3    3    0    0 -0.15699002668E+02  0.36834538886E+02  0.40388032585E+01  0.40243681140E+02  0.51100000000E-03 0. -1.
         23    2    1    0    0    0 -0.17543646917E+02 -0.18087448389E+02  0.14122822703E+02  0.96114199726E+02  0.91670878317E+02 0.  0.
         11    1    3    3    0    0 -0.18446442494E+01 -0.54921987275E+02  0.10084019445E+02  0.55870518586E+02  0.51100000000E-03 0.  1.
         22    1    1    0    0    0  0.17543646917E+02  0.18087448389E+02 -0.14122822703E+02  0.28885800274E+02  0.00000000000E+00 0.  1.
</event>
<event>
 5    1  0.1103865E-009  0.9118800E+02  0.7818608E-02  0.1130116E+00
         25   -1    0    0    0    0  0.00000000000E+00  0.00000000000E+00  0.99999998245E-14  0.12500000000E+03  0.12500000000E+03 0.  0.
        -11    1    3    3    0    0  0.31604270858E+01  0.41906702195E+02 -0.33870699244E+02  0.53975774712E+02  0.51100000000E-03 0.  1.
         23    2    1    0    0    0  0.39623001187E+01  0.32918797575E+02  0.27859681219E+01  0.91726757381E+02  0.85479174921E+02 0.  0.
         11    1    3    3    0    0  0.80187303288E+00 -0.89879046194E+01  0.36656667366E+02  0.37750982669E+02  0.51100000000E-03 0. -1.
         22    1    1    0    0    0 -0.39623001187E+01 -0.32918797575E+02 -0.27859681219E+01  0.33273242619E+02  0.00000000000E+00 0.  1.
</event>
<event>
 5    1  0.1103865E-009  0.9118800E+02  0.7818608E-02  0.1130116E+00
         25   -1    0    0    0    0  0.00000000000E+00  0.00000000000E+00  0.99999998245E-14  0.12500000000E+03  0.12500000000E+03 0.  0.
        -11    1    3    3    0    0  0.32236873761E+01  0.18897116417E+02 -0.30719864147E+02  0.36210540214E+02  0.51100000000E-03 0. -1.
         23    2    1    0    0    0 -0.25942523567E+02 -0.98152904358E+00  0.15802889041E+02  0.94607414879E+02  0.89592710193E+02 0.  0.
         11    1    3    3    0    0 -0.29166210943E+02 -0.19878645460E+02  0.46522753188E+02  0.58396874665E+02  0.51100000000E-03 0.  1.
         22    1    1    0    0    0  0.25942523567E+02  0.98152904358E+00 -0.15802889041E+02  0.30392585121E+02  0.00000000000E+00 0.  1.
</event>
<event>
 5    1  0.1103865E-009  0.9118800E+02  0.7818608E-02  0.1130116E+00
         25   -1    0    0    0    0  0.00000000000E+00  0.00000000000E+00  0.99999998245E-14  0.12500000000E+03  0.12500000000E+03 0.  0.
        -11    1    3    3    0    0  0.57963913622E+01 -0.56718550672E+02 -0.96967455771E+01  0.57832681230E+02  0.51100000000E-03 0. -1.
         23    2    1    0    0    0  0.44714331423E+00 -0.19336626466E+02 -0.20204317146E+02  0.97030025178E+02  0.92911281847E+02 0.  0.
         11    1    3    3    0    0 -0.53492480480E+01  0.37381924207E+02 -0.10507571569E+02  0.39197343948E+02  0.51100000000E-03 0.  1.
         22    1    1    0    0    0 -0.44714331423E+00  0.19336626466E+02  0.20204317146E+02  0.27969974822E+02  0.00000000000E+00 0. -1.
</event>
<event>
 5    1  0.1103865E-009  0.9118800E+02  0.7818608E-02  0.1130116E+00
         25   -1    0    0    0    0  0.00000000000E+00  0.00000000000E+00  0.99999998245E-14  0.12500000000E+03  0.12500000000E+03 0.  0.
        -11    1    3    3    0    0  0.39333460070E+02  0.10942670331E+02 -0.57906742472E+01  0.41235846342E+02  0.51100000000E-03 0.  1.
         23    2    1    0    0    0  0.39626544618E+01 -0.27581818657E+02 -0.13390472784E+02  0.94084565146E+02  0.88860234563E+02 0.  0.
         11    1    3    3    0    0 -0.35370805608E+02 -0.38524488989E+02 -0.75997985365E+01  0.52848718804E+02  0.51100000000E-03 0. -1.
         22    1    1    0    0    0 -0.39626544618E+01  0.27581818657E+02  0.13390472784E+02  0.30915434854E+02  0.00000000000E+00 0. -1.
</event>
<event>
 5    1  0.1103865E-009  0.9118800E+02  0.7818608E-02  0.1130116E+00
         25   -1    0    0    0    0  0.00000000000E+00  0.00000000000E+00  0.99999998245E-14  0.12500000000E+03  0.12500000000E+03 0.  0.
        -11    1    3    3    0    0 -0.10678289707E+02 -0.41717096911E+02 -0.19998193554E+02  0.47479151124E+02  0.51100000000E-03 0.  1.
         23    2    1    0    0    0  0.23513905638E+02 -0.17550319597E+02  0.34304707176E+01  0.95458747392E+02  0.90772720836E+02 0.  0.
         11    1    3    3    0    0  0.34192195345E+02  0.24166777313E+02  0.23428664271E+02  0.47979596268E+02  0.51100000000E-03 0. -1.
         22    1    1    0    0    0 -0.23513905638E+02  0.17550319597E+02 -0.34304707176E+01  0.29541252608E+02  0.00000000000E+00 0.  1.
</event>
<event>
 5    1  0.1103865E-009  0.9118800E+02  0.7818608E-02  0.1130116E+00
         25   -1    0    0    0    0  0.00000000000E+00  0.00000000000E+00  0.99999998245E-14  0.12500000000E+03  0.12500000000E+03 0.  0.
        -11    1    3    3    0    0  0.35690175905E+02 -0.43466665151E+02  0.15000812303E+02  0.58207937650E+02  0.51100000000E-03 0. -1.
         23    2    1    0    0    0  0.21838644831E+02 -0.69327697042E+01  0.15594359829E+02  0.97284052202E+02  0.93252415789E+02 0.  0.
         11    1    3    3    0    0 -0.13851531073E+02  0.36533895447E+02  0.59354752587E+00  0.39076114552E+02  0.51100000000E-03 0.  1.
         22    1    1    0    0    0 -0.21838644831E+02  0.69327697042E+01 -0.15594359829E+02  0.27715947798E+02  0.00000000000E+00 0. -1.
</event>
<event>
 5    1  0.1103865E-009  0.9118800E+02  0.7818608E-02  0.1130116E+00
         25   -1    0    0    0    0  0.00000000000E+00  0.00000000000E+00  0.99999998245E-14  0.12500000000E+03  0.12500000000E+03 0.  0.
        -11    1    3    3    0    0 -0.19019200121E+02 -0.31190032008E+02 -0.13303029405E+02  0.38878254352E+02  0.51100000000E-03 0.  1.
         23    2    1    0    0    0  0.18128552487E+02 -0.45857887213E+01  0.21639921287E+02  0.96399998832E+02  0.92059761612E+02 0.  0.
         11    1    3    3    0    0  0.37147752609E+02  0.26604243286E+02  0.34942950692E+02  0.57521744480E+02  0.51100000000E-03 0. -1.
         22    1    1    0    0    0 -0.18128552487E+02  0.45857887213E+01 -0.21639921287E+02  0.28600001168E+02  0.00000000000E+00 0. -1.
</event>
<event>
 5    1  0.1103865E-009  0.9118800E+02  0.7818608E-02  0.1130116E+00
         25   -1    0    0    0    0  0.00000000000E+00  0.00000000000E+00  0.99999998245E-14  0.12500000000E+03  0.12500000000E+03 0.  0.
        -11    1    3    3    0    0  0.32397718439E+02  0.28580602824E+02  0.42508315594E+02  0.60608744523E+02  0.51100000000E-03 0. -1.
         23    2    1    0    0    0  0.17085189413E+02  0.31903584436E+01  0.23278366528E+02  0.95948934056E+02  0.91445248722E+02 0.  0.
         11    1    3    3    0    0 -0.15312529026E+02 -0.25390244380E+02 -0.19229949065E+02  0.35340189532E+02  0.51100000000E-03 0.  1.
         22    1    1    0    0    0 -0.17085189413E+02 -0.31903584436E+01 -0.23278366528E+02  0.29051065944E+02  0.00000000000E+00 0. -1.
</event>
<event>
 5    1  0.1103865E-009  0.9118800E+02  0.7818608E-02  0.1130116E+00
         25   -1    0    0    0    0  0.00000000000E+00  0.00000000000E+00  0.99999998245E-14  0.12500000000E+03  0.12500000000E+03 0.  0.
        -11    1    3    3    0    0  0.37225858442E+02  0.85471566447E+01 -0.31631230841E+01  0.38325236742E+02  0.51100000000E-03 0.  1.
         23    2    1    0    0    0 -0.12877179912E+02  0.13544626038E+02  0.23238414444E+02  0.95178823583E+02  0.90386425396E+02 0.  0.
         11    1    3    3    0    0 -0.50103038354E+02  0.49974693935E+01  0.26401537528E+02  0.56853586841E+02  0.51100000000E-03 0. -1.
         22    1    1    0    0    0  0.12877179912E+02 -0.13544626038E+02 -0.23238414444E+02  0.29821176417E+02  0.00000000000E+00 0. -1.
</event>
<event>
 5    1  0.1103865E-009  0.9118800E+02  0.7818608E-02  0.1130116E+00
         25   -1    0    0    0    0  0.00000000000E+00  0.00000000000E+00  0.99999998245E-14  0.12500000000E+03  0.12500000000E+03 0.  0.
        -11    1    3    3    0    0  0.15823257395E+02  0.17483450362E+02 -0.37898695680E+02  0.44635833650E+02  0.51100000000E-03 0.  1.
         23    2    1    0    0    0 -0.25747798798E+02  0.11398946189E+02 -0.97772795102E+01  0.95192613134E+02  0.90405493657E+02 0.  0.
         11    1    3    3    0    0 -0.41571056193E+02 -0.60845041731E+01  0.28121416170E+02  0.50556779483E+02  0.51100000000E-03 0. -1.
         22    1    1    0    0    0  0.25747798798E+02 -0.11398946189E+02  0.97772795102E+01  0.29807386866E+02  0.00000000000E+00 0.  1.
</event>
<event>
 5    1  0.1103865E-009  0.9118800E+02  0.7818608E-02  0.1130116E+00
         25   -1    0    0    0    0  0.00000000000E+00  0.00000000000E+00  0.99999998245E-14  0.12500000000E+03  0.12500000000E+03 0.  0.
        -11    1    3    3    0    0 -0.53526787059E+02 -0.88027766908E+01  0.58225369441E+01  0.54557380317E+02  0.51100000000E-03 0. -1.
         23    2    1    0    0    0 -0.17355574327E+02 -0.24030323806E+02 -0.41967990168E+01  0.95061971601E+02  0.90224680106E+02 0.  0.
         11    1    3    3    0    0  0.36171212732E+02 -0.15227547115E+02 -0.10019335961E+02  0.40504591284E+02  0.51100000000E-03 0.  1.
         22    1    1    0    0    0  0.17355574327E+02  0.24030323806E+02  0.41967990168E+01  0.29938028399E+02  0.00000000000E+00 0. -1.
</event>
<event>
 5    1  0.1103865E-009  0.9118800E+02  0.7818608E-02  0.1130116E+00
         25   -1    0    0    0    0  0.00000000000E+00  0.00000000000E+00  0.99999998245E-14  0.12500000000E+03  0.12500000000E+03 0.  0.
        -11    1    3    3    0    0  0.28760176639E+01  0.48185628070E+02 -0.17561389810E+02  0.51366610190E+02  0.51100000000E-03 0.  1.
         23    2    1    0    0    0  0.21612986659E+02  0.17260268319E+02  0.86424783389E+01  0.96021896429E+02  0.91544929445E+02 0.  0.
         11    1    3    3    0    0  0.18736968995E+02 -0.30925359751E+02  0.26203868149E+02  0.44655286239E+02  0.51100000000E-03 0. -1.
         22    1    1    0    0    0 -0.21612986659E+02 -0.17260268319E+02 -0.86424783389E+01  0.28978103571E+02  0.00000000000E+00 0.  1.
</event>
<event>
 5    1  0.1103865E-009  0.9118800E+02  0.7818608E-02  0.1130116E+00
         25   -1    0    0    0    0  0.00000000000E+00  0.00000000000E+00  0.99999998245E-14  0.12500000000E+03  0.12500000000E+03 0.  0.
        -11    1    3    3    0    0 -0.48579770172E+02  0.32247082400E+02 -0.79460944816E+01  0.58847334783E+02  0.51100000000E-03 0. -1.
         23    2    1    0    0    0 -0.22598499875E+02  0.15034980545E+02  0.11433918647E+02  0.95547031860E+02  0.90894213045E+02 0.  0.
         11    1    3    3    0    0  0.25981270296E+02 -0.17212101855E+02  0.19380013129E+02  0.36699697078E+02  0.51100000000E-03 0.  1.
         22    1    1    0    0    0  0.22598499875E+02 -0.15034980545E+02 -0.11433918647E+02  0.29452968140E+02  0.00000000000E+00 0. -1.
</event>
<event>
 5    1  0.1103865E-009  0.9118800E+02  0.7818608E-02  0.1130116E+00
         25   -1    0    0    0    0  0.00000000000E+00  0.00000000000E+00  0.99999998245E-14  0.12500000000E+03  0.12500000000E+03 0.  0.
        -11    1    3    3    0    0 -0.29035771165E+02 -0.17069279176E+02  0.14700576842E+02  0.36749738210E+02  0.51100000000E-03 0.  1.
         23    2    1    0    0    0  0.16924895987E+00  0.18601954120E+02 -0.22368971362E+02  0.95906491753E+02  0.91387214305E+02 0.  0.
         11    1    3    3    0    0  0.29205020125E+02  0.35671233297E+02 -0.37069548204E+02  0.59156753543E+02  0.51100000000E-03 0. -1.
         22    1    1    0    0    0 -0.16924895987E+00 -0.18601954120E+02  0.22368971362E+02  0.29093508247E+02  0.00000000000E+00 0. -1.
</event>
<event>
 4    1  0.1103865E-009  0.9118800E+02  0.7818608E-02  0.1130116E+00
         25   -1    0    0    0    0  0.00000000000E+00  0.00000000000E+00  0.99999998245E-14  0.12500000000E+03  0.12500000000E+03 0.  0.
        -11    1    1    0    0    0 -0.69149008900E+01 -0.12921377540E+02 -0.10697298385E+02  0.18144146297E+02  0.51100000000E-03 0. -1.
         11    1    1    0    0    0 -0.40374102091E+02  0.24759307129E+02  0.28128935626E+02  0.55084738621E+02  0.51100000000E-03 0.  1.
         22    1    1    0    0    0  0.47289002981E+02 -0.11837929589E+02 -0.17431637241E+02  0.51771115082E+02  0.00000000000E+00 0.  1.
</event>
<event>
 5    1  0.1103865E-009  0.9118800E+02  0.7818608E-02  0.1130116E+00
         25   -1    0    0    0    0  0.00000000000E+00  0.00000000000E+00  0.99999998245E-14  0.12500000000E+03  0.12500000000E+03 0.  0.
        -11    1    3    3    0    0  0.34989093318E+02 -0.13423672493E+02 -0.28858169680E+02  0.47299319149E+02  0.51100000000E-03 0.  1.
         23    2    1    0    0    0  0.36422073948E+01  0.21932344452E+02 -0.19411567712E+02  0.95485556606E+02  0.90809631380E+02 0.  0.
         11    1    3    3    0    0 -0.31346885923E+02  0.35356016944E+02  0.94466019686E+01  0.48186237457E+02  0.51100000000E-03 0. -1.
         22    1    1    0    0    0 -0.36422073948E+01 -0.21932344452E+02  0.19411567712E+02  0.29514443394E+02  0.00000000000E+00 0.  1.
</event>
<event>
 5    1  0.1103865E-009  0.9118800E+02  0.7818608E-02  0.1130116E+00
         25   -1    0    0    0    0  0.00000000000E+00  0.00000000000E+00  0.99999998245E-14  0.12500000000E+03  0.12500000000E+03 0.  0.
        -11    1    3    3    0    0  0.23507806227E+01  0.43140172128E+02 -0.45092617857E+02  0.62449538078E+02  0.51100000000E-03 0.  1.
         23    2    1    0    0    0  0.27736535465E+01  0.20011320634E+02 -0.21832188804E+02  0.95254570511E+02  0.90491119055E+02 0.  0.
         11    1    3    3    0    0  0.42287292382E+00 -0.23128851494E+02  0.23260429053E+02  0.32805032433E+02  0.51100000000E-03 0. -1.
         22    1    1    0    0    0 -0.27736535465E+01 -0.20011320634E+02  0.21832188804E+02  0.29745429489E+02  0.00000000000E+00 0.  1.
</event>
<event>
 5    1  0.1103865E-009  0.9118800E+02  0.7818608E-02  0.1130116E+00
         25   -1    0    0    0    0  0.00000000000E+00  0.00000000000E+00  0.99999998245E-14  0.12500000000E+03  0.12500000000E+03 0.  0.
        -11    1    3    3    0    0 -0.25624040777E+01  0.51927775155E+02  0.17980920799E+02  0.55012482767E+02  0.51100000000E-03 0. -1.
         23    2    1    0    0    0  0.20052193420E+02  0.18873218702E+02  0.86634882419E+01  0.96132286657E+02  0.91695537864E+02 0.  0.
         11    1    3    3    0    0  0.22614597498E+02 -0.33054556452E+02 -0.93174325567E+01  0.41119803890E+02  0.51100000000E-03 0.  1.
         22    1    1    0    0    0 -0.20052193420E+02 -0.18873218702E+02 -0.86634882419E+01  0.28867713343E+02  0.00000000000E+00 0. -1.
</event>
<event>
 5    1  0.1103865E-009  0.9118800E+02  0.7818608E-02  0.1130116E+00
         25   -1    0    0    0    0  0.00000000000E+00  0.00000000000E+00  0.99999998245E-14  0.12500000000E+03  0.12500000000E+03 0.  0.
        -11    1    3    3    0    0 -0.45765115530E+02 -0.13670516948E+02 -0.11367501214E+02  0.49097341244E+02  0.51100000000E-03 0. -1.
         23    2    1    0    0    0 -0.14006846731E+02  0.19211220393E+02 -0.17851113374E+02  0.95269123911E+02  0.90511220176E+02 0.  0.
         11    1    3    3    0    0  0.31758268799E+02  0.32881737341E+02 -0.64836121602E+01  0.46171782667E+02  0.51100000000E-03 0.  1.
         22    1    1    0    0    0  0.14006846731E+02 -0.19211220393E+02  0.17851113374E+02  0.29730876089E+02  0.00000000000E+00 0. -1.
</event>
<event>
 5    1  0.1103865E-009  0.9118800E+02  0.7818608E-02  0.1130116E+00
         25   -1    0    0    0    0  0.00000000000E+00  0.00000000000E+00  0.99999998245E-14  0.12500000000E+03  0.12500000000E+03 0.  0.
        -11    1    3    3    0    0  0.38638372565E+02 -0.67855774594E+01 -0.60553687953E+01  0.39694273988E+02  0.51100000000E-03 0. -1.
         23    2    1    0    0    0 -0.10448396593E+02 -0.19950624230E+02  0.18234885637E+02  0.96022293867E+02  0.91545472126E+02 0.  0.
         11    1    3    3    0    0 -0.49086769158E+02 -0.13165046771E+02  0.24290254432E+02  0.56328019879E+02  0.51100000000E-03 0.  1.
         22    1    1    0    0    0  0.10448396593E+02  0.19950624230E+02 -0.18234885637E+02  0.28977706133E+02  0.00000000000E+00 0.  1.
</event>
<event>
 5    1  0.1103865E-009  0.9118800E+02  0.7818608E-02  0.1130116E+00
         25   -1    0    0    0    0  0.00000000000E+00  0.00000000000E+00  0.99999998245E-14  0.12500000000E+03  0.12500000000E+03 0.  0.
        -11    1    3    3    0    0 -0.37567839531E+02 -0.28325950988E+02  0.51508402486E+01  0.47331102057E+02  0.51100000000E-03 0. -1.
         23    2    1    0    0    0  0.10358236541E+02 -0.27135810249E+02 -0.23683251375E+01  0.95858033250E+02  0.91320908408E+02 0.  0.
         11    1    3    3    0    0  0.47926076072E+02  0.11901407391E+01 -0.75191653862E+01  0.48526931193E+02  0.51100000000E-03 0.  1.
         22    1    1    0    0    0 -0.10358236541E+02  0.27135810249E+02  0.23683251375E+01  0.29141966750E+02  0.00000000000E+00 0.  1.
</event>
<event>
 5    1  0.1103865E-009  0.9118800E+02  0.7818608E-02  0.1130116E+00
         25   -1    0    0    0    0  0.00000000000E+00  0.00000000000E+00  0.99999998245E-14  0.12500000000E+03  0.12500000000E+03 0.  0.
        -11    1    3    3    0    0  0.10957417812E+02 -0.41750543746E+02  0.14432752463E+02  0.45513484289E+02  0.51100000000E-03 0.  1.
         23    2    1    0    0    0 -0.22220558344E+02 -0.46766729790E+01  0.18887245836E+02  0.95464385252E+02  0.90780484207E+02 0.  0.
         11    1    3    3    0    0 -0.33177976156E+02  0.37073870767E+02  0.44544933738E+01  0.49950900963E+02  0.51100000000E-03 0. -1.
         22    1    1    0    0    0  0.22220558344E+02  0.46766729790E+01 -0.18887245836E+02  0.29535614748E+02  0.00000000000E+00 0. -1.
</event>
<event>
 5    1  0.1103865E-009  0.9118800E+02  0.7818608E-02  0.1130116E+00
         25   -1    0    0    0    0  0.00000000000E+00  0.00000000000E+00  0.99999998245E-14  0.12500000000E+03  0.12500000000E+03 0.  0.
        -11    1    3    3    0    0 -0.23184407208E+01 -0.38942786677E+02  0.19094679103E+02  0.43434117602E+02  0.51100000000E-03 0.  1.
         23    2    1    0    0    0 -0.17063359780E+02 -0.24578887363E+02 -0.20959401264E+02  0.88468144691E+02  0.80573172785E+02 0.  0.
         11    1    3    3    0    0 -0.14744919059E+02  0.14363899314E+02 -0.40054080367E+02  0.45034027089E+02  0.51100000000E-03 0. -1.
         22    1    1    0    0    0  0.17063359780E+02  0.24578887363E+02  0.20959401264E+02  0.36531855309E+02  0.00000000000E+00 0. -1.
</event>
<event>
 5    1  0.1103865E-009  0.9118800E+02  0.7818608E-02  0.1130116E+00
         25   -1    0    0    0    0  0.00000000000E+00  0.00000000000E+00  0.99999998245E-14  0.12500000000E+03  0.12500000000E+03 0.  0.
        -11    1    3    3    0    0 -0.59288335612E+01  0.56484661512E+02  0.20812610273E+02  0.60488286471E+02  0.51100000000E-03 0. -1.
         23    2    1    0    0    0 -0.61109152334E+00  0.30985584597E+02 -0.28310861440E+00  0.94007097004E+02  0.88751192955E+02 0.  0.
         11    1    3    3    0    0  0.53177420378E+01 -0.25499076916E+02 -0.21095718887E+02  0.33518810533E+02  0.51100000000E-03 0.  1.
         22    1    1    0    0    0  0.61109152334E+00 -0.30985584597E+02  0.28310861440E+00  0.30992902996E+02  0.00000000000E+00 0. -1.
</event>
<event>
 4    1  0.1103865E-009  0.9118800E+02  0.7818608E-02  0.1130116E+00
         25   -1    0    0    0    0  0.00000000000E+00  0.00000000000E+00  0.99999998245E-14  0.12500000000E+03  0.12500000000E+03 0.  0.
        -11    1    1    0    0    0 -0.27557995593E+02  0.31195375991E+02 -0.40482856518E+02  0.58064242666E+02  0.51100000000E-03 0.  1.
         11    1    1    0    0    0  0.19007888445E+00  0.60378439980E+01  0.96477155649E+01  0.11382886541E+02  0.51100000000E-03 0. -1.
         22    1    1    0    0    0  0.27367916708E+02 -0.37233219989E+02  0.30835140953E+02  0.55552870792E+02  0.00000000000E+00 0.  1.
</event>
<event>
 5    1  0.1103865E-009  0.9118800E+02  0.7818608E-02  0.1130116E+00
         25   -1    0    0    0    0  0.00000000000E+00  0.00000000000E+00  0.99999998245E-14  0.12500000000E+03  0.12500000000E+03 0.  0.
        -11    1    3    3    0    0 -0.49733524588E+01  0.37352796546E+02  0.97004636008E+01  0.38910983524E+02  0.51100000000E-03 0. -1.
         23    2    1    0    0    0  0.33083491825E+01 -0.23697269437E+02  0.31068905471E+01  0.10087203859E+03  0.97943910718E+02 0.  0.
         11    1    3    3    0    0  0.82817016413E+01 -0.61050065983E+02 -0.65935730536E+01  0.61961055063E+02  0.51100000000E-03 0.  1.
         22    1    1    0    0    0 -0.33083491825E+01  0.23697269437E+02 -0.31068905471E+01  0.24127961413E+02  0.00000000000E+00 0.  1.
</event>
<event>
 5    1  0.1103865E-009  0.9118800E+02  0.7818608E-02  0.1130116E+00
         25   -1    0    0    0    0  0.00000000000E+00  0.00000000000E+00  0.99999998245E-14  0.12500000000E+03  0.12500000000E+03 0.  0.
        -11    1    3    3    0    0  0.32222262961E+02 -0.42234121677E+02 -0.26707264048E+01  0.53189548258E+02  0.51100000000E-03 0.  1.
         23    2    1    0    0    0  0.24302844413E+02 -0.46045185211E+01  0.15592808816E+02  0.95760206496E+02  0.91186904893E+02 0.  0.
         11    1    3    3    0    0 -0.79194185471E+01  0.37629603156E+02  0.18263535221E+02  0.42570658238E+02  0.51100000000E-03 0. -1.
         22    1    1    0    0    0 -0.24302844413E+02  0.46045185211E+01 -0.15592808816E+02  0.29239793504E+02  0.00000000000E+00 0.  1.
</event>
<event>
 5    1  0.1103865E-009  0.9118800E+02  0.7818608E-02  0.1130116E+00
         25   -1    0    0    0    0  0.00000000000E+00  0.00000000000E+00  0.99999998245E-14  0.12500000000E+03  0.12500000000E+03 0.  0.
        -11    1    3    3    0    0 -0.17953359407E+02  0.31014892775E+02 -0.12997690652E+01  0.35859951027E+02  0.51100000000E-03 0.  1.
         23    2    1    0    0    0  0.20344502427E+02 -0.11887878863E+02  0.16698020938E+02  0.96120174064E+02  0.91679024406E+02 0.  0.
         11    1    3    3    0    0  0.38297861833E+02 -0.42902771638E+02  0.17997790003E+02  0.60260223037E+02  0.51100000000E-03 0. -1.
         22    1    1    0    0    0 -0.20344502427E+02  0.11887878863E+02 -0.16698020938E+02  0.28879825936E+02  0.00000000000E+00 0. -1.
</event>
<event>
 5    1  0.1103865E-009  0.9118800E+02  0.7818608E-02  0.1130116E+00
         25   -1    0    0    0    0  0.00000000000E+00  0.00000000000E+00  0.99999998245E-14  0.12500000000E+03  0.12500000000E+03 0.  0.
        -11    1    3    3    0    0  0.14790600288E+02 -0.32124748242E+01  0.53467328554E+02  0.55568309983E+02  0.51100000000E-03 0. -1.
         23    2    1    0    0    0 -0.11793458409E+02 -0.10937726754E+02  0.24964213939E+02  0.95302668379E+02  0.90557534722E+02 0.  0.
         11    1    3    3    0    0 -0.26584058697E+02 -0.77252519294E+01 -0.28503114615E+02  0.39734358397E+02  0.51100000000E-03 0.  1.
         22    1    1    0    0    0  0.11793458409E+02  0.10937726754E+02 -0.24964213939E+02  0.29697331621E+02  0.00000000000E+00 0. -1.
</event>
<event>
 5    1  0.1103865E-009  0.9118800E+02  0.7818608E-02  0.1130116E+00
         25   -1    0    0    0    0  0.00000000000E+00  0.00000000000E+00  0.99999998245E-14  0.12500000000E+03  0.12500000000E+03 0.  0.
        -11    1    3    3    0    0  0.45945874709E+02  0.44025774474E+01  0.28896690961E+02  0.54455714482E+02  0.51100000000E-03 0.  1.
         23    2    1    0    0    0  0.16482083357E+02 -0.20128041848E+02  0.11606406321E+02  0.96513058990E+02  0.92213148452E+02 0.  0.
         11    1    3    3    0    0 -0.29463791352E+02 -0.24530619296E+02 -0.17290284640E+02  0.42057344508E+02  0.51100000000E-03 0. -1.
         22    1    1    0    0    0 -0.16482083357E+02  0.20128041848E+02 -0.11606406321E+02  0.28486941010E+02  0.00000000000E+00 0.  1.
</event>
<event>
 5    1  0.1103865E-009  0.9118800E+02  0.7818608E-02  0.1130116E+00
         25   -1    0    0    0    0  0.00000000000E+00  0.00000000000E+00  0.99999998245E-14  0.12500000000E+03  0.12500000000E+03 0.  0.
        -11    1    3    3    0    0 -0.26889038085E+02 -0.27358238992E+02 -0.39118843035E+02  0.54788479543E+02  0.51100000000E-03 0.  1.
         23    2    1    0    0    0 -0.67455661659E+00  0.39492984058E+01 -0.27453877803E+02  0.97255317790E+02  0.93213890851E+02 0.  0.
         11    1    3    3    0    0  0.26214481468E+02  0.31307537398E+02  0.11664965233E+02  0.42466838248E+02  0.51100000000E-03 0. -1.
         22    1    1    0    0    0  0.67455661659E+00 -0.39492984058E+01  0.27453877803E+02  0.27744682210E+02  0.00000000000E+00 0.  1.
</event>
<event>
 5    1  0.1103865E-009  0.9118800E+02  0.7818608E-02  0.1130116E+00
         25   -1    0    0    0    0  0.00000000000E+00  0.00000000000E+00  0.99999998245E-14  0.12500000000E+03  0.12500000000E+03 0.  0.
        -11    1    3    3    0    0 -0.54336407649E+02  0.82024990952E+01  0.78084118429E+01  0.55504031235E+02  0.51100000000E-03 0. -1.
         23    2    1    0    0    0 -0.18615996047E+02  0.21851458140E+02 -0.50616697955E+01  0.95851037191E+02  0.91311331706E+02 0.  0.
         11    1    3    3    0    0  0.35720411601E+02  0.13648959045E+02 -0.12870081638E+02  0.40347005956E+02  0.51100000000E-03 0.  1.
         22    1    1    0    0    0  0.18615996047E+02 -0.21851458140E+02  0.50616697955E+01  0.29148962809E+02  0.00000000000E+00 0. -1.
</event>
<event>
 5    1  0.1103865E-009  0.9118800E+02  0.7818608E-02  0.1130116E+00
         25   -1    0    0    0    0  0.00000000000E+00  0.00000000000E+00  0.99999998245E-14  0.12500000000E+03  0.12500000000E+03 0.  0.
        -11    1    3    3    0    0 -0.20647680607E+02  0.43693176519E+02 -0.26683210630E+02  0.55203388651E+02  0.51100000000E-03 0. -1.
         23    2    1    0    0    0  0.97483448993E+01  0.28315015169E+02 -0.82377792565E+01  0.93941485557E+02  0.88658735550E+02 0.  0.
         11    1    3    3    0    0  0.30396025506E+02 -0.15378161350E+02  0.18445431373E+02  0.38738096906E+02  0.51100000000E-03 0.  1.
         22    1    1    0    0    0 -0.97483448993E+01 -0.28315015169E+02  0.82377792565E+01  0.31058514443E+02  0.00000000000E+00 0. -1.
</event>
<event>
 5    1  0.1103865E-009  0.9118800E+02  0.7818608E-02  0.1130116E+00
         25   -1    0    0    0    0  0.00000000000E+00  0.00000000000E+00  0.99999998245E-14  0.12500000000E+03  0.12500000000E+03 0.  0.
        -11    1    3    3    0    0 -0.30859830424E+02 -0.17056292849E+02 -0.45504061119E+02  0.57566186586E+02  0.51100000000E-03 0.  1.
         23    2    1    0    0    0 -0.23800793943E+02  0.62023384557E+01 -0.16624800141E+02  0.95312784328E+02  0.90571497073E+02 0.  0.
         11    1    3    3    0    0  0.70590364814E+01  0.23258631304E+02  0.28879260977E+02  0.37746597741E+02  0.51100000000E-03 0. -1.
         22    1    1    0    0    0  0.23800793943E+02 -0.62023384557E+01  0.16624800141E+02  0.29687215672E+02  0.00000000000E+00 0.  1.
</event>
<event>
 5    1  0.1103865E-009  0.9118800E+02  0.7818608E-02  0.1130116E+00
         25   -1    0    0    0    0  0.00000000000E+00  0.00000000000E+00  0.99999998245E-14  0.12500000000E+03  0.12500000000E+03 0.  0.
        -11    1    3    3    0    0 -0.12694428661E+02  0.23193427439E+02  0.24310168022E+02  0.35917514738E+02  0.51100000000E-03 0.  1.
         23    2    1    0    0    0  0.20196494170E+02  0.22744317226E+01 -0.21059693694E+02  0.95732575875E+02  0.91149020668E+02 0.  0.
         11    1    3    3    0    0  0.32890922831E+02 -0.20918995716E+02 -0.45369861716E+02  0.59815061138E+02  0.51100000000E-03 0. -1.
         22    1    1    0    0    0 -0.20196494170E+02 -0.22744317226E+01  0.21059693694E+02  0.29267424125E+02  0.00000000000E+00 0. -1.
</event>
<event>
 5    1  0.1103865E-009  0.9118800E+02  0.7818608E-02  0.1130116E+00
         25   -1    0    0    0    0  0.00000000000E+00  0.00000000000E+00  0.99999998245E-14  0.12500000000E+03  0.12500000000E+03 0.  0.
        -11    1    3    3    0    0 -0.40913063068E+02 -0.43786935995E+01  0.38274331499E+01  0.41324338253E+02  0.51100000000E-03 0. -1.
         23    2    1    0    0    0  0.38754891028E+01  0.24801043888E+02  0.14751422513E+02  0.95884442993E+02  0.91357050894E+02 0.  0.
         11    1    3    3    0    0  0.44788552171E+02  0.29179737487E+02  0.10923989363E+02  0.54560104740E+02  0.51100000000E-03 0.  1.
         22    1    1    0    0    0 -0.38754891028E+01 -0.24801043888E+02 -0.14751422513E+02  0.29115557007E+02  0.00000000000E+00 0.  1.
</event>
<event>
 5    1  0.1103865E-009  0.9118800E+02  0.7818608E-02  0.1130116E+00
         25   -1    0    0    0    0  0.00000000000E+00  0.00000000000E+00  0.99999998245E-14  0.12500000000E+03  0.12500000000E+03 0.  0.
        -11    1    3    3    0    0  0.17635932432E+02  0.17331186905E+02  0.28967578428E+02  0.38085650218E+02  0.51100000000E-03 0. -1.
         23    2    1    0    0    0 -0.19151418111E+02  0.12973992518E+02 -0.16390986730E+02  0.96649237338E+02  0.92397561302E+02 0.  0.
         11    1    3    3    0    0 -0.36787350543E+02 -0.43571943867E+01 -0.45358565158E+02  0.58563587120E+02  0.51100000000E-03 0.  1.
         22    1    1    0    0    0  0.19151418111E+02 -0.12973992518E+02  0.16390986730E+02  0.28350762662E+02  0.00000000000E+00 0.  1.
</event>
<event>
 5    1  0.1103865E-009  0.9118800E+02  0.7818608E-02  0.1130116E+00
         25   -1    0    0    0    0  0.00000000000E+00  0.00000000000E+00  0.99999998245E-14  0.12500000000E+03  0.12500000000E+03 0.  0.
        -11    1    3    3    0    0 -0.47322410629E+02 -0.22376093460E+02 -0.18090892345E+02  0.55383937133E+02  0.51100000000E-03 0.  1.
         23    2    1    0    0    0 -0.74156998715E+01 -0.20849928022E+02 -0.19728408272E+02  0.95353377999E+02  0.90627504102E+02 0.  0.
         11    1    3    3    0    0  0.39906710758E+02  0.15261654376E+01 -0.16375159272E+01  0.39969440866E+02  0.51100000000E-03 0. -1.
         22    1    1    0    0    0  0.74156998715E+01  0.20849928022E+02  0.19728408272E+02  0.29646622001E+02  0.00000000000E+00 0.  1.
</event>
<event>
 5    1  0.1103865E-009  0.9118800E+02  0.7818608E-02  0.1130116E+00
         25   -1    0    0    0    0  0.00000000000E+00  0.00000000000E+00  0.99999998245E-14  0.12500000000E+03  0.12500000000E+03 0.  0.
        -11    1    3    3    0    0 -0.52672764491E+02 -0.66635558880E+01 -0.24114605710E+02  0.58312411243E+02  0.51100000000E-03 0.  1.
         23    2    1    0    0    0 -0.17143228664E+02  0.58790971458E+01 -0.22612848523E+02  0.96020783471E+02  0.91543409746E+02 0.  0.
         11    1    3    3    0    0  0.35529535827E+02  0.12542653034E+02  0.15017571867E+01  0.37708372228E+02  0.51100000000E-03 0. -1.
         22    1    1    0    0    0  0.17143228664E+02 -0.58790971458E+01  0.22612848523E+02  0.28979216529E+02  0.00000000000E+00 0.  1.
</event>
<event>
 5    1  0.1103865E-009  0.9118800E+02  0.7818608E-02  0.1130116E+00
         25   -1    0    0    0    0  0.00000000000E+00  0.00000000000E+00  0.99999998245E-14  0.12500000000E+03  0.12500000000E+03 0.  0.
        -11    1    3    3    0    0  0.36646316462E+02  0.15482254392E+02 -0.44669076725E+02  0.59816211239E+02  0.51100000000E-03 0.  1.
         23    2    1    0    0    0  0.16735493392E+02  0.19256364560E+02 -0.16138333201E+02  0.94811755373E+02  0.89877354452E+02 0.  0.
         11    1    3    3    0    0 -0.19910823070E+02  0.37741101686E+01  0.28530743524E+02  0.34995544134E+02  0.51100000000E-03 0. -1.
         22    1    1    0    0    0 -0.16735493392E+02 -0.19256364560E+02  0.16138333201E+02  0.30188244627E+02  0.00000000000E+00 0.  1.
</event>
<event>
 5    1  0.1103865E-009  0.9118800E+02  0.7818608E-02  0.1130116E+00
         25   -1    0    0    0    0  0.00000000000E+00  0.00000000000E+00  0.99999998245E-14  0.12500000000E+03  0.12500000000E+03 0.  0.
        -11    1    3    3    0    0  0.44912789169E+02 -0.31805147945E+02 -0.13704955161E+02  0.56714652983E+02  0.51100000000E-03 0. -1.
         23    2    1    0    0    0  0.13060210327E+02 -0.31203913258E+02 -0.13514376753E+02  0.88573475661E+02  0.80736416290E+02 0.  0.
         11    1    3    3    0    0 -0.31852578843E+02  0.60123468687E+00  0.19057840782E+00  0.31858822679E+02  0.51100000000E-03 0.  1.
         22    1    1    0    0    0 -0.13060210327E+02  0.31203913258E+02  0.13514376753E+02  0.36426524339E+02  0.00000000000E+00 0. -1.
</event>
<event>
 5    1  0.1103865E-009  0.9118800E+02  0.7818608E-02  0.1130116E+00
         25   -1    0    0    0    0  0.00000000000E+00  0.00000000000E+00  0.99999998245E-14  0.12500000000E+03  0.12500000000E+03 0.  0.
        -11    1    3    3    0    0 -0.13370322175E+01  0.42630429466E+02  0.11774524175E+02  0.44246814478E+02  0.51100000000E-03 0.  1.
         23    2    1    0    0    0  0.20981175912E+02 -0.31747010033E+01  0.19977248379E+02  0.95855893873E+02  0.91317979984E+02 0.  0.
         11    1    3    3    0    0  0.22318208130E+02 -0.45805130469E+02  0.82027242038E+01  0.51609079396E+02  0.51100000000E-03 0. -1.
         22    1    1    0    0    0 -0.20981175912E+02  0.31747010033E+01 -0.19977248379E+02  0.29144106127E+02  0.00000000000E+00 0. -1.
</event>
<event>
 5    1  0.1103865E-009  0.9118800E+02  0.7818608E-02  0.1130116E+00
         25   -1    0    0    0    0  0.00000000000E+00  0.00000000000E+00  0.99999998245E-14  0.12500000000E+03  0.12500000000E+03 0.  0.
        -11    1    3    3    0    0  0.12775551305E+02 -0.59128463110E+02  0.10538237065E+01  0.60502069432E+02  0.51100000000E-03 0.  1.
         23    2    1    0    0    0  0.16659248411E+02 -0.26137513763E+02  0.34842262752E+01  0.93809616609E+02  0.88472618094E+02 0.  0.
         11    1    3    3    0    0  0.38836971056E+01  0.32990949347E+02  0.24304025687E+01  0.33307547177E+02  0.51100000000E-03 0. -1.
         22    1    1    0    0    0 -0.16659248411E+02  0.26137513763E+02 -0.34842262752E+01  0.31190383391E+02  0.00000000000E+00 0.  1.
</event>
<event>
 5    1  0.1103865E-009  0.9118800E+02  0.7818608E-02  0.1130116E+00
         25   -1    0    0    0    0  0.00000000000E+00  0.00000000000E+00  0.99999998245E-14  0.12500000000E+03  0.12500000000E+03 0.  0.
        -11    1    3    3    0    0 -0.71947335147E+01 -0.40241134936E+01  0.50589631034E+02  0.51256886837E+02  0.51100000000E-03 0. -1.
         23    2    1    0    0    0  0.38965857239E+01 -0.25784501317E+02  0.13581634785E+02  0.95597879466E+02  0.90964113069E+02 0.  0.
         11    1    3    3    0    0  0.11091319239E+02 -0.21760387824E+02 -0.37007996249E+02  0.44340992629E+02  0.51100000000E-03 0.  1.
         22    1    1    0    0    0 -0.38965857239E+01  0.25784501317E+02 -0.13581634785E+02  0.29402120534E+02  0.00000000000E+00 0. -1.
</event>
<event>
 5    1  0.1103865E-009  0.9118800E+02  0.7818608E-02  0.1130116E+00
         25   -1    0    0    0    0  0.00000000000E+00  0.00000000000E+00  0.99999998245E-14  0.12500000000E+03  0.12500000000E+03 0.  0.
        -11    1    3    3    0    0 -0.19337102516E+02 -0.40105700679E+02  0.14731571413E+02  0.46897867299E+02  0.51100000000E-03 0.  1.
         23    2    1    0    0    0 -0.17324318369E+02 -0.11741106470E+02 -0.22843021622E+02  0.94019534785E+02  0.88768708993E+02 0.  0.
         11    1    3    3    0    0  0.20127841468E+01  0.28364594209E+02 -0.37574593035E+02  0.47121667486E+02  0.51100000000E-03 0. -1.
         22    1    1    0    0    0  0.17324318369E+02  0.11741106470E+02  0.22843021622E+02  0.30980465215E+02  0.00000000000E+00 0.  1.
</event>
<event>
 5    1  0.1103865E-009  0.9118800E+02  0.7818608E-02  0.1130116E+00
         25   -1    0    0    0    0  0.00000000000E+00  0.00000000000E+00  0.99999998245E-14  0.12500000000E+03  0.12500000000E+03 0.  0.
        -11    1    3    3    0    0 -0.96905668038E+01 -0.21862024607E+02 -0.35175112298E+02  0.42534030262E+02  0.51100000000E-03 0.  1.
         23    2    1    0    0    0 -0.10309311547E+02  0.25263851520E+02 -0.10224837720E+02  0.95860826974E+02  0.91324732376E+02 0.  0.
         11    1    3    3    0    0 -0.61874474343E+00  0.47125876127E+02  0.24950274578E+02  0.53326796712E+02  0.51100000000E-03 0. -1.
         22    1    1    0    0    0  0.10309311547E+02 -0.25263851520E+02  0.10224837720E+02  0.29139173026E+02  0.00000000000E+00 0. -1.
</event>
<event>
 5    1  0.1103865E-009  0.9118800E+02  0.7818608E-02  0.1130116E+00
         25   -1    0    0    0    0  0.00000000000E+00  0.00000000000E+00  0.99999998245E-14  0.12500000000E+03  0.12500000000E+03 0.  0.
        -11    1    3    3    0    0 -0.41467396203E+02  0.86055538599E+01  0.20803197047E+02  0.47184462620E+02  0.51100000000E-03 0. -1.
         23    2    1    0    0    0 -0.25562267173E+02 -0.24729199603E+02  0.29181839482E+00  0.89432487099E+02  0.82055601726E+02 0.  0.
         11    1    3    3    0    0  0.15905129030E+02 -0.33334753462E+02 -0.20511378652E+02  0.42248024479E+02  0.51100000000E-03 0.  1.
         22    1    1    0    0    0  0.25562267173E+02  0.24729199603E+02 -0.29181839482E+00  0.35567512901E+02  0.00000000000E+00 0. -1.
</event>
<event>
 5    1  0.1103865E-009  0.9118800E+02  0.7818608E-02  0.1130116E+00
         25   -1    0    0    0    0  0.00000000000E+00  0.00000000000E+00  0.99999998245E-14  0.12500000000E+03  0.12500000000E+03 0.  0.
        -11    1    3    3    0    0 -0.34931070510E+02  0.16930044715E+02 -0.16292906035E+02  0.42098276548E+02  0.51100000000E-03 0.  1.
         23    2    1    0    0    0 -0.22738898543E+02 -0.66680936064E+01  0.24588980455E+02  0.90851223461E+02  0.84189107759E+02 0.  0.
         11    1    3    3    0    0  0.12192171967E+02 -0.23598138321E+02  0.40881886490E+02  0.48752946913E+02  0.51100000000E-03 0. -1.
         22    1    1    0    0    0  0.22738898543E+02  0.66680936064E+01 -0.24588980455E+02  0.34148776539E+02  0.00000000000E+00 0. -1.
</event>
<event>
 5    1  0.1103865E-009  0.9118800E+02  0.7818608E-02  0.1130116E+00
         25   -1    0    0    0    0  0.00000000000E+00  0.00000000000E+00  0.99999998245E-14  0.12500000000E+03  0.12500000000E+03 0.  0.
        -11    1    3    3    0    0  0.12493272397E+02  0.22401016881E+02  0.25559868392E+02  0.36210416801E+02  0.51100000000E-03 0.  1.
         23    2    1    0    0    0 -0.17826408076E+02  0.27721194362E+00 -0.21927168782E+02  0.96739455028E+02  0.92519531759E+02 0.  0.
         11    1    3    3    0    0 -0.30319680472E+02 -0.22123804937E+02 -0.47487037174E+02  0.60529038226E+02  0.51100000000E-03 0. -1.
         22    1    1    0    0    0  0.17826408076E+02 -0.27721194362E+00  0.21927168782E+02  0.28260544972E+02  0.00000000000E+00 0. -1.
</event>
<event>
 5    1  0.1103865E-009  0.9118800E+02  0.7818608E-02  0.1130116E+00
         25   -1    0    0    0    0  0.00000000000E+00  0.00000000000E+00  0.99999998245E-14  0.12500000000E+03  0.12500000000E+03 0.  0.
        -11    1    3    3    0    0  0.27647180279E+02 -0.48740126719E+02 -0.11085543686E+02  0.57121412876E+02  0.51100000000E-03 0. -1.
         23    2    1    0    0    0 -0.50275390912E+00 -0.23916597772E+02 -0.17713510936E+02  0.95233829938E+02  0.90462464506E+02 0.  0.
         11    1    3    3    0    0 -0.28149934188E+02  0.24823528946E+02 -0.66279672496E+01  0.38112417061E+02  0.51100000000E-03 0.  1.
         22    1    1    0    0    0  0.50275390912E+00  0.23916597772E+02  0.17713510936E+02  0.29766170062E+02  0.00000000000E+00 0. -1.
</event>
<event>
 5    1  0.1103865E-009  0.9118800E+02  0.7818608E-02  0.1130116E+00
         25   -1    0    0    0    0  0.00000000000E+00  0.00000000000E+00  0.99999998245E-14  0.12500000000E+03  0.12500000000E+03 0.  0.
        -11    1    3    3    0    0 -0.23441189725E+02  0.28444784071E+02  0.31579449541E+02  0.48537168749E+02  0.51100000000E-03 0. -1.
         23    2    1    0    0    0  0.19027908154E+02  0.12384742134E+02  0.18288417959E+02  0.95846795067E+02  0.91305524295E+02 0.  0.
         11    1    3    3    0    0  0.42469097879E+02 -0.16060041937E+02 -0.13291031582E+02  0.47309626319E+02  0.51100000000E-03 0.  1.
         22    1    1    0    0    0 -0.19027908154E+02 -0.12384742134E+02 -0.18288417959E+02  0.29153204933E+02  0.00000000000E+00 0.  1.
</event>
<event>
 5    1  0.1103865E-009  0.9118800E+02  0.7818608E-02  0.1130116E+00
         25   -1    0    0    0    0  0.00000000000E+00  0.00000000000E+00  0.99999998245E-14  0.12500000000E+03  0.12500000000E+03 0.  0.
        -11    1    3    3    0    0  0.47474340126E+01  0.53124942668E+01 -0.37436791350E+02  0.38108713858E+02  0.51100000000E-03 0. -1.
         23    2    1    0    0    0  0.96936519202E+01 -0.22791223354E+02  0.13720468973E+02  0.96686434023E+02  0.92447869124E+02 0.  0.
         11    1    3    3    0    0  0.49462179076E+01 -0.28103717621E+02  0.51157260323E+02  0.58577720165E+02  0.51100000000E-03 0.  1.
         22    1    1    0    0    0 -0.96936519202E+01  0.22791223354E+02 -0.13720468973E+02  0.28313565977E+02  0.00000000000E+00 0.  1.
</event>
<event>
 5    1  0.1103865E-009  0.9118800E+02  0.7818608E-02  0.1130116E+00
         25   -1    0    0    0    0  0.00000000000E+00  0.00000000000E+00  0.99999998245E-14  0.12500000000E+03  0.12500000000E+03 0.  0.
        -11    1    3    3    0    0 -0.29891279375E+02 -0.22155423444E+02 -0.25860767070E+02  0.45311484685E+02  0.51100000000E-03 0. -1.
         23    2    1    0    0    0 -0.14200171665E+02 -0.11124002755E+02  0.21810330529E+02  0.96696663970E+02  0.92461700139E+02 0.  0.
         11    1    3    3    0    0  0.15691107709E+02  0.11031420689E+02  0.47671097600E+02  0.51385179285E+02  0.51100000000E-03 0.  1.
         22    1    1    0    0    0  0.14200171665E+02  0.11124002755E+02 -0.21810330529E+02  0.28303336030E+02  0.00000000000E+00 0.  1.
</event>
<event>
 5    1  0.1103865E-009  0.9118800E+02  0.7818608E-02  0.1130116E+00
         25   -1    0    0    0    0  0.00000000000E+00  0.00000000000E+00  0.99999998245E-14  0.12500000000E+03  0.12500000000E+03 0.  0.
        -11    1    3    3    0    0 -0.36143624177E+02  0.12273858772E+02 -0.38389935072E+02  0.54136829358E+02  0.51100000000E-03 0.  1.
         23    2    1    0    0    0 -0.52547356421E+01 -0.12522054494E+02 -0.26047047686E+02  0.95625473815E+02  0.91002024448E+02 0.  0.
         11    1    3    3    0    0  0.30888888535E+02 -0.24795913266E+02  0.12342887385E+02  0.41488644457E+02  0.51100000000E-03 0. -1.
         22    1    1    0    0    0  0.52547356421E+01  0.12522054494E+02  0.26047047686E+02  0.29374526185E+02  0.00000000000E+00 0. -1.
</event>
<event>
 5    1  0.1103865E-009  0.9118800E+02  0.7818608E-02  0.1130116E+00
         25   -1    0    0    0    0  0.00000000000E+00  0.00000000000E+00  0.99999998245E-14  0.12500000000E+03  0.12500000000E+03 0.  0.
        -11    1    3    3    0    0  0.56708158480E+01  0.36421175944E+02  0.42512678550E+02  0.56267113373E+02  0.51100000000E-03 0. -1.
         23    2    1    0    0    0 -0.11559640337E+02  0.26080839467E+02  0.94682118769E+01  0.94942014236E+02  0.90058334201E+02 0.  0.
         11    1    3    3    0    0 -0.17230456185E+02 -0.10340336477E+02 -0.33044466674E+02  0.38674900864E+02  0.51100000000E-03 0.  1.
         22    1    1    0    0    0  0.11559640337E+02 -0.26080839467E+02 -0.94682118769E+01  0.30057985764E+02  0.00000000000E+00 0. -1.
</event>
<event>
 5    1  0.1103865E-009  0.9118800E+02  0.7818608E-02  0.1130116E+00
         25   -1    0    0    0    0  0.00000000000E+00  0.00000000000E+00  0.99999998245E-14  0.12500000000E+03  0.12500000000E+03 0.  0.
        -11    1    3    3    0    0 -0.29986013998E+02 -0.32034419554E+02  0.22098780141E+02  0.49129636225E+02  0.51100000000E-03 0.  1.
         23    2    1    0    0    0  0.96430796231E+01 -0.22591624482E+02  0.24975119940E+02  0.89969626074E+02  0.82869816692E+02 0.  0.
         11    1    3    3    0    0  0.39629093621E+02  0.94427950717E+01  0.28763397996E+01  0.40839989849E+02  0.51100000000E-03 0. -1.
         22    1    1    0    0    0 -0.96430796231E+01  0.22591624482E+02 -0.24975119940E+02  0.35030373926E+02  0.00000000000E+00 0. -1.
</event>
<event>
 5    1  0.1103865E-009  0.9118800E+02  0.7818608E-02  0.1130116E+00
         25   -1    0    0    0    0  0.00000000000E+00  0.00000000000E+00  0.99999998245E-14  0.12500000000E+03  0.12500000000E+03 0.  0.
        -11    1    3    3    0    0  0.22529441134E+02  0.25783981761E+02  0.20058339125E+02  0.39682822505E+02  0.51100000000E-03 0. -1.
         23    2    1    0    0    0  0.10205858844E+02 -0.12736275912E+02 -0.21720855982E+02  0.97830755192E+02  0.93982385573E+02 0.  0.
         11    1    3    3    0    0 -0.12323582290E+02 -0.38520257674E+02 -0.41779195107E+02  0.58147932687E+02  0.51100000000E-03 0.  1.
         22    1    1    0    0    0 -0.10205858844E+02  0.12736275912E+02  0.21720855982E+02  0.27169244808E+02  0.00000000000E+00 0.  1.
</event>
<event>
 5    1  0.1103865E-009  0.9118800E+02  0.7818608E-02  0.1130116E+00
         25   -1    0    0    0    0  0.00000000000E+00  0.00000000000E+00  0.99999998245E-14  0.12500000000E+03  0.12500000000E+03 0.  0.
        -11    1    3    3    0    0 -0.67294098966E+00 -0.22950931905E+02  0.25906918277E+02  0.34617431154E+02  0.51100000000E-03 0.  1.
         23    2    1    0    0    0  0.12486277119E+02  0.55649743731E+01 -0.26194882921E+02  0.95452615221E+02  0.90764276041E+02 0.  0.
         11    1    3    3    0    0  0.13159218109E+02  0.28515906278E+02 -0.52101801198E+02  0.60835184066E+02  0.51100000000E-03 0. -1.
         22    1    1    0    0    0 -0.12486277119E+02 -0.55649743731E+01  0.26194882921E+02  0.29547384779E+02  0.00000000000E+00 0. -1.
</event>
<event>
 5    1  0.1103865E-009  0.9118800E+02  0.7818608E-02  0.1130116E+00
         25   -1    0    0    0    0  0.00000000000E+00  0.00000000000E+00  0.99999998245E-14  0.12500000000E+03  0.12500000000E+03 0.  0.
        -11    1    3    3    0    0 -0.26522621865E+02 -0.10364240374E+02 -0.15937876472E+02  0.32632542895E+02  0.51100000000E-03 0.  1.
         23    2    1    0    0    0 -0.59503816612E+01  0.33510212372E+02  0.12410373288E+02  0.88773507756E+02  0.81045523868E+02 0.  0.
         11    1    3    3    0    0  0.20572240203E+02  0.43874452747E+02  0.28348249760E+02  0.56140964861E+02  0.51100000000E-03 0. -1.
         22    1    1    0    0    0  0.59503816612E+01 -0.33510212372E+02 -0.12410373288E+02  0.36226492244E+02  0.00000000000E+00 0. -1.
</event>
<event>
 5    1  0.1103865E-009  0.9118800E+02  0.7818608E-02  0.1130116E+00
         25   -1    0    0    0    0  0.00000000000E+00  0.00000000000E+00  0.99999998245E-14  0.12500000000E+03  0.12500000000E+03 0.  0.
        -11    1    3    3    0    0  0.21289897159E+02  0.68325561524E+01  0.33416698218E+02  0.40207204139E+02  0.51100000000E-03 0.  1.
         23    2    1    0    0    0  0.15981374622E+02  0.14615324114E+02 -0.20642633321E+02  0.95081271013E+02  0.90251414134E+02 0.  0.
         11    1    3    3    0    0 -0.53085225370E+01  0.77827679617E+01 -0.54059331538E+02  0.54874066874E+02  0.51100000000E-03 0. -1.
         22    1    1    0    0    0 -0.15981374622E+02 -0.14615324114E+02  0.20642633321E+02  0.29918728987E+02  0.00000000000E+00 0. -1.
</event>
<event>
 5    1  0.1103865E-009  0.9118800E+02  0.7818608E-02  0.1130116E+00
         25   -1    0    0    0    0  0.00000000000E+00  0.00000000000E+00  0.99999998245E-14  0.12500000000E+03  0.12500000000E+03 0.  0.
        -11    1    3    3    0    0  0.28553207827E+02 -0.19673881053E+02 -0.22313877254E+02  0.41234165339E+02  0.51100000000E-03 0.  1.
         23    2    1    0    0    0 -0.48260514931E+01 -0.47938069219E+01  0.23899315262E+02  0.10015148641E+03  0.97019954656E+02 0.  0.
         11    1    3    3    0    0 -0.33379259320E+02  0.14880074131E+02  0.46213192516E+02  0.58917321067E+02  0.51100000000E-03 0. -1.
         22    1    1    0    0    0  0.48260514931E+01  0.47938069219E+01 -0.23899315262E+02  0.24848513594E+02  0.00000000000E+00 0. -1.
</event>
<event>
 5    1  0.1103865E-009  0.9118800E+02  0.7818608E-02  0.1130116E+00
         25   -1    0    0    0    0  0.00000000000E+00  0.00000000000E+00  0.99999998245E-14  0.12500000000E+03  0.12500000000E+03 0.  0.
        -11    1    3    3    0    0  0.33660461337E+02  0.30808561878E+02  0.40143677123E+02  0.60775891237E+02  0.51100000000E-03 0.  1.
         23    2    1    0    0    0  0.10995642175E+02  0.82293882671E+01  0.25663282053E+02  0.95892766813E+02  0.91368439317E+02 0.  0.
         11    1    3    3    0    0 -0.22664819162E+02 -0.22579173611E+02 -0.14480395070E+02  0.35116875576E+02  0.51100000000E-03 0. -1.
         22    1    1    0    0    0 -0.10995642175E+02 -0.82293882671E+01 -0.25663282053E+02  0.29107233187E+02  0.00000000000E+00 0.  1.
</event>
<event>
 5    1  0.1103865E-009  0.9118800E+02  0.7818608E-02  0.1130116E+00
         25   -1    0    0    0    0  0.00000000000E+00  0.00000000000E+00  0.99999998245E-14  0.12500000000E+03  0.12500000000E+03 0.  0.
        -11    1    3    3    0    0  0.28490813563E+02 -0.13299592320E+02  0.51969939330E+02  0.60741091591E+02  0.51100000000E-03 0.  1.
         23    2    1    0    0    0  0.20338056179E+02  0.33397309292E+00  0.19828756242E+02  0.96593528180E+02  0.92322164429E+02 0.  0.
         11    1    3    3    0    0 -0.81527573845E+01  0.13633565413E+02 -0.32141183088E+02  0.35852436589E+02  0.51100000000E-03 0. -1.
         22    1    1    0    0    0 -0.20338056179E+02 -0.33397309292E+00 -0.19828756242E+02  0.28406471820E+02  0.00000000000E+00 0.  1.
</event>
<event>
 5    1  0.1103865E-009  0.9118800E+02  0.7818608E-02  0.1130116E+00
         25   -1    0    0    0    0  0.00000000000E+00  0.00000000000E+00  0.99999998245E-14  0.12500000000E+03  0.12500000000E+03 0.  0.
        -11    1    3    3    0    0 -0.14541979783E+02 -0.12283090618E+02  0.46070478888E+02  0.49848094411E+02  0.51100000000E-03 0. -1.
         23    2    1    0    0    0 -0.12659727994E+02 -0.31451347782E+02  0.11908006434E+02  0.89065940844E+02  0.81495307908E+02 0.  0.
         11    1    3    3    0    0  0.18822517887E+01 -0.19168257163E+02 -0.34162472454E+02  0.39217846433E+02  0.51100000000E-03 0.  1.
         22    1    1    0    0    0  0.12659727994E+02  0.31451347782E+02 -0.11908006434E+02  0.35934059156E+02  0.00000000000E+00 0. -1.
</event>
<event>
 5    1  0.1103865E-009  0.9118800E+02  0.7818608E-02  0.1130116E+00
         25   -1    0    0    0    0  0.00000000000E+00  0.00000000000E+00  0.99999998245E-14  0.12500000000E+03  0.12500000000E+03 0.  0.
        -11    1    3    3    0    0 -0.35589339153E+02 -0.45555398979E+02 -0.22382589076E+02  0.61990932656E+02  0.51100000000E-03 0.  1.
         23    2    1    0    0    0 -0.15978130242E+02 -0.16837042062E+02 -0.14443802539E+02  0.97661198578E+02  0.93756597871E+02 0.  0.
         11    1    3    3    0    0  0.19611208911E+02  0.28718356918E+02  0.79387865370E+01  0.35670265922E+02  0.51100000000E-03 0. -1.
         22    1    1    0    0    0  0.15978130242E+02  0.16837042062E+02  0.14443802539E+02  0.27338801422E+02  0.00000000000E+00 0.  1.
</event>
<event>
 5    1  0.1103865E-009  0.9118800E+02  0.7818608E-02  0.1130116E+00
         25   -1    0    0    0    0  0.00000000000E+00  0.00000000000E+00  0.99999998245E-14  0.12500000000E+03  0.12500000000E+03 0.  0.
        -11    1    3    3    0    0 -0.89980049036E+01  0.51835099827E+02 -0.41678528868E+01  0.52775114062E+02  0.51100000000E-03 0.  1.
         23    2    1    0    0    0  0.58635668718E+01  0.16822951778E+02  0.20292203646E+02  0.97996914032E+02  0.94203123663E+02 0.  0.
         11    1    3    3    0    0  0.14861571775E+02 -0.35012148049E+02  0.24460056533E+02  0.45221799970E+02  0.51100000000E-03 0. -1.
         22    1    1    0    0    0 -0.58635668718E+01 -0.16822951778E+02 -0.20292203646E+02  0.27003085968E+02  0.00000000000E+00 0. -1.
</event>
<event>
 5    1  0.1103865E-009  0.9118800E+02  0.7818608E-02  0.1130116E+00
         25   -1    0    0    0    0  0.00000000000E+00  0.00000000000E+00  0.99999998245E-14  0.12500000000E+03  0.12500000000E+03 0.  0.
        -11    1    3    3    0    0  0.13509909454E+02  0.33597482264E+02 -0.27684407578E+02  0.45582177341E+02  0.51100000000E-03 0.  1.
         23    2    1    0    0    0 -0.21103558412E+02  0.23745325093E+02  0.32869184570E+01  0.93062491106E+02  0.87410655967E+02 0.  0.
         11    1    3    3    0    0 -0.34613467866E+02 -0.98521571718E+01  0.30971326035E+02  0.47480313765E+02  0.51100000000E-03 0. -1.
         22    1    1    0    0    0  0.21103558412E+02 -0.23745325093E+02 -0.32869184570E+01  0.31937508894E+02  0.00000000000E+00 0.  1.
</event>
<event>
 5    1  0.1103865E-009  0.9118800E+02  0.7818608E-02  0.1130116E+00
         25   -1    0    0    0    0  0.00000000000E+00  0.00000000000E+00  0.99999998245E-14  0.12500000000E+03  0.12500000000E+03 0.  0.
        -11    1    3    3    0    0  0.31497939653E+02  0.11803239888E+02 -0.60639369272E+01  0.34179057997E+02  0.51100000000E-03 0. -1.
         23    2    1    0    0    0 -0.28385712535E+02 -0.23354713695E+01 -0.68175621300E+01  0.95713787270E+02  0.91123250697E+02 0.  0.
         11    1    3    3    0    0 -0.59883652189E+02 -0.14138711257E+02 -0.75362520279E+00  0.61534729273E+02  0.51100000000E-03 0.  1.
         22    1    1    0    0    0  0.28385712535E+02  0.23354713695E+01  0.68175621300E+01  0.29286212730E+02  0.00000000000E+00 0.  1.
</event>
<event>
 5    1  0.1103865E-009  0.9118800E+02  0.7818608E-02  0.1130116E+00
         25   -1    0    0    0    0  0.00000000000E+00  0.00000000000E+00  0.99999998245E-14  0.12500000000E+03  0.12500000000E+03 0.  0.
        -11    1    3    3    0    0 -0.38527166987E+01 -0.61931300529E+02 -0.62428053721E+01  0.62364268859E+02  0.51100000000E-03 0. -1.
         23    2    1    0    0    0  0.55782695257E+00 -0.30194525177E+02 -0.46383652483E+01  0.94446195757E+02  0.89367493750E+02 0.  0.
         11    1    3    3    0    0  0.44105436512E+01  0.31736775353E+02  0.16044401238E+01  0.32081926897E+02  0.51100000000E-03 0.  1.
         22    1    1    0    0    0 -0.55782695257E+00  0.30194525177E+02  0.46383652483E+01  0.30553804243E+02  0.00000000000E+00 0. -1.
</event>
<event>
 5    1  0.1103865E-009  0.9118800E+02  0.7818608E-02  0.1130116E+00
         25   -1    0    0    0    0  0.00000000000E+00  0.00000000000E+00  0.99999998245E-14  0.12500000000E+03  0.12500000000E+03 0.  0.
        -11    1    3    3    0    0  0.32042473113E+02 -0.19537210794E+02 -0.79345116414E+00  0.37537344789E+02  0.51100000000E-03 0. -1.
         23    2    1    0    0    0 -0.88934927421E+01  0.22023437621E+02 -0.14110066803E+02  0.97373563332E+02  0.93372323699E+02 0.  0.
         11    1    3    3    0    0 -0.40935965855E+02  0.41560648415E+02 -0.13316615638E+02  0.59836218543E+02  0.51100000000E-03 0.  1.
         22    1    1    0    0    0  0.88934927421E+01 -0.22023437621E+02  0.14110066803E+02  0.27626436668E+02  0.00000000000E+00 0.  1.
</event>
<event>
 5    1  0.1103865E-009  0.9118800E+02  0.7818608E-02  0.1130116E+00
         25   -1    0    0    0    0  0.00000000000E+00  0.00000000000E+00  0.99999998245E-14  0.12500000000E+03  0.12500000000E+03 0.  0.
        -11    1    3    3    0    0 -0.14407428062E+02  0.81962252703E+01  0.18146933332E+02  0.24577698868E+02  0.51100000000E-03 0.  1.
         23    2    1    0    0    0 -0.30147427055E+02 -0.35150593047E+02 -0.86163837758E+01  0.77897201580E+02  0.62042730396E+02 0.  0.
         11    1    3    3    0    0 -0.15739998994E+02 -0.43346818317E+02 -0.26763317108E+02  0.53319502712E+02  0.51100000000E-03 0. -1.
         22    1    1    0    0    0  0.30147427055E+02  0.35150593047E+02  0.86163837758E+01  0.47102798420E+02  0.00000000000E+00 0. -1.
</event>
<event>
 5    1  0.1103865E-009  0.9118800E+02  0.7818608E-02  0.1130116E+00
         25   -1    0    0    0    0  0.00000000000E+00  0.00000000000E+00  0.99999998245E-14  0.12500000000E+03  0.12500000000E+03 0.  0.
        -11    1    3    3    0    0 -0.31364563372E+02 -0.46078064249E+02 -0.12361509089E+02  0.57094051771E+02  0.51100000000E-03 0. -1.
         23    2    1    0    0    0 -0.26101003273E+02 -0.68428096660E+01 -0.76060745837E+01  0.96965400189E+02  0.92824296643E+02 0.  0.
         11    1    3    3    0    0  0.52635600992E+01  0.39235254583E+02  0.47554345050E+01  0.39871348418E+02  0.51100000000E-03 0.  1.
         22    1    1    0    0    0  0.26101003273E+02  0.68428096660E+01  0.76060745837E+01  0.28034599811E+02  0.00000000000E+00 0. -1.
</event>
<event>
 5    1  0.1103865E-009  0.9118800E+02  0.7818608E-02  0.1130116E+00
         25   -1    0    0    0    0  0.00000000000E+00  0.00000000000E+00  0.99999998245E-14  0.12500000000E+03  0.12500000000E+03 0.  0.
        -11    1    3    3    0    0 -0.35703364351E+02  0.31929333964E+02  0.41811728489E+01  0.48080087354E+02  0.51100000000E-03 0. -1.
         23    2    1    0    0    0 -0.14061570187E+02 -0.10671162896E+02  0.19916348523E+02  0.98386800039E+02  0.94719058324E+02 0.  0.
         11    1    3    3    0    0  0.21641794164E+02 -0.42600496860E+02  0.15735175674E+02  0.50306712685E+02  0.51100000000E-03 0.  1.
         22    1    1    0    0    0  0.14061570187E+02  0.10671162896E+02 -0.19916348523E+02  0.26613199961E+02  0.00000000000E+00 0. -1.
</event>
<event>
 5    1  0.1103865E-009  0.9118800E+02  0.7818608E-02  0.1130116E+00
         25   -1    0    0    0    0  0.00000000000E+00  0.00000000000E+00  0.99999998245E-14  0.12500000000E+03  0.12500000000E+03 0.  0.
        -11    1    3    3    0    0  0.31234795328E+02  0.36062517565E+01 -0.23159553460E+02  0.39051023132E+02  0.51100000000E-03 0.  1.
         23    2    1    0    0    0 -0.25613131517E+02  0.15156133902E+01 -0.10159421561E+02  0.97403923531E+02  0.93412958859E+02 0.  0.
         11    1    3    3    0    0 -0.56847926845E+02 -0.20906383663E+01  0.13000131899E+02  0.58352900399E+02  0.51100000000E-03 0. -1.
         22    1    1    0    0    0  0.25613131517E+02 -0.15156133902E+01  0.10159421561E+02  0.27596076469E+02  0.00000000000E+00 0. -1.
</event>
<event>
 5    1  0.1103865E-009  0.9118800E+02  0.7818608E-02  0.1130116E+00
         25   -1    0    0    0    0  0.00000000000E+00  0.00000000000E+00  0.99999998245E-14  0.12500000000E+03  0.12500000000E+03 0.  0.
        -11    1    3    3    0    0 -0.21561791635E+02 -0.32905377205E+02  0.14471780106E+02  0.41917861673E+02  0.51100000000E-03 0. -1.
         23    2    1    0    0    0  0.22819334229E+02 -0.15573461286E+02 -0.10172740832E+02  0.95559562382E+02  0.90911443700E+02 0.  0.
         11    1    3    3    0    0  0.44381125865E+02  0.17331915919E+02 -0.24644520938E+02  0.53641700709E+02  0.51100000000E-03 0.  1.
         22    1    1    0    0    0 -0.22819334229E+02  0.15573461286E+02  0.10172740832E+02  0.29440437618E+02  0.00000000000E+00 0.  1.
</event>
<event>
 5    1  0.1103865E-009  0.9118800E+02  0.7818608E-02  0.1130116E+00
         25   -1    0    0    0    0  0.00000000000E+00  0.00000000000E+00  0.99999998245E-14  0.12500000000E+03  0.12500000000E+03 0.  0.
        -11    1    3    3    0    0  0.13463929840E+02 -0.29726511858E+02 -0.47312602896E+02  0.57475432204E+02  0.51100000000E-03 0.  1.
         23    2    1    0    0    0 -0.38034563618E+01 -0.89162970562E-01 -0.27806248583E+02  0.96934688838E+02  0.92782930594E+02 0.  0.
         11    1    3    3    0    0 -0.17267386202E+02  0.29637348887E+02  0.19506354313E+02  0.39459256634E+02  0.51100000000E-03 0. -1.
         22    1    1    0    0    0  0.38034563618E+01  0.89162970562E-01  0.27806248583E+02  0.28065311162E+02  0.00000000000E+00 0.  1.
</event>
<event>
 5    1  0.1103865E-009  0.9118800E+02  0.7818608E-02  0.1130116E+00
         25   -1    0    0    0    0  0.00000000000E+00  0.00000000000E+00  0.99999998245E-14  0.12500000000E+03  0.12500000000E+03 0.  0.
        -11    1    3    3    0    0  0.34857760824E+02 -0.48386855646E+02 -0.75100520917E+00  0.59639880098E+02  0.51100000000E-03 0. -1.
         23    2    1    0    0    0  0.10520313087E+02 -0.29423951755E+02 -0.10561950034E+02  0.92015144189E+02  0.85899860578E+02 0.  0.
         11    1    3    3    0    0 -0.24337447737E+02  0.18962903891E+02 -0.98109448252E+01  0.32375264091E+02  0.51100000000E-03 0.  1.
         22    1    1    0    0    0 -0.10520313087E+02  0.29423951755E+02  0.10561950034E+02  0.32984855811E+02  0.00000000000E+00 0. -1.
</event>
<event>
 5    1  0.1103865E-009  0.9118800E+02  0.7818608E-02  0.1130116E+00
         25   -1    0    0    0    0  0.00000000000E+00  0.00000000000E+00  0.99999998245E-14  0.12500000000E+03  0.12500000000E+03 0.  0.
        -11    1    3    3    0    0 -0.21759110946E+02  0.82188894050E+01 -0.43301686986E+02  0.49153282173E+02  0.51100000000E-03 0. -1.
         23    2    1    0    0    0  0.90677473325E+01 -0.17069186074E+02 -0.25963732865E+02  0.92631858577E+02  0.86792653170E+02 0.  0.
         11    1    3    3    0    0  0.30826858279E+02 -0.25288075479E+02  0.17337954122E+02  0.43478576404E+02  0.51100000000E-03 0.  1.
         22    1    1    0    0    0 -0.90677473325E+01  0.17069186074E+02  0.25963732865E+02  0.32368141423E+02  0.00000000000E+00 0. -1.
</event>
<event>
 5    1  0.1103865E-009  0.9118800E+02  0.7818608E-02  0.1130116E+00
         25   -1    0    0    0    0  0.00000000000E+00  0.00000000000E+00  0.99999998245E-14  0.12500000000E+03  0.12500000000E+03 0.  0.
        -11    1    3    3    0    0  0.37984086602E+02  0.50607516161E+01 -0.38524651503E+02  0.54337379543E+02  0.51100000000E-03 0. -1.
         23    2    1    0    0    0  0.92874421092E+01  0.23264543064E+02 -0.13471383046E+02  0.96557536919E+02  0.92273421037E+02 0.  0.
         11    1    3    3    0    0 -0.28696644493E+02  0.18203791448E+02  0.25053268457E+02  0.42220157377E+02  0.51100000000E-03 0.  1.
         22    1    1    0    0    0 -0.92874421092E+01 -0.23264543064E+02  0.13471383046E+02  0.28442463081E+02  0.00000000000E+00 0.  1.
</event>
<event>
 5    1  0.1103865E-009  0.9118800E+02  0.7818608E-02  0.1130116E+00
         25   -1    0    0    0    0  0.00000000000E+00  0.00000000000E+00  0.99999998245E-14  0.12500000000E+03  0.12500000000E+03 0.  0.
        -11    1    3    3    0    0  0.28648878627E+01 -0.27838565382E+02  0.48432495895E+02  0.55936570899E+02  0.51100000000E-03 0.  1.
         23    2    1    0    0    0  0.14266769613E+02 -0.23003572008E+02  0.10286170710E+02  0.96042956846E+02  0.91573681872E+02 0.  0.
         11    1    3    3    0    0  0.11401881750E+02  0.48349933736E+01 -0.38146325185E+02  0.40106385947E+02  0.51100000000E-03 0. -1.
         22    1    1    0    0    0 -0.14266769613E+02  0.23003572008E+02 -0.10286170710E+02  0.28957043154E+02  0.00000000000E+00 0.  1.
</event>
<event>
 5    1  0.1103865E-009  0.9118800E+02  0.7818608E-02  0.1130116E+00
         25   -1    0    0    0    0  0.00000000000E+00  0.00000000000E+00  0.99999998245E-14  0.12500000000E+03  0.12500000000E+03 0.  0.
        -11    1    3    3    0    0 -0.28420597050E+02  0.18591200248E+02 -0.18017258238E+02  0.38444566040E+02  0.51100000000E-03 0. -1.
         23    2    1    0    0    0  0.22064992004E+02  0.17169294568E+02  0.88797247530E+01  0.95665752783E+02  0.91057334662E+02 0.  0.
         11    1    3    3    0    0  0.50485589055E+02 -0.14219056796E+01  0.26896982991E+02  0.57221186743E+02  0.51100000000E-03 0.  1.
         22    1    1    0    0    0 -0.22064992004E+02 -0.17169294568E+02 -0.88797247530E+01  0.29334247217E+02  0.00000000000E+00 0.  1.
</event>
<event>
 5    1  0.1103865E-009  0.9118800E+02  0.7818608E-02  0.1130116E+00
         25   -1    0    0    0    0  0.00000000000E+00  0.00000000000E+00  0.99999998245E-14  0.12500000000E+03  0.12500000000E+03 0.  0.
        -11    1    3    3    0    0  0.23858425860E+01 -0.44466570166E+02  0.42237146547E+02  0.61375440168E+02  0.51100000000E-03 0.  1.
         23    2    1    0    0    0 -0.48291476615E+01 -0.25252684765E+02  0.30830269431E+02  0.84856205110E+02  0.74759957714E+02 0.  0.
         11    1    3    3    0    0 -0.72149902475E+01  0.19213885400E+02 -0.11406877116E+02  0.23480764942E+02  0.51100000000E-03 0. -1.
         22    1    1    0    0    0  0.48291476615E+01  0.25252684765E+02 -0.30830269431E+02  0.40143794890E+02  0.00000000000E+00 0.  1.
</event>
<event>
 5    1  0.1103865E-009  0.9118800E+02  0.7818608E-02  0.1130116E+00
         25   -1    0    0    0    0  0.00000000000E+00  0.00000000000E+00  0.99999998245E-14  0.12500000000E+03  0.12500000000E+03 0.  0.
        -11    1    3    3    0    0 -0.21412632313E+02 -0.26839296287E+02  0.11768707541E+02  0.36295332003E+02  0.51100000000E-03 0. -1.
         23    2    1    0    0    0  0.12286536143E+02  0.20857721606E+02  0.17722177462E+02  0.94998681779E+02  0.90136953825E+02 0.  0.
         11    1    3    3    0    0  0.33699168457E+02  0.47697017893E+02  0.59534699208E+01  0.58703349776E+02  0.51100000000E-03 0.  1.
         22    1    1    0    0    0 -0.12286536143E+02 -0.20857721606E+02 -0.17722177462E+02  0.30001318221E+02  0.00000000000E+00 0.  1.
</event>
<event>
 5    1  0.1103865E-009  0.9118800E+02  0.7818608E-02  0.1130116E+00
         25   -1    0    0    0    0  0.00000000000E+00  0.00000000000E+00  0.99999998245E-14  0.12500000000E+03  0.12500000000E+03 0.  0.
        -11    1    3    3    0    0 -0.33871623835E+02 -0.63367496528E+01 -0.77366137007E+01  0.35317084948E+02  0.51100000000E-03 0. -1.
         23    2    1    0    0    0  0.25820192821E+02 -0.20035791290E+01 -0.14115898307E+02  0.95504995818E+02  0.90836385631E+02 0.  0.
         11    1    3    3    0    0  0.59691816657E+02  0.43331705238E+01 -0.63792846065E+01  0.60187910870E+02  0.51100000000E-03 0.  1.
         22    1    1    0    0    0 -0.25820192821E+02  0.20035791290E+01  0.14115898307E+02  0.29495004182E+02  0.00000000000E+00 0.  1.
</event>
<event>
 5    1  0.1103865E-009  0.9118800E+02  0.7818608E-02  0.1130116E+00
         25   -1    0    0    0    0  0.00000000000E+00  0.00000000000E+00  0.99999998245E-14  0.12500000000E+03  0.12500000000E+03 0.  0.
        -11    1    3    3    0    0  0.42783721423E+02  0.35032298027E+02 -0.15577749164E+02  0.57448890269E+02  0.51100000000E-03 0. -1.
         23    2    1    0    0    0  0.13819115256E+02  0.25393569008E+02  0.68024385246E+01  0.95300261562E+02  0.90554212439E+02 0.  0.
         11    1    3    3    0    0 -0.28964606167E+02 -0.96387290189E+01  0.22380187689E+02  0.37851371293E+02  0.51100000000E-03 0.  1.
         22    1    1    0    0    0 -0.13819115256E+02 -0.25393569008E+02 -0.68024385246E+01  0.29699738438E+02  0.00000000000E+00 0. -1.
</event>
<event>
 5    1  0.1103865E-009  0.9118800E+02  0.7818608E-02  0.1130116E+00
         25   -1    0    0    0    0  0.00000000000E+00  0.00000000000E+00  0.99999998245E-14  0.12500000000E+03  0.12500000000E+03 0.  0.
        -11    1    3    3    0    0  0.24422778301E+02  0.18576548520E+02  0.30162626681E+02  0.43027250707E+02  0.51100000000E-03 0. -1.
         23    2    1    0    0    0  0.22704083496E+02 -0.16260524422E+02 -0.91786305747E+01  0.95603957390E+02  0.90972464777E+02 0.  0.
         11    1    3    3    0    0 -0.17186948053E+01 -0.34837072942E+02 -0.39341257255E+02  0.52576706683E+02  0.51100000000E-03 0.  1.
         22    1    1    0    0    0 -0.22704083496E+02  0.16260524422E+02  0.91786305747E+01  0.29396042610E+02  0.00000000000E+00 0.  1.
</event>
<event>
 5    1  0.1103865E-009  0.9118800E+02  0.7818608E-02  0.1130116E+00
         25   -1    0    0    0    0  0.00000000000E+00  0.00000000000E+00  0.99999998245E-14  0.12500000000E+03  0.12500000000E+03 0.  0.
        -11    1    3    3    0    0 -0.43662470835E+02 -0.20262772489E+02 -0.11907561999E+02  0.49586100284E+02  0.51100000000E-03 0. -1.
         23    2    1    0    0    0 -0.10774409819E+02  0.98058327225E+01 -0.25029268771E+02  0.96039569107E+02  0.91569057419E+02 0.  0.
         11    1    3    3    0    0  0.32888061016E+02  0.30068605212E+02 -0.13121706772E+02  0.46453468822E+02  0.51100000000E-03 0.  1.
         22    1    1    0    0    0  0.10774409819E+02 -0.98058327225E+01  0.25029268771E+02  0.28960430893E+02  0.00000000000E+00 0.  1.
</event>
<event>
 5    1  0.1103865E-009  0.9118800E+02  0.7818608E-02  0.1130116E+00
         25   -1    0    0    0    0  0.00000000000E+00  0.00000000000E+00  0.99999998245E-14  0.12500000000E+03  0.12500000000E+03 0.  0.
        -11    1    3    3    0    0  0.32353095863E+02 -0.22267063781E+01  0.50792928790E+02  0.60262779960E+02  0.51100000000E-03 0. -1.
         23    2    1    0    0    0  0.20554243605E+02 -0.10005729369E+02  0.18227761188E+02  0.95762304669E+02  0.91189781046E+02 0.  0.
         11    1    3    3    0    0 -0.11798852258E+02 -0.77790229908E+01 -0.32565167602E+02  0.35499524708E+02  0.51100000000E-03 0.  1.
         22    1    1    0    0    0 -0.20554243605E+02  0.10005729369E+02 -0.18227761188E+02  0.29237695331E+02  0.00000000000E+00 0. -1.
</event>
<event>
 5    1  0.1103865E-009  0.9118800E+02  0.7818608E-02  0.1130116E+00
         25   -1    0    0    0    0  0.00000000000E+00  0.00000000000E+00  0.99999998245E-14  0.12500000000E+03  0.12500000000E+03 0.  0.
        -11    1    3    3    0    0  0.14646072557E+02  0.22405854661E+02  0.11367291094E+02  0.29081696503E+02  0.51100000000E-03 0.  1.
         23    2    1    0    0    0 -0.90161199380E+01 -0.33228782706E+02  0.15913666684E+00  0.90569377826E+02  0.83769591478E+02 0.  0.
         11    1    3    3    0    0 -0.23662192495E+02 -0.55634637366E+02 -0.11208154427E+02  0.61487681323E+02  0.51100000000E-03 0. -1.
         22    1    1    0    0    0  0.90161199380E+01  0.33228782706E+02 -0.15913666684E+00  0.34430622174E+02  0.00000000000E+00 0. -1.
</event>
<event>
 5    1  0.1103865E-009  0.9118800E+02  0.7818608E-02  0.1130116E+00
         25   -1    0    0    0    0  0.00000000000E+00  0.00000000000E+00  0.99999998245E-14  0.12500000000E+03  0.12500000000E+03 0.  0.
        -11    1    3    3    0    0 -0.50608359687E+01 -0.28328997673E+02  0.42316249384E+02  0.51174301481E+02  0.51100000000E-03 0. -1.
         23    2    1    0    0    0 -0.20174471521E+02  0.75598315382E+01  0.15671209936E+02  0.98358919412E+02  0.94682257329E+02 0.  0.
         11    1    3    3    0    0 -0.15113635553E+02  0.35888829211E+02 -0.26645039449E+02  0.47184617931E+02  0.51100000000E-03 0.  1.
         22    1    1    0    0    0  0.20174471521E+02 -0.75598315382E+01 -0.15671209936E+02  0.26641080588E+02  0.00000000000E+00 0. -1.
</event>
<event>
 5    1  0.1103865E-009  0.9118800E+02  0.7818608E-02  0.1130116E+00
         25   -1    0    0    0    0  0.00000000000E+00  0.00000000000E+00  0.99999998245E-14  0.12500000000E+03  0.12500000000E+03 0.  0.
        -11    1    3    3    0    0  0.31890509185E+02 -0.35737375409E+02  0.14666542607E+02  0.50092634683E+02  0.51100000000E-03 0. -1.
         23    2    1    0    0    0  0.19442338890E+02 -0.15976311912E+02 -0.20659762036E+02  0.92441240023E+02  0.86517686087E+02 0.  0.
         11    1    3    3    0    0 -0.12448170295E+02  0.19761063496E+02 -0.35326304644E+02  0.42348605340E+02  0.51100000000E-03 0.  1.
         22    1    1    0    0    0 -0.19442338890E+02  0.15976311912E+02  0.20659762036E+02  0.32558759977E+02  0.00000000000E+00 0.  1.
</event>
<event>
 5    1  0.1103865E-009  0.9118800E+02  0.7818608E-02  0.1130116E+00
         25   -1    0    0    0    0  0.00000000000E+00  0.00000000000E+00  0.99999998245E-14  0.12500000000E+03  0.12500000000E+03 0.  0.
        -11    1    3    3    0    0  0.57968038975E+02  0.87808945575E+01 -0.14679540853E+02  0.60439114584E+02  0.51100000000E-03 0.  1.
         23    2    1    0    0    0  0.24316710902E+02  0.58706187947E+01 -0.17707700214E+02  0.94351521392E+02  0.89234972673E+02 0.  0.
         11    1    3    3    0    0 -0.33651328073E+02 -0.29102757628E+01 -0.30281593611E+01  0.33912406807E+02  0.51100000000E-03 0. -1.
         22    1    1    0    0    0 -0.24316710902E+02 -0.58706187947E+01  0.17707700214E+02  0.30648478608E+02  0.00000000000E+00 0.  1.
</event>
<event>
 5    1  0.1103865E-009  0.9118800E+02  0.7818608E-02  0.1130116E+00
         25   -1    0    0    0    0  0.00000000000E+00  0.00000000000E+00  0.99999998245E-14  0.12500000000E+03  0.12500000000E+03 0.  0.
        -11    1    3    3    0    0 -0.16868708607E+02  0.38802971401E+02 -0.45518349074E+02  0.62146150502E+02  0.51100000000E-03 0. -1.
         23    2    1    0    0    0 -0.50520216155E+01  0.21737726029E+02 -0.20075356575E+02  0.94982145364E+02  0.90114018560E+02 0.  0.
         11    1    3    3    0    0  0.11816686991E+02 -0.17065245372E+02  0.25442992498E+02  0.32835994862E+02  0.51100000000E-03 0.  1.
         22    1    1    0    0    0  0.50520216155E+01 -0.21737726029E+02  0.20075356575E+02  0.30017854636E+02  0.00000000000E+00 0. -1.
</event>
<event>
 5    1  0.1103865E-009  0.9118800E+02  0.7818608E-02  0.1130116E+00
         25   -1    0    0    0    0  0.00000000000E+00  0.00000000000E+00  0.99999998245E-14  0.12500000000E+03  0.12500000000E+03 0.  0.
        -11    1    3    3    0    0 -0.40796901645E+02  0.23824788553E+02  0.32345207082E+02  0.57255743423E+02  0.51100000000E-03 0. -1.
         23    2    1    0    0    0 -0.67148612870E+01  0.24278903148E+02  0.10710196608E+02  0.97627334592E+02  0.93711438192E+02 0.  0.
         11    1    3    3    0    0  0.34082040358E+02  0.45411459418E+00 -0.21635010474E+02  0.40371591169E+02  0.51100000000E-03 0.  1.
         22    1    1    0    0    0  0.67148612870E+01 -0.24278903148E+02 -0.10710196608E+02  0.27372665408E+02  0.00000000000E+00 0. -1.
</event>
<event>
 5    1  0.1103865E-009  0.9118800E+02  0.7818608E-02  0.1130116E+00
         25   -1    0    0    0    0  0.00000000000E+00  0.00000000000E+00  0.99999998245E-14  0.12500000000E+03  0.12500000000E+03 0.  0.
        -11    1    3    3    0    0  0.53692848170E+02  0.17211142313E+02  0.18260086183E+02  0.59266990071E+02  0.51100000000E-03 0. -1.
         23    2    1    0    0    0  0.29269527290E+02  0.18096877349E+01 -0.35611973501E+01  0.95459141447E+02  0.90773263474E+02 0.  0.
         11    1    3    3    0    0 -0.24423320880E+02 -0.15401454578E+02 -0.21821283534E+02  0.36192151376E+02  0.51100000000E-03 0.  1.
         22    1    1    0    0    0 -0.29269527290E+02 -0.18096877349E+01  0.35611973501E+01  0.29540858553E+02  0.00000000000E+00 0. -1.
</event>
<event>
 5    1  0.1103865E-009  0.9118800E+02  0.7818608E-02  0.1130116E+00
         25   -1    0    0    0    0  0.00000000000E+00  0.00000000000E+00  0.99999998245E-14  0.12500000000E+03  0.12500000000E+03 0.  0.
        -11    1    3    3    0    0  0.59303565396E+02  0.53369828321E+01 -0.93027391554E+01  0.60265555755E+02  0.51100000000E-03 0.  1.
         23    2    1    0    0    0  0.21165362388E+02 -0.37397288812E+01  0.65169466193E+01  0.10254050913E+03  0.10005062359E+03 0.  0.
         11    1    3    3    0    0 -0.38138203008E+02 -0.90767117133E+01  0.15819685775E+02  0.42274953370E+02  0.51100000000E-03 0. -1.
         22    1    1    0    0    0 -0.21165362388E+02  0.37397288812E+01 -0.65169466193E+01  0.22459490875E+02  0.00000000000E+00 0.  1.
</event>
<event>
 5    1  0.1103865E-009  0.9118800E+02  0.7818608E-02  0.1130116E+00
         25   -1    0    0    0    0  0.00000000000E+00  0.00000000000E+00  0.99999998245E-14  0.12500000000E+03  0.12500000000E+03 0.  0.
        -11    1    3    3    0    0  0.48627893662E+01 -0.35523459894E+02 -0.17546712882E+02  0.39918041741E+02  0.51100000000E-03 0. -1.
         23    2    1    0    0    0  0.90240529009E+01  0.21112575180E+02 -0.16516831562E+02  0.96716080782E+02  0.92487946217E+02 0.  0.
         11    1    3    3    0    0  0.41612635346E+01  0.56636035074E+02  0.10298813197E+01  0.56798039041E+02  0.51100000000E-03 0.  1.
         22    1    1    0    0    0 -0.90240529009E+01 -0.21112575180E+02  0.16516831562E+02  0.28283919218E+02  0.00000000000E+00 0.  1.
</event>
<event>
 5    1  0.1103865E-009  0.9118800E+02  0.7818608E-02  0.1130116E+00
         25   -1    0    0    0    0  0.00000000000E+00  0.00000000000E+00  0.99999998245E-14  0.12500000000E+03  0.12500000000E+03 0.  0.
        -11    1    3    3    0    0  0.51222134493E+01 -0.43684975683E+02 -0.39334050747E+02  0.59006624369E+02  0.51100000000E-03 0. -1.
         23    2    1    0    0    0 -0.68578700777E+01 -0.10570519030E+02 -0.24955560602E+02  0.97043851132E+02  0.92929881001E+02 0.  0.
         11    1    3    3    0    0 -0.11980083527E+02  0.33114456653E+02  0.14378490144E+02  0.38037226763E+02  0.51100000000E-03 0.  1.
         22    1    1    0    0    0  0.68578700777E+01  0.10570519030E+02  0.24955560602E+02  0.27956148868E+02  0.00000000000E+00 0. -1.
</event>
<event>
 5    1  0.1103865E-009  0.9118800E+02  0.7818608E-02  0.1130116E+00
         25   -1    0    0    0    0  0.00000000000E+00  0.00000000000E+00  0.99999998245E-14  0.12500000000E+03  0.12500000000E+03 0.  0.
        -11    1    3    3    0    0 -0.32266496825E+02 -0.33786971669E+02  0.79168025350E+01  0.47385251234E+02  0.51100000000E-03 0. -1.
         23    2    1    0    0    0 -0.16425947137E+01  0.12516240126E+02  0.17194414428E+02  0.10366921774E+03  0.10145099524E+03 0.  0.
         11    1    3    3    0    0  0.30623902111E+02  0.46303211794E+02  0.92776118932E+01  0.56283966506E+02  0.51100000000E-03 0.  1.
         22    1    1    0    0    0  0.16425947137E+01 -0.12516240126E+02 -0.17194414428E+02  0.21330782260E+02  0.00000000000E+00 0.  1.
</event>
<event>
 5    1  0.1103865E-009  0.9118800E+02  0.7818608E-02  0.1130116E+00
         25   -1    0    0    0    0  0.00000000000E+00  0.00000000000E+00  0.99999998245E-14  0.12500000000E+03  0.12500000000E+03 0.  0.
        -11    1    3    3    0    0 -0.33875993543E+02 -0.20463586783E+02 -0.46672553665E+02  0.61193697293E+02  0.51100000000E-03 0.  1.
         23    2    1    0    0    0 -0.21102409642E+02 -0.22185235945E+02 -0.32872239697E+02  0.80076948797E+02  0.66289042830E+02 0.  0.
         11    1    3    3    0    0  0.12773583901E+02 -0.17216491625E+01  0.13800313968E+02  0.18883251504E+02  0.51100000000E-03 0. -1.
         22    1    1    0    0    0  0.21102409642E+02  0.22185235945E+02  0.32872239697E+02  0.44923051203E+02  0.00000000000E+00 0.  1.
</event>
<event>
 5    1  0.1103865E-009  0.9118800E+02  0.7818608E-02  0.1130116E+00
         25   -1    0    0    0    0  0.00000000000E+00  0.00000000000E+00  0.99999998245E-14  0.12500000000E+03  0.12500000000E+03 0.  0.
        -11    1    3    3    0    0 -0.58850853833E+02  0.15899399341E+02 -0.18811289362E+01  0.60989774082E+02  0.51100000000E-03 0.  1.
         23    2    1    0    0    0 -0.24469879816E+02  0.11017510796E+02  0.78250841287E+01  0.97046601210E+02  0.92933580058E+02 0.  0.
         11    1    3    3    0    0  0.34380974018E+02 -0.48818885450E+01  0.97062130649E+01  0.36056827127E+02  0.51100000000E-03 0. -1.
         22    1    1    0    0    0  0.24469879816E+02 -0.11017510796E+02 -0.78250841287E+01  0.27953398790E+02  0.00000000000E+00 0.  1.
</event>
<event>
 5    1  0.1103865E-009  0.9118800E+02  0.7818608E-02  0.1130116E+00
         25   -1    0    0    0    0  0.00000000000E+00  0.00000000000E+00  0.99999998245E-14  0.12500000000E+03  0.12500000000E+03 0.  0.
        -11    1    3    3    0    0 -0.26373961658E+02  0.36350194019E+02 -0.58190302359E+01  0.45285577967E+02  0.51100000000E-03 0. -1.
         23    2    1    0    0    0  0.18187192851E+02  0.20415489856E+02  0.11026198241E+02  0.95518764315E+02  0.90855330492E+02 0.  0.
         11    1    3    3    0    0  0.44561154509E+02 -0.15934704163E+02  0.16845228477E+02  0.50233186347E+02  0.51100000000E-03 0.  1.
         22    1    1    0    0    0 -0.18187192851E+02 -0.20415489856E+02 -0.11026198241E+02  0.29481235685E+02  0.00000000000E+00 0.  1.
</event>
<event>
 5    1  0.1103865E-009  0.9118800E+02  0.7818608E-02  0.1130116E+00
         25   -1    0    0    0    0  0.00000000000E+00  0.00000000000E+00  0.99999998245E-14  0.12500000000E+03  0.12500000000E+03 0.  0.
        -11    1    3    3    0    0 -0.12101734911E+02 -0.19809786217E+02 -0.40860049282E+02  0.46993863912E+02  0.51100000000E-03 0.  1.
         23    2    1    0    0    0  0.25566801961E+02 -0.81740757116E+01 -0.13738098851E+02  0.94846853625E+02  0.89926155296E+02 0.  0.
         11    1    3    3    0    0  0.37668536872E+02  0.11635710505E+02  0.27121950431E+02  0.47852989713E+02  0.51100000000E-03 0. -1.
         22    1    1    0    0    0 -0.25566801961E+02  0.81740757116E+01  0.13738098851E+02  0.30153146375E+02  0.00000000000E+00 0. -1.
</event>
<event>
 5    1  0.1103865E-009  0.9118800E+02  0.7818608E-02  0.1130116E+00
         25   -1    0    0    0    0  0.00000000000E+00  0.00000000000E+00  0.99999998245E-14  0.12500000000E+03  0.12500000000E+03 0.  0.
        -11    1    3    3    0    0  0.42503958560E+02 -0.16597716129E+02  0.22827896111E+02  0.51021402520E+02  0.51100000000E-03 0. -1.
         23    2    1    0    0    0  0.25984819379E+00 -0.15725397106E+01  0.28713188196E+02  0.96242608279E+02  0.91845805945E+02 0.  0.
         11    1    3    3    0    0 -0.42244110367E+02  0.15025176418E+02  0.58852920846E+01  0.45221205758E+02  0.51100000000E-03 0.  1.
         22    1    1    0    0    0 -0.25984819379E+00  0.15725397106E+01 -0.28713188196E+02  0.28757391721E+02  0.00000000000E+00 0. -1.
</event>
<event>
 5    1  0.1103865E-009  0.9118800E+02  0.7818608E-02  0.1130116E+00
         25   -1    0    0    0    0  0.00000000000E+00  0.00000000000E+00  0.99999998245E-14  0.12500000000E+03  0.12500000000E+03 0.  0.
        -11    1    3    3    0    0 -0.21431540480E+02  0.17307740427E+02  0.29910097107E+02  0.40663038687E+02  0.51100000000E-03 0.  1.
         23    2    1    0    0    0  0.49938488661E+01 -0.24661634488E+02  0.23317394410E+02  0.90694962116E+02  0.83956777744E+02 0.  0.
         11    1    3    3    0    0  0.26425389347E+02 -0.41969374915E+02 -0.65927026971E+01  0.50031923429E+02  0.51100000000E-03 0. -1.
         22    1    1    0    0    0 -0.49938488661E+01  0.24661634488E+02 -0.23317394410E+02  0.34305037884E+02  0.00000000000E+00 0. -1.
</event>
<event>
 5    1  0.1103865E-009  0.9118800E+02  0.7818608E-02  0.1130116E+00
         25   -1    0    0    0    0  0.00000000000E+00  0.00000000000E+00  0.99999998245E-14  0.12500000000E+03  0.12500000000E+03 0.  0.
        -11    1    3    3    0    0  0.49149625626E+02 -0.34942199849E+02  0.15211561379E+01  0.60323767668E+02  0.51100000000E-03 0.  1.
         23    2    1    0    0    0  0.27659372041E+02 -0.61040143484E+01 -0.27525595781E+01  0.96541671920E+02  0.92251926701E+02 0.  0.
         11    1    3    3    0    0 -0.21490253585E+02  0.28838185500E+02 -0.42737157161E+01  0.36217904252E+02  0.51100000000E-03 0. -1.
         22    1    1    0    0    0 -0.27659372041E+02  0.61040143484E+01  0.27525595781E+01  0.28458328080E+02  0.00000000000E+00 0.  1.
</event>
<event>
 5    1  0.1103865E-009  0.9118800E+02  0.7818608E-02  0.1130116E+00
         25   -1    0    0    0    0  0.00000000000E+00  0.00000000000E+00  0.99999998245E-14  0.12500000000E+03  0.12500000000E+03 0.  0.
        -11    1    3    3    0    0 -0.32292024459E+02 -0.52582882284E+01 -0.12523009927E+02  0.35032131204E+02  0.51100000000E-03 0.  1.
         23    2    1    0    0    0  0.22721399934E+02  0.18363057865E+02 -0.46625126231E+01  0.95416171089E+02  0.90714071522E+02 0.  0.
         11    1    3    3    0    0  0.55013424393E+02  0.23621346093E+02  0.78604973043E+01  0.60384039885E+02  0.51100000000E-03 0. -1.
         22    1    1    0    0    0 -0.22721399934E+02 -0.18363057865E+02  0.46625126231E+01  0.29583828911E+02  0.00000000000E+00 0. -1.
</event>
<event>
 5    1  0.1103865E-009  0.9118800E+02  0.7818608E-02  0.1130116E+00
         25   -1    0    0    0    0  0.00000000000E+00  0.00000000000E+00  0.99999998245E-14  0.12500000000E+03  0.12500000000E+03 0.  0.
        -11    1    3    3    0    0  0.67695848992E+01  0.22926417560E+02  0.31455295461E+02  0.39508018359E+02  0.51100000000E-03 0.  1.
         23    2    1    0    0    0  0.14560484715E+01  0.16368562387E+02 -0.24171441727E+02  0.95771443640E+02  0.91202307591E+02 0.  0.
         11    1    3    3    0    0 -0.53135364278E+01 -0.65578551734E+01 -0.55626737188E+02  0.56263425280E+02  0.51100000000E-03 0. -1.
         22    1    1    0    0    0 -0.14560484715E+01 -0.16368562387E+02  0.24171441727E+02  0.29228556360E+02  0.00000000000E+00 0. -1.
</event>
<event>
 5    1  0.1103865E-009  0.9118800E+02  0.7818608E-02  0.1130116E+00
         25   -1    0    0    0    0  0.00000000000E+00  0.00000000000E+00  0.99999998245E-14  0.12500000000E+03  0.12500000000E+03 0.  0.
        -11    1    3    3    0    0 -0.33792332666E+02  0.44605677451E+02  0.17767692859E+02  0.58713534365E+02  0.51100000000E-03 0. -1.
         23    2    1    0    0    0 -0.32408566911E+01  0.28497782091E+02  0.12743877947E+02  0.93614762048E+02  0.88196884933E+02 0.  0.
         11    1    3    3    0    0  0.30551475975E+02 -0.16107895360E+02 -0.50238149124E+01  0.34901227682E+02  0.51100000000E-03 0.  1.
         22    1    1    0    0    0  0.32408566911E+01 -0.28497782091E+02 -0.12743877947E+02  0.31385237952E+02  0.00000000000E+00 0. -1.
</event>
<event>
 5    1  0.1103865E-009  0.9118800E+02  0.7818608E-02  0.1130116E+00
         25   -1    0    0    0    0  0.00000000000E+00  0.00000000000E+00  0.99999998245E-14  0.12500000000E+03  0.12500000000E+03 0.  0.
        -11    1    3    3    0    0  0.16504988406E+02  0.12464117474E+02 -0.27950176102E+02  0.34770407117E+02  0.51100000000E-03 0. -1.
         23    2    1    0    0    0  0.32962701814E+02 -0.24525933920E+02 -0.28041907718E+02  0.75256560895E+02  0.56472473150E+02 0.  0.
         11    1    3    3    0    0  0.16457713408E+02 -0.36990051395E+02 -0.91731616507E-01  0.40486153778E+02  0.51100000000E-03 0.  1.
         22    1    1    0    0    0 -0.32962701814E+02  0.24525933920E+02  0.28041907718E+02  0.49743439105E+02  0.00000000000E+00 0. -1.
</event>
<event>
 5    1  0.1103865E-009  0.9118800E+02  0.7818608E-02  0.1130116E+00
         25   -1    0    0    0    0  0.00000000000E+00  0.00000000000E+00  0.99999998245E-14  0.12500000000E+03  0.12500000000E+03 0.  0.
        -11    1    3    3    0    0 -0.16364680634E+01 -0.18626086049E+02  0.44604933351E+02  0.48365371793E+02  0.51100000000E-03 0.  1.
         23    2    1    0    0    0  0.10492714284E+02 -0.29287942880E+02  0.21187923051E+01  0.93817153240E+02  0.88483265706E+02 0.  0.
         11    1    3    3    0    0  0.12129182348E+02 -0.10661856831E+02 -0.42486141045E+02  0.45451781447E+02  0.51100000000E-03 0. -1.
         22    1    1    0    0    0 -0.10492714284E+02  0.29287942880E+02 -0.21187923051E+01  0.31182846760E+02  0.00000000000E+00 0. -1.
</event>
<event>
 5    1  0.1103865E-009  0.9118800E+02  0.7818608E-02  0.1130116E+00
         25   -1    0    0    0    0  0.00000000000E+00  0.00000000000E+00  0.99999998245E-14  0.12500000000E+03  0.12500000000E+03 0.  0.
        -11    1    3    3    0    0  0.34711003305E+02 -0.20996905643E+02  0.28119380650E+02  0.49360139439E+02  0.51100000000E-03 0.  1.
         23    2    1    0    0    0  0.23239998329E+02  0.17039331032E+02  0.38197054197E+01  0.95930660932E+02  0.91420267081E+02 0.  0.
         11    1    3    3    0    0 -0.11471004976E+02  0.38036236675E+02 -0.24299675230E+02  0.46570521493E+02  0.51100000000E-03 0. -1.
         22    1    1    0    0    0 -0.23239998329E+02 -0.17039331032E+02 -0.38197054197E+01  0.29069339068E+02  0.00000000000E+00 0.  1.
</event>
<event>
 5    1  0.1103865E-009  0.9118800E+02  0.7818608E-02  0.1130116E+00
         25   -1    0    0    0    0  0.00000000000E+00  0.00000000000E+00  0.99999998245E-14  0.12500000000E+03  0.12500000000E+03 0.  0.
        -11    1    3    3    0    0  0.28141404252E+02  0.16873672881E+01 -0.45626777429E+02  0.53633838763E+02  0.51100000000E-03 0.  1.
         23    2    1    0    0    0  0.24053520336E+02 -0.46816300801E+01  0.61161458533E+00  0.10048748130E+03  0.97451887228E+02 0.  0.
         11    1    3    3    0    0 -0.40878839154E+01 -0.63689973681E+01  0.46238392014E+02  0.46853642534E+02  0.51100000000E-03 0. -1.
         22    1    1    0    0    0 -0.24053520336E+02  0.46816300801E+01 -0.61161458533E+00  0.24512518703E+02  0.00000000000E+00 0. -1.
</event>
<event>
 5    1  0.1103865E-009  0.9118800E+02  0.7818608E-02  0.1130116E+00
         25   -1    0    0    0    0  0.00000000000E+00  0.00000000000E+00  0.99999998245E-14  0.12500000000E+03  0.12500000000E+03 0.  0.
        -11    1    3    3    0    0  0.34282546276E+02 -0.44628808781E+01 -0.10832879157E+02  0.36229291409E+02  0.51100000000E-03 0. -1.
         23    2    1    0    0    0 -0.20572901903E+02  0.65762170428E+01  0.15839175656E+02  0.98216228630E+02  0.94493688454E+02 0.  0.
         11    1    3    3    0    0 -0.54855448180E+02  0.11039097921E+02  0.26672054813E+02  0.61986937221E+02  0.51100000000E-03 0.  1.
         22    1    1    0    0    0  0.20572901903E+02 -0.65762170428E+01 -0.15839175656E+02  0.26783771370E+02  0.00000000000E+00 0.  1.
</event>
<event>
 5    1  0.1103865E-009  0.9118800E+02  0.7818608E-02  0.1130116E+00
         25   -1    0    0    0    0  0.00000000000E+00  0.00000000000E+00  0.99999998245E-14  0.12500000000E+03  0.12500000000E+03 0.  0.
        -11    1    3    3    0    0  0.51243066216E+02 -0.10111833208E+02 -0.18266515562E+02  0.55333232303E+02  0.51100000000E-03 0. -1.
         23    2    1    0    0    0  0.19908435480E+02 -0.21544528035E+02  0.39367076387E+01  0.95402531214E+02  0.90695274427E+02 0.  0.
         11    1    3    3    0    0 -0.31334630736E+02 -0.11432694828E+02  0.22203223201E+02  0.40069298911E+02  0.51100000000E-03 0.  1.
         22    1    1    0    0    0 -0.19908435480E+02  0.21544528035E+02 -0.39367076387E+01  0.29597468786E+02  0.00000000000E+00 0. -1.
</event>
<event>
 5    1  0.1103865E-009  0.9118800E+02  0.7818608E-02  0.1130116E+00
         25   -1    0    0    0    0  0.00000000000E+00  0.00000000000E+00  0.99999998245E-14  0.12500000000E+03  0.12500000000E+03 0.  0.
        -11    1    3    3    0    0  0.32657282813E+01 -0.74405780795E+01 -0.61615482235E+02  0.62148972917E+02  0.51100000000E-03 0. -1.
         23    2    1    0    0    0  0.53771079595E+01 -0.45949574957E+01 -0.22744655486E+02  0.10118096816E+03  0.98337388826E+02 0.  0.
         11    1    3    3    0    0  0.21113796782E+01  0.28456205838E+01  0.38870826749E+02  0.39031995248E+02  0.51100000000E-03 0.  1.
         22    1    1    0    0    0 -0.53771079595E+01  0.45949574957E+01  0.22744655486E+02  0.23819031835E+02  0.00000000000E+00 0. -1.
</event>
<event>
 5    1  0.1103865E-009  0.9118800E+02  0.7818608E-02  0.1130116E+00
         25   -1    0    0    0    0  0.00000000000E+00  0.00000000000E+00  0.99999998245E-14  0.12500000000E+03  0.12500000000E+03 0.  0.
        -11    1    3    3    0    0 -0.77716489645E+01  0.32056740574E+02 -0.60813140520E+01  0.33541251091E+02  0.51100000000E-03 0. -1.
         23    2    1    0    0    0 -0.27165868706E+01 -0.26801445002E+02  0.12266657385E+02  0.95399861794E+02  0.90691595248E+02 0.  0.
         11    1    3    3    0    0  0.50550620939E+01 -0.58858185576E+02  0.18347971437E+02  0.61858610704E+02  0.51100000000E-03 0.  1.
         22    1    1    0    0    0  0.27165868706E+01  0.26801445002E+02 -0.12266657385E+02  0.29600138206E+02  0.00000000000E+00 0.  1.
</event>
<event>
 5    1  0.1103865E-009  0.9118800E+02  0.7818608E-02  0.1130116E+00
         25   -1    0    0    0    0  0.00000000000E+00  0.00000000000E+00  0.99999998245E-14  0.12500000000E+03  0.12500000000E+03 0.  0.
        -11    1    3    3    0    0  0.49254858946E+02  0.17460017756E+01 -0.27011826700E+02  0.56202566079E+02  0.51100000000E-03 0. -1.
         23    2    1    0    0    0  0.88316310984E+01  0.15813944547E+02 -0.16999533146E+02  0.10015925369E+03  0.97029961470E+02 0.  0.
         11    1    3    3    0    0 -0.40423227847E+02  0.14067942771E+02  0.10012293554E+02  0.43956687612E+02  0.51100000000E-03 0.  1.
         22    1    1    0    0    0 -0.88316310984E+01 -0.15813944547E+02  0.16999533146E+02  0.24840746309E+02  0.00000000000E+00 0. -1.
</event>
<event>
 5    1  0.1103865E-009  0.9118800E+02  0.7818608E-02  0.1130116E+00
         25   -1    0    0    0    0  0.00000000000E+00  0.00000000000E+00  0.99999998245E-14  0.12500000000E+03  0.12500000000E+03 0.  0.
        -11    1    3    3    0    0  0.26374476187E+02  0.22113937541E+02  0.86208513669E+01  0.35481802466E+02  0.51100000000E-03 0.  1.
         23    2    1    0    0    0 -0.11886536631E+02 -0.14012641058E+02 -0.21977505242E+02  0.96352930356E+02  0.91995829194E+02 0.  0.
         11    1    3    3    0    0 -0.38261012818E+02 -0.36126578599E+02 -0.30598356609E+02  0.60871127890E+02  0.51100000000E-03 0. -1.
         22    1    1    0    0    0  0.11886536631E+02  0.14012641058E+02  0.21977505242E+02  0.28647069644E+02  0.00000000000E+00 0. -1.
</event>
<event>
 5    1  0.1103865E-009  0.9118800E+02  0.7818608E-02  0.1130116E+00
         25   -1    0    0    0    0  0.00000000000E+00  0.00000000000E+00  0.99999998245E-14  0.12500000000E+03  0.12500000000E+03 0.  0.
        -11    1    3    3    0    0 -0.28111008216E+02  0.50085535966E+02 -0.19617048541E+02  0.60692819095E+02  0.51100000000E-03 0. -1.
         23    2    1    0    0    0 -0.53012100756E+01  0.28521589905E+02 -0.41213280024E+01  0.95698647412E+02  0.91102479950E+02 0.  0.
         11    1    3    3    0    0  0.22809798140E+02 -0.21563946062E+02  0.15495720539E+02  0.35005828318E+02  0.51100000000E-03 0.  1.
         22    1    1    0    0    0  0.53012100756E+01 -0.28521589905E+02  0.41213280024E+01  0.29301352588E+02  0.00000000000E+00 0. -1.
</event>
<event>
 5    1  0.1103865E-009  0.9118800E+02  0.7818608E-02  0.1130116E+00
         25   -1    0    0    0    0  0.00000000000E+00  0.00000000000E+00  0.99999998245E-14  0.12500000000E+03  0.12500000000E+03 0.  0.
        -11    1    3    3    0    0  0.24813051213E+02  0.32810741445E+02 -0.21682815083E+02  0.46501362720E+02  0.51100000000E-03 0. -1.
         23    2    1    0    0    0  0.67483912112E+01  0.20627878951E+02  0.21236604646E+02  0.94634829972E+02  0.89630951646E+02 0.  0.
         11    1    3    3    0    0 -0.18064660001E+02 -0.12182862494E+02  0.42919419729E+02  0.48133467252E+02  0.51100000000E-03 0.  1.
         22    1    1    0    0    0 -0.67483912112E+01 -0.20627878951E+02 -0.21236604646E+02  0.30365170028E+02  0.00000000000E+00 0.  1.
</event>
<event>
 5    1  0.1103865E-009  0.9118800E+02  0.7818608E-02  0.1130116E+00
         25   -1    0    0    0    0  0.00000000000E+00  0.00000000000E+00  0.99999998245E-14  0.12500000000E+03  0.12500000000E+03 0.  0.
        -11    1    3    3    0    0  0.25447176154E+02 -0.23780418209E+02 -0.26915428330E+02  0.44017125609E+02  0.51100000000E-03 0. -1.
         23    2    1    0    0    0 -0.21893097078E+02 -0.72357567604E+01 -0.19682140529E+02  0.94684153791E+02  0.89699712640E+02 0.  0.
         11    1    3    3    0    0 -0.47340273232E+02  0.16544661449E+02  0.72332878014E+01  0.50667028182E+02  0.51100000000E-03 0.  1.
         22    1    1    0    0    0  0.21893097078E+02  0.72357567604E+01  0.19682140529E+02  0.30315846209E+02  0.00000000000E+00 0. -1.
</event>
<event>
 5    1  0.1103865E-009  0.9118800E+02  0.7818608E-02  0.1130116E+00
         25   -1    0    0    0    0  0.00000000000E+00  0.00000000000E+00  0.99999998245E-14  0.12500000000E+03  0.12500000000E+03 0.  0.
        -11    1    3    3    0    0  0.23209793178E+02 -0.38335917340E+02 -0.20903843513E+02  0.49450052898E+02  0.51100000000E-03 0.  1.
         23    2    1    0    0    0 -0.53439492050E+01 -0.21340243340E+01 -0.28277154967E+02  0.96143296342E+02  0.91710545117E+02 0.  0.
         11    1    3    3    0    0 -0.28553742383E+02  0.36201893006E+02 -0.73733114537E+01  0.46693243445E+02  0.51100000000E-03 0. -1.
         22    1    1    0    0    0  0.53439492050E+01  0.21340243340E+01  0.28277154967E+02  0.28856703658E+02  0.00000000000E+00 0. -1.
</event>
<event>
 5    1  0.1103865E-009  0.9118800E+02  0.7818608E-02  0.1130116E+00
         25   -1    0    0    0    0  0.00000000000E+00  0.00000000000E+00  0.99999998245E-14  0.12500000000E+03  0.12500000000E+03 0.  0.
        -11    1    3    3    0    0 -0.23616364476E+02 -0.13568842140E+01 -0.37293296449E+02  0.44162922980E+02  0.51100000000E-03 0.  1.
         23    2    1    0    0    0  0.14018733520E+02  0.22875565090E+02 -0.16343243364E+02  0.93584749382E+02  0.88154338212E+02 0.  0.
         11    1    3    3    0    0  0.37635097996E+02  0.24232449304E+02  0.20950053085E+02  0.49421826403E+02  0.51100000000E-03 0. -1.
         22    1    1    0    0    0 -0.14018733520E+02 -0.22875565090E+02  0.16343243364E+02  0.31415250618E+02  0.00000000000E+00 0. -1.
</event>
<event>
 5    1  0.1103865E-009  0.9118800E+02  0.7818608E-02  0.1130116E+00
         25   -1    0    0    0    0  0.00000000000E+00  0.00000000000E+00  0.99999998245E-14  0.12500000000E+03  0.12500000000E+03 0.  0.
        -11    1    3    3    0    0  0.33090996800E+02  0.14192581547E+02  0.11014447439E+02  0.37653173742E+02  0.51100000000E-03 0. -1.
         23    2    1    0    0    0 -0.76345417544E+01 -0.26349691917E+02  0.11831075129E+02  0.95124143014E+02  0.90310773187E+02 0.  0.
         11    1    3    3    0    0 -0.40725538554E+02 -0.40542273464E+02  0.81662768913E+00  0.57470969273E+02  0.51100000000E-03 0.  1.
         22    1    1    0    0    0  0.76345417544E+01  0.26349691917E+02 -0.11831075129E+02  0.29875856986E+02  0.00000000000E+00 0.  1.
</event>
<event>
 5    1  0.1103865E-009  0.9118800E+02  0.7818608E-02  0.1130116E+00
         25   -1    0    0    0    0  0.00000000000E+00  0.00000000000E+00  0.99999998245E-14  0.12500000000E+03  0.12500000000E+03 0.  0.
        -11    1    3    3    0    0  0.27870677944E+01 -0.21471961470E+02 -0.25712004149E+02  0.33614283182E+02  0.51100000000E-03 0. -1.
         23    2    1    0    0    0  0.13453589592E+02  0.12999187950E+02  0.23704437503E+02  0.94802676979E+02  0.89864727479E+02 0.  0.
         11    1    3    3    0    0  0.10666521798E+02  0.34471149420E+02  0.49416441652E+02  0.61188393797E+02  0.51100000000E-03 0.  1.
         22    1    1    0    0    0 -0.13453589592E+02 -0.12999187950E+02 -0.23704437503E+02  0.30197323021E+02  0.00000000000E+00 0.  1.
</event>
<event>
 5    1  0.1103865E-009  0.9118800E+02  0.7818608E-02  0.1130116E+00
         25   -1    0    0    0    0  0.00000000000E+00  0.00000000000E+00  0.99999998245E-14  0.12500000000E+03  0.12500000000E+03 0.  0.
        -11    1    3    3    0    0 -0.66966045556E+01  0.75953987396E+01 -0.33211437236E+02  0.34720802959E+02  0.51100000000E-03 0.  1.
         23    2    1    0    0    0  0.20725827643E+02 -0.33673740943E+01  0.20270251519E+02  0.95814691428E+02  0.91261562868E+02 0.  0.
         11    1    3    3    0    0  0.27422432199E+02 -0.10962772834E+02  0.53481688755E+02  0.61093888469E+02  0.51100000000E-03 0. -1.
         22    1    1    0    0    0 -0.20725827643E+02  0.33673740943E+01 -0.20270251519E+02  0.29185308572E+02  0.00000000000E+00 0. -1.
</event>
<event>
 5    1  0.1103865E-009  0.9118800E+02  0.7818608E-02  0.1130116E+00
         25   -1    0    0    0    0  0.00000000000E+00  0.00000000000E+00  0.99999998245E-14  0.12500000000E+03  0.12500000000E+03 0.  0.
        -11    1    3    3    0    0 -0.43439575167E+02  0.16729688306E+02 -0.15038105976E+02  0.48918542426E+02  0.51100000000E-03 0.  1.
         23    2    1    0    0    0  0.23785619631E+01  0.27308024506E+02 -0.32533955413E+01  0.97396189720E+02  0.93402609331E+02 0.  0.
         11    1    3    3    0    0  0.45818137130E+02  0.10578336201E+02  0.11784710435E+02  0.48477647294E+02  0.51100000000E-03 0. -1.
         22    1    1    0    0    0 -0.23785619631E+01 -0.27308024506E+02  0.32533955413E+01  0.27603810280E+02  0.00000000000E+00 0. -1.
</event>
<event>
 5    1  0.1103865E-009  0.9118800E+02  0.7818608E-02  0.1130116E+00
         25   -1    0    0    0    0  0.00000000000E+00  0.00000000000E+00  0.99999998245E-14  0.12500000000E+03  0.12500000000E+03 0.  0.
        -11    1    3    3    0    0  0.14267261790E+02  0.29494060604E+02 -0.15602897679E+02  0.36289182770E+02  0.51100000000E-03 0.  1.
         23    2    1    0    0    0  0.26573957706E+02 -0.18298452502E+01  0.24615329212E+02  0.88731032631E+02  0.80979986155E+02 0.  0.
         11    1    3    3    0    0  0.12306695916E+02 -0.31323905854E+02  0.40218226891E+02  0.52441849861E+02  0.51100000000E-03 0. -1.
         22    1    1    0    0    0 -0.26573957706E+02  0.18298452502E+01 -0.24615329212E+02  0.36268967369E+02  0.00000000000E+00 0.  1.
</event>
<event>
 5    1  0.1103865E-009  0.9118800E+02  0.7818608E-02  0.1130116E+00
         25   -1    0    0    0    0  0.00000000000E+00  0.00000000000E+00  0.99999998245E-14  0.12500000000E+03  0.12500000000E+03 0.  0.
        -11    1    3    3    0    0  0.33049024346E+01  0.22830060477E+02  0.26870401546E+02  0.35414015884E+02  0.51100000000E-03 0.  1.
         23    2    1    0    0    0  0.15549426813E+02 -0.16145945271E+02 -0.18113094183E+02  0.96180555110E+02  0.91761314166E+02 0.  0.
         11    1    3    3    0    0  0.12244524378E+02 -0.38976005748E+02 -0.44983495729E+02  0.60766539226E+02  0.51100000000E-03 0. -1.
         22    1    1    0    0    0 -0.15549426813E+02  0.16145945271E+02  0.18113094183E+02  0.28819444890E+02  0.00000000000E+00 0. -1.
</event>
<event>
 5    1  0.1103865E-009  0.9118800E+02  0.7818608E-02  0.1130116E+00
         25   -1    0    0    0    0  0.00000000000E+00  0.00000000000E+00  0.99999998245E-14  0.12500000000E+03  0.12500000000E+03 0.  0.
        -11    1    3    3    0    0  0.37024004363E+02 -0.14115582334E+02  0.13148923430E+02  0.41748302376E+02  0.51100000000E-03 0.  1.
         23    2    1    0    0    0  0.42579168534E+01 -0.95907644355E+01 -0.28323034783E+02  0.94795581156E+02  0.89854856792E+02 0.  0.
         11    1    3    3    0    0 -0.32766087509E+02  0.45248178982E+01 -0.41471958213E+02  0.53047278780E+02  0.51100000000E-03 0. -1.
         22    1    1    0    0    0 -0.42579168534E+01  0.95907644355E+01  0.28323034783E+02  0.30204418844E+02  0.00000000000E+00 0. -1.
</event>
<event>
 5    1  0.1103865E-009  0.9118800E+02  0.7818608E-02  0.1130116E+00
         25   -1    0    0    0    0  0.00000000000E+00  0.00000000000E+00  0.99999998245E-14  0.12500000000E+03  0.12500000000E+03 0.  0.
        -11    1    3    3    0    0 -0.17917683735E+02  0.32046865652E+02  0.48872304688E+01  0.37039573573E+02  0.51100000000E-03 0.  1.
         23    2    1    0    0    0 -0.12704358336E+02 -0.25684318269E+02  0.84801974661E+01  0.95116916580E+02  0.90300770456E+02 0.  0.
         11    1    3    3    0    0  0.52133253996E+01 -0.57731183921E+02  0.35929669973E+01  0.58077343007E+02  0.51100000000E-03 0. -1.
         22    1    1    0    0    0  0.12704358336E+02  0.25684318269E+02 -0.84801974661E+01  0.29883083420E+02  0.00000000000E+00 0. -1.
</event>
<event>
 5    1  0.1103865E-009  0.9118800E+02  0.7818608E-02  0.1130116E+00
         25   -1    0    0    0    0  0.00000000000E+00  0.00000000000E+00  0.99999998245E-14  0.12500000000E+03  0.12500000000E+03 0.  0.
        -11    1    3    3    0    0 -0.18913705903E+02  0.54512876290E+01  0.22825986173E+02  0.30140843599E+02  0.51100000000E-03 0.  1.
         23    2    1    0    0    0  0.39028202133E+01 -0.33955175079E+02 -0.13359464980E+02  0.88303116961E+02  0.80316743212E+02 0.  0.
         11    1    3    3    0    0  0.22816526117E+02 -0.39406462708E+02 -0.36185451154E+02  0.58162273362E+02  0.51100000000E-03 0. -1.
         22    1    1    0    0    0 -0.39028202133E+01  0.33955175079E+02  0.13359464980E+02  0.36696883039E+02  0.00000000000E+00 0. -1.
</event>
<event>
 5    1  0.1103865E-009  0.9118800E+02  0.7818608E-02  0.1130116E+00
         25   -1    0    0    0    0  0.00000000000E+00  0.00000000000E+00  0.99999998245E-14  0.12500000000E+03  0.12500000000E+03 0.  0.
        -11    1    3    3    0    0  0.24349446444E+02 -0.26228082204E+02  0.35118082668E+02  0.50140677785E+02  0.51100000000E-03 0. -1.
         23    2    1    0    0    0 -0.48934357532E+01  0.71717868234E+01  0.28725460123E+02  0.94991129662E+02  0.90126480101E+02 0.  0.
         11    1    3    3    0    0 -0.29242882197E+02  0.33399869028E+02 -0.63926225453E+01  0.44850451876E+02  0.51100000000E-03 0.  1.
         22    1    1    0    0    0  0.48934357532E+01 -0.71717868234E+01 -0.28725460123E+02  0.30008870338E+02  0.00000000000E+00 0. -1.
</event>
<event>
 5    1  0.1103865E-009  0.9118800E+02  0.7818608E-02  0.1130116E+00
         25   -1    0    0    0    0  0.00000000000E+00  0.00000000000E+00  0.99999998245E-14  0.12500000000E+03  0.12500000000E+03 0.  0.
        -11    1    3    3    0    0 -0.12214778798E+02 -0.47170633830E+02 -0.78234430572E+01  0.49350539800E+02  0.51100000000E-03 0. -1.
         23    2    1    0    0    0  0.14173375661E+02 -0.10709977313E+02 -0.22170783948E+02  0.96589933958E+02  0.92317297888E+02 0.  0.
         11    1    3    3    0    0  0.26388154459E+02  0.36460656518E+02 -0.14347340891E+02  0.47239394157E+02  0.51100000000E-03 0.  1.
         22    1    1    0    0    0 -0.14173375661E+02  0.10709977313E+02  0.22170783948E+02  0.28410066042E+02  0.00000000000E+00 0. -1.
</event>
<event>
 5    1  0.1103865E-009  0.9118800E+02  0.7818608E-02  0.1130116E+00
         25   -1    0    0    0    0  0.00000000000E+00  0.00000000000E+00  0.99999998245E-14  0.12500000000E+03  0.12500000000E+03 0.  0.
        -11    1    3    3    0    0 -0.29864526864E+02  0.37517192300E+02  0.10429535928E+02  0.49073464345E+02  0.51100000000E-03 0.  1.
         23    2    1    0    0    0 -0.44893548074E+02  0.16590588545E+02 -0.68805189084E+00  0.77134023542E+02  0.60485584112E+02 0.  0.
         11    1    3    3    0    0 -0.15029021209E+02 -0.20926603755E+02 -0.11117587819E+02  0.28060559196E+02  0.51100000000E-03 0. -1.
         22    1    1    0    0    0  0.44893548074E+02 -0.16590588545E+02  0.68805189084E+00  0.47865976458E+02  0.00000000000E+00 0. -1.
</event>
<event>
 5    1  0.1103865E-009  0.9118800E+02  0.7818608E-02  0.1130116E+00
         25   -1    0    0    0    0  0.00000000000E+00  0.00000000000E+00  0.99999998245E-14  0.12500000000E+03  0.12500000000E+03 0.  0.
        -11    1    3    3    0    0  0.16989676379E+02  0.49499709619E+02 -0.32210907532E+02  0.61452525743E+02  0.51100000000E-03 0.  1.
         23    2    1    0    0    0  0.13694595062E+02  0.23868536792E+02 -0.94043272243E+01  0.95919244284E+02  0.91404655630E+02 0.  0.
         11    1    3    3    0    0 -0.32950813173E+01 -0.25631172828E+02  0.22806580307E+02  0.34466718541E+02  0.51100000000E-03 0. -1.
         22    1    1    0    0    0 -0.13694595062E+02 -0.23868536792E+02  0.94043272243E+01  0.29080755716E+02  0.00000000000E+00 0.  1.
</event>
<event>
 5    1  0.1103865E-009  0.9118800E+02  0.7818608E-02  0.1130116E+00
         25   -1    0    0    0    0  0.00000000000E+00  0.00000000000E+00  0.99999998245E-14  0.12500000000E+03  0.12500000000E+03 0.  0.
        -11    1    3    3    0    0 -0.36600975292E+01  0.21452984035E+02  0.26171990115E+02  0.34038212420E+02  0.51100000000E-03 0.  1.
         23    2    1    0    0    0 -0.33368277437E+01 -0.30975101089E+01 -0.29640159779E+02  0.95012201482E+02  0.90155700710E+02 0.  0.
         11    1    3    3    0    0  0.32326978547E+00 -0.24550494144E+02 -0.55812149894E+02  0.60973989062E+02  0.51100000000E-03 0. -1.
         22    1    1    0    0    0  0.33368277437E+01  0.30975101089E+01  0.29640159779E+02  0.29987798518E+02  0.00000000000E+00 0. -1.
</event>
<event>
 5    1  0.1103865E-009  0.9118800E+02  0.7818608E-02  0.1130116E+00
         25   -1    0    0    0    0  0.00000000000E+00  0.00000000000E+00  0.99999998245E-14  0.12500000000E+03  0.12500000000E+03 0.  0.
        -11    1    3    3    0    0 -0.23033610503E+02  0.38575187821E+02  0.17822641275E+02  0.48334654964E+02  0.51100000000E-03 0.  1.
         23    2    1    0    0    0  0.19230735762E+02  0.13744222053E+02  0.14058563782E+02  0.97497853658E+02  0.93538566455E+02 0.  0.
         11    1    3    3    0    0  0.42264346265E+02 -0.24830965768E+02 -0.37640774926E+01  0.49163198694E+02  0.51100000000E-03 0. -1.
         22    1    1    0    0    0 -0.19230735762E+02 -0.13744222053E+02 -0.14058563782E+02  0.27502146342E+02  0.00000000000E+00 0.  1.
</event>
<event>
 5    1  0.1103865E-009  0.9118800E+02  0.7818608E-02  0.1130116E+00
         25   -1    0    0    0    0  0.00000000000E+00  0.00000000000E+00  0.99999998245E-14  0.12500000000E+03  0.12500000000E+03 0.  0.
        -11    1    3    3    0    0  0.22228693819E+02  0.50452903742E+02 -0.26132594040E+02  0.61012480661E+02  0.51100000000E-03 0.  1.
         23    2    1    0    0    0  0.17795037119E+02  0.22520016456E+02 -0.61383393198E+01  0.95648787131E+02  0.91034041890E+02 0.  0.
         11    1    3    3    0    0 -0.44336566997E+01 -0.27932887285E+02  0.19994254721E+02  0.34636306470E+02  0.51100000000E-03 0. -1.
         22    1    1    0    0    0 -0.17795037119E+02 -0.22520016456E+02  0.61383393198E+01  0.29351212869E+02  0.00000000000E+00 0.  1.
</event>
<event>
 5    1  0.1103865E-009  0.9118800E+02  0.7818608E-02  0.1130116E+00
         25   -1    0    0    0    0  0.00000000000E+00  0.00000000000E+00  0.99999998245E-14  0.12500000000E+03  0.12500000000E+03 0.  0.
        -11    1    3    3    0    0  0.16334270286E+02  0.23116010488E+02  0.93776036269E+01  0.29817742649E+02  0.51100000000E-03 0.  1.
         23    2    1    0    0    0 -0.18886232807E+02 -0.27278222911E+02  0.48884731776E+01  0.91463625646E+02  0.85093515684E+02 0.  0.
         11    1    3    3    0    0 -0.35220503092E+02 -0.50394233399E+02 -0.44891304493E+01  0.61645882997E+02  0.51100000000E-03 0. -1.
         22    1    1    0    0    0  0.18886232807E+02  0.27278222911E+02 -0.48884731776E+01  0.33536374354E+02  0.00000000000E+00 0. -1.
</event>
<event>
 5    1  0.1103865E-009  0.9118800E+02  0.7818608E-02  0.1130116E+00
         25   -1    0    0    0    0  0.00000000000E+00  0.00000000000E+00  0.99999998245E-14  0.12500000000E+03  0.12500000000E+03 0.  0.
        -11    1    3    3    0    0  0.42054597772E+01  0.40899822173E+01 -0.45103417697E+02  0.45483317102E+02  0.51100000000E-03 0.  1.
         23    2    1    0    0    0  0.62138955900E+01  0.28026996476E+02 -0.33340593156E+00  0.96290486082E+02  0.91910943421E+02 0.  0.
         11    1    3    3    0    0  0.20084358128E+01  0.23937014259E+02  0.44770011765E+02  0.50807168980E+02  0.51100000000E-03 0. -1.
         22    1    1    0    0    0 -0.62138955900E+01 -0.28026996476E+02  0.33340593156E+00  0.28709513918E+02  0.00000000000E+00 0. -1.
</event>
<event>
 5    1  0.1103865E-009  0.9118800E+02  0.7818608E-02  0.1130116E+00
         25   -1    0    0    0    0  0.00000000000E+00  0.00000000000E+00  0.99999998245E-14  0.12500000000E+03  0.12500000000E+03 0.  0.
        -11    1    3    3    0    0  0.56085913507E+02 -0.23739001906E+00 -0.24789323044E+02  0.61320441821E+02  0.51100000000E-03 0.  1.
         23    2    1    0    0    0  0.22607787157E+02 -0.24387708448E+01 -0.19002620591E+02  0.95366248420E+02  0.90645254178E+02 0.  0.
         11    1    3    3    0    0 -0.33478126350E+02 -0.22013808257E+01  0.57867024526E+01  0.34045806599E+02  0.51100000000E-03 0. -1.
         22    1    1    0    0    0 -0.22607787157E+02  0.24387708448E+01  0.19002620591E+02  0.29633751580E+02  0.00000000000E+00 0.  1.
</event>
<event>
 5    1  0.1103865E-009  0.9118800E+02  0.7818608E-02  0.1130116E+00
         25   -1    0    0    0    0  0.00000000000E+00  0.00000000000E+00  0.99999998245E-14  0.12500000000E+03  0.12500000000E+03 0.  0.
        -11    1    3    3    0    0  0.17315100325E+02 -0.42129903028E+02 -0.53032884445E+01  0.45857020149E+02  0.51100000000E-03 0.  1.
         23    2    1    0    0    0  0.87455203843E+01  0.46468134196E+01 -0.25591476196E+02  0.97559142586E+02  0.93620433915E+02 0.  0.
         11    1    3    3    0    0 -0.85695799404E+01  0.46776716447E+02 -0.20288187751E+02  0.51702122437E+02  0.51100000000E-03 0. -1.
         22    1    1    0    0    0 -0.87455203843E+01 -0.46468134196E+01  0.25591476196E+02  0.27440857414E+02  0.00000000000E+00 0. -1.
</event>
<event>
 5    1  0.1103865E-009  0.9118800E+02  0.7818608E-02  0.1130116E+00
         25   -1    0    0    0    0  0.00000000000E+00  0.00000000000E+00  0.99999998245E-14  0.12500000000E+03  0.12500000000E+03 0.  0.
        -11    1    3    3    0    0  0.44465820593E+02  0.15368361875E+02 -0.18560733490E+02  0.50575652004E+02  0.51100000000E-03 0.  1.
         23    2    1    0    0    0 -0.53361969114E+00  0.21682357497E+02 -0.19219568857E+02  0.96020676274E+02  0.91543263370E+02 0.  0.
         11    1    3    3    0    0 -0.44999440284E+02  0.63139956218E+01 -0.65883536717E+00  0.45445024270E+02  0.51100000000E-03 0. -1.
         22    1    1    0    0    0  0.53361969114E+00 -0.21682357497E+02  0.19219568857E+02  0.28979323726E+02  0.00000000000E+00 0.  1.
</event>
<event>
 5    1  0.1103865E-009  0.9118800E+02  0.7818608E-02  0.1130116E+00
         25   -1    0    0    0    0  0.00000000000E+00  0.00000000000E+00  0.99999998245E-14  0.12500000000E+03  0.12500000000E+03 0.  0.
        -11    1    3    3    0    0 -0.19988824104E+02 -0.33242369940E+02  0.14182942516E+02  0.41300897169E+02  0.51100000000E-03 0.  1.
         23    2    1    0    0    0  0.11338506180E+02 -0.47754496557E+01 -0.23822345616E+02  0.98188234067E+02  0.94456648876E+02 0.  0.
         11    1    3    3    0    0  0.31327330284E+02  0.28466920284E+02 -0.38005288131E+02  0.56887336898E+02  0.51100000000E-03 0. -1.
         22    1    1    0    0    0 -0.11338506180E+02  0.47754496557E+01  0.23822345616E+02  0.26811765933E+02  0.00000000000E+00 0. -1.
</event>
<event>
 5    1  0.1103865E-009  0.9118800E+02  0.7818608E-02  0.1130116E+00
         25   -1    0    0    0    0  0.00000000000E+00  0.00000000000E+00  0.99999998245E-14  0.12500000000E+03  0.12500000000E+03 0.  0.
        -11    1    3    3    0    0  0.14250865571E+02  0.55288289697E+02 -0.10856380785E+02  0.58118354684E+02  0.51100000000E-03 0.  1.
         23    2    1    0    0    0  0.27172366619E+01  0.34828960486E+02  0.90568216241E+01  0.88910307822E+02  0.81256242563E+02 0.  0.
         11    1    3    3    0    0 -0.11533628909E+02 -0.20459329211E+02  0.19913202409E+02  0.30791953138E+02  0.51100000000E-03 0. -1.
         22    1    1    0    0    0 -0.27172366619E+01 -0.34828960486E+02 -0.90568216241E+01  0.36089692178E+02  0.00000000000E+00 0.  1.
</event>
<event>
 5    1  0.1103865E-009  0.9118800E+02  0.7818608E-02  0.1130116E+00
         25   -1    0    0    0    0  0.00000000000E+00  0.00000000000E+00  0.99999998245E-14  0.12500000000E+03  0.12500000000E+03 0.  0.
        -11    1    3    3    0    0 -0.27549228356E+02  0.35441304130E+02  0.92878966988E+01  0.45840059411E+02  0.51100000000E-03 0.  1.
         23    2    1    0    0    0 -0.23322269315E+02 -0.15108200088E+02  0.51901210317E+01  0.96731230797E+02  0.92508419613E+02 0.  0.
         11    1    3    3    0    0  0.42269590407E+01 -0.50549504218E+02 -0.40977756671E+01  0.50891171387E+02  0.51100000000E-03 0. -1.
         22    1    1    0    0    0  0.23322269315E+02  0.15108200088E+02 -0.51901210317E+01  0.28268769203E+02  0.00000000000E+00 0. -1.
</event>
<event>
 5    1  0.1103865E-009  0.9118800E+02  0.7818608E-02  0.1130116E+00
         25   -1    0    0    0    0  0.00000000000E+00  0.00000000000E+00  0.99999998245E-14  0.12500000000E+03  0.12500000000E+03 0.  0.
        -11    1    3    3    0    0 -0.15325633533E+00 -0.45133984854E+02 -0.39342740783E+02  0.59874463078E+02  0.51100000000E-03 0.  1.
         23    2    1    0    0    0 -0.52284779967E-03 -0.30557032408E+02 -0.96454300415E+01  0.92956801805E+02  0.87259386036E+02 0.  0.
         11    1    3    3    0    0  0.15273348753E+00  0.14576952446E+02  0.29697310741E+02  0.33082338727E+02  0.51100000000E-03 0. -1.
         22    1    1    0    0    0  0.52284779967E-03  0.30557032408E+02  0.96454300415E+01  0.32043198195E+02  0.00000000000E+00 0.  1.
</event>
<event>
 5    1  0.1103865E-009  0.9118800E+02  0.7818608E-02  0.1130116E+00
         25   -1    0    0    0    0  0.00000000000E+00  0.00000000000E+00  0.99999998245E-14  0.12500000000E+03  0.12500000000E+03 0.  0.
        -11    1    3    3    0    0 -0.12547268934E+02 -0.28090490670E+02 -0.73443846998E+01  0.31629884772E+02  0.51100000000E-03 0.  1.
         23    2    1    0    0    0  0.29566313870E+02 -0.85892843563E+01  0.22552048166E+02  0.86835388144E+02  0.77999019456E+02 0.  0.
         11    1    3    3    0    0  0.42113582803E+02  0.19501206314E+02  0.29896432866E+02  0.55205503373E+02  0.51100000000E-03 0. -1.
         22    1    1    0    0    0 -0.29566313870E+02  0.85892843563E+01 -0.22552048166E+02  0.38164611856E+02  0.00000000000E+00 0. -1.
</event>
<event>
 5    1  0.1103865E-009  0.9118800E+02  0.7818608E-02  0.1130116E+00
         25   -1    0    0    0    0  0.00000000000E+00  0.00000000000E+00  0.99999998245E-14  0.12500000000E+03  0.12500000000E+03 0.  0.
        -11    1    3    3    0    0  0.25824308321E+02  0.73074119755E+01  0.50846317779E+02  0.57494705861E+02  0.51100000000E-03 0.  1.
         23    2    1    0    0    0  0.21499288122E+02 -0.51961754733E+01  0.94613977832E+01  0.10094303267E+03  0.98034474377E+02 0.  0.
         11    1    3    3    0    0 -0.43250201993E+01 -0.12503587449E+02 -0.41384919996E+02  0.43448326805E+02  0.51100000000E-03 0. -1.
         22    1    1    0    0    0 -0.21499288122E+02  0.51961754733E+01 -0.94613977832E+01  0.24056967334E+02  0.00000000000E+00 0.  1.
</event>
<event>
 5    1  0.1103865E-009  0.9118800E+02  0.7818608E-02  0.1130116E+00
         25   -1    0    0    0    0  0.00000000000E+00  0.00000000000E+00  0.99999998245E-14  0.12500000000E+03  0.12500000000E+03 0.  0.
        -11    1    3    3    0    0 -0.19080156243E+02 -0.22061687793E+02  0.20402178441E+02  0.35595214790E+02  0.51100000000E-03 0. -1.
         23    2    1    0    0    0 -0.10453074786E+02  0.79634088333E+01 -0.28495558937E+02  0.93620396244E+02  0.88204869826E+02 0.  0.
         11    1    3    3    0    0  0.86270814568E+01  0.30025096627E+02 -0.48897737378E+02  0.58025181454E+02  0.51100000000E-03 0.  1.
         22    1    1    0    0    0  0.10453074786E+02 -0.79634088333E+01  0.28495558937E+02  0.31379603756E+02  0.00000000000E+00 0.  1.
</event>
<event>
 5    1  0.1103865E-009  0.9118800E+02  0.7818608E-02  0.1130116E+00
         25   -1    0    0    0    0  0.00000000000E+00  0.00000000000E+00  0.99999998245E-14  0.12500000000E+03  0.12500000000E+03 0.  0.
        -11    1    3    3    0    0  0.19250528388E+02 -0.74743720740E+01  0.39833293551E+02  0.44868032679E+02  0.51100000000E-03 0. -1.
         23    2    1    0    0    0 -0.13943035889E+02  0.21393639785E+02  0.15009892136E+02  0.95379180717E+02  0.90663086090E+02 0.  0.
         11    1    3    3    0    0 -0.33193564277E+02  0.28868011859E+02 -0.24823401415E+02  0.50511148038E+02  0.51100000000E-03 0.  1.
         22    1    1    0    0    0  0.13943035889E+02 -0.21393639785E+02 -0.15009892136E+02  0.29620819283E+02  0.00000000000E+00 0. -1.
</event>
<event>
 5    1  0.1103865E-009  0.9118800E+02  0.7818608E-02  0.1130116E+00
         25   -1    0    0    0    0  0.00000000000E+00  0.00000000000E+00  0.99999998245E-14  0.12500000000E+03  0.12500000000E+03 0.  0.
        -11    1    3    3    0    0 -0.23025655076E+02 -0.28909794666E+02  0.36434233522E+02  0.51898076957E+02  0.51100000000E-03 0. -1.
         23    2    1    0    0    0 -0.37060651411E+01  0.93792693933E+01  0.27504472816E+02  0.95704921266E+02  0.91111087780E+02 0.  0.
         11    1    3    3    0    0  0.19319589935E+02  0.38289064059E+02 -0.89297607059E+01  0.43806844309E+02  0.51100000000E-03 0.  1.
         22    1    1    0    0    0  0.37060651411E+01 -0.93792693933E+01 -0.27504472816E+02  0.29295078734E+02  0.00000000000E+00 0.  1.
</event>
<event>
 5    1  0.1103865E-009  0.9118800E+02  0.7818608E-02  0.1130116E+00
         25   -1    0    0    0    0  0.00000000000E+00  0.00000000000E+00  0.99999998245E-14  0.12500000000E+03  0.12500000000E+03 0.  0.
        -11    1    3    3    0    0 -0.49037231946E+01  0.61788460415E+02 -0.29977344080E+01  0.62055191188E+02  0.51100000000E-03 0. -1.
         23    2    1    0    0    0  0.29034575985E+01  0.29341514557E+02 -0.21054002618E+01  0.95440107361E+02  0.90747048659E+02 0.  0.
         11    1    3    3    0    0  0.78071807931E+01 -0.32446945857E+02  0.89233414624E+00  0.33384916173E+02  0.51100000000E-03 0.  1.
         22    1    1    0    0    0 -0.29034575985E+01 -0.29341514557E+02  0.21054002618E+01  0.29559892639E+02  0.00000000000E+00 0. -1.
</event>
<event>
 5    1  0.1103865E-009  0.9118800E+02  0.7818608E-02  0.1130116E+00
         25   -1    0    0    0    0  0.00000000000E+00  0.00000000000E+00  0.99999998245E-14  0.12500000000E+03  0.12500000000E+03 0.  0.
        -11    1    3    3    0    0  0.64941691278E+01  0.53798056972E+02 -0.28585640662E+02  0.61266173529E+02  0.51100000000E-03 0. -1.
         23    2    1    0    0    0 -0.11158252591E+01  0.26499683743E+02 -0.52829094663E+01  0.97955824344E+02  0.94148585151E+02 0.  0.
         11    1    3    3    0    0 -0.76099943869E+01 -0.27298373228E+02  0.23302731195E+02  0.36689650815E+02  0.51100000000E-03 0.  1.
         22    1    1    0    0    0  0.11158252591E+01 -0.26499683743E+02  0.52829094663E+01  0.27044175656E+02  0.00000000000E+00 0. -1.
</event>
<event>
 5    1  0.1103865E-009  0.9118800E+02  0.7818608E-02  0.1130116E+00
         25   -1    0    0    0    0  0.00000000000E+00  0.00000000000E+00  0.99999998245E-14  0.12500000000E+03  0.12500000000E+03 0.  0.
        -11    1    3    3    0    0 -0.54023955360E+02 -0.59971067733E+01 -0.19695771689E+01  0.54391472464E+02  0.51100000000E-03 0. -1.
         23    2    1    0    0    0 -0.15854798282E+02 -0.16323294499E+02 -0.16897260797E+02  0.96656711653E+02  0.92407672373E+02 0.  0.
         11    1    3    3    0    0  0.38169157078E+02 -0.10326187726E+02 -0.14927683628E+02  0.42265239189E+02  0.51100000000E-03 0.  1.
         22    1    1    0    0    0  0.15854798282E+02  0.16323294499E+02  0.16897260797E+02  0.28343288347E+02  0.00000000000E+00 0.  1.
</event>
<event>
 5    1  0.1103865E-009  0.9118800E+02  0.7818608E-02  0.1130116E+00
         25   -1    0    0    0    0  0.00000000000E+00  0.00000000000E+00  0.99999998245E-14  0.12500000000E+03  0.12500000000E+03 0.  0.
        -11    1    3    3    0    0  0.88296829750E+01 -0.40354858909E+02  0.51468009751E+01  0.41628926235E+02  0.51100000000E-03 0.  1.
         23    2    1    0    0    0 -0.20832791544E+02  0.26776940089E+01  0.20034414408E+02  0.95973236326E+02  0.91478462391E+02 0.  0.
         11    1    3    3    0    0 -0.29662474519E+02  0.43032552917E+02  0.14887613433E+02  0.54344310090E+02  0.51100000000E-03 0. -1.
         22    1    1    0    0    0  0.20832791544E+02 -0.26776940089E+01 -0.20034414408E+02  0.29026763674E+02  0.00000000000E+00 0.  1.
</event>
<event>
 5    1  0.1103865E-009  0.9118800E+02  0.7818608E-02  0.1130116E+00
         25   -1    0    0    0    0  0.00000000000E+00  0.00000000000E+00  0.99999998245E-14  0.12500000000E+03  0.12500000000E+03 0.  0.
        -11    1    3    3    0    0 -0.20734378857E+02  0.39239662671E+02 -0.41874693604E+02  0.61017665949E+02  0.51100000000E-03 0.  1.
         23    2    1    0    0    0 -0.13736526807E+02  0.24862836257E+02 -0.13584863839E+02  0.93513473977E+02  0.88053213992E+02 0.  0.
         11    1    3    3    0    0  0.69978520498E+01 -0.14376826414E+02  0.28289829765E+02  0.32495808029E+02  0.51100000000E-03 0. -1.
         22    1    1    0    0    0  0.13736526807E+02 -0.24862836257E+02  0.13584863839E+02  0.31486526023E+02  0.00000000000E+00 0.  1.
</event>
<event>
 5    1  0.1103865E-009  0.9118800E+02  0.7818608E-02  0.1130116E+00
         25   -1    0    0    0    0  0.00000000000E+00  0.00000000000E+00  0.99999998245E-14  0.12500000000E+03  0.12500000000E+03 0.  0.
        -11    1    3    3    0    0  0.18993987309E+02  0.34458949080E+02 -0.47349972343E+02  0.61564686360E+02  0.51100000000E-03 0.  1.
         23    2    1    0    0    0  0.86513990883E+01  0.22784818390E+02 -0.18351213022E+02  0.94491613045E+02  0.89430997205E+02 0.  0.
         11    1    3    3    0    0 -0.10342588220E+02 -0.11674130690E+02  0.28998759321E+02  0.32926926684E+02  0.51100000000E-03 0. -1.
         22    1    1    0    0    0 -0.86513990883E+01 -0.22784818390E+02  0.18351213022E+02  0.30508386955E+02  0.00000000000E+00 0.  1.
</event>
<event>
 5    1  0.1103865E-009  0.9118800E+02  0.7818608E-02  0.1130116E+00
         25   -1    0    0    0    0  0.00000000000E+00  0.00000000000E+00  0.99999998245E-14  0.12500000000E+03  0.12500000000E+03 0.  0.
        -11    1    3    3    0    0 -0.48214297012E+02  0.37950247870E+02  0.72410125139E+01  0.61784075717E+02  0.51100000000E-03 0.  1.
         23    2    1    0    0    0 -0.25416399781E+02  0.18665112240E+02 -0.29322678747E+01  0.93330172283E+02  0.87792613987E+02 0.  0.
         11    1    3    3    0    0  0.22797897231E+02 -0.19285135630E+02 -0.10173280389E+02  0.31546096566E+02  0.51100000000E-03 0. -1.
         22    1    1    0    0    0  0.25416399781E+02 -0.18665112240E+02  0.29322678747E+01  0.31669827717E+02  0.00000000000E+00 0.  1.
</event>
<event>
 5    1  0.1103865E-009  0.9118800E+02  0.7818608E-02  0.1130116E+00
         25   -1    0    0    0    0  0.00000000000E+00  0.00000000000E+00  0.99999998245E-14  0.12500000000E+03  0.12500000000E+03 0.  0.
        -11    1    3    3    0    0  0.23560724743E+02 -0.25967243162E+01 -0.23632928345E+02  0.33471869234E+02  0.51100000000E-03 0.  1.
         23    2    1    0    0    0 -0.27927711388E+02 -0.20564610017E+01  0.10326599288E+02  0.95153312611E+02  0.90351138083E+02 0.  0.
         11    1    3    3    0    0 -0.51488436131E+02  0.54026331451E+00  0.33959527634E+02  0.61681443377E+02  0.51100000000E-03 0. -1.
         22    1    1    0    0    0  0.27927711388E+02  0.20564610017E+01 -0.10326599288E+02  0.29846687389E+02  0.00000000000E+00 0. -1.
</event>
<event>
 5    1  0.1103865E-009  0.9118800E+02  0.7818608E-02  0.1130116E+00
         25   -1    0    0    0    0  0.00000000000E+00  0.00000000000E+00  0.99999998245E-14  0.12500000000E+03  0.12500000000E+03 0.  0.
        -11    1    3    3    0    0 -0.25685557773E+02 -0.18938359487E+02  0.80665373579E+01  0.32916232520E+02  0.51100000000E-03 0. -1.
         23    2    1    0    0    0  0.12297963507E+02  0.18795493765E+02 -0.21354314408E+02  0.94007787492E+02  0.88752165456E+02 0.  0.
         11    1    3    3    0    0  0.37983521280E+02  0.37733853251E+02 -0.29420851766E+02  0.61091554972E+02  0.51100000000E-03 0.  1.
         22    1    1    0    0    0 -0.12297963507E+02 -0.18795493765E+02  0.21354314408E+02  0.30992212508E+02  0.00000000000E+00 0.  1.
</event>
<event>
 5    1  0.1103865E-009  0.9118800E+02  0.7818608E-02  0.1130116E+00
         25   -1    0    0    0    0  0.00000000000E+00  0.00000000000E+00  0.99999998245E-14  0.12500000000E+03  0.12500000000E+03 0.  0.
        -11    1    3    3    0    0 -0.41293869095E+02  0.32553653086E+02 -0.31549734026E+02  0.61321363908E+02  0.51100000000E-03 0. -1.
         23    2    1    0    0    0 -0.14490719223E+02  0.20950908486E+02 -0.99309786842E+01  0.97658715326E+02  0.93753287044E+02 0.  0.
         11    1    3    3    0    0  0.26803149872E+02 -0.11602744600E+02  0.21618755342E+02  0.36337351419E+02  0.51100000000E-03 0.  1.
         22    1    1    0    0    0  0.14490719223E+02 -0.20950908486E+02  0.99309786842E+01  0.27341284674E+02  0.00000000000E+00 0. -1.
</event>
<event>
 5    1  0.1103865E-009  0.9118800E+02  0.7818608E-02  0.1130116E+00
         25   -1    0    0    0    0  0.00000000000E+00  0.00000000000E+00  0.99999998245E-14  0.12500000000E+03  0.12500000000E+03 0.  0.
        -11    1    3    3    0    0 -0.17127836356E+02 -0.37346578097E+02 -0.38850334622E+02  0.56546248101E+02  0.51100000000E-03 0.  1.
         23    2    1    0    0    0  0.37423518722E+00 -0.90468664496E+01 -0.33561529000E+02  0.90238497251E+02  0.83274391698E+02 0.  0.
         11    1    3    3    0    0  0.17502071543E+02  0.28299711647E+02  0.52888056215E+01  0.33692249150E+02  0.51100000000E-03 0. -1.
         22    1    1    0    0    0 -0.37423518722E+00  0.90468664496E+01  0.33561529000E+02  0.34761502749E+02  0.00000000000E+00 0.  1.
</event>
<event>
 5    1  0.1103865E-009  0.9118800E+02  0.7818608E-02  0.1130116E+00
         25   -1    0    0    0    0  0.00000000000E+00  0.00000000000E+00  0.99999998245E-14  0.12500000000E+03  0.12500000000E+03 0.  0.
        -11    1    3    3    0    0  0.80295169615E+01  0.96221902651E+01 -0.45961697299E+02  0.47639661071E+02  0.51100000000E-03 0. -1.
         23    2    1    0    0    0 -0.11042705647E+02 -0.22096225078E+02 -0.13610509652E+02  0.96796622832E+02  0.92596737027E+02 0.  0.
         11    1    3    3    0    0 -0.19072222608E+02 -0.31718415343E+02  0.32351187647E+02  0.49156961761E+02  0.51100000000E-03 0.  1.
         22    1    1    0    0    0  0.11042705647E+02  0.22096225078E+02  0.13610509652E+02  0.28203377168E+02  0.00000000000E+00 0.  1.
</event>
<event>
 5    1  0.1103865E-009  0.9118800E+02  0.7818608E-02  0.1130116E+00
         25   -1    0    0    0    0  0.00000000000E+00  0.00000000000E+00  0.99999998245E-14  0.12500000000E+03  0.12500000000E+03 0.  0.
        -11    1    3    3    0    0  0.48489897034E+01 -0.24257171082E+02 -0.24579457350E+02  0.34872235001E+02  0.51100000000E-03 0.  1.
         23    2    1    0    0    0 -0.15253580222E+02  0.46905561454E+01  0.24782138290E+02  0.95524121646E+02  0.90862700881E+02 0.  0.
         11    1    3    3    0    0 -0.20102569925E+02  0.28947727228E+02  0.49361595640E+02  0.60651886645E+02  0.51100000000E-03 0. -1.
         22    1    1    0    0    0  0.15253580222E+02 -0.46905561454E+01 -0.24782138290E+02  0.29475878354E+02  0.00000000000E+00 0. -1.
</event>
<event>
 5    1  0.1103865E-009  0.9118800E+02  0.7818608E-02  0.1130116E+00
         25   -1    0    0    0    0  0.00000000000E+00  0.00000000000E+00  0.99999998245E-14  0.12500000000E+03  0.12500000000E+03 0.  0.
        -11    1    3    3    0    0  0.40727038813E+02 -0.21801974936E+02  0.32293938858E+02  0.56364140097E+02  0.51100000000E-03 0.  1.
         23    2    1    0    0    0  0.28008271858E+02  0.65029468772E+01  0.10063499941E+02  0.94536486716E+02  0.89493696308E+02 0.  0.
         11    1    3    3    0    0 -0.12718766955E+02  0.28304921813E+02 -0.22230438917E+02  0.38172346619E+02  0.51100000000E-03 0. -1.
         22    1    1    0    0    0 -0.28008271858E+02 -0.65029468772E+01 -0.10063499941E+02  0.30463513284E+02  0.00000000000E+00 0.  1.
</event>
<event>
 5    1  0.1103865E-009  0.9118800E+02  0.7818608E-02  0.1130116E+00
         25   -1    0    0    0    0  0.00000000000E+00  0.00000000000E+00  0.99999998245E-14  0.12500000000E+03  0.12500000000E+03 0.  0.
        -11    1    3    3    0    0  0.46674814291E+01 -0.37412970473E+02  0.80338765136E+01  0.38549434686E+02  0.51100000000E-03 0. -1.
         23    2    1    0    0    0  0.25717418940E+02  0.13212685972E+02 -0.66973115401E+01  0.95321477642E+02  0.90583494139E+02 0.  0.
         11    1    3    3    0    0  0.21049937511E+02  0.50625656445E+02 -0.14731188054E+02  0.56772042956E+02  0.51100000000E-03 0.  1.
         22    1    1    0    0    0 -0.25717418940E+02 -0.13212685972E+02  0.66973115401E+01  0.29678522358E+02  0.00000000000E+00 0.  1.
</event>
<event>
 5    1  0.1103865E-009  0.9118800E+02  0.7818608E-02  0.1130116E+00
         25   -1    0    0    0    0  0.00000000000E+00  0.00000000000E+00  0.99999998245E-14  0.12500000000E+03  0.12500000000E+03 0.  0.
        -11    1    3    3    0    0  0.12100396838E+02  0.32246393143E+02  0.22827424184E+01  0.34517537391E+02  0.51100000000E-03 0.  1.
         23    2    1    0    0    0  0.52678096056E+01 -0.27720578296E+02 -0.78374565551E+01  0.95715089135E+02  0.91125036536E+02 0.  0.
         11    1    3    3    0    0 -0.68325872323E+01 -0.59966971439E+02 -0.10120198974E+02  0.61197551744E+02  0.51100000000E-03 0. -1.
         22    1    1    0    0    0 -0.52678096056E+01  0.27720578296E+02  0.78374565551E+01  0.29284910865E+02  0.00000000000E+00 0. -1.
</event>
<event>
 5    1  0.1103865E-009  0.9118800E+02  0.7818608E-02  0.1130116E+00
         25   -1    0    0    0    0  0.00000000000E+00  0.00000000000E+00  0.99999998245E-14  0.12500000000E+03  0.12500000000E+03 0.  0.
        -11    1    3    3    0    0 -0.31513783535E+02  0.35744659326E+02  0.15017056239E+02  0.49963098396E+02  0.51100000000E-03 0. -1.
         23    2    1    0    0    0 -0.30807602688E+02 -0.49634183622E+01 -0.11604097031E+01  0.93773561588E+02  0.88421662487E+02 0.  0.
         11    1    3    3    0    0  0.70618084640E+00 -0.40708077688E+02 -0.16177465942E+02  0.43810463191E+02  0.51100000000E-03 0.  1.
         22    1    1    0    0    0  0.30807602688E+02  0.49634183622E+01  0.11604097031E+01  0.31226438412E+02  0.00000000000E+00 0. -1.
</event>
<event>
 5    1  0.1103865E-009  0.9118800E+02  0.7818608E-02  0.1130116E+00
         25   -1    0    0    0    0  0.00000000000E+00  0.00000000000E+00  0.99999998245E-14  0.12500000000E+03  0.12500000000E+03 0.  0.
        -11    1    3    3    0    0  0.70408129545E+01 -0.17992300134E+02 -0.57090090604E+02  0.60270841678E+02  0.51100000000E-03 0.  1.
         23    2    1    0    0    0  0.14753537826E+02 -0.75530929225E+01 -0.23839519741E+02  0.95964869682E+02  0.91467029144E+02 0.  0.
         11    1    3    3    0    0  0.77127248718E+01  0.10439207212E+02  0.33250570863E+02  0.35694028003E+02  0.51100000000E-03 0. -1.
         22    1    1    0    0    0 -0.14753537826E+02  0.75530929225E+01  0.23839519741E+02  0.29035130318E+02  0.00000000000E+00 0.  1.
</event>
<event>
 5    1  0.1103865E-009  0.9118800E+02  0.7818608E-02  0.1130116E+00
         25   -1    0    0    0    0  0.00000000000E+00  0.00000000000E+00  0.99999998245E-14  0.12500000000E+03  0.12500000000E+03 0.  0.
        -11    1    3    3    0    0 -0.25044146335E+01  0.23692741072E+02  0.41882688662E+02  0.48184828338E+02  0.51100000000E-03 0. -1.
         23    2    1    0    0    0 -0.10036208891E+02  0.22033421755E+02 -0.86402068714E+01  0.99292990491E+02  0.95907495133E+02 0.  0.
         11    1    3    3    0    0 -0.75317942575E+01 -0.16593193177E+01 -0.50522895533E+02  0.51108162153E+02  0.51100000000E-03 0.  1.
         22    1    1    0    0    0  0.10036208891E+02 -0.22033421755E+02  0.86402068714E+01  0.25707009509E+02  0.00000000000E+00 0. -1.
</event>
<event>
 5    1  0.1103865E-009  0.9118800E+02  0.7818608E-02  0.1130116E+00
         25   -1    0    0    0    0  0.00000000000E+00  0.00000000000E+00  0.99999998245E-14  0.12500000000E+03  0.12500000000E+03 0.  0.
        -11    1    3    3    0    0 -0.25286929710E+02  0.10912351301E+02 -0.18203575263E+02  0.33013306071E+02  0.51100000000E-03 0. -1.
         23    2    1    0    0    0  0.17802773373E+02 -0.98111108310E+01  0.21682236450E+02  0.95279367218E+02  0.90525365531E+02 0.  0.
         11    1    3    3    0    0  0.43089703083E+02 -0.20723462132E+02  0.39885811713E+02  0.62266061147E+02  0.51100000000E-03 0.  1.
         22    1    1    0    0    0 -0.17802773373E+02  0.98111108310E+01 -0.21682236450E+02  0.29720632782E+02  0.00000000000E+00 0.  1.
</event>
<event>
 5    1  0.1103865E-009  0.9118800E+02  0.7818608E-02  0.1130116E+00
         25   -1    0    0    0    0  0.00000000000E+00  0.00000000000E+00  0.99999998245E-14  0.12500000000E+03  0.12500000000E+03 0.  0.
        -11    1    3    3    0    0  0.31668193372E+01 -0.96685513040E+01 -0.50722729794E+02  0.51733016025E+02  0.51100000000E-03 0.  1.
         23    2    1    0    0    0  0.24349804519E+02 -0.98882108048E+01 -0.11495505502E+02  0.96314875984E+02  0.91944108001E+02 0.  0.
         11    1    3    3    0    0  0.21182985182E+02 -0.21965950078E+00  0.39227224292E+02  0.44581859959E+02  0.51100000000E-03 0. -1.
         22    1    1    0    0    0 -0.24349804519E+02  0.98882108048E+01  0.11495505502E+02  0.28685124016E+02  0.00000000000E+00 0.  1.
</event>
<event>
 5    1  0.1103865E-009  0.9118800E+02  0.7818608E-02  0.1130116E+00
         25   -1    0    0    0    0  0.00000000000E+00  0.00000000000E+00  0.99999998245E-14  0.12500000000E+03  0.12500000000E+03 0.  0.
        -11    1    3    3    0    0  0.61023237495E+02  0.96388610617E+01 -0.19925794793E+01  0.61811920615E+02  0.51100000000E-03 0.  1.
         23    2    1    0    0    0  0.28009482037E+02  0.74160600059E+01  0.49088404032E+01  0.95612489998E+02  0.90984188184E+02 0.  0.
         11    1    3    3    0    0 -0.33013755458E+02 -0.22228010558E+01  0.69014198825E+01  0.33800569383E+02  0.51100000000E-03 0. -1.
         22    1    1    0    0    0 -0.28009482037E+02 -0.74160600059E+01 -0.49088404032E+01  0.29387510002E+02  0.00000000000E+00 0.  1.
</event>
<event>
 5    1  0.1103865E-009  0.9118800E+02  0.7818608E-02  0.1130116E+00
         25   -1    0    0    0    0  0.00000000000E+00  0.00000000000E+00  0.99999998245E-14  0.12500000000E+03  0.12500000000E+03 0.  0.
        -11    1    3    3    0    0  0.46654251660E+02 -0.16599861325E+02  0.19801957260E+02  0.53331905137E+02  0.51100000000E-03 0. -1.
         23    2    1    0    0    0  0.58313415155E+01 -0.58721059010E+01  0.27539290777E+02  0.96244153497E+02  0.91847908927E+02 0.  0.
         11    1    3    3    0    0 -0.40822910144E+02  0.10727755424E+02  0.77373335178E+01  0.42912248360E+02  0.51100000000E-03 0.  1.
         22    1    1    0    0    0 -0.58313415155E+01  0.58721059010E+01 -0.27539290777E+02  0.28755846503E+02  0.00000000000E+00 0. -1.
</event>
<event>
 5    1  0.1103865E-009  0.9118800E+02  0.7818608E-02  0.1130116E+00
         25   -1    0    0    0    0  0.00000000000E+00  0.00000000000E+00  0.99999998245E-14  0.12500000000E+03  0.12500000000E+03 0.  0.
        -11    1    3    3    0    0 -0.52974305870E+02  0.93611028088E+00 -0.30101973890E+02  0.60936706649E+02  0.51100000000E-03 0. -1.
         23    2    1    0    0    0 -0.26782677097E+02 -0.77322399512E+01 -0.88806585222E+01  0.95743113239E+02  0.91163470259E+02 0.  0.
         11    1    3    3    0    0  0.26191628773E+02 -0.86683502321E+01  0.21221315367E+02  0.34806406590E+02  0.51100000000E-03 0.  1.
         22    1    1    0    0    0  0.26782677097E+02  0.77322399512E+01  0.88806585222E+01  0.29256886761E+02  0.00000000000E+00 0. -1.
</event>
<event>
 5    1  0.1103865E-009  0.9118800E+02  0.7818608E-02  0.1130116E+00
         25   -1    0    0    0    0  0.00000000000E+00  0.00000000000E+00  0.99999998245E-14  0.12500000000E+03  0.12500000000E+03 0.  0.
        -11    1    3    3    0    0 -0.34006256364E+02 -0.73923870559E+01  0.47014975476E+02  0.58493425080E+02  0.51100000000E-03 0. -1.
         23    2    1    0    0    0 -0.15847007445E+02  0.12439580388E+02  0.20534125387E+02  0.96233333342E+02  0.91833182105E+02 0.  0.
         11    1    3    3    0    0  0.18159248919E+02  0.19831967444E+02 -0.26480850089E+02  0.37739908263E+02  0.51100000000E-03 0.  1.
         22    1    1    0    0    0  0.15847007445E+02 -0.12439580388E+02 -0.20534125387E+02  0.28766666658E+02  0.00000000000E+00 0. -1.
</event>
<event>
 5    1  0.1103865E-009  0.9118800E+02  0.7818608E-02  0.1130116E+00
         25   -1    0    0    0    0  0.00000000000E+00  0.00000000000E+00  0.99999998245E-14  0.12500000000E+03  0.12500000000E+03 0.  0.
        -11    1    3    3    0    0 -0.31368333938E+02 -0.47479643317E+02 -0.16995474851E+02  0.59389688240E+02  0.51100000000E-03 0.  1.
         23    2    1    0    0    0 -0.24460868100E+02 -0.20835590687E+02  0.19572199463E+01  0.92808594045E+02  0.87046817927E+02 0.  0.
         11    1    3    3    0    0  0.69074658376E+01  0.26644052630E+02  0.18952694797E+02  0.33418905805E+02  0.51100000000E-03 0. -1.
         22    1    1    0    0    0  0.24460868100E+02  0.20835590687E+02 -0.19572199463E+01  0.32191405955E+02  0.00000000000E+00 0.  1.
</event>
<event>
 5    1  0.1103865E-009  0.9118800E+02  0.7818608E-02  0.1130116E+00
         25   -1    0    0    0    0  0.00000000000E+00  0.00000000000E+00  0.99999998245E-14  0.12500000000E+03  0.12500000000E+03 0.  0.
        -11    1    3    3    0    0  0.43872151433E+02 -0.13003649614E+02 -0.30510686755E+01  0.45860327027E+02  0.51100000000E-03 0. -1.
         23    2    1    0    0    0  0.44219506864E+01 -0.96591524082E+01  0.27273256077E+02  0.95730846098E+02  0.91146648455E+02 0.  0.
         11    1    3    3    0    0 -0.39450200747E+02  0.33444972056E+01  0.30324324752E+02  0.49870519071E+02  0.51100000000E-03 0.  1.
         22    1    1    0    0    0 -0.44219506864E+01  0.96591524082E+01 -0.27273256077E+02  0.29269153902E+02  0.00000000000E+00 0.  1.
</event>
<event>
 5    1  0.1103865E-009  0.9118800E+02  0.7818608E-02  0.1130116E+00
         25   -1    0    0    0    0  0.00000000000E+00  0.00000000000E+00  0.99999998245E-14  0.12500000000E+03  0.12500000000E+03 0.  0.
        -11    1    3    3    0    0 -0.21132832996E+02  0.45832185642E+02 -0.35392710906E+02  0.61642759970E+02  0.51100000000E-03 0.  1.
         23    2    1    0    0    0 -0.16787798952E+02  0.19367740051E+02 -0.15340884530E+02  0.95128905502E+02  0.90317364751E+02 0.  0.
         11    1    3    3    0    0  0.43450340446E+01 -0.26464445592E+02  0.20051826376E+02  0.33486145532E+02  0.51100000000E-03 0. -1.
         22    1    1    0    0    0  0.16787798952E+02 -0.19367740051E+02  0.15340884530E+02  0.29871094498E+02  0.00000000000E+00 0.  1.
</event>
<event>
 5    1  0.1103865E-009  0.9118800E+02  0.7818608E-02  0.1130116E+00
         25   -1    0    0    0    0  0.00000000000E+00  0.00000000000E+00  0.99999998245E-14  0.12500000000E+03  0.12500000000E+03 0.  0.
        -11    1    3    3    0    0 -0.27545338990E+01 -0.54424534048E+02  0.29606003010E+02  0.62017197436E+02  0.51100000000E-03 0.  1.
         23    2    1    0    0    0  0.37151558828E+01 -0.30856060429E+02  0.14984524804E+02  0.90497321378E+02  0.83662000601E+02 0.  0.
         11    1    3    3    0    0  0.64696897818E+01  0.23568473619E+02 -0.14621478206E+02  0.28480123942E+02  0.51100000000E-03 0. -1.
         22    1    1    0    0    0 -0.37151558828E+01  0.30856060429E+02 -0.14984524804E+02  0.34502678622E+02  0.00000000000E+00 0.  1.
</event>
<event>
 5    1  0.1103865E-009  0.9118800E+02  0.7818608E-02  0.1130116E+00
         25   -1    0    0    0    0  0.00000000000E+00  0.00000000000E+00  0.99999998245E-14  0.12500000000E+03  0.12500000000E+03 0.  0.
        -11    1    3    3    0    0  0.10945419453E+02  0.60312679658E+02 -0.57732550069E+01  0.61569083217E+02  0.51100000000E-03 0. -1.
         23    2    1    0    0    0  0.12046664789E+02  0.27467121703E+02 -0.58954847359E+01  0.94433324560E+02  0.89349488750E+02 0.  0.
         11    1    3    3    0    0  0.11012453364E+01 -0.32845557955E+02 -0.12222972900E+00  0.32864241343E+02  0.51100000000E-03 0.  1.
         22    1    1    0    0    0 -0.12046664789E+02 -0.27467121703E+02  0.58954847359E+01  0.30566675440E+02  0.00000000000E+00 0. -1.
</event>
<event>
 5    1  0.1103865E-009  0.9118800E+02  0.7818608E-02  0.1130116E+00
         25   -1    0    0    0    0  0.00000000000E+00  0.00000000000E+00  0.99999998245E-14  0.12500000000E+03  0.12500000000E+03 0.  0.
        -11    1    3    3    0    0  0.45525871141E+01 -0.48022759384E+02 -0.23187210686E+02  0.53521567690E+02  0.51100000000E-03 0.  1.
         23    2    1    0    0    0  0.23805716707E+02 -0.12444151065E+02 -0.12551344943E+02  0.95350289992E+02  0.90623244800E+02 0.  0.
         11    1    3    3    0    0  0.19253129593E+02  0.35578608320E+02  0.10635865743E+02  0.41828722302E+02  0.51100000000E-03 0. -1.
         22    1    1    0    0    0 -0.23805716707E+02  0.12444151065E+02  0.12551344943E+02  0.29649710008E+02  0.00000000000E+00 0.  1.
</event>
<event>
 5    1  0.1103865E-009  0.9118800E+02  0.7818608E-02  0.1130116E+00
         25   -1    0    0    0    0  0.00000000000E+00  0.00000000000E+00  0.99999998245E-14  0.12500000000E+03  0.12500000000E+03 0.  0.
        -11    1    3    3    0    0  0.80723235581E+01  0.28582192052E+02  0.69952125168E+01  0.30512900690E+02  0.51100000000E-03 0.  1.
         23    2    1    0    0    0 -0.38151615681E+02  0.60975117380E+01 -0.10757325355E+02  0.84894570477E+02  0.74824077804E+02 0.  0.
         11    1    3    3    0    0 -0.46223939239E+02 -0.22484680314E+02 -0.17752537872E+02  0.54381669786E+02  0.51100000000E-03 0. -1.
         22    1    1    0    0    0  0.38151615681E+02 -0.60975117380E+01  0.10757325355E+02  0.40105429523E+02  0.00000000000E+00 0. -1.
</event>
<event>
 5    1  0.1103865E-009  0.9118800E+02  0.7818608E-02  0.1130116E+00
         25   -1    0    0    0    0  0.00000000000E+00  0.00000000000E+00  0.99999998245E-14  0.12500000000E+03  0.12500000000E+03 0.  0.
        -11    1    3    3    0    0  0.40368325041E+02 -0.64708480007E+01  0.22267096670E+02  0.46554238635E+02  0.51100000000E-03 0. -1.
         23    2    1    0    0    0 -0.45503335049E+01  0.11133090509E+02  0.27404903665E+02  0.95072086873E+02  0.90238693021E+02 0.  0.
         11    1    3    3    0    0 -0.44918658546E+02  0.17603938510E+02  0.51378069944E+01  0.48517848238E+02  0.51100000000E-03 0.  1.
         22    1    1    0    0    0  0.45503335049E+01 -0.11133090509E+02 -0.27404903665E+02  0.29927913127E+02  0.00000000000E+00 0. -1.
</event>
<event>
 5    1  0.1103865E-009  0.9118800E+02  0.7818608E-02  0.1130116E+00
         25   -1    0    0    0    0  0.00000000000E+00  0.00000000000E+00  0.99999998245E-14  0.12500000000E+03  0.12500000000E+03 0.  0.
        -11    1    3    3    0    0  0.35123289572E+02 -0.44287748754E+02  0.10679084005E+02  0.57524716388E+02  0.51100000000E-03 0.  1.
         23    2    1    0    0    0  0.41103875089E+01 -0.22448887421E+02  0.17723707755E+02  0.96104020201E+02  0.91656996734E+02 0.  0.
         11    1    3    3    0    0 -0.31012902064E+02  0.21838861332E+02  0.70446237501E+01  0.38579303813E+02  0.51100000000E-03 0. -1.
         22    1    1    0    0    0 -0.41103875089E+01  0.22448887421E+02 -0.17723707755E+02  0.28895979799E+02  0.00000000000E+00 0.  1.
</event>
<event>
 5    1  0.1103865E-009  0.9118800E+02  0.7818608E-02  0.1130116E+00
         25   -1    0    0    0    0  0.00000000000E+00  0.00000000000E+00  0.99999998245E-14  0.12500000000E+03  0.12500000000E+03 0.  0.
        -11    1    3    3    0    0  0.36034754641E+02  0.14859947820E+02  0.31557568614E+02  0.50151786891E+02  0.51100000000E-03 0.  1.
         23    2    1    0    0    0  0.13446952593E+02  0.10438489248E+02 -0.15143131194E+02  0.10221629937E+03  0.99644743182E+02 0.  0.
         11    1    3    3    0    0 -0.22587802048E+02 -0.44214585725E+01 -0.46700699809E+02  0.52064512484E+02  0.51100000000E-03 0. -1.
         22    1    1    0    0    0 -0.13446952593E+02 -0.10438489248E+02  0.15143131194E+02  0.22783700625E+02  0.00000000000E+00 0. -1.
</event>
<event>
 5    1  0.1103865E-009  0.9118800E+02  0.7818608E-02  0.1130116E+00
         25   -1    0    0    0    0  0.00000000000E+00  0.00000000000E+00  0.99999998245E-14  0.12500000000E+03  0.12500000000E+03 0.  0.
        -11    1    3    3    0    0  0.23709578604E+02  0.13451797587E+02 -0.31380801460E+02  0.41567411231E+02  0.51100000000E-03 0.  1.
         23    2    1    0    0    0  0.34181456314E+02  0.75290499355E+01  0.13085929566E+02  0.87632900818E+02  0.79266797618E+02 0.  0.
         11    1    3    3    0    0  0.10471877710E+02 -0.59227476515E+01  0.44466731026E+02  0.46065489587E+02  0.51100000000E-03 0. -1.
         22    1    1    0    0    0 -0.34181456314E+02 -0.75290499355E+01 -0.13085929566E+02  0.37367099182E+02  0.00000000000E+00 0. -1.
</event>
<event>
 5    1  0.1103865E-009  0.9118800E+02  0.7818608E-02  0.1130116E+00
         25   -1    0    0    0    0  0.00000000000E+00  0.00000000000E+00  0.99999998245E-14  0.12500000000E+03  0.12500000000E+03 0.  0.
        -11    1    3    3    0    0  0.25520562209E+02 -0.23399249930E+02  0.10688153438E+02  0.36236178288E+02  0.51100000000E-03 0. -1.
         23    2    1    0    0    0 -0.10230900684E+02  0.12801100394E+02  0.30129273007E+02  0.90702586219E+02  0.83968128208E+02 0.  0.
         11    1    3    3    0    0 -0.35751462894E+02  0.36200350324E+02  0.19441119569E+02  0.54466407931E+02  0.51100000000E-03 0.  1.
         22    1    1    0    0    0  0.10230900684E+02 -0.12801100394E+02 -0.30129273007E+02  0.34297413781E+02  0.00000000000E+00 0.  1.
</event>
<event>
 5    1  0.1103865E-009  0.9118800E+02  0.7818608E-02  0.1130116E+00
         25   -1    0    0    0    0  0.00000000000E+00  0.00000000000E+00  0.99999998245E-14  0.12500000000E+03  0.12500000000E+03 0.  0.
        -11    1    3    3    0    0 -0.34175805789E+02  0.14510276019E+02 -0.20971389428E+02  0.42641915838E+02  0.51100000000E-03 0. -1.
         23    2    1    0    0    0  0.18861180029E+02 -0.36354734555E+01 -0.17840711027E+02  0.98784513179E+02  0.95242471066E+02 0.  0.
         11    1    3    3    0    0  0.53036985818E+02 -0.18145749475E+02  0.31306784014E+01  0.56142597341E+02  0.51100000000E-03 0.  1.
         22    1    1    0    0    0 -0.18861180029E+02  0.36354734555E+01  0.17840711027E+02  0.26215486821E+02  0.00000000000E+00 0.  1.
</event>
<event>
 5    1  0.1103865E-009  0.9118800E+02  0.7818608E-02  0.1130116E+00
         25   -1    0    0    0    0  0.00000000000E+00  0.00000000000E+00  0.99999998245E-14  0.12500000000E+03  0.12500000000E+03 0.  0.
        -11    1    3    3    0    0 -0.39880108067E+02 -0.30964131399E+02  0.23971199758E+02  0.55891134099E+02  0.51100000000E-03 0.  1.
         23    2    1    0    0    0 -0.49142716154E+01 -0.10282537807E+02  0.26047438484E+02  0.96568508642E+02  0.92288282900E+02 0.  0.
         11    1    3    3    0    0  0.34965836452E+02  0.20681593592E+02  0.20762387252E+01  0.40677374543E+02  0.51100000000E-03 0. -1.
         22    1    1    0    0    0  0.49142716154E+01  0.10282537807E+02 -0.26047438484E+02  0.28431491358E+02  0.00000000000E+00 0.  1.
</event>
<event>
 5    1  0.1103865E-009  0.9118800E+02  0.7818608E-02  0.1130116E+00
         25   -1    0    0    0    0  0.00000000000E+00  0.00000000000E+00  0.99999998245E-14  0.12500000000E+03  0.12500000000E+03 0.  0.
        -11    1    3    3    0    0  0.17542790236E+02 -0.22918866942E+02 -0.81515043749E+01  0.29991181620E+02  0.51100000000E-03 0. -1.
         23    2    1    0    0    0 -0.36142266218E+02 -0.18367501442E+00 -0.12615153414E-01  0.88857264865E+02  0.81174603271E+02 0.  0.
         11    1    3    3    0    0 -0.53685056455E+02  0.22735191927E+02  0.81388892215E+01  0.58866083244E+02  0.51100000000E-03 0.  1.
         22    1    1    0    0    0  0.36142266218E+02  0.18367501442E+00  0.12615153414E-01  0.36142735135E+02  0.00000000000E+00 0.  1.
</event>
<event>
 5    1  0.1103865E-009  0.9118800E+02  0.7818608E-02  0.1130116E+00
         25   -1    0    0    0    0  0.00000000000E+00  0.00000000000E+00  0.99999998245E-14  0.12500000000E+03  0.12500000000E+03 0.  0.
        -11    1    3    3    0    0  0.81847227475E+01 -0.37978490956E+02 -0.23818768034E+02  0.45570705203E+02  0.51100000000E-03 0. -1.
         23    2    1    0    0    0  0.19864472958E+02 -0.14137998837E+02  0.17713497802E+02  0.94862841850E+02  0.89948376652E+02 0.  0.
         11    1    3    3    0    0  0.11679750211E+02  0.23840492119E+02  0.41532265836E+02  0.49292136647E+02  0.51100000000E-03 0.  1.
         22    1    1    0    0    0 -0.19864472958E+02  0.14137998837E+02 -0.17713497802E+02  0.30137158150E+02  0.00000000000E+00 0.  1.
</event>
<event>
 5    1  0.1103865E-009  0.9118800E+02  0.7818608E-02  0.1130116E+00
         25   -1    0    0    0    0  0.00000000000E+00  0.00000000000E+00  0.99999998245E-14  0.12500000000E+03  0.12500000000E+03 0.  0.
        -11    1    3    3    0    0 -0.26331279736E+02 -0.32992505899E+02 -0.28251948217E+02  0.50793841323E+02  0.51100000000E-03 0.  1.
         23    2    1    0    0    0 -0.10336739016E+02  0.88071326089E+01 -0.26073396575E+02  0.95602112878E+02  0.90969930304E+02 0.  0.
         11    1    3    3    0    0  0.15994540720E+02  0.41799638508E+02  0.21785516416E+01  0.44808271555E+02  0.51100000000E-03 0. -1.
         22    1    1    0    0    0  0.10336739016E+02 -0.88071326089E+01  0.26073396575E+02  0.29397887122E+02  0.00000000000E+00 0.  1.
</event>
<event>
 5    1  0.1103865E-009  0.9118800E+02  0.7818608E-02  0.1130116E+00
         25   -1    0    0    0    0  0.00000000000E+00  0.00000000000E+00  0.99999998245E-14  0.12500000000E+03  0.12500000000E+03 0.  0.
        -11    1    3    3    0    0  0.54859734329E+02  0.67843681108E+01  0.18734179317E+02  0.58365979614E+02  0.51100000000E-03 0. -1.
         23    2    1    0    0    0  0.25317185098E+02  0.14576765510E+02 -0.26610838351E+01  0.95665322208E+02  0.91056743583E+02 0.  0.
         11    1    3    3    0    0 -0.29542549231E+02  0.77923973993E+01 -0.21395263152E+02  0.37299342594E+02  0.51100000000E-03 0.  1.
         22    1    1    0    0    0 -0.25317185098E+02 -0.14576765510E+02  0.26610838351E+01  0.29334677792E+02  0.00000000000E+00 0. -1.
</event>
<event>
 5    1  0.1103865E-009  0.9118800E+02  0.7818608E-02  0.1130116E+00
         25   -1    0    0    0    0  0.00000000000E+00  0.00000000000E+00  0.99999998245E-14  0.12500000000E+03  0.12500000000E+03 0.  0.
        -11    1    3    3    0    0  0.19411084052E+02 -0.31174818153E+02  0.22539201768E+02  0.43089152783E+02  0.51100000000E-03 0. -1.
         23    2    1    0    0    0  0.24346070720E+02  0.64060977245E+01 -0.14385267398E+02  0.96005083796E+02  0.91521969762E+02 0.  0.
         11    1    3    3    0    0  0.49349866680E+01  0.37580915878E+02 -0.36924469165E+02  0.52915931013E+02  0.51100000000E-03 0.  1.
         22    1    1    0    0    0 -0.24346070720E+02 -0.64060977245E+01  0.14385267398E+02  0.28994916204E+02  0.00000000000E+00 0.  1.
</event>
<event>
 5    1  0.1103865E-009  0.9118800E+02  0.7818608E-02  0.1130116E+00
         25   -1    0    0    0    0  0.00000000000E+00  0.00000000000E+00  0.99999998245E-14  0.12500000000E+03  0.12500000000E+03 0.  0.
        -11    1    3    3    0    0  0.87180093130E+01 -0.28755080862E+02  0.93791624529E+01  0.31477405394E+02  0.51100000000E-03 0.  1.
         23    2    1    0    0    0  0.88238889614E+00  0.15078967268E+02 -0.30315143545E+02  0.91130223028E+02  0.84602338957E+02 0.  0.
         11    1    3    3    0    0 -0.78356204169E+01  0.43834048130E+02 -0.39694305998E+02  0.59652817634E+02  0.51100000000E-03 0. -1.
         22    1    1    0    0    0 -0.88238889614E+00 -0.15078967268E+02  0.30315143545E+02  0.33869776972E+02  0.00000000000E+00 0. -1.
</event>
<event>
 5    1  0.1103865E-009  0.9118800E+02  0.7818608E-02  0.1130116E+00
         25   -1    0    0    0    0  0.00000000000E+00  0.00000000000E+00  0.99999998245E-14  0.12500000000E+03  0.12500000000E+03 0.  0.
        -11    1    3    3    0    0 -0.35896667197E+02  0.29193848362E+02 -0.24327581118E+02  0.52275067683E+02  0.51100000000E-03 0.  1.
         23    2    1    0    0    0 -0.18935776804E+02  0.15286977882E+02  0.14356609015E+02  0.96744601253E+02  0.92526484389E+02 0.  0.
         11    1    3    3    0    0  0.16960890393E+02 -0.13906870480E+02  0.38684190132E+02  0.44469533570E+02  0.51100000000E-03 0. -1.
         22    1    1    0    0    0  0.18935776804E+02 -0.15286977882E+02 -0.14356609015E+02  0.28255398747E+02  0.00000000000E+00 0.  1.
</event>
<event>
 5    1  0.1103865E-009  0.9118800E+02  0.7818608E-02  0.1130116E+00
         25   -1    0    0    0    0  0.00000000000E+00  0.00000000000E+00  0.99999998245E-14  0.12500000000E+03  0.12500000000E+03 0.  0.
        -11    1    3    3    0    0 -0.11397767352E+01 -0.34272702724E+02  0.20097678524E+02  0.39747124743E+02  0.51100000000E-03 0.  1.
         23    2    1    0    0    0 -0.29591769623E+02  0.67309042619E+01 -0.25339420722E+01  0.94546777445E+02  0.89508068693E+02 0.  0.
         11    1    3    3    0    0 -0.28451992887E+02  0.41003606986E+02 -0.22631620596E+02  0.54799652702E+02  0.51100000000E-03 0. -1.
         22    1    1    0    0    0  0.29591769623E+02 -0.67309042619E+01  0.25339420722E+01  0.30453222555E+02  0.00000000000E+00 0. -1.
</event>
<event>
 5    1  0.1103865E-009  0.9118800E+02  0.7818608E-02  0.1130116E+00
         25   -1    0    0    0    0  0.00000000000E+00  0.00000000000E+00  0.99999998245E-14  0.12500000000E+03  0.12500000000E+03 0.  0.
        -11    1    3    3    0    0  0.10890587952E+02 -0.30241008358E+02  0.53643911070E+01  0.32586809980E+02  0.51100000000E-03 0.  1.
         23    2    1    0    0    0 -0.29630585205E+02  0.10274494694E+02 -0.10299331308E+02  0.91990712728E+02  0.85864300976E+02 0.  0.
         11    1    3    3    0    0 -0.40521173157E+02  0.40515503053E+02 -0.15663722415E+02  0.59403902748E+02  0.51100000000E-03 0. -1.
         22    1    1    0    0    0  0.29630585205E+02 -0.10274494694E+02  0.10299331308E+02  0.33009287272E+02  0.00000000000E+00 0. -1.
</event>
<event>
 5    1  0.1103865E-009  0.9118800E+02  0.7818608E-02  0.1130116E+00
         25   -1    0    0    0    0  0.00000000000E+00  0.00000000000E+00  0.99999998245E-14  0.12500000000E+03  0.12500000000E+03 0.  0.
        -11    1    3    3    0    0  0.18672395762E+02  0.21817041651E+02  0.26690261506E+02  0.39204741160E+02  0.51100000000E-03 0. -1.
         23    2    1    0    0    0 -0.74084405591E+01 -0.25786944856E+02  0.13008008926E+02  0.95182893958E+02  0.90392054349E+02 0.  0.
         11    1    3    3    0    0 -0.26080836322E+02 -0.47603986508E+02 -0.13682252581E+02  0.55978152797E+02  0.51100000000E-03 0.  1.
         22    1    1    0    0    0  0.74084405591E+01  0.25786944856E+02 -0.13008008926E+02  0.29817106042E+02  0.00000000000E+00 0.  1.
</event>
<event>
 5    1  0.1103865E-009  0.9118800E+02  0.7818608E-02  0.1130116E+00
         25   -1    0    0    0    0  0.00000000000E+00  0.00000000000E+00  0.99999998245E-14  0.12500000000E+03  0.12500000000E+03 0.  0.
        -11    1    3    3    0    0 -0.22310654976E+02 -0.59398405998E+01 -0.31228286338E+02  0.38836231790E+02  0.51100000000E-03 0.  1.
         23    2    1    0    0    0 -0.96019542408E+01 -0.14896372237E+02  0.23406832903E+02  0.95640516735E+02  0.91022684995E+02 0.  0.
         11    1    3    3    0    0  0.12708700735E+02 -0.89565316373E+01  0.54635119241E+02  0.56804284944E+02  0.51100000000E-03 0. -1.
         22    1    1    0    0    0  0.96019542408E+01  0.14896372237E+02 -0.23406832903E+02  0.29359483265E+02  0.00000000000E+00 0. -1.
</event>
<event>
 5    1  0.1103865E-009  0.9118800E+02  0.7818608E-02  0.1130116E+00
         25   -1    0    0    0    0  0.00000000000E+00  0.00000000000E+00  0.99999998245E-14  0.12500000000E+03  0.12500000000E+03 0.  0.
        -11    1    3    3    0    0 -0.11249983049E+02 -0.34533242747E+02  0.76820148735E+01  0.37123043060E+02  0.51100000000E-03 0.  1.
         23    2    1    0    0    0  0.19689316495E+01  0.12765233997E+02 -0.25515421026E+02  0.96401667864E+02  0.92062027818E+02 0.  0.
         11    1    3    3    0    0  0.13218914699E+02  0.47298476744E+02 -0.33197435899E+02  0.59278624804E+02  0.51100000000E-03 0. -1.
         22    1    1    0    0    0 -0.19689316495E+01 -0.12765233997E+02  0.25515421026E+02  0.28598332136E+02  0.00000000000E+00 0. -1.
</event>
<event>
 5    1  0.1103865E-009  0.9118800E+02  0.7818608E-02  0.1130116E+00
         25   -1    0    0    0    0  0.00000000000E+00  0.00000000000E+00  0.99999998245E-14  0.12500000000E+03  0.12500000000E+03 0.  0.
        -11    1    3    3    0    0  0.29780021015E+02 -0.10883686774E+02 -0.32488185764E+02  0.45395886421E+02  0.51100000000E-03 0.  1.
         23    2    1    0    0    0 -0.84027340860E+01 -0.28440116068E+02 -0.70593959811E+01  0.94515885880E+02  0.89464917537E+02 0.  0.
         11    1    3    3    0    0 -0.38182755101E+02 -0.17556429294E+02  0.25428789783E+02  0.49119999458E+02  0.51100000000E-03 0. -1.
         22    1    1    0    0    0  0.84027340860E+01  0.28440116068E+02  0.70593959811E+01  0.30484114120E+02  0.00000000000E+00 0.  1.
</event>
<event>
 5    1  0.1103865E-009  0.9118800E+02  0.7818608E-02  0.1130116E+00
         25   -1    0    0    0    0  0.00000000000E+00  0.00000000000E+00  0.99999998245E-14  0.12500000000E+03  0.12500000000E+03 0.  0.
        -11    1    3    3    0    0  0.34201384129E+02 -0.15711923507E+01  0.18925943947E+02  0.39120259154E+02  0.51100000000E-03 0. -1.
         23    2    1    0    0    0 -0.81350648136E+01  0.26413153919E+02 -0.75348464291E+01  0.96353745617E+02  0.91996936929E+02 0.  0.
         11    1    3    3    0    0 -0.42336448942E+02  0.27984346270E+02 -0.26460790376E+02  0.57233486463E+02  0.51100000000E-03 0.  1.
         22    1    1    0    0    0  0.81350648136E+01 -0.26413153919E+02  0.75348464291E+01  0.28646254383E+02  0.00000000000E+00 0.  1.
</event>
<event>
 5    1  0.1103865E-009  0.9118800E+02  0.7818608E-02  0.1130116E+00
         25   -1    0    0    0    0  0.00000000000E+00  0.00000000000E+00  0.99999998245E-14  0.12500000000E+03  0.12500000000E+03 0.  0.
        -11    1    3    3    0    0 -0.38845042083E+01  0.21136507894E+02 -0.53852911468E+02  0.57982561282E+02  0.51100000000E-03 0.  1.
         23    2    1    0    0    0  0.89125154185E+01 -0.31997398506E+01 -0.26885256974E+02  0.96495819451E+02  0.92189776346E+02 0.  0.
         11    1    3    3    0    0  0.12797019627E+02 -0.24336247745E+02  0.26967654494E+02  0.38513258169E+02  0.51100000000E-03 0. -1.
         22    1    1    0    0    0 -0.89125154185E+01  0.31997398506E+01  0.26885256974E+02  0.28504180549E+02  0.00000000000E+00 0.  1.
</event>
<event>
 5    1  0.1103865E-009  0.9118800E+02  0.7818608E-02  0.1130116E+00
         25   -1    0    0    0    0  0.00000000000E+00  0.00000000000E+00  0.99999998245E-14  0.12500000000E+03  0.12500000000E+03 0.  0.
        -11    1    3    3    0    0 -0.13739235969E+02  0.33424448808E+01 -0.55960009388E+02  0.57718811438E+02  0.51100000000E-03 0.  1.
         23    2    1    0    0    0 -0.53785490961E+01  0.18347647761E+02 -0.21462686547E+02  0.96256098341E+02  0.91864163771E+02 0.  0.
         11    1    3    3    0    0  0.83606868731E+01  0.15005202880E+02  0.34497322841E+02  0.38537286904E+02  0.51100000000E-03 0. -1.
         22    1    1    0    0    0  0.53785490961E+01 -0.18347647761E+02  0.21462686547E+02  0.28743901659E+02  0.00000000000E+00 0.  1.
</event>
<event>
 5    1  0.1103865E-009  0.9118800E+02  0.7818608E-02  0.1130116E+00
         25   -1    0    0    0    0  0.00000000000E+00  0.00000000000E+00  0.99999998245E-14  0.12500000000E+03  0.12500000000E+03 0.  0.
        -11    1    3    3    0    0  0.40147892791E+02 -0.30357594383E+01  0.19774457786E+02  0.44856418849E+02  0.51100000000E-03 0. -1.
         23    2    1    0    0    0 -0.70095569516E+01 -0.16534538468E+02  0.25035604646E+02  0.94189184513E+02  0.89007281321E+02 0.  0.
         11    1    3    3    0    0 -0.47157449743E+02 -0.13498779029E+02  0.52611468595E+01  0.49332765664E+02  0.51100000000E-03 0.  1.
         22    1    1    0    0    0  0.70095569516E+01  0.16534538468E+02 -0.25035604646E+02  0.30810815487E+02  0.00000000000E+00 0.  1.
</event>
<event>
 5    1  0.1103865E-009  0.9118800E+02  0.7818608E-02  0.1130116E+00
         25   -1    0    0    0    0  0.00000000000E+00  0.00000000000E+00  0.99999998245E-14  0.12500000000E+03  0.12500000000E+03 0.  0.
        -11    1    3    3    0    0  0.46622396775E+01 -0.53327006804E+01  0.37902968176E+02  0.38559164568E+02  0.51100000000E-03 0.  1.
         23    2    1    0    0    0 -0.10536792773E+02  0.24357801557E+02 -0.97507438422E+01  0.96726275376E+02  0.92501723466E+02 0.  0.
         11    1    3    3    0    0 -0.15199032450E+02  0.29690502237E+02 -0.47653712018E+02  0.58167110809E+02  0.51100000000E-03 0. -1.
         22    1    1    0    0    0  0.10536792773E+02 -0.24357801557E+02  0.97507438422E+01  0.28273724624E+02  0.00000000000E+00 0. -1.
</event>
<event>
 5    1  0.1103865E-009  0.9118800E+02  0.7818608E-02  0.1130116E+00
         25   -1    0    0    0    0  0.00000000000E+00  0.00000000000E+00  0.99999998245E-14  0.12500000000E+03  0.12500000000E+03 0.  0.
        -11    1    3    3    0    0  0.22748668483E+01 -0.41766989631E+02  0.10791466086E+01  0.41842813000E+02  0.51100000000E-03 0.  1.
         23    2    1    0    0    0 -0.39740290504E+01  0.25920638919E+01 -0.28878864707E+02  0.95733969711E+02  0.91150932128E+02 0.  0.
         11    1    3    3    0    0 -0.62488958987E+01  0.44359053523E+02 -0.29958011316E+02  0.53891156711E+02  0.51100000000E-03 0. -1.
         22    1    1    0    0    0  0.39740290504E+01 -0.25920638919E+01  0.28878864707E+02  0.29266030289E+02  0.00000000000E+00 0. -1.
</event>
<event>
 5    1  0.1103865E-009  0.9118800E+02  0.7818608E-02  0.1130116E+00
         25   -1    0    0    0    0  0.00000000000E+00  0.00000000000E+00  0.99999998245E-14  0.12500000000E+03  0.12500000000E+03 0.  0.
        -11    1    3    3    0    0 -0.46277689165E+02 -0.25742743599E+02  0.11157415254E+02  0.54118400548E+02  0.51100000000E-03 0. -1.
         23    2    1    0    0    0 -0.51760723955E+01 -0.28198397949E+02  0.22760024224E+01  0.96240278872E+02  0.91842635622E+02 0.  0.
         11    1    3    3    0    0  0.41101616770E+02 -0.24556543494E+01 -0.88814128321E+01  0.42121878324E+02  0.51100000000E-03 0.  1.
         22    1    1    0    0    0  0.51760723955E+01  0.28198397949E+02 -0.22760024224E+01  0.28759721128E+02  0.00000000000E+00 0. -1.
</event>
<event>
 5    1  0.1103865E-009  0.9118800E+02  0.7818608E-02  0.1130116E+00
         25   -1    0    0    0    0  0.00000000000E+00  0.00000000000E+00  0.99999998245E-14  0.12500000000E+03  0.12500000000E+03 0.  0.
        -11    1    3    3    0    0  0.24344794417E+01 -0.26495593410E+02 -0.35043386278E+02  0.43999796390E+02  0.51100000000E-03 0.  1.
         23    2    1    0    0    0  0.15932368053E+02 -0.16736237011E+02  0.15472573689E+02  0.97190963382E+02  0.93127551485E+02 0.  0.
         11    1    3    3    0    0  0.13497888611E+02  0.97593563993E+01  0.50515959967E+02  0.53191166992E+02  0.51100000000E-03 0. -1.
         22    1    1    0    0    0 -0.15932368053E+02  0.16736237011E+02 -0.15472573689E+02  0.27809036618E+02  0.00000000000E+00 0. -1.
</event>
<event>
 5    1  0.1103865E-009  0.9118800E+02  0.7818608E-02  0.1130116E+00
         25   -1    0    0    0    0  0.00000000000E+00  0.00000000000E+00  0.99999998245E-14  0.12500000000E+03  0.12500000000E+03 0.  0.
        -11    1    3    3    0    0  0.33453467754E+02  0.16155628668E+02  0.38889095033E+01  0.37353212175E+02  0.51100000000E-03 0. -1.
         23    2    1    0    0    0 -0.77601494564E+01 -0.70998255646E+01 -0.28448849975E+02  0.94669083306E+02  0.89678708880E+02 0.  0.
         11    1    3    3    0    0 -0.41213617211E+02 -0.23255454232E+02 -0.32337759478E+02  0.57315871130E+02  0.51100000000E-03 0.  1.
         22    1    1    0    0    0  0.77601494564E+01  0.70998255646E+01  0.28448849975E+02  0.30330916694E+02  0.00000000000E+00 0.  1.
</event>
<event>
 5    1  0.1103865E-009  0.9118800E+02  0.7818608E-02  0.1130116E+00
         25   -1    0    0    0    0  0.00000000000E+00  0.00000000000E+00  0.99999998245E-14  0.12500000000E+03  0.12500000000E+03 0.  0.
        -11    1    3    3    0    0  0.19682411966E+02  0.19446390252E+02  0.55710779414E+02  0.62203298769E+02  0.51100000000E-03 0. -1.
         23    2    1    0    0    0  0.51021389148E+01  0.10314563592E+02  0.26597897746E+02  0.96019485717E+02  0.91541637681E+02 0.  0.
         11    1    3    3    0    0 -0.14580273051E+02 -0.91318266599E+01 -0.29112881668E+02  0.33816186948E+02  0.51100000000E-03 0.  1.
         22    1    1    0    0    0 -0.51021389148E+01 -0.10314563592E+02 -0.26597897746E+02  0.28980514283E+02  0.00000000000E+00 0. -1.
</event>
<event>
 5    1  0.1103865E-009  0.9118800E+02  0.7818608E-02  0.1130116E+00
         25   -1    0    0    0    0  0.00000000000E+00  0.00000000000E+00  0.99999998245E-14  0.12500000000E+03  0.12500000000E+03 0.  0.
        -11    1    3    3    0    0  0.14251052530E+02 -0.38561728597E+02 -0.34497055901E+02  0.53666994296E+02  0.51100000000E-03 0.  1.
         23    2    1    0    0    0 -0.17000517556E+02 -0.17694908428E+02 -0.17195934468E+02  0.95036229482E+02  0.90189009145E+02 0.  0.
         11    1    3    3    0    0 -0.31251570086E+02  0.20866820169E+02  0.17301121434E+02  0.41369235186E+02  0.51100000000E-03 0. -1.
         22    1    1    0    0    0  0.17000517556E+02  0.17694908428E+02  0.17195934468E+02  0.29963770518E+02  0.00000000000E+00 0.  1.
</event>
<event>
 5    1  0.1103865E-009  0.9118800E+02  0.7818608E-02  0.1130116E+00
         25   -1    0    0    0    0  0.00000000000E+00  0.00000000000E+00  0.99999998245E-14  0.12500000000E+03  0.12500000000E+03 0.  0.
        -11    1    3    3    0    0 -0.30119229214E+02 -0.13466992447E+02  0.10586584105E+02  0.34649727521E+02  0.51100000000E-03 0. -1.
         23    2    1    0    0    0  0.25322982760E+02  0.99016372687E+01  0.12995908983E+02  0.94863816985E+02  0.89949731774E+02 0.  0.
         11    1    3    3    0    0  0.55442211973E+02  0.23368629716E+02  0.24093248778E+01  0.60214089463E+02  0.51100000000E-03 0.  1.
         22    1    1    0    0    0 -0.25322982760E+02 -0.99016372687E+01 -0.12995908983E+02  0.30136183015E+02  0.00000000000E+00 0.  1.
</event>
<event>
 5    1  0.1103865E-009  0.9118800E+02  0.7818608E-02  0.1130116E+00
         25   -1    0    0    0    0  0.00000000000E+00  0.00000000000E+00  0.99999998245E-14  0.12500000000E+03  0.12500000000E+03 0.  0.
        -11    1    3    3    0    0 -0.12254898346E+02 -0.50822175251E+02 -0.10235642982E+02  0.53271422153E+02  0.51100000000E-03 0. -1.
         23    2    1    0    0    0 -0.25842564835E+02 -0.10133295739E+02 -0.61371968880E+00  0.97234941174E+02  0.93186561764E+02 0.  0.
         11    1    3    3    0    0 -0.13587666488E+02  0.40688879512E+02  0.96219232932E+01  0.43963519020E+02  0.51100000000E-03 0.  1.
         22    1    1    0    0    0  0.25842564835E+02  0.10133295739E+02  0.61371968880E+00  0.27765058826E+02  0.00000000000E+00 0.  1.
</event>
<event>
 5    1  0.1103865E-009  0.9118800E+02  0.7818608E-02  0.1130116E+00
         25   -1    0    0    0    0  0.00000000000E+00  0.00000000000E+00  0.99999998245E-14  0.12500000000E+03  0.12500000000E+03 0.  0.
        -11    1    3    3    0    0 -0.29714459578E+02 -0.24824649648E+02 -0.14610719233E+02  0.41384604081E+02  0.51100000000E-03 0.  1.
         23    2    1    0    0    0  0.31065862629E+01  0.19951848726E+02 -0.19258898524E+02  0.97096016088E+02  0.93000021623E+02 0.  0.
         11    1    3    3    0    0  0.32821045841E+02  0.44776498375E+02 -0.46481792917E+01  0.55711412007E+02  0.51100000000E-03 0. -1.
         22    1    1    0    0    0 -0.31065862629E+01 -0.19951848726E+02  0.19258898524E+02  0.27903983912E+02  0.00000000000E+00 0. -1.
</event>
<event>
 5    1  0.1103865E-009  0.9118800E+02  0.7818608E-02  0.1130116E+00
         25   -1    0    0    0    0  0.00000000000E+00  0.00000000000E+00  0.99999998245E-14  0.12500000000E+03  0.12500000000E+03 0.  0.
        -11    1    3    3    0    0 -0.18134465496E+01  0.33972965804E+02  0.13694129845E+01  0.34048880835E+02  0.51100000000E-03 0.  1.
         23    2    1    0    0    0 -0.21096255226E+02 -0.19530608102E+02 -0.14088729354E+02  0.92984551663E+02  0.87299128952E+02 0.  0.
         11    1    3    3    0    0 -0.19282808676E+02 -0.53503573906E+02 -0.15458142338E+02  0.58935670828E+02  0.51100000000E-03 0. -1.
         22    1    1    0    0    0  0.21096255226E+02  0.19530608102E+02  0.14088729354E+02  0.32015448337E+02  0.00000000000E+00 0. -1.
</event>
<event>
 5    1  0.1103865E-009  0.9118800E+02  0.7818608E-02  0.1130116E+00
         25   -1    0    0    0    0  0.00000000000E+00  0.00000000000E+00  0.99999998245E-14  0.12500000000E+03  0.12500000000E+03 0.  0.
        -11    1    3    3    0    0 -0.39960819603E+02 -0.40260927859E+02  0.17279922905E+02  0.59299284577E+02  0.51100000000E-03 0.  1.
         23    2    1    0    0    0 -0.27245989437E+02 -0.94581293369E+01  0.16354383106E+01  0.96112722361E+02  0.91668863799E+02 0.  0.
         11    1    3    3    0    0  0.12714830166E+02  0.30802798522E+02 -0.15644484595E+02  0.36813437784E+02  0.51100000000E-03 0. -1.
         22    1    1    0    0    0  0.27245989437E+02  0.94581293369E+01 -0.16354383106E+01  0.28887277639E+02  0.00000000000E+00 0.  1.
</event>
<event>
 5    1  0.1103865E-009  0.9118800E+02  0.7818608E-02  0.1130116E+00
         25   -1    0    0    0    0  0.00000000000E+00  0.00000000000E+00  0.99999998245E-14  0.12500000000E+03  0.12500000000E+03 0.  0.
        -11    1    3    3    0    0 -0.33966180668E+02 -0.11708097481E+01 -0.26739354732E+02  0.43244251831E+02  0.51100000000E-03 0. -1.
         23    2    1    0    0    0 -0.31023364739E+01  0.27331831529E+02  0.64057582260E+01  0.96756642466E+02  0.92542750211E+02 0.  0.
         11    1    3    3    0    0  0.30863844194E+02  0.28502641277E+02  0.33145112958E+02  0.53512390635E+02  0.51100000000E-03 0.  1.
         22    1    1    0    0    0  0.31023364739E+01 -0.27331831529E+02 -0.64057582260E+01  0.28243357534E+02  0.00000000000E+00 0.  1.
</event>
<event>
 5    1  0.1103865E-009  0.9118800E+02  0.7818608E-02  0.1130116E+00
         25   -1    0    0    0    0  0.00000000000E+00  0.00000000000E+00  0.99999998245E-14  0.12500000000E+03  0.12500000000E+03 0.  0.
        -11    1    3    3    0    0  0.72890631482E+01  0.54600223310E+01  0.54732478884E+02  0.55485011764E+02  0.51100000000E-03 0. -1.
         23    2    1    0    0    0  0.39483443670E+01  0.22327259000E+02  0.17974481935E+02  0.96065972999E+02  0.91605094016E+02 0.  0.
         11    1    3    3    0    0 -0.33407187812E+01  0.16867236669E+02 -0.36757996949E+02  0.40580961235E+02  0.51100000000E-03 0.  1.
         22    1    1    0    0    0 -0.39483443670E+01 -0.22327259000E+02 -0.17974481935E+02  0.28934027001E+02  0.00000000000E+00 0. -1.
</event>
<event>
 5    1  0.1103865E-009  0.9118800E+02  0.7818608E-02  0.1130116E+00
         25   -1    0    0    0    0  0.00000000000E+00  0.00000000000E+00  0.99999998245E-14  0.12500000000E+03  0.12500000000E+03 0.  0.
        -11    1    3    3    0    0  0.23767395565E+01 -0.41180590299E+02 -0.34352860150E+02  0.53680619492E+02  0.51100000000E-03 0. -1.
         23    2    1    0    0    0  0.23310850443E+02 -0.11440870198E+02 -0.11773419848E+02  0.96488551875E+02  0.92179921722E+02 0.  0.
         11    1    3    3    0    0  0.20934110887E+02  0.29739720101E+02  0.22579440302E+02  0.42807932383E+02  0.51100000000E-03 0.  1.
         22    1    1    0    0    0 -0.23310850443E+02  0.11440870198E+02  0.11773419848E+02  0.28511448125E+02  0.00000000000E+00 0. -1.
</event>
<event>
 5    1  0.1103865E-009  0.9118800E+02  0.7818608E-02  0.1130116E+00
         25   -1    0    0    0    0  0.00000000000E+00  0.00000000000E+00  0.99999998245E-14  0.12500000000E+03  0.12500000000E+03 0.  0.
        -11    1    3    3    0    0  0.34246834668E+02 -0.39444474179E+02  0.18168633508E+02  0.55306522869E+02  0.51100000000E-03 0.  1.
         23    2    1    0    0    0  0.13279421245E+01 -0.29472258678E+02 -0.24283026251E+01  0.95398072436E+02  0.90689128945E+02 0.  0.
         11    1    3    3    0    0 -0.32918892544E+02  0.99722155004E+01 -0.20596936133E+02  0.40091549566E+02  0.51100000000E-03 0. -1.
         22    1    1    0    0    0 -0.13279421245E+01  0.29472258678E+02  0.24283026251E+01  0.29601927564E+02  0.00000000000E+00 0.  1.
</event>
<event>
 5    1  0.1103865E-009  0.9118800E+02  0.7818608E-02  0.1130116E+00
         25   -1    0    0    0    0  0.00000000000E+00  0.00000000000E+00  0.99999998245E-14  0.12500000000E+03  0.12500000000E+03 0.  0.
        -11    1    3    3    0    0 -0.17808720007E+01  0.12313308374E+02 -0.37114645742E+02  0.39144424852E+02  0.51100000000E-03 0.  1.
         23    2    1    0    0    0  0.18127130589E+02 -0.23821425988E+02  0.62690142334E+00  0.95059288504E+02  0.90220962786E+02 0.  0.
         11    1    3    3    0    0  0.19908002589E+02 -0.36134734362E+02  0.37741547166E+02  0.55914863652E+02  0.51100000000E-03 0. -1.
         22    1    1    0    0    0 -0.18127130589E+02  0.23821425988E+02 -0.62690142334E+00  0.29940711496E+02  0.00000000000E+00 0. -1.
</event>
<event>
 5    1  0.1103865E-009  0.9118800E+02  0.7818608E-02  0.1130116E+00
         25   -1    0    0    0    0  0.00000000000E+00  0.00000000000E+00  0.99999998245E-14  0.12500000000E+03  0.12500000000E+03 0.  0.
        -11    1    3    3    0    0 -0.27894252176E+02  0.75665024956E+00 -0.37331011999E+02  0.46607577508E+02  0.51100000000E-03 0. -1.
         23    2    1    0    0    0  0.70020205599E+01 -0.24463787736E+02 -0.18157660624E+02  0.93739708229E+02  0.88373791687E+02 0.  0.
         11    1    3    3    0    0  0.34896272736E+02 -0.25220437985E+02  0.19173351375E+02  0.47132130720E+02  0.51100000000E-03 0.  1.
         22    1    1    0    0    0 -0.70020205599E+01  0.24463787736E+02  0.18157660624E+02  0.31260291771E+02  0.00000000000E+00 0. -1.
</event>
<event>
 5    1  0.1103865E-009  0.9118800E+02  0.7818608E-02  0.1130116E+00
         25   -1    0    0    0    0  0.00000000000E+00  0.00000000000E+00  0.99999998245E-14  0.12500000000E+03  0.12500000000E+03 0.  0.
        -11    1    3    3    0    0 -0.36520508830E+02 -0.34101466704E+02  0.13051097723E+02  0.51642896400E+02  0.51100000000E-03 0.  1.
         23    2    1    0    0    0  0.38980227842E+01 -0.27533756473E+02  0.16379024591E+02  0.92726562413E+02  0.86928939964E+02 0.  0.
         11    1    3    3    0    0  0.40418531614E+02  0.65677102311E+01  0.33279268677E+01  0.41083666013E+02  0.51100000000E-03 0. -1.
         22    1    1    0    0    0 -0.38980227842E+01  0.27533756473E+02 -0.16379024591E+02  0.32273437587E+02  0.00000000000E+00 0.  1.
</event>
<event>
 5    1  0.1103865E-009  0.9118800E+02  0.7818608E-02  0.1130116E+00
         25   -1    0    0    0    0  0.00000000000E+00  0.00000000000E+00  0.99999998245E-14  0.12500000000E+03  0.12500000000E+03 0.  0.
        -11    1    3    3    0    0  0.25426086932E+02  0.22074670973E+02  0.94329289852E+01  0.34967944531E+02  0.51100000000E-03 0.  1.
         23    2    1    0    0    0 -0.22905692993E+02 -0.15668727354E+02  0.71879128248E+01  0.96332145543E+02  0.91967583342E+02 0.  0.
         11    1    3    3    0    0 -0.48331779925E+02 -0.37743398327E+02 -0.22450161604E+01  0.61364201012E+02  0.51100000000E-03 0. -1.
         22    1    1    0    0    0  0.22905692993E+02  0.15668727354E+02 -0.71879128248E+01  0.28667854457E+02  0.00000000000E+00 0. -1.
</event>
<event>
 5    1  0.1103865E-009  0.9118800E+02  0.7818608E-02  0.1130116E+00
         25   -1    0    0    0    0  0.00000000000E+00  0.00000000000E+00  0.99999998245E-14  0.12500000000E+03  0.12500000000E+03 0.  0.
        -11    1    3    3    0    0 -0.22122613786E+02  0.26337191568E+02  0.47590099406E+02  0.58718610867E+02  0.51100000000E-03 0. -1.
         23    2    1    0    0    0  0.24153749033E+01  0.62611400418E+01  0.28486743090E+02  0.95733458653E+02  0.91150231284E+02 0.  0.
         11    1    3    3    0    0  0.24537988689E+02 -0.20076051526E+02 -0.19103356316E+02  0.37014847786E+02  0.51100000000E-03 0.  1.
         22    1    1    0    0    0 -0.24153749033E+01 -0.62611400418E+01 -0.28486743090E+02  0.29266541347E+02  0.00000000000E+00 0. -1.
</event>
<event>
 5    1  0.1103865E-009  0.9118800E+02  0.7818608E-02  0.1130116E+00
         25   -1    0    0    0    0  0.00000000000E+00  0.00000000000E+00  0.99999998245E-14  0.12500000000E+03  0.12500000000E+03 0.  0.
        -11    1    3    3    0    0 -0.39338611175E+02  0.87586576178E+01 -0.19149263823E+02  0.44619891502E+02  0.51100000000E-03 0. -1.
         23    2    1    0    0    0 -0.10122205504E+02  0.18544082892E+02  0.20988233895E+02  0.95220006437E+02  0.90443361333E+02 0.  0.
         11    1    3    3    0    0  0.29216405671E+02  0.97854252740E+01  0.40137497718E+02  0.50600114935E+02  0.51100000000E-03 0.  1.
         22    1    1    0    0    0  0.10122205504E+02 -0.18544082892E+02 -0.20988233895E+02  0.29779993563E+02  0.00000000000E+00 0.  1.
</event>
<event>
 5    1  0.1103865E-009  0.9118800E+02  0.7818608E-02  0.1130116E+00
         25   -1    0    0    0    0  0.00000000000E+00  0.00000000000E+00  0.99999998245E-14  0.12500000000E+03  0.12500000000E+03 0.  0.
        -11    1    3    3    0    0  0.29778135275E+02  0.12967583050E+02 -0.39136148960E+02  0.50857975838E+02  0.51100000000E-03 0.  1.
         23    2    1    0    0    0  0.12586740282E+02  0.26583210160E+02 -0.15193420185E+00  0.95587142653E+02  0.90949357684E+02 0.  0.
         11    1    3    3    0    0 -0.17191394993E+02  0.13615627109E+02  0.38984214758E+02  0.44729166815E+02  0.51100000000E-03 0. -1.
         22    1    1    0    0    0 -0.12586740282E+02 -0.26583210160E+02  0.15193420185E+00  0.29412857347E+02  0.00000000000E+00 0.  1.
</event>
<event>
 5    1  0.1103865E-009  0.9118800E+02  0.7818608E-02  0.1130116E+00
         25   -1    0    0    0    0  0.00000000000E+00  0.00000000000E+00  0.99999998245E-14  0.12500000000E+03  0.12500000000E+03 0.  0.
        -11    1    3    3    0    0  0.20696923781E+02 -0.29504884113E+02  0.41911798999E+02  0.55276574932E+02  0.51100000000E-03 0.  1.
         23    2    1    0    0    0  0.12927690024E+02  0.68611077996E+01  0.24782099738E+02  0.96218887495E+02  0.91813516836E+02 0.  0.
         11    1    3    3    0    0 -0.77692337573E+01  0.36365991913E+02 -0.17129699261E+02  0.40942312563E+02  0.51100000000E-03 0. -1.
         22    1    1    0    0    0 -0.12927690024E+02 -0.68611077996E+01 -0.24782099738E+02  0.28781112505E+02  0.00000000000E+00 0. -1.
</event>
<event>
 5    1  0.1103865E-009  0.9118800E+02  0.7818608E-02  0.1130116E+00
         25   -1    0    0    0    0  0.00000000000E+00  0.00000000000E+00  0.99999998245E-14  0.12500000000E+03  0.12500000000E+03 0.  0.
        -11    1    3    3    0    0 -0.14810874188E+02 -0.35796185606E+02  0.22889326290E+02  0.44996112681E+02  0.51100000000E-03 0. -1.
         23    2    1    0    0    0 -0.19639203168E+02  0.15335508543E+02  0.11265890220E+02  0.97654133662E+02  0.93747178174E+02 0.  0.
         11    1    3    3    0    0 -0.48283289795E+01  0.51131694149E+02 -0.11623436070E+02  0.52658020981E+02  0.51100000000E-03 0.  1.
         22    1    1    0    0    0  0.19639203168E+02 -0.15335508543E+02 -0.11265890220E+02  0.27345866338E+02  0.00000000000E+00 0.  1.
</event>
<event>
 5    1  0.1103865E-009  0.9118800E+02  0.7818608E-02  0.1130116E+00
         25   -1    0    0    0    0  0.00000000000E+00  0.00000000000E+00  0.99999998245E-14  0.12500000000E+03  0.12500000000E+03 0.  0.
        -11    1    3    3    0    0 -0.32875133118E+02 -0.33845801199E+02  0.14607378533E+02  0.49393199372E+02  0.51100000000E-03 0.  1.
         23    2    1    0    0    0 -0.22781665669E+02 -0.30780790370E+01 -0.18342123817E+02  0.95590607498E+02  0.90954119613E+02 0.  0.
         11    1    3    3    0    0  0.10093467450E+02  0.30767722162E+02 -0.32949502350E+02  0.46197408126E+02  0.51100000000E-03 0. -1.
         22    1    1    0    0    0  0.22781665669E+02  0.30780790370E+01  0.18342123817E+02  0.29409392502E+02  0.00000000000E+00 0. -1.
</event>
<event>
 5    1  0.1103865E-009  0.9118800E+02  0.7818608E-02  0.1130116E+00
         25   -1    0    0    0    0  0.00000000000E+00  0.00000000000E+00  0.99999998245E-14  0.12500000000E+03  0.12500000000E+03 0.  0.
        -11    1    3    3    0    0  0.27390518301E+02 -0.41760794109E+01 -0.45273357252E+02  0.53078781157E+02  0.51100000000E-03 0.  1.
         23    2    1    0    0    0 -0.73823292171E+01 -0.14927659088E+02 -0.25620435252E+02  0.94442832379E+02  0.89362789206E+02 0.  0.
         11    1    3    3    0    0 -0.34772847518E+02 -0.10751579677E+02  0.19652922000E+02  0.41364051222E+02  0.51100000000E-03 0. -1.
         22    1    1    0    0    0  0.73823292171E+01  0.14927659088E+02  0.25620435252E+02  0.30557167621E+02  0.00000000000E+00 0.  1.
</event>
<event>
 5    1  0.1103865E-009  0.9118800E+02  0.7818608E-02  0.1130116E+00
         25   -1    0    0    0    0  0.00000000000E+00  0.00000000000E+00  0.99999998245E-14  0.12500000000E+03  0.12500000000E+03 0.  0.
        -11    1    3    3    0    0  0.45529318395E+00 -0.28413245235E+01  0.35388108658E+02  0.35504910247E+02  0.51100000000E-03 0.  1.
         23    2    1    0    0    0 -0.26739064198E+01  0.17532612017E+02 -0.22150428780E+02  0.96624240013E+02  0.92363737491E+02 0.  0.
         11    1    3    3    0    0 -0.31291996038E+01  0.20373936540E+02 -0.57538537439E+02  0.61119329767E+02  0.51100000000E-03 0. -1.
         22    1    1    0    0    0  0.26739064198E+01 -0.17532612017E+02  0.22150428780E+02  0.28375759987E+02  0.00000000000E+00 0. -1.
</event>
<event>
 5    1  0.1103865E-009  0.9118800E+02  0.7818608E-02  0.1130116E+00
         25   -1    0    0    0    0  0.00000000000E+00  0.00000000000E+00  0.99999998245E-14  0.12500000000E+03  0.12500000000E+03 0.  0.
        -11    1    3    3    0    0 -0.32134341535E+02 -0.36079959989E+02  0.29242471153E+02  0.56475672091E+02  0.51100000000E-03 0. -1.
         23    2    1    0    0    0 -0.21429124447E+02 -0.20123613359E+01 -0.12603082425E+01  0.10343972752E+03  0.10116784014E+03 0.  0.
         11    1    3    3    0    0  0.10705217088E+02  0.34067598653E+02 -0.30502779396E+02  0.46964055426E+02  0.51100000000E-03 0.  1.
         22    1    1    0    0    0  0.21429124447E+02  0.20123613359E+01  0.12603082425E+01  0.21560272484E+02  0.00000000000E+00 0.  1.
</event>
<event>
 5    1  0.1103865E-009  0.9118800E+02  0.7818608E-02  0.1130116E+00
         25   -1    0    0    0    0  0.00000000000E+00  0.00000000000E+00  0.99999998245E-14  0.12500000000E+03  0.12500000000E+03 0.  0.
        -11    1    3    3    0    0 -0.19992138138E+02  0.26647468169E+02  0.32712202679E+01  0.33473482482E+02  0.51100000000E-03 0.  1.
         23    2    1    0    0    0  0.11732403455E+02 -0.17954696373E+02 -0.22451320324E+02  0.93950326942E+02  0.88671200147E+02 0.  0.
         11    1    3    3    0    0  0.31724541594E+02 -0.44602164542E+02 -0.25722540592E+02  0.60476844461E+02  0.51100000000E-03 0. -1.
         22    1    1    0    0    0 -0.11732403455E+02  0.17954696373E+02  0.22451320324E+02  0.31049673058E+02  0.00000000000E+00 0. -1.
</event>
<event>
 5    1  0.1103865E-009  0.9118800E+02  0.7818608E-02  0.1130116E+00
         25   -1    0    0    0    0  0.00000000000E+00  0.00000000000E+00  0.99999998245E-14  0.12500000000E+03  0.12500000000E+03 0.  0.
        -11    1    3    3    0    0 -0.12707977920E+02  0.34222733571E+02 -0.20187559603E+01  0.36561777470E+02  0.51100000000E-03 0.  1.
         23    2    1    0    0    0 -0.12617797705E+02 -0.22471780301E+02 -0.15618718884E+02  0.94864736464E+02  0.89951009533E+02 0.  0.
         11    1    3    3    0    0  0.90180214860E-01 -0.56694513872E+02 -0.13599962924E+02  0.58302958994E+02  0.51100000000E-03 0. -1.
         22    1    1    0    0    0  0.12617797705E+02  0.22471780301E+02  0.15618718884E+02  0.30135263536E+02  0.00000000000E+00 0. -1.
</event>
<event>
 5    1  0.1103865E-009  0.9118800E+02  0.7818608E-02  0.1130116E+00
         25   -1    0    0    0    0  0.00000000000E+00  0.00000000000E+00  0.99999998245E-14  0.12500000000E+03  0.12500000000E+03 0.  0.
        -11    1    3    3    0    0 -0.29016393393E+02 -0.74019557717E+01 -0.32431670086E+02  0.44142420183E+02  0.51100000000E-03 0.  1.
         23    2    1    0    0    0  0.10624116151E+02  0.21640993745E+02 -0.16438697468E+02  0.95820636938E+02  0.91269706006E+02 0.  0.
         11    1    3    3    0    0  0.39640509544E+02  0.29042949516E+02  0.15992972618E+02  0.51678216755E+02  0.51100000000E-03 0. -1.
         22    1    1    0    0    0 -0.10624116151E+02 -0.21640993745E+02  0.16438697468E+02  0.29179363062E+02  0.00000000000E+00 0. -1.
</event>
<event>
 5    1  0.1103865E-009  0.9118800E+02  0.7818608E-02  0.1130116E+00
         25   -1    0    0    0    0  0.00000000000E+00  0.00000000000E+00  0.99999998245E-14  0.12500000000E+03  0.12500000000E+03 0.  0.
        -11    1    3    3    0    0  0.31795283745E+02  0.33673754022E+02 -0.11760267868E+02  0.47782482972E+02  0.51100000000E-03 0.  1.
         23    2    1    0    0    0 -0.12554548439E+02  0.16932441090E+02 -0.20052362100E+02  0.95906676478E+02  0.91387466971E+02 0.  0.
         11    1    3    3    0    0 -0.44349832185E+02 -0.16741312933E+02 -0.82920942320E+01  0.48124193505E+02  0.51100000000E-03 0. -1.
         22    1    1    0    0    0  0.12554548439E+02 -0.16932441090E+02  0.20052362100E+02  0.29093323522E+02  0.00000000000E+00 0. -1.
</event>
<event>
 5    1  0.1103865E-009  0.9118800E+02  0.7818608E-02  0.1130116E+00
         25   -1    0    0    0    0  0.00000000000E+00  0.00000000000E+00  0.99999998245E-14  0.12500000000E+03  0.12500000000E+03 0.  0.
        -11    1    3    3    0    0  0.21323578209E+02  0.18440626863E+02 -0.13775138738E+02  0.31376841050E+02  0.51100000000E-03 0. -1.
         23    2    1    0    0    0 -0.33760506151E+02 -0.20276569860E+01 -0.59431708657E+01  0.90660453579E+02  0.83905383587E+02 0.  0.
         11    1    3    3    0    0 -0.55084084360E+02 -0.20468283849E+02  0.78319678724E+01  0.59283612530E+02  0.51100000000E-03 0.  1.
         22    1    1    0    0    0  0.33760506151E+02  0.20276569860E+01  0.59431708657E+01  0.34339546421E+02  0.00000000000E+00 0.  1.
</event>
<event>
 5    1  0.1103865E-009  0.9118800E+02  0.7818608E-02  0.1130116E+00
         25   -1    0    0    0    0  0.00000000000E+00  0.00000000000E+00  0.99999998245E-14  0.12500000000E+03  0.12500000000E+03 0.  0.
        -11    1    3    3    0    0  0.17099895634E+02  0.25736320338E+02  0.27506159548E+02  0.41368507691E+02  0.51100000000E-03 0. -1.
         23    2    1    0    0    0  0.10668038412E+02 -0.24727950232E+02  0.27973587130E+01  0.97924110689E+02  0.94106469874E+02 0.  0.
         11    1    3    3    0    0 -0.64318572224E+01 -0.50464270570E+02 -0.24708800835E+02  0.56555602998E+02  0.51100000000E-03 0.  1.
         22    1    1    0    0    0 -0.10668038412E+02  0.24727950232E+02 -0.27973587130E+01  0.27075889311E+02  0.00000000000E+00 0.  1.
</event>
<event>
 5    1  0.1103865E-009  0.9118800E+02  0.7818608E-02  0.1130116E+00
         25   -1    0    0    0    0  0.00000000000E+00  0.00000000000E+00  0.99999998245E-14  0.12500000000E+03  0.12500000000E+03 0.  0.
        -11    1    3    3    0    0  0.15172685563E+02 -0.47781483388E+01 -0.42629638629E+01  0.16468574617E+02  0.51100000000E-03 0.  1.
         23    2    1    0    0    0 -0.38913756322E+02 -0.28396649835E+02  0.62732587667E+01  0.76420128361E+02  0.58991796804E+02 0.  0.
         11    1    3    3    0    0 -0.54086441885E+02 -0.23618501496E+02  0.10536222630E+02  0.59951553744E+02  0.51100000000E-03 0. -1.
         22    1    1    0    0    0  0.38913756322E+02  0.28396649835E+02 -0.62732587667E+01  0.48579871639E+02  0.00000000000E+00 0. -1.
</event>
<event>
 5    1  0.1103865E-009  0.9118800E+02  0.7818608E-02  0.1130116E+00
         25   -1    0    0    0    0  0.00000000000E+00  0.00000000000E+00  0.99999998245E-14  0.12500000000E+03  0.12500000000E+03 0.  0.
        -11    1    3    3    0    0 -0.13801074954E+02 -0.21119231000E+01 -0.59009514284E+02  0.60638706000E+02  0.51100000000E-03 0.  1.
         23    2    1    0    0    0 -0.15898984449E+02  0.31116563850E+01 -0.24345393995E+02  0.95756909863E+02  0.91182385721E+02 0.  0.
         11    1    3    3    0    0 -0.20979094951E+01  0.52235794850E+01  0.34664120289E+02  0.35118203863E+02  0.51100000000E-03 0. -1.
         22    1    1    0    0    0  0.15898984449E+02 -0.31116563850E+01  0.24345393995E+02  0.29243090137E+02  0.00000000000E+00 0.  1.
</event>
<event>
 5    1  0.1103865E-009  0.9118800E+02  0.7818608E-02  0.1130116E+00
         25   -1    0    0    0    0  0.00000000000E+00  0.00000000000E+00  0.99999998245E-14  0.12500000000E+03  0.12500000000E+03 0.  0.
        -11    1    3    3    0    0  0.57458644465E+02 -0.21732101568E+02 -0.32397489183E+01  0.61516469629E+02  0.51100000000E-03 0.  1.
         23    2    1    0    0    0  0.22949090152E+02 -0.16512510969E+02 -0.41167193820E+01  0.96429540854E+02  0.92099865437E+02 0.  0.
         11    1    3    3    0    0 -0.34509554313E+02  0.52195905984E+01 -0.87697046364E+00  0.34913071225E+02  0.51100000000E-03 0. -1.
         22    1    1    0    0    0 -0.22949090152E+02  0.16512510969E+02  0.41167193820E+01  0.28570459146E+02  0.00000000000E+00 0.  1.
</event>
<event>
 5    1  0.1103865E-009  0.9118800E+02  0.7818608E-02  0.1130116E+00
         25   -1    0    0    0    0  0.00000000000E+00  0.00000000000E+00  0.99999998245E-14  0.12500000000E+03  0.12500000000E+03 0.  0.
        -11    1    3    3    0    0  0.50026857646E+01 -0.17004940677E+02 -0.18805757462E+02  0.25842820788E+02  0.51100000000E-03 0. -1.
         23    2    1    0    0    0  0.97446049800E+01  0.35563105442E+02  0.11079172208E+02  0.86497534473E+02  0.77455688094E+02 0.  0.
         11    1    3    3    0    0  0.47419192155E+01  0.52568046119E+02  0.29884929669E+02  0.60654713685E+02  0.51100000000E-03 0.  1.
         22    1    1    0    0    0 -0.97446049800E+01 -0.35563105442E+02 -0.11079172208E+02  0.38502465527E+02  0.00000000000E+00 0.  1.
</event>
<event>
 5    1  0.1103865E-009  0.9118800E+02  0.7818608E-02  0.1130116E+00
         25   -1    0    0    0    0  0.00000000000E+00  0.00000000000E+00  0.99999998245E-14  0.12500000000E+03  0.12500000000E+03 0.  0.
        -11    1    3    3    0    0 -0.21525343547E+02  0.40133472566E+02 -0.26590356054E+02  0.52735975105E+02  0.51100000000E-03 0.  1.
         23    2    1    0    0    0  0.14901600463E+02  0.21516663465E+02 -0.12424082062E+02  0.96027904492E+02  0.91553132786E+02 0.  0.
         11    1    3    3    0    0  0.36426944010E+02 -0.18616809101E+02  0.14166273991E+02  0.43291929387E+02  0.51100000000E-03 0. -1.
         22    1    1    0    0    0 -0.14901600463E+02 -0.21516663465E+02  0.12424082062E+02  0.28972095508E+02  0.00000000000E+00 0.  1.
</event>
<event>
 5    1  0.1103865E-009  0.9118800E+02  0.7818608E-02  0.1130116E+00
         25   -1    0    0    0    0  0.00000000000E+00  0.00000000000E+00  0.99999998245E-14  0.12500000000E+03  0.12500000000E+03 0.  0.
        -11    1    3    3    0    0  0.24169835514E+02 -0.28613109291E+01 -0.44896759581E+02  0.51069433815E+02  0.51100000000E-03 0.  1.
         23    2    1    0    0    0 -0.13694827491E+02 -0.12251561157E+02 -0.22119779861E+02  0.96243544865E+02  0.91847080609E+02 0.  0.
         11    1    3    3    0    0 -0.37864663005E+02 -0.93902502284E+01  0.22776979720E+02  0.45174111051E+02  0.51100000000E-03 0. -1.
         22    1    1    0    0    0  0.13694827491E+02  0.12251561157E+02  0.22119779861E+02  0.28756455135E+02  0.00000000000E+00 0.  1.
</event>
<event>
 5    1  0.1103865E-009  0.9118800E+02  0.7818608E-02  0.1130116E+00
         25   -1    0    0    0    0  0.00000000000E+00  0.00000000000E+00  0.99999998245E-14  0.12500000000E+03  0.12500000000E+03 0.  0.
        -11    1    3    3    0    0 -0.43398707546E+02  0.44962380399E+01  0.44543509201E+02  0.62352130560E+02  0.51100000000E-03 0.  1.
         23    2    1    0    0    0 -0.22704530819E+02  0.16588381100E+01  0.19005722400E+02  0.95344225730E+02  0.90614879753E+02 0.  0.
         11    1    3    3    0    0  0.20694176727E+02 -0.28373999298E+01 -0.25537786801E+02  0.32992095170E+02  0.51100000000E-03 0. -1.
         22    1    1    0    0    0  0.22704530819E+02 -0.16588381100E+01 -0.19005722400E+02  0.29655774270E+02  0.00000000000E+00 0.  1.
</event>
<event>
 5    1  0.1103865E-009  0.9118800E+02  0.7818608E-02  0.1130116E+00
         25   -1    0    0    0    0  0.00000000000E+00  0.00000000000E+00  0.99999998245E-14  0.12500000000E+03  0.12500000000E+03 0.  0.
        -11    1    3    3    0    0  0.58392732823E+02  0.62898817311E+01  0.14799900443E+01  0.58749163650E+02  0.51100000000E-03 0.  1.
         23    2    1    0    0    0  0.24478308717E+02  0.75959767974E+00  0.15669534014E+02  0.95925975812E+02  0.91413860836E+02 0.  0.
         11    1    3    3    0    0 -0.33914424107E+02 -0.55302840514E+01  0.14189543970E+02  0.37176812162E+02  0.51100000000E-03 0. -1.
         22    1    1    0    0    0 -0.24478308717E+02 -0.75959767974E+00 -0.15669534014E+02  0.29074024188E+02  0.00000000000E+00 0.  1.
</event>
<event>
 5    1  0.1103865E-009  0.9118800E+02  0.7818608E-02  0.1130116E+00
         25   -1    0    0    0    0  0.00000000000E+00  0.00000000000E+00  0.99999998245E-14  0.12500000000E+03  0.12500000000E+03 0.  0.
        -11    1    3    3    0    0  0.42905135768E+02  0.54271162482E+01 -0.26263588467E+02  0.50597236540E+02  0.51100000000E-03 0.  1.
         23    2    1    0    0    0  0.17885051003E+02 -0.22754239914E+02 -0.86004449840E+00  0.96045377572E+02  0.91576986153E+02 0.  0.
         11    1    3    3    0    0 -0.25020084765E+02 -0.28181356162E+02  0.25403543969E+02  0.45448141032E+02  0.51100000000E-03 0. -1.
         22    1    1    0    0    0 -0.17885051003E+02  0.22754239914E+02  0.86004449840E+00  0.28954622428E+02  0.00000000000E+00 0.  1.
</event>
<event>
 5    1  0.1103865E-009  0.9118800E+02  0.7818608E-02  0.1130116E+00
         25   -1    0    0    0    0  0.00000000000E+00  0.00000000000E+00  0.99999998245E-14  0.12500000000E+03  0.12500000000E+03 0.  0.
        -11    1    3    3    0    0 -0.15996423408E+02 -0.28600704291E+02  0.28409259016E+02  0.43370172306E+02  0.51100000000E-03 0.  1.
         23    2    1    0    0    0 -0.32027073876E+02 -0.10153055543E+02 -0.10917905539E+02  0.89672692443E+02  0.82420708021E+02 0.  0.
         11    1    3    3    0    0 -0.16030650468E+02  0.18447648749E+02 -0.39327164555E+02  0.46302520136E+02  0.51100000000E-03 0. -1.
         22    1    1    0    0    0  0.32027073876E+02  0.10153055543E+02  0.10917905539E+02  0.35327307557E+02  0.00000000000E+00 0. -1.
</event>
<event>
 5    1  0.1103865E-009  0.9118800E+02  0.7818608E-02  0.1130116E+00
         25   -1    0    0    0    0  0.00000000000E+00  0.00000000000E+00  0.99999998245E-14  0.12500000000E+03  0.12500000000E+03 0.  0.
        -11    1    3    3    0    0 -0.34322542902E+02 -0.17924104416E+02 -0.10831557293E+02  0.40207376239E+02  0.51100000000E-03 0.  1.
         23    2    1    0    0    0  0.17892564648E+02 -0.21457964137E+02  0.81800335600E+01  0.95888128820E+02  0.91362093918E+02 0.  0.
         11    1    3    3    0    0  0.52215107550E+02 -0.35338597206E+01  0.19011590853E+02  0.55680752581E+02  0.51100000000E-03 0. -1.
         22    1    1    0    0    0 -0.17892564648E+02  0.21457964137E+02 -0.81800335600E+01  0.29111871180E+02  0.00000000000E+00 0. -1.
</event>
<event>
 5    1  0.1103865E-009  0.9118800E+02  0.7818608E-02  0.1130116E+00
         25   -1    0    0    0    0  0.00000000000E+00  0.00000000000E+00  0.99999998245E-14  0.12500000000E+03  0.12500000000E+03 0.  0.
        -11    1    3    3    0    0 -0.28764053632E+02 -0.36879728129E+02  0.26373353042E+02  0.53693937080E+02  0.51100000000E-03 0.  1.
         23    2    1    0    0    0  0.36132596040E+01 -0.30175242651E+02  0.24395247978E+01  0.94511441568E+02  0.89458707748E+02 0.  0.
         11    1    3    3    0    0  0.32377313237E+02  0.67044854777E+01 -0.23933828244E+02  0.40817504488E+02  0.51100000000E-03 0. -1.
         22    1    1    0    0    0 -0.36132596040E+01  0.30175242651E+02 -0.24395247978E+01  0.30488558432E+02  0.00000000000E+00 0.  1.
</event>
<event>
 5    1  0.1103865E-009  0.9118800E+02  0.7818608E-02  0.1130116E+00
         25   -1    0    0    0    0  0.00000000000E+00  0.00000000000E+00  0.99999998245E-14  0.12500000000E+03  0.12500000000E+03 0.  0.
        -11    1    3    3    0    0 -0.37215816878E+02 -0.28428090967E+01 -0.27296095787E+02  0.46240409113E+02  0.51100000000E-03 0.  1.
         23    2    1    0    0    0  0.12075581849E+02 -0.10724322657E+02 -0.23743788028E+02  0.96284181304E+02  0.91902368446E+02 0.  0.
         11    1    3    3    0    0  0.49291398727E+02 -0.78815135602E+01  0.35523077584E+01  0.50043772191E+02  0.51100000000E-03 0. -1.
         22    1    1    0    0    0 -0.12075581849E+02  0.10724322657E+02  0.23743788028E+02  0.28715818696E+02  0.00000000000E+00 0. -1.
</event>
<event>
 5    1  0.1103865E-009  0.9118800E+02  0.7818608E-02  0.1130116E+00
         25   -1    0    0    0    0  0.00000000000E+00  0.00000000000E+00  0.99999998245E-14  0.12500000000E+03  0.12500000000E+03 0.  0.
        -11    1    3    3    0    0 -0.20384028842E+02  0.53026518365E+02 -0.18664824554E+01  0.56840162199E+02  0.51100000000E-03 0.  1.
         23    2    1    0    0    0 -0.23979442122E+02  0.15150054686E+02  0.67348174876E+01  0.95847031574E+02  0.91305848079E+02 0.  0.
         11    1    3    3    0    0 -0.35954132792E+01 -0.37876463679E+02  0.86012999430E+01  0.39006869375E+02  0.51100000000E-03 0. -1.
         22    1    1    0    0    0  0.23979442122E+02 -0.15150054686E+02 -0.67348174876E+01  0.29152968426E+02  0.00000000000E+00 0.  1.
</event>
<event>
 5    1  0.1103865E-009  0.9118800E+02  0.7818608E-02  0.1130116E+00
         25   -1    0    0    0    0  0.00000000000E+00  0.00000000000E+00  0.99999998245E-14  0.12500000000E+03  0.12500000000E+03 0.  0.
        -11    1    3    3    0    0  0.24746895624E+02 -0.59021936593E+00  0.49093902006E+02  0.54981527956E+02  0.51100000000E-03 0.  1.
         23    2    1    0    0    0  0.15184669733E+01 -0.19679771807E+02  0.21847683535E+02  0.95556487367E+02  0.90907215564E+02 0.  0.
         11    1    3    3    0    0 -0.23228428650E+02 -0.19089552442E+02 -0.27246218471E+02  0.40574959411E+02  0.51100000000E-03 0. -1.
         22    1    1    0    0    0 -0.15184669733E+01  0.19679771807E+02 -0.21847683535E+02  0.29443512633E+02  0.00000000000E+00 0.  1.
</event>
<event>
 5    1  0.1103865E-009  0.9118800E+02  0.7818608E-02  0.1130116E+00
         25   -1    0    0    0    0  0.00000000000E+00  0.00000000000E+00  0.99999998245E-14  0.12500000000E+03  0.12500000000E+03 0.  0.
        -11    1    3    3    0    0  0.33578660016E+02  0.30193755919E+02 -0.26553445618E+02  0.52385826131E+02  0.51100000000E-03 0.  1.
         23    2    1    0    0    0  0.22847535564E+02 -0.20951249798E+01  0.78284964939E+01  0.10075778914E+03  0.97797992233E+02 0.  0.
         11    1    3    3    0    0 -0.10731124452E+02 -0.32288880898E+02  0.34381942112E+02  0.48371963009E+02  0.51100000000E-03 0. -1.
         22    1    1    0    0    0 -0.22847535564E+02  0.20951249798E+01 -0.78284964939E+01  0.24242210860E+02  0.00000000000E+00 0.  1.
</event>
<event>
 5    1  0.1103865E-009  0.9118800E+02  0.7818608E-02  0.1130116E+00
         25   -1    0    0    0    0  0.00000000000E+00  0.00000000000E+00  0.99999998245E-14  0.12500000000E+03  0.12500000000E+03 0.  0.
        -11    1    3    3    0    0  0.15318550943E+02  0.30889820832E+02  0.50510776024E+02  0.61156990841E+02  0.51100000000E-03 0. -1.
         23    2    1    0    0    0 -0.38975022871E-01  0.10356497184E+02  0.27519052944E+02  0.95596652777E+02  0.90962427377E+02 0.  0.
         11    1    3    3    0    0 -0.15357525966E+02 -0.20533323647E+02 -0.22991723080E+02  0.34439661935E+02  0.51100000000E-03 0.  1.
         22    1    1    0    0    0  0.38975022871E-01 -0.10356497184E+02 -0.27519052944E+02  0.29403347223E+02  0.00000000000E+00 0. -1.
</event>
<event>
 5    1  0.1103865E-009  0.9118800E+02  0.7818608E-02  0.1130116E+00
         25   -1    0    0    0    0  0.00000000000E+00  0.00000000000E+00  0.99999998245E-14  0.12500000000E+03  0.12500000000E+03 0.  0.
        -11    1    3    3    0    0 -0.37021871338E+02  0.11723882970E+02  0.34170817558E+02  0.51727296103E+02  0.51100000000E-03 0.  1.
         23    2    1    0    0    0 -0.30118283361E+02  0.13491475301E+02 -0.50707908628E+01  0.91610723003E+02  0.85309323938E+02 0.  0.
         11    1    3    3    0    0  0.69035879780E+01  0.17675923313E+01 -0.39241608421E+02  0.39883426900E+02  0.51100000000E-03 0. -1.
         22    1    1    0    0    0  0.30118283361E+02 -0.13491475301E+02  0.50707908628E+01  0.33389276997E+02  0.00000000000E+00 0.  1.
</event>
<event>
 5    1  0.1103865E-009  0.9118800E+02  0.7818608E-02  0.1130116E+00
         25   -1    0    0    0    0  0.00000000000E+00  0.00000000000E+00  0.99999998245E-14  0.12500000000E+03  0.12500000000E+03 0.  0.
        -11    1    3    3    0    0  0.18250740254E+02  0.19191656772E+02  0.31259899564E+02  0.40970605689E+02  0.51100000000E-03 0. -1.
         23    2    1    0    0    0 -0.27622047461E+02 -0.15237490807E+01  0.10873137623E+02  0.95275861006E+02  0.90520523924E+02 0.  0.
         11    1    3    3    0    0 -0.45872787714E+02 -0.20715405853E+02 -0.20386761942E+02  0.54305255317E+02  0.51100000000E-03 0.  1.
         22    1    1    0    0    0  0.27622047461E+02  0.15237490807E+01 -0.10873137623E+02  0.29724138994E+02  0.00000000000E+00 0. -1.
</event>
<event>
 5    1  0.1103865E-009  0.9118800E+02  0.7818608E-02  0.1130116E+00
         25   -1    0    0    0    0  0.00000000000E+00  0.00000000000E+00  0.99999998245E-14  0.12500000000E+03  0.12500000000E+03 0.  0.
        -11    1    3    3    0    0  0.59934860938E+02  0.55405049883E+01 -0.36311726169E+01  0.60299835539E+02  0.51100000000E-03 0.  1.
         23    2    1    0    0    0  0.25461943597E+02 -0.32293281005E+01 -0.11729277924E+02  0.96780944517E+02  0.92575569830E+02 0.  0.
         11    1    3    3    0    0 -0.34472917342E+02 -0.87698330888E+01 -0.80981053075E+01  0.36481108978E+02  0.51100000000E-03 0. -1.
         22    1    1    0    0    0 -0.25461943597E+02  0.32293281005E+01  0.11729277924E+02  0.28219055483E+02  0.00000000000E+00 0.  1.
</event>
<event>
 5    1  0.1103865E-009  0.9118800E+02  0.7818608E-02  0.1130116E+00
         25   -1    0    0    0    0  0.00000000000E+00  0.00000000000E+00  0.99999998245E-14  0.12500000000E+03  0.12500000000E+03 0.  0.
        -11    1    3    3    0    0 -0.53992185949E+02 -0.30533984524E+02 -0.21982108630E+00  0.62028450537E+02  0.51100000000E-03 0. -1.
         23    2    1    0    0    0 -0.28140243596E+02 -0.13031576784E+02 -0.49237545447E+01  0.93600339780E+02  0.88176442120E+02 0.  0.
         11    1    3    3    0    0  0.25851942353E+02  0.17502407740E+02 -0.47039334584E+01  0.31571889243E+02  0.51100000000E-03 0.  1.
         22    1    1    0    0    0  0.28140243596E+02  0.13031576784E+02  0.49237545447E+01  0.31399660220E+02  0.00000000000E+00 0. -1.
</event>
<event>
 5    1  0.1103865E-009  0.9118800E+02  0.7818608E-02  0.1130116E+00
         25   -1    0    0    0    0  0.00000000000E+00  0.00000000000E+00  0.99999998245E-14  0.12500000000E+03  0.12500000000E+03 0.  0.
        -11    1    3    3    0    0 -0.19866254996E+02 -0.15158416883E+02 -0.42917860274E+02  0.49662746810E+02  0.51100000000E-03 0. -1.
         23    2    1    0    0    0 -0.27670582749E+02 -0.12611669815E+02  0.12286429959E+01  0.94566056305E+02  0.89534988000E+02 0.  0.
         11    1    3    3    0    0 -0.78043277536E+01  0.25467470682E+01  0.44146503270E+02  0.44903309495E+02  0.51100000000E-03 0.  1.
         22    1    1    0    0    0  0.27670582749E+02  0.12611669815E+02 -0.12286429959E+01  0.30433943695E+02  0.00000000000E+00 0. -1.
</event>
<event>
 5    1  0.1103865E-009  0.9118800E+02  0.7818608E-02  0.1130116E+00
         25   -1    0    0    0    0  0.00000000000E+00  0.00000000000E+00  0.99999998245E-14  0.12500000000E+03  0.12500000000E+03 0.  0.
        -11    1    3    3    0    0  0.32755605398E+02 -0.33183843939E+02 -0.11217333862E+02  0.47957541251E+02  0.51100000000E-03 0.  1.
         23    2    1    0    0    0 -0.86944897805E+01 -0.24648414791E+02  0.12013667861E+02  0.96234278737E+02  0.91834468934E+02 0.  0.
         11    1    3    3    0    0 -0.41450095178E+02  0.85354291478E+01  0.23231001723E+02  0.48276737487E+02  0.51100000000E-03 0. -1.
         22    1    1    0    0    0  0.86944897805E+01  0.24648414791E+02 -0.12013667861E+02  0.28765721263E+02  0.00000000000E+00 0. -1.
</event>
<event>
 5    1  0.1103865E-009  0.9118800E+02  0.7818608E-02  0.1130116E+00
         25   -1    0    0    0    0  0.00000000000E+00  0.00000000000E+00  0.99999998245E-14  0.12500000000E+03  0.12500000000E+03 0.  0.
        -11    1    3    3    0    0 -0.12927389207E+02  0.68908523431E+01  0.31979658169E+02  0.35175272204E+02  0.51100000000E-03 0. -1.
         23    2    1    0    0    0 -0.22027058593E+02 -0.17596220813E+02 -0.17986706199E+02  0.91558410668E+02  0.85232638508E+02 0.  0.
         11    1    3    3    0    0 -0.90996693855E+01 -0.24487073156E+02 -0.49966364368E+02  0.56383138464E+02  0.51100000000E-03 0.  1.
         22    1    1    0    0    0  0.22027058593E+02  0.17596220813E+02  0.17986706199E+02  0.33441589332E+02  0.00000000000E+00 0.  1.
</event>
<event>
 5    1  0.1103865E-009  0.9118800E+02  0.7818608E-02  0.1130116E+00
         25   -1    0    0    0    0  0.00000000000E+00  0.00000000000E+00  0.99999998245E-14  0.12500000000E+03  0.12500000000E+03 0.  0.
        -11    1    3    3    0    0  0.21428762321E+02  0.52832234406E+01 -0.54303190389E+02  0.58616898513E+02  0.51100000000E-03 0. -1.
         23    2    1    0    0    0  0.15043958754E+02  0.97471125744E+01 -0.83513268442E+01  0.10522447071E+03  0.10334949288E+03 0.  0.
         11    1    3    3    0    0 -0.63848035667E+01  0.44638891338E+01  0.45951863545E+02  0.46607572199E+02  0.51100000000E-03 0.  1.
         22    1    1    0    0    0 -0.15043958754E+02 -0.97471125744E+01  0.83513268442E+01  0.19775529288E+02  0.00000000000E+00 0. -1.
</event>
<event>
 5    1  0.1103865E-009  0.9118800E+02  0.7818608E-02  0.1130116E+00
         25   -1    0    0    0    0  0.00000000000E+00  0.00000000000E+00  0.99999998245E-14  0.12500000000E+03  0.12500000000E+03 0.  0.
        -11    1    3    3    0    0 -0.46257046709E+02 -0.40878088567E+01 -0.15395067194E+02  0.48922721160E+02  0.51100000000E-03 0. -1.
         23    2    1    0    0    0 -0.85380365758E+01 -0.28300267460E+02 -0.39965177204E+01  0.95170897420E+02  0.90375463235E+02 0.  0.
         11    1    3    3    0    0  0.37719010133E+02 -0.24212458603E+02  0.11398549474E+02  0.46248176260E+02  0.51100000000E-03 0.  1.
         22    1    1    0    0    0  0.85380365758E+01  0.28300267460E+02  0.39965177204E+01  0.29829102580E+02  0.00000000000E+00 0. -1.
</event>
<event>
 5    1  0.1103865E-009  0.9118800E+02  0.7818608E-02  0.1130116E+00
         25   -1    0    0    0    0  0.00000000000E+00  0.00000000000E+00  0.99999998245E-14  0.12500000000E+03  0.12500000000E+03 0.  0.
        -11    1    3    3    0    0  0.13388571491E+02  0.41120601539E+02 -0.57518326830E+01  0.43626153818E+02  0.51100000000E-03 0. -1.
         23    2    1    0    0    0 -0.25882482767E+02  0.11681256867E+02  0.95566723239E+01  0.95038613815E+02  0.90192313718E+02 0.  0.
         11    1    3    3    0    0 -0.39271054258E+02 -0.29439344671E+02  0.15308505007E+02  0.51412459998E+02  0.51100000000E-03 0.  1.
         22    1    1    0    0    0  0.25882482767E+02 -0.11681256867E+02 -0.95566723239E+01  0.29961386185E+02  0.00000000000E+00 0. -1.
</event>
<event>
 5    1  0.1103865E-009  0.9118800E+02  0.7818608E-02  0.1130116E+00
         25   -1    0    0    0    0  0.00000000000E+00  0.00000000000E+00  0.99999998245E-14  0.12500000000E+03  0.12500000000E+03 0.  0.
        -11    1    3    3    0    0  0.17191136004E+02  0.18514629108E+02  0.21220709316E+02  0.32994623081E+02  0.51100000000E-03 0.  1.
         23    2    1    0    0    0 -0.27137707928E+02 -0.23967145021E+00 -0.15691210864E+02  0.93651527432E+02  0.88248976526E+02 0.  0.
         11    1    3    3    0    0 -0.44328843932E+02 -0.18754300559E+02 -0.36911920180E+02  0.60656904351E+02  0.51100000000E-03 0. -1.
         22    1    1    0    0    0  0.27137707928E+02  0.23967145021E+00  0.15691210864E+02  0.31348472568E+02  0.00000000000E+00 0. -1.
</event>
<event>
 5    1  0.1103865E-009  0.9118800E+02  0.7818608E-02  0.1130116E+00
         25   -1    0    0    0    0  0.00000000000E+00  0.00000000000E+00  0.99999998245E-14  0.12500000000E+03  0.12500000000E+03 0.  0.
        -11    1    3    3    0    0  0.39622166260E+02  0.61594087075E+01 -0.11521177211E+02  0.41720401477E+02  0.51100000000E-03 0.  1.
         23    2    1    0    0    0 -0.10577894787E+02  0.23539367573E+02 -0.15335151925E+02  0.94980663424E+02  0.90111962891E+02 0.  0.
         11    1    3    3    0    0 -0.50200061047E+02  0.17379958866E+02 -0.38139747138E+01  0.53260261948E+02  0.51100000000E-03 0. -1.
         22    1    1    0    0    0  0.10577894787E+02 -0.23539367573E+02  0.15335151925E+02  0.30019336576E+02  0.00000000000E+00 0.  1.
</event>
<event>
 5    1  0.1103865E-009  0.9118800E+02  0.7818608E-02  0.1130116E+00
         25   -1    0    0    0    0  0.00000000000E+00  0.00000000000E+00  0.99999998245E-14  0.12500000000E+03  0.12500000000E+03 0.  0.
        -11    1    3    3    0    0  0.79959822463E+01  0.16799095848E+02  0.43606621185E+02  0.47409732807E+02  0.51100000000E-03 0. -1.
         23    2    1    0    0    0  0.13761583089E+02 -0.21346652564E+02  0.14343066295E+02  0.95831793069E+02  0.91284983800E+02 0.  0.
         11    1    3    3    0    0  0.57656008427E+01 -0.38145748412E+02 -0.29263554890E+02  0.48422060262E+02  0.51100000000E-03 0.  1.
         22    1    1    0    0    0 -0.13761583089E+02  0.21346652564E+02 -0.14343066295E+02  0.29168206931E+02  0.00000000000E+00 0.  1.
</event>
<event>
 5    1  0.1103865E-009  0.9118800E+02  0.7818608E-02  0.1130116E+00
         25   -1    0    0    0    0  0.00000000000E+00  0.00000000000E+00  0.99999998245E-14  0.12500000000E+03  0.12500000000E+03 0.  0.
        -11    1    3    3    0    0  0.38567555617E+02 -0.38182425568E+02 -0.12476160937E+02  0.55686700033E+02  0.51100000000E-03 0. -1.
         23    2    1    0    0    0  0.92888354347E+01 -0.21738529421E+02  0.13168813143E+02  0.97939627410E+02  0.94127078210E+02 0.  0.
         11    1    3    3    0    0 -0.29278720183E+02  0.16443896147E+02  0.25644974081E+02  0.42252927377E+02  0.51100000000E-03 0.  1.
         22    1    1    0    0    0 -0.92888354347E+01  0.21738529421E+02 -0.13168813143E+02  0.27060372590E+02  0.00000000000E+00 0. -1.
</event>
<event>
 5    1  0.1103865E-009  0.9118800E+02  0.7818608E-02  0.1130116E+00
         25   -1    0    0    0    0  0.00000000000E+00  0.00000000000E+00  0.99999998245E-14  0.12500000000E+03  0.12500000000E+03 0.  0.
        -11    1    3    3    0    0  0.21018937801E+02  0.44647996761E+02  0.35399491317E+02  0.60731897276E+02  0.51100000000E-03 0. -1.
         23    2    1    0    0    0  0.17425056285E+02  0.14283666799E+02  0.19537647454E+02  0.95177602514E+02  0.90384736701E+02 0.  0.
         11    1    3    3    0    0 -0.35938815156E+01 -0.30364329962E+02 -0.15861843863E+02  0.34445705238E+02  0.51100000000E-03 0.  1.
         22    1    1    0    0    0 -0.17425056285E+02 -0.14283666799E+02 -0.19537647454E+02  0.29822397486E+02  0.00000000000E+00 0. -1.
</event>
<event>
 5    1  0.1103865E-009  0.9118800E+02  0.7818608E-02  0.1130116E+00
         25   -1    0    0    0    0  0.00000000000E+00  0.00000000000E+00  0.99999998245E-14  0.12500000000E+03  0.12500000000E+03 0.  0.
        -11    1    3    3    0    0 -0.55209396303E+02 -0.14839091015E+02  0.24735577486E+02  0.62290648224E+02  0.51100000000E-03 0. -1.
         23    2    1    0    0    0 -0.28115530332E+02 -0.45006386492E+01  0.99797211202E+01  0.94828264423E+02  0.89900312045E+02 0.  0.
         11    1    3    3    0    0  0.27093865972E+02  0.10338452365E+02 -0.14755856365E+02  0.32537616199E+02  0.51100000000E-03 0.  1.
         22    1    1    0    0    0  0.28115530332E+02  0.45006386492E+01 -0.99797211202E+01  0.30171735577E+02  0.00000000000E+00 0. -1.
</event>
<event>
 5    1  0.1103865E-009  0.9118800E+02  0.7818608E-02  0.1130116E+00
         25   -1    0    0    0    0  0.00000000000E+00  0.00000000000E+00  0.99999998245E-14  0.12500000000E+03  0.12500000000E+03 0.  0.
        -11    1    3    3    0    0  0.90507381313E+01  0.24446220089E+02 -0.31631125970E+02  0.40988555326E+02  0.51100000000E-03 0. -1.
         23    2    1    0    0    0  0.23701834823E+02  0.10627241948E+02  0.17224602110E+02  0.93832674750E+02  0.88505190173E+02 0.  0.
         11    1    3    3    0    0  0.14651096691E+02 -0.13818978141E+02  0.48855728080E+02  0.52844119424E+02  0.51100000000E-03 0.  1.
         22    1    1    0    0    0 -0.23701834823E+02 -0.10627241948E+02 -0.17224602110E+02  0.31167325250E+02  0.00000000000E+00 0.  1.
</event>
<event>
 5    1  0.1103865E-009  0.9118800E+02  0.7818608E-02  0.1130116E+00
         25   -1    0    0    0    0  0.00000000000E+00  0.00000000000E+00  0.99999998245E-14  0.12500000000E+03  0.12500000000E+03 0.  0.
        -11    1    3    3    0    0 -0.37078103990E+02  0.39486555720E+01  0.59751937040E+01  0.37763482577E+02  0.51100000000E-03 0.  1.
         23    2    1    0    0    0  0.91505723689E+01 -0.22373689085E+02 -0.16728920692E+02  0.95603202122E+02  0.90971427000E+02 0.  0.
         11    1    3    3    0    0  0.46228676359E+02 -0.26322344657E+02 -0.22704114396E+02  0.57839719544E+02  0.51100000000E-03 0. -1.
         22    1    1    0    0    0 -0.91505723689E+01  0.22373689085E+02  0.16728920692E+02  0.29396797878E+02  0.00000000000E+00 0. -1.
</event>
<event>
 5    1  0.1103865E-009  0.9118800E+02  0.7818608E-02  0.1130116E+00
         25   -1    0    0    0    0  0.00000000000E+00  0.00000000000E+00  0.99999998245E-14  0.12500000000E+03  0.12500000000E+03 0.  0.
        -11    1    3    3    0    0 -0.42806954485E+02  0.43662068343E+02 -0.11630417967E+02  0.62242093366E+02  0.51100000000E-03 0.  1.
         23    2    1    0    0    0 -0.21489383164E+02  0.24014502172E+02 -0.99149599688E+01  0.91283589537E+02  0.84828635403E+02 0.  0.
         11    1    3    3    0    0  0.21317571321E+02 -0.19647566171E+02  0.17154579983E+01  0.29041496171E+02  0.51100000000E-03 0. -1.
         22    1    1    0    0    0  0.21489383164E+02 -0.24014502172E+02  0.99149599688E+01  0.33716410463E+02  0.00000000000E+00 0.  1.
</event>
<event>
 5    1  0.1103865E-009  0.9118800E+02  0.7818608E-02  0.1130116E+00
         25   -1    0    0    0    0  0.00000000000E+00  0.00000000000E+00  0.99999998245E-14  0.12500000000E+03  0.12500000000E+03 0.  0.
        -11    1    3    3    0    0 -0.28214265274E+02 -0.38924385603E+02 -0.22954771270E+02  0.53273577727E+02  0.51100000000E-03 0.  1.
         23    2    1    0    0    0 -0.28638620310E+02  0.28563732795E+00 -0.11632107522E+02  0.94087897396E+02  0.88864921927E+02 0.  0.
         11    1    3    3    0    0 -0.42435503685E+00  0.39210022931E+02  0.11322663748E+02  0.40814319669E+02  0.51100000000E-03 0. -1.
         22    1    1    0    0    0  0.28638620310E+02 -0.28563732795E+00  0.11632107522E+02  0.30912102604E+02  0.00000000000E+00 0.  1.
</event>
<event>
 5    1  0.1103865E-009  0.9118800E+02  0.7818608E-02  0.1130116E+00
         25   -1    0    0    0    0  0.00000000000E+00  0.00000000000E+00  0.99999998245E-14  0.12500000000E+03  0.12500000000E+03 0.  0.
        -11    1    3    3    0    0 -0.32105034477E+02 -0.21904296805E+02  0.59883514080E+01  0.39324188614E+02  0.51100000000E-03 0.  1.
         23    2    1    0    0    0  0.53540065454E+01  0.22453628800E+02  0.14106660447E+02  0.97947667359E+02  0.94137754593E+02 0.  0.
         11    1    3    3    0    0  0.37459041022E+02  0.44357925605E+02  0.81183090386E+01  0.58623478745E+02  0.51100000000E-03 0. -1.
         22    1    1    0    0    0 -0.53540065454E+01 -0.22453628800E+02 -0.14106660447E+02  0.27052332641E+02  0.00000000000E+00 0. -1.
</event>
<event>
 5    1  0.1103865E-009  0.9118800E+02  0.7818608E-02  0.1130116E+00
         25   -1    0    0    0    0  0.00000000000E+00  0.00000000000E+00  0.99999998245E-14  0.12500000000E+03  0.12500000000E+03 0.  0.
        -11    1    3    3    0    0  0.42685547352E+02 -0.37826738610E+02  0.25314981207E+02  0.62400051125E+02  0.51100000000E-03 0. -1.
         23    2    1    0    0    0  0.20267889274E+02 -0.16359372857E+02  0.13943209241E+02  0.95456312014E+02  0.90769367098E+02 0.  0.
         11    1    3    3    0    0 -0.22417658078E+02  0.21467365753E+02 -0.11371771966E+02  0.33056260889E+02  0.51100000000E-03 0.  1.
         22    1    1    0    0    0 -0.20267889274E+02  0.16359372857E+02 -0.13943209241E+02  0.29543687986E+02  0.00000000000E+00 0. -1.
</event>
<event>
 5    1  0.1103865E-009  0.9118800E+02  0.7818608E-02  0.1130116E+00
         25   -1    0    0    0    0  0.00000000000E+00  0.00000000000E+00  0.99999998245E-14  0.12500000000E+03  0.12500000000E+03 0.  0.
        -11    1    3    3    0    0 -0.47553284977E+02  0.20070871608E+02 -0.16660365001E+02  0.54237648930E+02  0.51100000000E-03 0.  1.
         23    2    1    0    0    0 -0.11940131796E+02  0.24830153040E+02  0.61149044306E+01  0.96777751623E+02  0.92571258529E+02 0.  0.
         11    1    3    3    0    0  0.35613153181E+02  0.47592814314E+01  0.22775269431E+02  0.42540102693E+02  0.51100000000E-03 0. -1.
         22    1    1    0    0    0  0.11940131796E+02 -0.24830153040E+02 -0.61149044306E+01  0.28222248377E+02  0.00000000000E+00 0.  1.
</event>
<event>
 5    1  0.1103865E-009  0.9118800E+02  0.7818608E-02  0.1130116E+00
         25   -1    0    0    0    0  0.00000000000E+00  0.00000000000E+00  0.99999998245E-14  0.12500000000E+03  0.12500000000E+03 0.  0.
        -11    1    3    3    0    0  0.20915476783E+02 -0.29323580601E+02  0.80834497237E+01  0.36914383484E+02  0.51100000000E-03 0. -1.
         23    2    1    0    0    0  0.81712619016E+01  0.26673476798E+02  0.12328938577E+02  0.94500055541E+02  0.89442796721E+02 0.  0.
         11    1    3    3    0    0 -0.12744214882E+02  0.55997057399E+02  0.42454888529E+01  0.57585672057E+02  0.51100000000E-03 0.  1.
         22    1    1    0    0    0 -0.81712619016E+01 -0.26673476798E+02 -0.12328938577E+02  0.30499944459E+02  0.00000000000E+00 0.  1.
</event>
<event>
 5    1  0.1103865E-009  0.9118800E+02  0.7818608E-02  0.1130116E+00
         25   -1    0    0    0    0  0.00000000000E+00  0.00000000000E+00  0.99999998245E-14  0.12500000000E+03  0.12500000000E+03 0.  0.
        -11    1    3    3    0    0  0.36624446102E+01 -0.20916106887E+02  0.33661186859E+02  0.39799152363E+02  0.51100000000E-03 0.  1.
         23    2    1    0    0    0 -0.22880611382E+02 -0.88363461516E+01 -0.14796207654E+02  0.96355085068E+02  0.91998756878E+02 0.  0.
         11    1    3    3    0    0 -0.26543055992E+02  0.12079760736E+02 -0.48457394513E+02  0.56555932705E+02  0.51100000000E-03 0. -1.
         22    1    1    0    0    0  0.22880611382E+02  0.88363461516E+01  0.14796207654E+02  0.28644914932E+02  0.00000000000E+00 0. -1.
</event>
<event>
 5    1  0.1103865E-009  0.9118800E+02  0.7818608E-02  0.1130116E+00
         25   -1    0    0    0    0  0.00000000000E+00  0.00000000000E+00  0.99999998245E-14  0.12500000000E+03  0.12500000000E+03 0.  0.
        -11    1    3    3    0    0  0.14075300676E+02 -0.26739971044E+02 -0.23869452182E+02  0.38508322325E+02  0.51100000000E-03 0.  1.
         23    2    1    0    0    0 -0.10182999327E+02 -0.20157060533E+02  0.23670778565E+02  0.92284463592E+02  0.86290879576E+02 0.  0.
         11    1    3    3    0    0 -0.24258300003E+02  0.65829105114E+01  0.47540230747E+02  0.53776141267E+02  0.51100000000E-03 0. -1.
         22    1    1    0    0    0  0.10182999327E+02  0.20157060533E+02 -0.23670778565E+02  0.32715536408E+02  0.00000000000E+00 0. -1.
</event>
<event>
 5    1  0.1103865E-009  0.9118800E+02  0.7818608E-02  0.1130116E+00
         25   -1    0    0    0    0  0.00000000000E+00  0.00000000000E+00  0.99999998245E-14  0.12500000000E+03  0.12500000000E+03 0.  0.
        -11    1    3    3    0    0  0.12277041147E+01 -0.23688234984E+02  0.35293410136E+02  0.42523693788E+02  0.51100000000E-03 0. -1.
         23    2    1    0    0    0  0.82616992553E+01 -0.23265482880E+02 -0.16829470909E+02  0.95120752029E+02  0.90306079570E+02 0.  0.
         11    1    3    3    0    0  0.70339951406E+01  0.42275210350E+00 -0.52122881045E+02  0.52597058242E+02  0.51100000000E-03 0.  1.
         22    1    1    0    0    0 -0.82616992553E+01  0.23265482880E+02  0.16829470909E+02  0.29879247971E+02  0.00000000000E+00 0.  1.
</event>
<event>
 5    1  0.1103865E-009  0.9118800E+02  0.7818608E-02  0.1130116E+00
         25   -1    0    0    0    0  0.00000000000E+00  0.00000000000E+00  0.99999998245E-14  0.12500000000E+03  0.12500000000E+03 0.  0.
        -11    1    3    3    0    0 -0.43870662405E+02  0.15026741929E+02  0.41220659377E+02  0.62044989746E+02  0.51100000000E-03 0.  1.
         23    2    1    0    0    0 -0.17027860724E+02  0.79159799504E+01  0.23218717628E+02  0.95138325102E+02  0.90330400616E+02 0.  0.
         11    1    3    3    0    0  0.26842801681E+02 -0.71107619788E+01 -0.18001941748E+02  0.33093335356E+02  0.51100000000E-03 0. -1.
         22    1    1    0    0    0  0.17027860724E+02 -0.79159799504E+01 -0.23218717628E+02  0.29861674898E+02  0.00000000000E+00 0.  1.
</event>
<event>
 5    1  0.1103865E-009  0.9118800E+02  0.7818608E-02  0.1130116E+00
         25   -1    0    0    0    0  0.00000000000E+00  0.00000000000E+00  0.99999998245E-14  0.12500000000E+03  0.12500000000E+03 0.  0.
        -11    1    3    3    0    0 -0.36207516817E+02 -0.10031611063E+02  0.34741850575E+01  0.37731783109E+02  0.51100000000E-03 0. -1.
         23    2    1    0    0    0  0.99312165263E+01  0.18937696560E+02  0.21067604740E+02  0.94981515991E+02  0.90113145533E+02 0.  0.
         11    1    3    3    0    0  0.46138733343E+02  0.28969307623E+02  0.17593419682E+02  0.57249732882E+02  0.51100000000E-03 0.  1.
         22    1    1    0    0    0 -0.99312165263E+01 -0.18937696560E+02 -0.21067604740E+02  0.30018484009E+02  0.00000000000E+00 0.  1.
</event>
<event>
 5    1  0.1103865E-009  0.9118800E+02  0.7818608E-02  0.1130116E+00
         25   -1    0    0    0    0  0.00000000000E+00  0.00000000000E+00  0.99999998245E-14  0.12500000000E+03  0.12500000000E+03 0.  0.
        -11    1    3    3    0    0  0.44430100251E+02  0.40995485668E+02 -0.12257991634E+02  0.61684049905E+02  0.51100000000E-03 0. -1.
         23    2    1    0    0    0  0.20402654955E+02  0.20948353745E+02  0.11671289460E+01  0.95734593052E+02  0.91151786944E+02 0.  0.
         11    1    3    3    0    0 -0.24027445296E+02 -0.20047131923E+02  0.13425120580E+02  0.34050543147E+02  0.51100000000E-03 0.  1.
         22    1    1    0    0    0 -0.20402654955E+02 -0.20948353745E+02 -0.11671289460E+01  0.29265406948E+02  0.00000000000E+00 0. -1.
</event>
<event>
 5    1  0.1103865E-009  0.9118800E+02  0.7818608E-02  0.1130116E+00
         25   -1    0    0    0    0  0.00000000000E+00  0.00000000000E+00  0.99999998245E-14  0.12500000000E+03  0.12500000000E+03 0.  0.
        -11    1    3    3    0    0 -0.59409444730E+01 -0.31020059086E+02  0.14922238806E+02  0.34931534438E+02  0.51100000000E-03 0.  1.
         23    2    1    0    0    0  0.22766446969E+02  0.15164292886E+02  0.22167165866E+02  0.89791334463E+02  0.82600445615E+02 0.  0.
         11    1    3    3    0    0  0.28707391442E+02  0.46184351972E+02  0.72449270600E+01  0.54859800026E+02  0.51100000000E-03 0. -1.
         22    1    1    0    0    0 -0.22766446969E+02 -0.15164292886E+02 -0.22167165866E+02  0.35208665537E+02  0.00000000000E+00 0. -1.
</event>
<event>
 5    1  0.1103865E-009  0.9118800E+02  0.7818608E-02  0.1130116E+00
         25   -1    0    0    0    0  0.00000000000E+00  0.00000000000E+00  0.99999998245E-14  0.12500000000E+03  0.12500000000E+03 0.  0.
        -11    1    3    3    0    0  0.12273849700E+02 -0.39413904436E+02 -0.15404791262E+02  0.44061443955E+02  0.51100000000E-03 0. -1.
         23    2    1    0    0    0 -0.64856977037E+01 -0.12824850753E+02  0.25135382629E+02  0.96046096439E+02  0.91577967381E+02 0.  0.
         11    1    3    3    0    0 -0.18759547404E+02  0.26589053683E+02  0.40540173890E+02  0.51984652484E+02  0.51100000000E-03 0.  1.
         22    1    1    0    0    0  0.64856977037E+01  0.12824850753E+02 -0.25135382629E+02  0.28953903561E+02  0.00000000000E+00 0.  1.
</event>
<event>
 5    1  0.1103865E-009  0.9118800E+02  0.7818608E-02  0.1130116E+00
         25   -1    0    0    0    0  0.00000000000E+00  0.00000000000E+00  0.99999998245E-14  0.12500000000E+03  0.12500000000E+03 0.  0.
        -11    1    3    3    0    0  0.26265062805E+02  0.21799670683E+02  0.29337495385E+02  0.45008530322E+02  0.51100000000E-03 0.  1.
         23    2    1    0    0    0 -0.12603202249E+02 -0.87422899693E+01  0.26324827316E+02  0.94532560428E+02  0.89488212112E+02 0.  0.
         11    1    3    3    0    0 -0.38868265054E+02 -0.30541960652E+02 -0.30126680691E+01  0.49524030106E+02  0.51100000000E-03 0. -1.
         22    1    1    0    0    0  0.12603202249E+02  0.87422899693E+01 -0.26324827316E+02  0.30467439572E+02  0.00000000000E+00 0.  1.
</event>
<event>
 5    1  0.1103865E-009  0.9118800E+02  0.7818608E-02  0.1130116E+00
         25   -1    0    0    0    0  0.00000000000E+00  0.00000000000E+00  0.99999998245E-14  0.12500000000E+03  0.12500000000E+03 0.  0.
        -11    1    3    3    0    0 -0.29650128025E+02 -0.30672868123E+02 -0.99257496340E+01  0.43800404528E+02  0.51100000000E-03 0. -1.
         23    2    1    0    0    0  0.22102777244E+02 -0.13459970319E+02 -0.72598635392E+00  0.99111187376E+02  0.95670250569E+02 0.  0.
         11    1    3    3    0    0  0.51752905269E+02  0.17212897804E+02  0.91997632801E+01  0.55310782848E+02  0.51100000000E-03 0.  1.
         22    1    1    0    0    0 -0.22102777244E+02  0.13459970319E+02  0.72598635392E+00  0.25888812624E+02  0.00000000000E+00 0.  1.
</event>
<event>
 5    1  0.1103865E-009  0.9118800E+02  0.7818608E-02  0.1130116E+00
         25   -1    0    0    0    0  0.00000000000E+00  0.00000000000E+00  0.99999998245E-14  0.12500000000E+03  0.12500000000E+03 0.  0.
        -11    1    3    3    0    0  0.51382176432E+02  0.13492553378E+01  0.34169729270E+02  0.61721300566E+02  0.51100000000E-03 0.  1.
         23    2    1    0    0    0  0.21109396053E+02 -0.32300630304E+01  0.20995459952E+02  0.95052558582E+02  0.90211638082E+02 0.  0.
         11    1    3    3    0    0 -0.30272780380E+02 -0.45793183681E+01 -0.13174269318E+02  0.33331258016E+02  0.51100000000E-03 0. -1.
         22    1    1    0    0    0 -0.21109396053E+02  0.32300630304E+01 -0.20995459952E+02  0.29947441418E+02  0.00000000000E+00 0.  1.
</event>
<event>
 5    1  0.1103865E-009  0.9118800E+02  0.7818608E-02  0.1130116E+00
         25   -1    0    0    0    0  0.00000000000E+00  0.00000000000E+00  0.99999998245E-14  0.12500000000E+03  0.12500000000E+03 0.  0.
        -11    1    3    3    0    0  0.43992925005E+02 -0.21521952348E+01  0.31998143219E+01  0.44161614630E+02  0.51100000000E-03 0. -1.
         23    2    1    0    0    0  0.39104365513E+01  0.27591944118E+02 -0.93096110603E+01  0.95618445373E+02  0.90992369698E+02 0.  0.
         11    1    3    3    0    0 -0.40082488453E+02  0.29744139352E+02 -0.12509425382E+02  0.51456830743E+02  0.51100000000E-03 0.  1.
         22    1    1    0    0    0 -0.39104365513E+01 -0.27591944118E+02  0.93096110603E+01  0.29381554627E+02  0.00000000000E+00 0.  1.
</event>
<event>
 5    1  0.1103865E-009  0.9118800E+02  0.7818608E-02  0.1130116E+00
         25   -1    0    0    0    0  0.00000000000E+00  0.00000000000E+00  0.99999998245E-14  0.12500000000E+03  0.12500000000E+03 0.  0.
        -11    1    3    3    0    0 -0.24880556148E+02 -0.11695176008E+02 -0.21234155725E+02  0.34737711290E+02  0.51100000000E-03 0. -1.
         23    2    1    0    0    0 -0.64569235148E+00  0.12023758297E+02  0.28000418955E+02  0.94520315884E+02  0.89471106906E+02 0.  0.
         11    1    3    3    0    0  0.24234863796E+02  0.23718934305E+02  0.49234574680E+02  0.59782604593E+02  0.51100000000E-03 0.  1.
         22    1    1    0    0    0  0.64569235148E+00 -0.12023758297E+02 -0.28000418955E+02  0.30479684116E+02  0.00000000000E+00 0.  1.
</event>
<event>
 5    1  0.1103865E-009  0.9118800E+02  0.7818608E-02  0.1130116E+00
         25   -1    0    0    0    0  0.00000000000E+00  0.00000000000E+00  0.99999998245E-14  0.12500000000E+03  0.12500000000E+03 0.  0.
        -11    1    3    3    0    0 -0.52443576420E+02  0.33343717413E+01  0.15628436997E+02  0.54824217148E+02  0.51100000000E-03 0.  1.
         23    2    1    0    0    0 -0.20979161981E+02  0.18291300673E+02 -0.69152339294E+01  0.96320436230E+02  0.91951666964E+02 0.  0.
         11    1    3    3    0    0  0.31464414438E+02  0.14956928932E+02 -0.22543670927E+02  0.41496219082E+02  0.51100000000E-03 0. -1.
         22    1    1    0    0    0  0.20979161981E+02 -0.18291300673E+02  0.69152339294E+01  0.28679563770E+02  0.00000000000E+00 0.  1.
</event>
<event>
 5    1  0.1103865E-009  0.9118800E+02  0.7818608E-02  0.1130116E+00
         25   -1    0    0    0    0  0.00000000000E+00  0.00000000000E+00  0.99999998245E-14  0.12500000000E+03  0.12500000000E+03 0.  0.
        -11    1    3    3    0    0 -0.12922534654E+02  0.58490870964E+01 -0.45901521786E+02  0.48043245355E+02  0.51100000000E-03 0. -1.
         23    2    1    0    0    0  0.10737181158E+02  0.25286851443E+02 -0.87908060634E+01  0.96155759910E+02  0.91727531186E+02 0.  0.
         11    1    3    3    0    0  0.23659715812E+02  0.19437764347E+02  0.37110715722E+02  0.48112514555E+02  0.51100000000E-03 0.  1.
         22    1    1    0    0    0 -0.10737181158E+02 -0.25286851443E+02  0.87908060634E+01  0.28844240090E+02  0.00000000000E+00 0. -1.
</event>
<event>
 5    1  0.1103865E-009  0.9118800E+02  0.7818608E-02  0.1130116E+00
         25   -1    0    0    0    0  0.00000000000E+00  0.00000000000E+00  0.99999998245E-14  0.12500000000E+03  0.12500000000E+03 0.  0.
        -11    1    3    3    0    0 -0.96642714509E+01 -0.11248529047E+02 -0.47974593267E+02  0.50214431668E+02  0.51100000000E-03 0.  1.
         23    2    1    0    0    0 -0.42443505176E+01  0.22648232300E+02 -0.19175766082E+02  0.95022225858E+02  0.90169598339E+02 0.  0.
         11    1    3    3    0    0  0.54199209333E+01  0.33896761347E+02  0.28798827184E+02  0.44807794190E+02  0.51100000000E-03 0. -1.
         22    1    1    0    0    0  0.42443505176E+01 -0.22648232300E+02  0.19175766082E+02  0.29977774142E+02  0.00000000000E+00 0. -1.
</event>
<event>
 5    1  0.1103865E-009  0.9118800E+02  0.7818608E-02  0.1130116E+00
         25   -1    0    0    0    0  0.00000000000E+00  0.00000000000E+00  0.99999998245E-14  0.12500000000E+03  0.12500000000E+03 0.  0.
        -11    1    3    3    0    0  0.28308091541E+02  0.28236418613E+02 -0.40203748367E+02  0.56700835671E+02  0.51100000000E-03 0. -1.
         23    2    1    0    0    0  0.18857472531E+02  0.24692864841E+02 -0.47428687229E+01  0.93570131275E+02  0.88133607772E+02 0.  0.
         11    1    3    3    0    0 -0.94506190099E+01 -0.35435537717E+01  0.35460879644E+02  0.36869295605E+02  0.51100000000E-03 0.  1.
         22    1    1    0    0    0 -0.18857472531E+02 -0.24692864841E+02  0.47428687229E+01  0.31429868725E+02  0.00000000000E+00 0. -1.
</event>
<event>
 5    1  0.1103865E-009  0.9118800E+02  0.7818608E-02  0.1130116E+00
         25   -1    0    0    0    0  0.00000000000E+00  0.00000000000E+00  0.99999998245E-14  0.12500000000E+03  0.12500000000E+03 0.  0.
        -11    1    3    3    0    0 -0.75113088491E+01 -0.87359031844E+01  0.41642659518E+02  0.43207023238E+02  0.51100000000E-03 0. -1.
         23    2    1    0    0    0  0.17446923716E+02  0.22082266463E+02  0.66803597624E+01  0.96075117186E+02  0.91617570893E+02 0.  0.
         11    1    3    3    0    0  0.24958232565E+02  0.30818169647E+02 -0.34962299756E+02  0.52868093948E+02  0.51100000000E-03 0.  1.
         22    1    1    0    0    0 -0.17446923716E+02 -0.22082266463E+02 -0.66803597624E+01  0.28924882814E+02  0.00000000000E+00 0.  1.
</event>
<event>
 5    1  0.1103865E-009  0.9118800E+02  0.7818608E-02  0.1130116E+00
         25   -1    0    0    0    0  0.00000000000E+00  0.00000000000E+00  0.99999998245E-14  0.12500000000E+03  0.12500000000E+03 0.  0.
        -11    1    3    3    0    0 -0.15459999356E+02 -0.61333045112E+01 -0.53766487443E+02  0.56280229002E+02  0.51100000000E-03 0. -1.
         23    2    1    0    0    0 -0.44682730364E+01  0.14287629665E+02 -0.37542073075E+02  0.84583306962E+02  0.74302266052E+02 0.  0.
         11    1    3    3    0    0  0.10991726320E+02  0.20420934177E+02  0.16224414368E+02  0.28303077960E+02  0.51100000000E-03 0.  1.
         22    1    1    0    0    0  0.44682730364E+01 -0.14287629665E+02  0.37542073075E+02  0.40416693038E+02  0.00000000000E+00 0. -1.
</event>
<event>
 5    1  0.1103865E-009  0.9118800E+02  0.7818608E-02  0.1130116E+00
         25   -1    0    0    0    0  0.00000000000E+00  0.00000000000E+00  0.99999998245E-14  0.12500000000E+03  0.12500000000E+03 0.  0.
        -11    1    3    3    0    0 -0.27073720629E+02  0.30959918861E+02  0.42143772343E+02  0.58886335190E+02  0.51100000000E-03 0. -1.
         23    2    1    0    0    0  0.82148889553E+00  0.19258668291E+02  0.24211912823E+02  0.94051851899E+02  0.88814204803E+02 0.  0.
         11    1    3    3    0    0  0.27895209524E+02 -0.11701250571E+02 -0.17931859520E+02  0.35165516709E+02  0.51100000000E-03 0.  1.
         22    1    1    0    0    0 -0.82148889553E+00 -0.19258668291E+02 -0.24211912823E+02  0.30948148101E+02  0.00000000000E+00 0. -1.
</event>
<event>
 5    1  0.1103865E-009  0.9118800E+02  0.7818608E-02  0.1130116E+00
         25   -1    0    0    0    0  0.00000000000E+00  0.00000000000E+00  0.99999998245E-14  0.12500000000E+03  0.12500000000E+03 0.  0.
        -11    1    3    3    0    0  0.38587319577E+02 -0.20107486910E+02 -0.33059976252E+02  0.54646631113E+02  0.51100000000E-03 0. -1.
         23    2    1    0    0    0  0.14630955384E+02  0.11224504502E+02 -0.23315132100E+02  0.95273753322E+02  0.90517613371E+02 0.  0.
         11    1    3    3    0    0 -0.23956364193E+02  0.31331991412E+02  0.97448441523E+01  0.40627122209E+02  0.51100000000E-03 0.  1.
         22    1    1    0    0    0 -0.14630955384E+02 -0.11224504502E+02  0.23315132100E+02  0.29726246678E+02  0.00000000000E+00 0. -1.
</event>
<event>
 5    1  0.1103865E-009  0.9118800E+02  0.7818608E-02  0.1130116E+00
         25   -1    0    0    0    0  0.00000000000E+00  0.00000000000E+00  0.99999998245E-14  0.12500000000E+03  0.12500000000E+03 0.  0.
        -11    1    3    3    0    0  0.15318566711E+01 -0.32824840613E+02  0.30947690731E+01  0.33005974338E+02  0.51100000000E-03 0.  1.
         23    2    1    0    0    0 -0.31488019922E+01  0.24356677662E+02 -0.18441430934E+02  0.94287639694E+02  0.89145442527E+02 0.  0.
         11    1    3    3    0    0 -0.46806586633E+01  0.57181518275E+02 -0.21536200007E+02  0.61281665355E+02  0.51100000000E-03 0. -1.
         22    1    1    0    0    0  0.31488019922E+01 -0.24356677662E+02  0.18441430934E+02  0.30712360306E+02  0.00000000000E+00 0. -1.
</event>
<event>
 5    1  0.1103865E-009  0.9118800E+02  0.7818608E-02  0.1130116E+00
         25   -1    0    0    0    0  0.00000000000E+00  0.00000000000E+00  0.99999998245E-14  0.12500000000E+03  0.12500000000E+03 0.  0.
        -11    1    3    3    0    0 -0.18687082117E+02 -0.40000796722E+02 -0.32194669789E+02  0.54642177295E+02  0.51100000000E-03 0. -1.
         23    2    1    0    0    0  0.11316263932E+02 -0.27837834649E+02 -0.13193754535E+02  0.92181133078E+02  0.86141066104E+02 0.  0.
         11    1    3    3    0    0  0.30003346050E+02  0.12162962073E+02  0.19000915254E+02  0.37538955784E+02  0.51100000000E-03 0.  1.
         22    1    1    0    0    0 -0.11316263932E+02  0.27837834649E+02  0.13193754535E+02  0.32818866922E+02  0.00000000000E+00 0. -1.
</event>
<event>
 5    1  0.1103865E-009  0.9118800E+02  0.7818608E-02  0.1130116E+00
         25   -1    0    0    0    0  0.00000000000E+00  0.00000000000E+00  0.99999998245E-14  0.12500000000E+03  0.12500000000E+03 0.  0.
        -11    1    3    3    0    0  0.19231517417E+02  0.57622014773E+02 -0.11135653337E+02  0.61758810094E+02  0.51100000000E-03 0.  1.
         23    2    1    0    0    0  0.39588406596E+01  0.27136625681E+02 -0.17078157876E+00  0.97575594098E+02  0.93642397046E+02 0.  0.
         11    1    3    3    0    0 -0.15272676758E+02 -0.30485389092E+02  0.10964871759E+02  0.35816784004E+02  0.51100000000E-03 0. -1.
         22    1    1    0    0    0 -0.39588406596E+01 -0.27136625681E+02  0.17078157876E+00  0.27424405902E+02  0.00000000000E+00 0.  1.
</event>
<event>
 5    1  0.1103865E-009  0.9118800E+02  0.7818608E-02  0.1130116E+00
         25   -1    0    0    0    0  0.00000000000E+00  0.00000000000E+00  0.99999998245E-14  0.12500000000E+03  0.12500000000E+03 0.  0.
        -11    1    3    3    0    0  0.39056426772E+02 -0.45358100968E+02 -0.10196642151E+02  0.60718475830E+02  0.51100000000E-03 0.  1.
         23    2    1    0    0    0  0.16915004880E+02 -0.23110849836E+02  0.55390313496E+01  0.95829644525E+02  0.91282041669E+02 0.  0.
         11    1    3    3    0    0 -0.22141421892E+02  0.22247251132E+02  0.15735673501E+02  0.35111168695E+02  0.51100000000E-03 0. -1.
         22    1    1    0    0    0 -0.16915004880E+02  0.23110849836E+02 -0.55390313496E+01  0.29170355475E+02  0.00000000000E+00 0.  1.
</event>
<event>
 5    1  0.1103865E-009  0.9118800E+02  0.7818608E-02  0.1130116E+00
         25   -1    0    0    0    0  0.00000000000E+00  0.00000000000E+00  0.99999998245E-14  0.12500000000E+03  0.12500000000E+03 0.  0.
        -11    1    3    3    0    0  0.70425807397E+01 -0.67735365382E+01  0.12527460632E+02  0.15887605573E+02  0.51100000000E-03 0. -1.
         23    2    1    0    0    0 -0.36302801011E+02 -0.29164670904E+02 -0.19784381951E+02  0.74404613260E+02  0.54554131970E+02 0.  0.
         11    1    3    3    0    0 -0.43345381751E+02 -0.22391134365E+02 -0.32311842582E+02  0.58517007687E+02  0.51100000000E-03 0.  1.
         22    1    1    0    0    0  0.36302801011E+02  0.29164670904E+02  0.19784381951E+02  0.50595386740E+02  0.00000000000E+00 0.  1.
</event>
<event>
 5    1  0.1103865E-009  0.9118800E+02  0.7818608E-02  0.1130116E+00
         25   -1    0    0    0    0  0.00000000000E+00  0.00000000000E+00  0.99999998245E-14  0.12500000000E+03  0.12500000000E+03 0.  0.
        -11    1    3    3    0    0  0.53764244822E+02  0.12223361374E+02 -0.31443053260E+01  0.55225820417E+02  0.51100000000E-03 0.  1.
         23    2    1    0    0    0  0.15564114885E+02  0.24958068013E+02 -0.22131251000E+01  0.95503478955E+02  0.90834298251E+02 0.  0.
         11    1    3    3    0    0 -0.38200129937E+02  0.12734706639E+02  0.93118022600E+00  0.40277658537E+02  0.51100000000E-03 0. -1.
         22    1    1    0    0    0 -0.15564114885E+02 -0.24958068013E+02  0.22131251000E+01  0.29496521045E+02  0.00000000000E+00 0.  1.
</event>
<event>
 5    1  0.1103865E-009  0.9118800E+02  0.7818608E-02  0.1130116E+00
         25   -1    0    0    0    0  0.00000000000E+00  0.00000000000E+00  0.99999998245E-14  0.12500000000E+03  0.12500000000E+03 0.  0.
        -11    1    3    3    0    0 -0.28048834480E+02 -0.36361660592E+02 -0.11384634190E+02  0.47312972561E+02  0.51100000000E-03 0. -1.
         23    2    1    0    0    0 -0.15374968194E+02  0.82846545941E+01 -0.23916411806E+02  0.95385478184E+02  0.90671768186E+02 0.  0.
         11    1    3    3    0    0  0.12673866286E+02  0.44646315186E+02 -0.12531777616E+02  0.48072505622E+02  0.51100000000E-03 0.  1.
         22    1    1    0    0    0  0.15374968194E+02 -0.82846545941E+01  0.23916411806E+02  0.29614521816E+02  0.00000000000E+00 0.  1.
</event>
<event>
 5    1  0.1103865E-009  0.9118800E+02  0.7818608E-02  0.1130116E+00
         25   -1    0    0    0    0  0.00000000000E+00  0.00000000000E+00  0.99999998245E-14  0.12500000000E+03  0.12500000000E+03 0.  0.
        -11    1    3    3    0    0  0.10849978998E+02  0.17520199206E+02  0.29191835092E+02  0.35732935239E+02  0.51100000000E-03 0. -1.
         23    2    1    0    0    0  0.14483385619E+01  0.64965248296E+01 -0.28765873957E+02  0.95474112647E+02  0.90793877336E+02 0.  0.
         11    1    3    3    0    0 -0.94016404365E+01 -0.11023674376E+02 -0.57957709049E+02  0.59741177408E+02  0.51100000000E-03 0.  1.
         22    1    1    0    0    0 -0.14483385619E+01 -0.64965248296E+01  0.28765873957E+02  0.29525887353E+02  0.00000000000E+00 0.  1.
</event>
<event>
 5    1  0.1103865E-009  0.9118800E+02  0.7818608E-02  0.1130116E+00
         25   -1    0    0    0    0  0.00000000000E+00  0.00000000000E+00  0.99999998245E-14  0.12500000000E+03  0.12500000000E+03 0.  0.
        -11    1    3    3    0    0  0.92636434283E+01 -0.11726865777E+02  0.27851819017E+02  0.31607883405E+02  0.51100000000E-03 0.  1.
         23    2    1    0    0    0 -0.15197201361E+02  0.17131717282E+02 -0.21362587014E+02  0.93682101122E+02  0.88292271918E+02 0.  0.
         11    1    3    3    0    0 -0.24460844789E+02  0.28858583059E+02 -0.49214406031E+02  0.62074217717E+02  0.51100000000E-03 0. -1.
         22    1    1    0    0    0  0.15197201361E+02 -0.17131717282E+02  0.21362587014E+02  0.31317898878E+02  0.00000000000E+00 0. -1.
</event>
<event>
 5    1  0.1103865E-009  0.9118800E+02  0.7818608E-02  0.1130116E+00
         25   -1    0    0    0    0  0.00000000000E+00  0.00000000000E+00  0.99999998245E-14  0.12500000000E+03  0.12500000000E+03 0.  0.
        -11    1    3    3    0    0  0.11271460846E+02 -0.50627316011E+02 -0.32797084953E+02  0.61366275247E+02  0.51100000000E-03 0.  1.
         23    2    1    0    0    0  0.83088118330E+01 -0.17472795000E+02 -0.20394011744E+02  0.96888603126E+02  0.92720821726E+02 0.  0.
         11    1    3    3    0    0 -0.29626490132E+01  0.33154521011E+02  0.12403073209E+02  0.35522327879E+02  0.51100000000E-03 0. -1.
         22    1    1    0    0    0 -0.83088118330E+01  0.17472795000E+02  0.20394011744E+02  0.28111396874E+02  0.00000000000E+00 0.  1.
</event>
<event>
 5    1  0.1103865E-009  0.9118800E+02  0.7818608E-02  0.1130116E+00
         25   -1    0    0    0    0  0.00000000000E+00  0.00000000000E+00  0.99999998245E-14  0.12500000000E+03  0.12500000000E+03 0.  0.
        -11    1    3    3    0    0  0.14298922301E+02  0.37517680385E+02 -0.13103775077E+02  0.42234398799E+02  0.51100000000E-03 0.  1.
         23    2    1    0    0    0 -0.25069440285E+02  0.26346427990E+01  0.74618176774E+01  0.98711278047E+02  0.95146305823E+02 0.  0.
         11    1    3    3    0    0 -0.39368362586E+02 -0.34883037586E+02  0.20565592754E+02  0.56476879247E+02  0.51100000000E-03 0. -1.
         22    1    1    0    0    0  0.25069440285E+02 -0.26346427990E+01 -0.74618176774E+01  0.26288721953E+02  0.00000000000E+00 0. -1.
</event>
<event>
 5    1  0.1103865E-009  0.9118800E+02  0.7818608E-02  0.1130116E+00
         25   -1    0    0    0    0  0.00000000000E+00  0.00000000000E+00  0.99999998245E-14  0.12500000000E+03  0.12500000000E+03 0.  0.
        -11    1    3    3    0    0  0.10303318439E+02  0.20110627767E+02  0.34667628939E+02  0.41381641057E+02  0.51100000000E-03 0. -1.
         23    2    1    0    0    0  0.24749673290E+02 -0.13575639339E+02 -0.60121470411E+01  0.96138429989E+02  0.91703912115E+02 0.  0.
         11    1    3    3    0    0  0.14446354852E+02 -0.33686267107E+02 -0.40679775980E+02  0.54756788932E+02  0.51100000000E-03 0.  1.
         22    1    1    0    0    0 -0.24749673290E+02  0.13575639339E+02  0.60121470411E+01  0.28861570011E+02  0.00000000000E+00 0.  1.
</event>
<event>
 5    1  0.1103865E-009  0.9118800E+02  0.7818608E-02  0.1130116E+00
         25   -1    0    0    0    0  0.00000000000E+00  0.00000000000E+00  0.99999998245E-14  0.12500000000E+03  0.12500000000E+03 0.  0.
        -11    1    3    3    0    0  0.25706709676E+02  0.54518365792E+02 -0.52841646338E+01  0.60506276758E+02  0.51100000000E-03 0. -1.
         23    2    1    0    0    0  0.35631559702E+01  0.28764473238E+02  0.40595723120E+01  0.95732763566E+02  0.91149278063E+02 0.  0.
         11    1    3    3    0    0 -0.22143553706E+02 -0.25753892554E+02  0.93437369458E+01  0.35226486807E+02  0.51100000000E-03 0.  1.
         22    1    1    0    0    0 -0.35631559702E+01 -0.28764473238E+02 -0.40595723120E+01  0.29267236434E+02  0.00000000000E+00 0. -1.
</event>
<event>
 5    1  0.1103865E-009  0.9118800E+02  0.7818608E-02  0.1130116E+00
         25   -1    0    0    0    0  0.00000000000E+00  0.00000000000E+00  0.99999998245E-14  0.12500000000E+03  0.12500000000E+03 0.  0.
        -11    1    3    3    0    0 -0.42693205329E+02  0.14295274511E+02 -0.13268374708E+02  0.46937345709E+02  0.51100000000E-03 0.  1.
         23    2    1    0    0    0 -0.17605349461E+02 -0.24818023447E+02 -0.41728640316E+01  0.94286885347E+02  0.89144384774E+02 0.  0.
         11    1    3    3    0    0  0.25087855868E+02 -0.39113297958E+02  0.90955106765E+01  0.47349539638E+02  0.51100000000E-03 0. -1.
         22    1    1    0    0    0  0.17605349461E+02  0.24818023447E+02  0.41728640316E+01  0.30713114653E+02  0.00000000000E+00 0.  1.
</event>
<event>
 5    1  0.1103865E-009  0.9118800E+02  0.7818608E-02  0.1130116E+00
         25   -1    0    0    0    0  0.00000000000E+00  0.00000000000E+00  0.99999998245E-14  0.12500000000E+03  0.12500000000E+03 0.  0.
        -11    1    3    3    0    0  0.36105706529E+02  0.25699136654E+02 -0.33502897211E+02  0.55556383886E+02  0.51100000000E-03 0. -1.
         23    2    1    0    0    0  0.61052383532E+01  0.27901309240E+02 -0.71286631556E+01  0.95562356904E+02  0.90915285986E+02 0.  0.
         11    1    3    3    0    0 -0.30000468176E+02  0.22021725868E+01  0.26374234055E+02  0.40005973018E+02  0.51100000000E-03 0.  1.
         22    1    1    0    0    0 -0.61052383532E+01 -0.27901309240E+02  0.71286631556E+01  0.29437643096E+02  0.00000000000E+00 0. -1.
</event>
<event>
 5    1  0.1103865E-009  0.9118800E+02  0.7818608E-02  0.1130116E+00
         25   -1    0    0    0    0  0.00000000000E+00  0.00000000000E+00  0.99999998245E-14  0.12500000000E+03  0.12500000000E+03 0.  0.
        -11    1    3    3    0    0  0.27773538622E+02 -0.37832107855E+02 -0.54066041882E+01  0.47242662938E+02  0.51100000000E-03 0.  1.
         23    2    1    0    0    0  0.14768200035E+02  0.22095373640E+00 -0.27981299354E+02  0.93359809319E+02  0.87834801359E+02 0.  0.
         11    1    3    3    0    0 -0.13005338588E+02  0.38053061591E+02 -0.22574695165E+02  0.46117146381E+02  0.51100000000E-03 0. -1.
         22    1    1    0    0    0 -0.14768200035E+02 -0.22095373640E+00  0.27981299354E+02  0.31640190681E+02  0.00000000000E+00 0.  1.
</event>
<event>
 5    1  0.1103865E-009  0.9118800E+02  0.7818608E-02  0.1130116E+00
         25   -1    0    0    0    0  0.00000000000E+00  0.00000000000E+00  0.99999998245E-14  0.12500000000E+03  0.12500000000E+03 0.  0.
        -11    1    3    3    0    0  0.37814930281E+02 -0.27878767190E+02 -0.15947214795E+02  0.49613589591E+02  0.51100000000E-03 0. -1.
         23    2    1    0    0    0 -0.26304171192E+01 -0.30102992210E+02 -0.17371151791E+02  0.90145069950E+02  0.83134033269E+02 0.  0.
         11    1    3    3    0    0 -0.40445347400E+02 -0.22242250204E+01 -0.14239369961E+01  0.40531480359E+02  0.51100000000E-03 0.  1.
         22    1    1    0    0    0  0.26304171192E+01  0.30102992210E+02  0.17371151791E+02  0.34854930050E+02  0.00000000000E+00 0. -1.
</event>
<event>
 5    1  0.1103865E-009  0.9118800E+02  0.7818608E-02  0.1130116E+00
         25   -1    0    0    0    0  0.00000000000E+00  0.00000000000E+00  0.99999998245E-14  0.12500000000E+03  0.12500000000E+03 0.  0.
        -11    1    3    3    0    0  0.29248566761E+02  0.45128866209E+02  0.30175392827E+02  0.61665610801E+02  0.51100000000E-03 0.  1.
         23    2    1    0    0    0  0.18621243403E+02  0.21950084753E+02  0.89109859922E+01  0.94867582276E+02  0.89954964115E+02 0.  0.
         11    1    3    3    0    0 -0.10627323358E+02 -0.23178781456E+02 -0.21264406835E+02  0.33201971475E+02  0.51100000000E-03 0. -1.
         22    1    1    0    0    0 -0.18621243403E+02 -0.21950084753E+02 -0.89109859922E+01  0.30132417724E+02  0.00000000000E+00 0.  1.
</event>
<event>
 5    1  0.1103865E-009  0.9118800E+02  0.7818608E-02  0.1130116E+00
         25   -1    0    0    0    0  0.00000000000E+00  0.00000000000E+00  0.99999998245E-14  0.12500000000E+03  0.12500000000E+03 0.  0.
        -11    1    3    3    0    0 -0.20664156714E+02 -0.33138704834E+01  0.64684822136E+01  0.21905030762E+02  0.51100000000E-03 0.  1.
         23    2    1    0    0    0 -0.44071939125E+01 -0.15222072296E+02 -0.45060370424E+02  0.77234198155E+02  0.60692252708E+02 0.  0.
         11    1    3    3    0    0  0.16256962802E+02 -0.11908201813E+02 -0.51528852637E+02  0.55329167392E+02  0.51100000000E-03 0. -1.
         22    1    1    0    0    0  0.44071939125E+01  0.15222072296E+02  0.45060370424E+02  0.47765801845E+02  0.00000000000E+00 0. -1.
</event>
<event>
 5    1  0.1103865E-009  0.9118800E+02  0.7818608E-02  0.1130116E+00
         25   -1    0    0    0    0  0.00000000000E+00  0.00000000000E+00  0.99999998245E-14  0.12500000000E+03  0.12500000000E+03 0.  0.
        -11    1    3    3    0    0 -0.30989069517E+02  0.34836245637E+02 -0.10746001150E+02  0.47847288122E+02  0.51100000000E-03 0. -1.
         23    2    1    0    0    0  0.15978472385E+02  0.20395556903E+02 -0.10656601760E+02  0.96984763392E+02  0.92850368055E+02 0.  0.
         11    1    3    3    0    0  0.46967541902E+02 -0.14440688733E+02  0.89399389898E-01  0.49137475270E+02  0.51100000000E-03 0.  1.
         22    1    1    0    0    0 -0.15978472385E+02 -0.20395556903E+02  0.10656601760E+02  0.28015236608E+02  0.00000000000E+00 0. -1.
</event>
<event>
 5    1  0.1103865E-009  0.9118800E+02  0.7818608E-02  0.1130116E+00
         25   -1    0    0    0    0  0.00000000000E+00  0.00000000000E+00  0.99999998245E-14  0.12500000000E+03  0.12500000000E+03 0.  0.
        -11    1    3    3    0    0  0.38395717583E+02  0.27468401005E+02 -0.40792643055E+02  0.62392178277E+02  0.51100000000E-03 0.  1.
         23    2    1    0    0    0  0.18558268718E+02  0.10736284091E+02 -0.20508978348E+02  0.95330228737E+02  0.90595569341E+02 0.  0.
         11    1    3    3    0    0 -0.19837448865E+02 -0.16732116914E+02  0.20283664706E+02  0.32938050460E+02  0.51100000000E-03 0. -1.
         22    1    1    0    0    0 -0.18558268718E+02 -0.10736284091E+02  0.20508978348E+02  0.29669771263E+02  0.00000000000E+00 0.  1.
</event>
<event>
 5    1  0.1103865E-009  0.9118800E+02  0.7818608E-02  0.1130116E+00
         25   -1    0    0    0    0  0.00000000000E+00  0.00000000000E+00  0.99999998245E-14  0.12500000000E+03  0.12500000000E+03 0.  0.
        -11    1    3    3    0    0  0.14147317070E+02 -0.18410197339E+02  0.25600363299E+02  0.34560968558E+02  0.51100000000E-03 0.  1.
         23    2    1    0    0    0 -0.24764709476E+02  0.87562358705E+01 -0.12960760215E+02  0.95709322176E+02  0.91117125415E+02 0.  0.
         11    1    3    3    0    0 -0.38912026546E+02  0.27166433210E+02 -0.38561123514E+02  0.61148353618E+02  0.51100000000E-03 0. -1.
         22    1    1    0    0    0  0.24764709476E+02 -0.87562358705E+01  0.12960760215E+02  0.29290677824E+02  0.00000000000E+00 0. -1.
</event>
<event>
 5    1  0.1103865E-009  0.9118800E+02  0.7818608E-02  0.1130116E+00
         25   -1    0    0    0    0  0.00000000000E+00  0.00000000000E+00  0.99999998245E-14  0.12500000000E+03  0.12500000000E+03 0.  0.
        -11    1    3    3    0    0 -0.13709543514E+02 -0.19282786649E+02  0.45048230679E+02  0.50883401339E+02  0.51100000000E-03 0.  1.
         23    2    1    0    0    0 -0.20304354647E+02 -0.26605337331E+02  0.61993888265E+01  0.90962620342E+02  0.84354342423E+02 0.  0.
         11    1    3    3    0    0 -0.65948111339E+01 -0.73225506819E+01 -0.38848841852E+02  0.40079219003E+02  0.51100000000E-03 0. -1.
         22    1    1    0    0    0  0.20304354647E+02  0.26605337331E+02 -0.61993888265E+01  0.34037379658E+02  0.00000000000E+00 0.  1.
</event>
<event>
 5    1  0.1103865E-009  0.9118800E+02  0.7818608E-02  0.1130116E+00
         25   -1    0    0    0    0  0.00000000000E+00  0.00000000000E+00  0.99999998245E-14  0.12500000000E+03  0.12500000000E+03 0.  0.
        -11    1    3    3    0    0  0.46071346183E+02 -0.37541486797E+02 -0.28594465208E+01  0.59498811792E+02  0.51100000000E-03 0.  1.
         23    2    1    0    0    0  0.11484426306E+02 -0.25011237703E+02 -0.72301510526E+01  0.96544259924E+02  0.92255433342E+02 0.  0.
         11    1    3    3    0    0 -0.34586919877E+02  0.12530249094E+02 -0.43707045318E+01  0.37045448132E+02  0.51100000000E-03 0. -1.
         22    1    1    0    0    0 -0.11484426306E+02  0.25011237703E+02  0.72301510526E+01  0.28455740076E+02  0.00000000000E+00 0.  1.
</event>
<event>
 5    1  0.1103865E-009  0.9118800E+02  0.7818608E-02  0.1130116E+00
         25   -1    0    0    0    0  0.00000000000E+00  0.00000000000E+00  0.99999998245E-14  0.12500000000E+03  0.12500000000E+03 0.  0.
        -11    1    3    3    0    0  0.39584711427E+02 -0.13927495526E+01  0.25164281464E+02  0.46926860027E+02  0.51100000000E-03 0. -1.
         23    2    1    0    0    0  0.11126262751E+02  0.41822001916E+00  0.43013737152E+02  0.80568589775E+02  0.67209727299E+02 0.  0.
         11    1    3    3    0    0 -0.28458448676E+02  0.18109695718E+01  0.17849455688E+02  0.33641729748E+02  0.51100000000E-03 0.  1.
         22    1    1    0    0    0 -0.11126262751E+02 -0.41822001916E+00 -0.43013737152E+02  0.44431410225E+02  0.00000000000E+00 0. -1.
</event>
<event>
 5    1  0.1103865E-009  0.9118800E+02  0.7818608E-02  0.1130116E+00
         25   -1    0    0    0    0  0.00000000000E+00  0.00000000000E+00  0.99999998245E-14  0.12500000000E+03  0.12500000000E+03 0.  0.
        -11    1    3    3    0    0 -0.11162637354E+02  0.15205644951E+02  0.59242681818E+02  0.62173237493E+02  0.51100000000E-03 0.  1.
         23    2    1    0    0    0 -0.86091837124E+01  0.95411015109E+01  0.25933367276E+02  0.96057121765E+02  0.91593015243E+02 0.  0.
         11    1    3    3    0    0  0.25534536414E+01 -0.56645434400E+01 -0.33309314542E+02  0.33883884272E+02  0.51100000000E-03 0. -1.
         22    1    1    0    0    0  0.86091837124E+01 -0.95411015109E+01 -0.25933367276E+02  0.28942878235E+02  0.00000000000E+00 0.  1.
</event>
<event>
 5    1  0.1103865E-009  0.9118800E+02  0.7818608E-02  0.1130116E+00
         25   -1    0    0    0    0  0.00000000000E+00  0.00000000000E+00  0.99999998245E-14  0.12500000000E+03  0.12500000000E+03 0.  0.
        -11    1    3    3    0    0  0.24621414513E+02 -0.34094439337E+02  0.17774089681E+02  0.45657016007E+02  0.51100000000E-03 0. -1.
         23    2    1    0    0    0  0.22793856318E+02  0.15390386777E+02  0.97400806889E+01  0.95823073109E+02  0.91273042446E+02 0.  0.
         11    1    3    3    0    0 -0.18275581958E+01  0.49484826114E+02 -0.80340089924E+01  0.50166057103E+02  0.51100000000E-03 0.  1.
         22    1    1    0    0    0 -0.22793856318E+02 -0.15390386777E+02 -0.97400806889E+01  0.29176926891E+02  0.00000000000E+00 0. -1.
</event>
<event>
 5    1  0.1103865E-009  0.9118800E+02  0.7818608E-02  0.1130116E+00
         25   -1    0    0    0    0  0.00000000000E+00  0.00000000000E+00  0.99999998245E-14  0.12500000000E+03  0.12500000000E+03 0.  0.
        -11    1    3    3    0    0 -0.27576752181E+02  0.70263918385E+01  0.29730393217E+02  0.41155117837E+02  0.51100000000E-03 0. -1.
         23    2    1    0    0    0 -0.13325380899E+02  0.15047468549E+02 -0.21876918783E+02  0.95291555725E+02  0.90542194203E+02 0.  0.
         11    1    3    3    0    0  0.14251371282E+02  0.80210767104E+01 -0.51607312000E+02  0.54136437887E+02  0.51100000000E-03 0.  1.
         22    1    1    0    0    0  0.13325380899E+02 -0.15047468549E+02  0.21876918783E+02  0.29708444275E+02  0.00000000000E+00 0.  1.
</event>
<event>
 5    1  0.1103865E-009  0.9118800E+02  0.7818608E-02  0.1130116E+00
         25   -1    0    0    0    0  0.00000000000E+00  0.00000000000E+00  0.99999998245E-14  0.12500000000E+03  0.12500000000E+03 0.  0.
        -11    1    3    3    0    0  0.22881067338E+02  0.35072863294E+02  0.22371150767E+02  0.47477545946E+02  0.51100000000E-03 0.  1.
         23    2    1    0    0    0 -0.13262168348E+02  0.24831944881E+02 -0.79430835555E+01  0.95749304756E+02  0.91171959445E+02 0.  0.
         11    1    3    3    0    0 -0.36143235686E+02 -0.10240918413E+02 -0.30314234323E+02  0.48271758810E+02  0.51100000000E-03 0. -1.
         22    1    1    0    0    0  0.13262168348E+02 -0.24831944881E+02  0.79430835555E+01  0.29250695244E+02  0.00000000000E+00 0. -1.
</event>
<event>
 5    1  0.1103865E-009  0.9118800E+02  0.7818608E-02  0.1130116E+00
         25   -1    0    0    0    0  0.00000000000E+00  0.00000000000E+00  0.99999998245E-14  0.12500000000E+03  0.12500000000E+03 0.  0.
        -11    1    3    3    0    0 -0.28836807907E+02 -0.19956895468E+02  0.20809702550E+02  0.40778461073E+02  0.51100000000E-03 0. -1.
         23    2    1    0    0    0  0.12325736730E+02  0.17750679637E+02  0.18340234556E+02  0.96656136165E+02  0.92406893906E+02 0.  0.
         11    1    3    3    0    0  0.41162544637E+02  0.37707575105E+02 -0.24694679939E+01  0.55877675092E+02  0.51100000000E-03 0.  1.
         22    1    1    0    0    0 -0.12325736730E+02 -0.17750679637E+02 -0.18340234556E+02  0.28343863835E+02  0.00000000000E+00 0.  1.
</event>
<event>
 5    1  0.1103865E-009  0.9118800E+02  0.7818608E-02  0.1130116E+00
         25   -1    0    0    0    0  0.00000000000E+00  0.00000000000E+00  0.99999998245E-14  0.12500000000E+03  0.12500000000E+03 0.  0.
        -11    1    3    3    0    0  0.12363093220E+02  0.28628442320E+01  0.39352208797E+02  0.41347772474E+02  0.51100000000E-03 0.  1.
         23    2    1    0    0    0  0.12880324797E+01  0.27604888918E+02 -0.82782156900E+01  0.96151815051E+02  0.91722155244E+02 0.  0.
         11    1    3    3    0    0 -0.11075060740E+02  0.24742044686E+02 -0.47630424487E+02  0.54804042577E+02  0.51100000000E-03 0. -1.
         22    1    1    0    0    0 -0.12880324797E+01 -0.27604888918E+02  0.82782156900E+01  0.28848184949E+02  0.00000000000E+00 0.  1.
</event>
<event>
 5    1  0.1103865E-009  0.9118800E+02  0.7818608E-02  0.1130116E+00
         25   -1    0    0    0    0  0.00000000000E+00  0.00000000000E+00  0.99999998245E-14  0.12500000000E+03  0.12500000000E+03 0.  0.
        -11    1    3    3    0    0  0.96616432109E+01  0.15295708351E+02 -0.33516835763E+02  0.38087850075E+02  0.51100000000E-03 0. -1.
         23    2    1    0    0    0 -0.71554924801E+01  0.11090125956E+02  0.23699897704E+02  0.97872944916E+02  0.94038482702E+02 0.  0.
         11    1    3    3    0    0 -0.16817135691E+02 -0.42055823951E+01  0.57216733468E+02  0.59785094841E+02  0.51100000000E-03 0.  1.
         22    1    1    0    0    0  0.71554924801E+01 -0.11090125956E+02 -0.23699897704E+02  0.27127055084E+02  0.00000000000E+00 0.  1.
</event>
<event>
 5    1  0.1103865E-009  0.9118800E+02  0.7818608E-02  0.1130116E+00
         25   -1    0    0    0    0  0.00000000000E+00  0.00000000000E+00  0.99999998245E-14  0.12500000000E+03  0.12500000000E+03 0.  0.
        -11    1    3    3    0    0  0.18697137720E+02 -0.11832541610E+02 -0.20684731176E+02  0.30289438819E+02  0.51100000000E-03 0.  1.
         23    2    1    0    0    0 -0.19512262933E+02  0.18464826090E+02  0.18109300820E+02  0.92602083655E+02  0.86749760310E+02 0.  0.
         11    1    3    3    0    0 -0.38209400653E+02  0.30297367700E+02  0.38794031996E+02  0.62312644837E+02  0.51100000000E-03 0. -1.
         22    1    1    0    0    0  0.19512262933E+02 -0.18464826090E+02 -0.18109300820E+02  0.32397916345E+02  0.00000000000E+00 0. -1.
</event>
<event>
 5    1  0.1103865E-009  0.9118800E+02  0.7818608E-02  0.1130116E+00
         25   -1    0    0    0    0  0.00000000000E+00  0.00000000000E+00  0.99999998245E-14  0.12500000000E+03  0.12500000000E+03 0.  0.
        -11    1    3    3    0    0 -0.26437989176E+02  0.23841458645E+02  0.28784993401E+02  0.45781636792E+02  0.51100000000E-03 0.  1.
         23    2    1    0    0    0 -0.15130416251E+01 -0.20238160129E+02  0.18676928475E+02  0.97419208176E+02  0.93433409678E+02 0.  0.
         11    1    3    3    0    0  0.24924947551E+02 -0.44079618774E+02 -0.10108064926E+02  0.51637571384E+02  0.51100000000E-03 0. -1.
         22    1    1    0    0    0  0.15130416251E+01  0.20238160129E+02 -0.18676928475E+02  0.27580791824E+02  0.00000000000E+00 0. -1.
</event>
<event>
 5    1  0.1103865E-009  0.9118800E+02  0.7818608E-02  0.1130116E+00
         25   -1    0    0    0    0  0.00000000000E+00  0.00000000000E+00  0.99999998245E-14  0.12500000000E+03  0.12500000000E+03 0.  0.
        -11    1    3    3    0    0 -0.47984346984E+02  0.27874453241E+01  0.58386402297E+01  0.48418561802E+02  0.51100000000E-03 0. -1.
         23    2    1    0    0    0 -0.96723179233E+01 -0.23865235710E+02  0.13832525975E+02  0.95769160390E+02  0.91199178162E+02 0.  0.
         11    1    3    3    0    0  0.38312029061E+02 -0.26652681034E+02  0.79938857449E+01  0.47350598588E+02  0.51100000000E-03 0.  1.
         22    1    1    0    0    0  0.96723179233E+01  0.23865235710E+02 -0.13832525975E+02  0.29230839610E+02  0.00000000000E+00 0.  1.
</event>
<event>
 5    1  0.1103865E-009  0.9118800E+02  0.7818608E-02  0.1130116E+00
         25   -1    0    0    0    0  0.00000000000E+00  0.00000000000E+00  0.99999998245E-14  0.12500000000E+03  0.12500000000E+03 0.  0.
        -11    1    3    3    0    0  0.37907322651E+01  0.25221459972E+02 -0.26754514348E+02  0.36963437779E+02  0.51100000000E-03 0.  1.
         23    2    1    0    0    0 -0.97273612025E+01  0.23888971117E+01  0.26613572726E+02  0.96563920126E+02  0.92282067767E+02 0.  0.
         11    1    3    3    0    0 -0.13518093468E+02 -0.22832562860E+02  0.53368087074E+02  0.59600482346E+02  0.51100000000E-03 0. -1.
         22    1    1    0    0    0  0.97273612025E+01 -0.23888971117E+01 -0.26613572726E+02  0.28436079874E+02  0.00000000000E+00 0. -1.
</event>
<event>
 5    1  0.1103865E-009  0.9118800E+02  0.7818608E-02  0.1130116E+00
         25   -1    0    0    0    0  0.00000000000E+00  0.00000000000E+00  0.99999998245E-14  0.12500000000E+03  0.12500000000E+03 0.  0.
        -11    1    3    3    0    0 -0.20998060829E+02  0.19128913884E+01 -0.55801194008E+02  0.59651915015E+02  0.51100000000E-03 0.  1.
         23    2    1    0    0    0 -0.95928754906E+01  0.14121276246E+02 -0.24400863942E+02  0.95220210476E+02  0.90443643330E+02 0.  0.
         11    1    3    3    0    0  0.11405185338E+02  0.12208384858E+02  0.31400330066E+02  0.35568295460E+02  0.51100000000E-03 0. -1.
         22    1    1    0    0    0  0.95928754906E+01 -0.14121276246E+02  0.24400863942E+02  0.29779789524E+02  0.00000000000E+00 0.  1.
</event>
<event>
 5    1  0.1103865E-009  0.9118800E+02  0.7818608E-02  0.1130116E+00
         25   -1    0    0    0    0  0.00000000000E+00  0.00000000000E+00  0.99999998245E-14  0.12500000000E+03  0.12500000000E+03 0.  0.
        -11    1    3    3    0    0 -0.24308518518E+02  0.27525379947E+02 -0.35044516981E+02  0.50760898184E+02  0.51100000000E-03 0.  1.
         23    2    1    0    0    0  0.40038094709E+01  0.29236504453E+02 -0.46262123416E+00  0.95486990982E+02  0.90811605786E+02 0.  0.
         11    1    3    3    0    0  0.28312327989E+02  0.17111245056E+01  0.34581895747E+02  0.44726092798E+02  0.51100000000E-03 0. -1.
         22    1    1    0    0    0 -0.40038094709E+01 -0.29236504453E+02  0.46262123416E+00  0.29513009018E+02  0.00000000000E+00 0.  1.
</event>
<event>
 5    1  0.1103865E-009  0.9118800E+02  0.7818608E-02  0.1130116E+00
         25   -1    0    0    0    0  0.00000000000E+00  0.00000000000E+00  0.99999998245E-14  0.12500000000E+03  0.12500000000E+03 0.  0.
        -11    1    3    3    0    0 -0.14263086726E+02 -0.18597711496E+02 -0.29614900620E+02  0.37767086926E+02  0.51100000000E-03 0. -1.
         23    2    1    0    0    0  0.24299512901E+02 -0.10316642518E+02  0.12778603500E+02  0.95670967498E+02  0.91064492940E+02 0.  0.
         11    1    3    3    0    0  0.38562599628E+02  0.82810689773E+01  0.42393504120E+02  0.57903880572E+02  0.51100000000E-03 0.  1.
         22    1    1    0    0    0 -0.24299512901E+02  0.10316642518E+02 -0.12778603500E+02  0.29329032502E+02  0.00000000000E+00 0.  1.
</event>
<event>
 5    1  0.1103865E-009  0.9118800E+02  0.7818608E-02  0.1130116E+00
         25   -1    0    0    0    0  0.00000000000E+00  0.00000000000E+00  0.99999998245E-14  0.12500000000E+03  0.12500000000E+03 0.  0.
        -11    1    3    3    0    0  0.37754286824E+02  0.11758475452E+02 -0.12674163262E+02  0.41524478723E+02  0.51100000000E-03 0. -1.
         23    2    1    0    0    0  0.77518462786E+01 -0.85790097890E+01  0.27220416900E+02  0.95425659333E+02  0.90727144964E+02 0.  0.
         11    1    3    3    0    0 -0.30002440546E+02 -0.20337485241E+02  0.39894580161E+02  0.53901180610E+02  0.51100000000E-03 0.  1.
         22    1    1    0    0    0 -0.77518462786E+01  0.85790097890E+01 -0.27220416900E+02  0.29574340667E+02  0.00000000000E+00 0.  1.
</event>
<event>
 5    1  0.1103865E-009  0.9118800E+02  0.7818608E-02  0.1130116E+00
         25   -1    0    0    0    0  0.00000000000E+00  0.00000000000E+00  0.99999998245E-14  0.12500000000E+03  0.12500000000E+03 0.  0.
        -11    1    3    3    0    0  0.30005933292E+01  0.26120105159E+02 -0.86975675396E+00  0.26306271703E+02  0.51100000000E-03 0.  1.
         23    2    1    0    0    0  0.39238758707E+01 -0.28207860242E+02  0.25563211621E+02  0.86730456370E+02  0.77830675780E+02 0.  0.
         11    1    3    3    0    0  0.92328254157E+00 -0.54327965401E+02  0.26432968375E+02  0.60424184667E+02  0.51100000000E-03 0. -1.
         22    1    1    0    0    0 -0.39238758707E+01  0.28207860242E+02 -0.25563211621E+02  0.38269543630E+02  0.00000000000E+00 0. -1.
</event>
<event>
 5    1  0.1103865E-009  0.9118800E+02  0.7818608E-02  0.1130116E+00
         25   -1    0    0    0    0  0.00000000000E+00  0.00000000000E+00  0.99999998245E-14  0.12500000000E+03  0.12500000000E+03 0.  0.
        -11    1    3    3    0    0 -0.28579561906E+02  0.43665441796E+02  0.19220629787E+02  0.55613800227E+02  0.51100000000E-03 0.  1.
         23    2    1    0    0    0 -0.18132756065E+01  0.30376065897E+02 -0.51024972314E+01  0.94145035638E+02  0.88945257937E+02 0.  0.
         11    1    3    3    0    0  0.26766286300E+02 -0.13289375900E+02 -0.24323127019E+02  0.38531235411E+02  0.51100000000E-03 0. -1.
         22    1    1    0    0    0  0.18132756065E+01 -0.30376065897E+02  0.51024972314E+01  0.30854964362E+02  0.00000000000E+00 0.  1.
</event>
<event>
 5    1  0.1103865E-009  0.9118800E+02  0.7818608E-02  0.1130116E+00
         25   -1    0    0    0    0  0.00000000000E+00  0.00000000000E+00  0.99999998245E-14  0.12500000000E+03  0.12500000000E+03 0.  0.
        -11    1    3    3    0    0 -0.30620690568E+02 -0.27143746712E+01 -0.77821008265E+01  0.31710496909E+02  0.51100000000E-03 0. -1.
         23    2    1    0    0    0  0.30673587472E+02  0.10222899400E+01  0.33766456674E+01  0.94124187766E+02  0.88915954370E+02 0.  0.
         11    1    3    3    0    0  0.61294278040E+02  0.37366646112E+01  0.11158746494E+02  0.62413690857E+02  0.51100000000E-03 0.  1.
         22    1    1    0    0    0 -0.30673587472E+02 -0.10222899400E+01 -0.33766456674E+01  0.30875812234E+02  0.00000000000E+00 0.  1.
</event>
<event>
 5    1  0.1103865E-009  0.9118800E+02  0.7818608E-02  0.1130116E+00
         25   -1    0    0    0    0  0.00000000000E+00  0.00000000000E+00  0.99999998245E-14  0.12500000000E+03  0.12500000000E+03 0.  0.
        -11    1    3    3    0    0 -0.11986012722E+02  0.63853207418E+00  0.46650253813E+02  0.48169683467E+02  0.51100000000E-03 0.  1.
         23    2    1    0    0    0 -0.13860910897E+01  0.28294731496E+02  0.10774773060E+02  0.94691439932E+02  0.89709865583E+02 0.  0.
         11    1    3    3    0    0  0.10599921632E+02  0.27656199421E+02 -0.35875480753E+02  0.46521756465E+02  0.51100000000E-03 0. -1.
         22    1    1    0    0    0  0.13860910897E+01 -0.28294731496E+02 -0.10774773060E+02  0.30308560068E+02  0.00000000000E+00 0. -1.
</event>
<event>
 5    1  0.1103865E-009  0.9118800E+02  0.7818608E-02  0.1130116E+00
         25   -1    0    0    0    0  0.00000000000E+00  0.00000000000E+00  0.99999998245E-14  0.12500000000E+03  0.12500000000E+03 0.  0.
        -11    1    3    3    0    0 -0.29098896266E+02 -0.21379012902E+02  0.12466496360E+01  0.36129795075E+02  0.51100000000E-03 0.  1.
         23    2    1    0    0    0  0.98561441764E+01 -0.12739043940E+01  0.33179155709E+02  0.90364428920E+02  0.83463208842E+02 0.  0.
         11    1    3    3    0    0  0.38955040443E+02  0.20105108508E+02  0.31932506073E+02  0.54234633846E+02  0.51100000000E-03 0. -1.
         22    1    1    0    0    0 -0.98561441764E+01  0.12739043940E+01 -0.33179155709E+02  0.34635571080E+02  0.00000000000E+00 0. -1.
</event>
<event>
 5    1  0.1103865E-009  0.9118800E+02  0.7818608E-02  0.1130116E+00
         25   -1    0    0    0    0  0.00000000000E+00  0.00000000000E+00  0.99999998245E-14  0.12500000000E+03  0.12500000000E+03 0.  0.
        -11    1    3    3    0    0 -0.51336003523E+02 -0.29890498182E+01 -0.84112428124E+01  0.52106320945E+02  0.51100000000E-03 0. -1.
         23    2    1    0    0    0 -0.14537202360E+02  0.20344771682E+02 -0.14488020332E+02  0.96101164031E+02  0.91653101463E+02 0.  0.
         11    1    3    3    0    0  0.36798801163E+02  0.23333821500E+02 -0.60767775193E+01  0.43994843086E+02  0.51100000000E-03 0.  1.
         22    1    1    0    0    0  0.14537202360E+02 -0.20344771682E+02  0.14488020332E+02  0.28898835969E+02  0.00000000000E+00 0. -1.
</event>
<event>
 5    1  0.1103865E-009  0.9118800E+02  0.7818608E-02  0.1130116E+00
         25   -1    0    0    0    0  0.00000000000E+00  0.00000000000E+00  0.99999998245E-14  0.12500000000E+03  0.12500000000E+03 0.  0.
        -11    1    3    3    0    0  0.26525456895E+01  0.33168792195E+02  0.16566026932E+02  0.37170391750E+02  0.51100000000E-03 0.  1.
         23    2    1    0    0    0  0.34537558585E+02 -0.66731521541E+01  0.81875807521E+01  0.88883377910E+02  0.81214804546E+02 0.  0.
         11    1    3    3    0    0  0.31885012895E+02 -0.39841944349E+02 -0.83784461796E+01  0.51712986159E+02  0.51100000000E-03 0. -1.
         22    1    1    0    0    0 -0.34537558585E+02  0.66731521541E+01 -0.81875807521E+01  0.36116622090E+02  0.00000000000E+00 0. -1.
</event>
<event>
 5    1  0.1103865E-009  0.9118800E+02  0.7818608E-02  0.1130116E+00
         25   -1    0    0    0    0  0.00000000000E+00  0.00000000000E+00  0.99999998245E-14  0.12500000000E+03  0.12500000000E+03 0.  0.
        -11    1    3    3    0    0 -0.27153753199E+02 -0.78191053371E+01  0.28424983145E+02  0.40080473900E+02  0.51100000000E-03 0.  1.
         23    2    1    0    0    0  0.21969718304E+02  0.14182925709E+02  0.79610132166E+01  0.97665010784E+02  0.93761680318E+02 0.  0.
         11    1    3    3    0    0  0.49123471503E+02  0.22002031046E+02 -0.20463969928E+02  0.57584536883E+02  0.51100000000E-03 0. -1.
         22    1    1    0    0    0 -0.21969718304E+02 -0.14182925709E+02 -0.79610132166E+01  0.27334989216E+02  0.00000000000E+00 0. -1.
</event>
<event>
 5    1  0.1103865E-009  0.9118800E+02  0.7818608E-02  0.1130116E+00
         25   -1    0    0    0    0  0.00000000000E+00  0.00000000000E+00  0.99999998245E-14  0.12500000000E+03  0.12500000000E+03 0.  0.
        -11    1    3    3    0    0 -0.25984406520E+02 -0.19330057015E+02  0.39302565700E+02  0.50926733228E+02  0.51100000000E-03 0.  1.
         23    2    1    0    0    0 -0.26765803697E+02 -0.18505591603E+02 -0.21443512778E+01  0.92389213280E+02  0.86442485618E+02 0.  0.
         11    1    3    3    0    0 -0.78139717728E+00  0.82446541276E+00 -0.41446916978E+02  0.41462480051E+02  0.51100000000E-03 0. -1.
         22    1    1    0    0    0  0.26765803697E+02  0.18505591603E+02  0.21443512778E+01  0.32610786720E+02  0.00000000000E+00 0.  1.
</event>
<event>
 5    1  0.1103865E-009  0.9118800E+02  0.7818608E-02  0.1130116E+00
         25   -1    0    0    0    0  0.00000000000E+00  0.00000000000E+00  0.99999998245E-14  0.12500000000E+03  0.12500000000E+03 0.  0.
        -11    1    3    3    0    0  0.34412134503E+02 -0.35214560900E+02 -0.20253156257E+02  0.53239558967E+02  0.51100000000E-03 0.  1.
         23    2    1    0    0    0  0.21697281946E+02 -0.15894861176E+02  0.14083741685E+02  0.94639327486E+02  0.89637223694E+02 0.  0.
         11    1    3    3    0    0 -0.12714852557E+02  0.19319699723E+02  0.34336897942E+02  0.41399768519E+02  0.51100000000E-03 0. -1.
         22    1    1    0    0    0 -0.21697281946E+02  0.15894861176E+02 -0.14083741685E+02  0.30360672514E+02  0.00000000000E+00 0.  1.
</event>
<event>
 5    1  0.1103865E-009  0.9118800E+02  0.7818608E-02  0.1130116E+00
         25   -1    0    0    0    0  0.00000000000E+00  0.00000000000E+00  0.99999998245E-14  0.12500000000E+03  0.12500000000E+03 0.  0.
        -11    1    3    3    0    0 -0.30678903646E+02 -0.34039167448E+02  0.12230431136E+02  0.47428298467E+02  0.51100000000E-03 0.  1.
         23    2    1    0    0    0 -0.24258363355E+02  0.13941248267E+02  0.72833320305E+01  0.96088522671E+02  0.91635859071E+02 0.  0.
         11    1    3    3    0    0  0.64205402912E+01  0.47980415714E+02 -0.49470991056E+01  0.48660224204E+02  0.51100000000E-03 0. -1.
         22    1    1    0    0    0  0.24258363355E+02 -0.13941248267E+02 -0.72833320305E+01  0.28911477329E+02  0.00000000000E+00 0. -1.
</event>
<event>
 5    1  0.1103865E-009  0.9118800E+02  0.7818608E-02  0.1130116E+00
         25   -1    0    0    0    0  0.00000000000E+00  0.00000000000E+00  0.99999998245E-14  0.12500000000E+03  0.12500000000E+03 0.  0.
        -11    1    3    3    0    0  0.74016149868E+01  0.61029643630E+02 -0.75980996574E+01  0.61944591569E+02  0.51100000000E-03 0. -1.
         23    2    1    0    0    0  0.77548838577E+01  0.28376659009E+02  0.46060697949E+00  0.95579171342E+02  0.90938401325E+02 0.  0.
         11    1    3    3    0    0  0.35326887090E+00 -0.32652984621E+02  0.80587066369E+01  0.33634579773E+02  0.51100000000E-03 0.  1.
         22    1    1    0    0    0 -0.77548838577E+01 -0.28376659009E+02 -0.46060697949E+00  0.29420828658E+02  0.00000000000E+00 0. -1.
</event>
<event>
 5    1  0.1103865E-009  0.9118800E+02  0.7818608E-02  0.1130116E+00
         25   -1    0    0    0    0  0.00000000000E+00  0.00000000000E+00  0.99999998245E-14  0.12500000000E+03  0.12500000000E+03 0.  0.
        -11    1    3    3    0    0  0.27468889944E+02  0.28337383498E+02 -0.44099351345E+02  0.59180233250E+02  0.51100000000E-03 0. -1.
         23    2    1    0    0    0  0.23265290878E+02  0.14490907102E+02 -0.10705785109E+02  0.95574263253E+02  0.90931654628E+02 0.  0.
         11    1    3    3    0    0 -0.42035990658E+01 -0.13846476396E+02  0.33393566236E+02  0.36394030003E+02  0.51100000000E-03 0.  1.
         22    1    1    0    0    0 -0.23265290878E+02 -0.14490907102E+02  0.10705785109E+02  0.29425736747E+02  0.00000000000E+00 0. -1.
</event>
<event>
 5    1  0.1103865E-009  0.9118800E+02  0.7818608E-02  0.1130116E+00
         25   -1    0    0    0    0  0.00000000000E+00  0.00000000000E+00  0.99999998245E-14  0.12500000000E+03  0.12500000000E+03 0.  0.
        -11    1    3    3    0    0  0.34489843104E+02  0.58184946827E+01  0.29356106913E+01  0.35100170485E+02  0.51100000000E-03 0.  1.
         23    2    1    0    0    0 -0.25955088260E+02 -0.68557221368E+01  0.77823159072E+01  0.97049472751E+02  0.92937442335E+02 0.  0.
         11    1    3    3    0    0 -0.60444931364E+02 -0.12674216819E+02  0.48467052159E+01  0.61949302266E+02  0.51100000000E-03 0. -1.
         22    1    1    0    0    0  0.25955088260E+02  0.68557221368E+01 -0.77823159072E+01  0.27950527249E+02  0.00000000000E+00 0. -1.
</event>
<event>
 5    1  0.1103865E-009  0.9118800E+02  0.7818608E-02  0.1130116E+00
         25   -1    0    0    0    0  0.00000000000E+00  0.00000000000E+00  0.99999998245E-14  0.12500000000E+03  0.12500000000E+03 0.  0.
        -11    1    3    3    0    0  0.38813978269E+02 -0.24110044619E+02 -0.24296629013E+02  0.51750800402E+02  0.51100000000E-03 0.  1.
         23    2    1    0    0    0  0.13999104494E+02 -0.22561522675E+02  0.12093618357E+02  0.95823762459E+02  0.91273986518E+02 0.  0.
         11    1    3    3    0    0 -0.24814873774E+02  0.15485219433E+01  0.36390247370E+02  0.44072962058E+02  0.51100000000E-03 0. -1.
         22    1    1    0    0    0 -0.13999104494E+02  0.22561522675E+02 -0.12093618357E+02  0.29176237541E+02  0.00000000000E+00 0. -1.
</event>
<event>
 5    1  0.1103865E-009  0.9118800E+02  0.7818608E-02  0.1130116E+00
         25   -1    0    0    0    0  0.00000000000E+00  0.00000000000E+00  0.99999998245E-14  0.12500000000E+03  0.12500000000E+03 0.  0.
        -11    1    3    3    0    0  0.34996225760E+02  0.31226018895E+02  0.40213815219E+02  0.61781477874E+02  0.51100000000E-03 0. -1.
         23    2    1    0    0    0  0.20178984733E+02  0.90660405457E+01  0.18247794115E+02  0.96323066655E+02  0.91955242720E+02 0.  0.
         11    1    3    3    0    0 -0.14817241027E+02 -0.22159978349E+02 -0.21966021105E+02  0.34541588781E+02  0.51100000000E-03 0.  1.
         22    1    1    0    0    0 -0.20178984733E+02 -0.90660405457E+01 -0.18247794115E+02  0.28676933345E+02  0.00000000000E+00 0. -1.
</event>
<event>
 5    1  0.1103865E-009  0.9118800E+02  0.7818608E-02  0.1130116E+00
         25   -1    0    0    0    0  0.00000000000E+00  0.00000000000E+00  0.99999998245E-14  0.12500000000E+03  0.12500000000E+03 0.  0.
        -11    1    3    3    0    0  0.28509421682E+02  0.20766651296E+02 -0.23070508425E+02  0.42146047145E+02  0.51100000000E-03 0. -1.
         23    2    1    0    0    0 -0.17035533493E+02 -0.32730335151E+01 -0.26016821763E+02  0.93730251610E+02  0.88360414793E+02 0.  0.
         11    1    3    3    0    0 -0.45544955175E+02 -0.24039684811E+02 -0.29463133378E+01  0.51584204465E+02  0.51100000000E-03 0.  1.
         22    1    1    0    0    0  0.17035533493E+02  0.32730335151E+01  0.26016821763E+02  0.31269748390E+02  0.00000000000E+00 0. -1.
</event>
<event>
 5    1  0.1103865E-009  0.9118800E+02  0.7818608E-02  0.1130116E+00
         25   -1    0    0    0    0  0.00000000000E+00  0.00000000000E+00  0.99999998245E-14  0.12500000000E+03  0.12500000000E+03 0.  0.
        -11    1    3    3    0    0 -0.32018385909E+02  0.36665430573E+01  0.83867546050E+01  0.33301024418E+02  0.51100000000E-03 0.  1.
         23    2    1    0    0    0  0.25122235452E+02 -0.88331093268E+01 -0.12724719997E+02  0.95486121341E+02  0.90810408739E+02 0.  0.
         11    1    3    3    0    0  0.57140621361E+02 -0.12499652384E+02 -0.21111474602E+02  0.62185096923E+02  0.51100000000E-03 0. -1.
         22    1    1    0    0    0 -0.25122235452E+02  0.88331093268E+01  0.12724719997E+02  0.29513878659E+02  0.00000000000E+00 0. -1.
</event>
<event>
 5    1  0.1103865E-009  0.9118800E+02  0.7818608E-02  0.1130116E+00
         25   -1    0    0    0    0  0.00000000000E+00  0.00000000000E+00  0.99999998245E-14  0.12500000000E+03  0.12500000000E+03 0.  0.
        -11    1    3    3    0    0  0.13790211110E+02  0.35474611505E+02 -0.26995961720E+02  0.46662618158E+02  0.51100000000E-03 0.  1.
         23    2    1    0    0    0 -0.61363561404E+01  0.24911366190E+02  0.15680229488E+02  0.94931733856E+02  0.90044064013E+02 0.  0.
         11    1    3    3    0    0 -0.19926567250E+02 -0.10563245315E+02  0.42676191208E+02  0.48269115698E+02  0.51100000000E-03 0. -1.
         22    1    1    0    0    0  0.61363561404E+01 -0.24911366190E+02 -0.15680229488E+02  0.30068266144E+02  0.00000000000E+00 0. -1.
</event>
<event>
 5    1  0.1103865E-009  0.9118800E+02  0.7818608E-02  0.1130116E+00
         25   -1    0    0    0    0  0.00000000000E+00  0.00000000000E+00  0.99999998245E-14  0.12500000000E+03  0.12500000000E+03 0.  0.
        -11    1    3    3    0    0 -0.33983814345E+02  0.45337501188E+02 -0.22883786594E+02  0.61106925471E+02  0.51100000000E-03 0. -1.
         23    2    1    0    0    0 -0.12186846317E+02  0.30423353609E+02 -0.86729537502E+01  0.91098380648E+02  0.84555278735E+02 0.  0.
         11    1    3    3    0    0  0.21796968028E+02 -0.14914147580E+02  0.14210832844E+02  0.29991455176E+02  0.51100000000E-03 0.  1.
         22    1    1    0    0    0  0.12186846317E+02 -0.30423353609E+02  0.86729537502E+01  0.33901619352E+02  0.00000000000E+00 0. -1.
</event>
<event>
 4    1  0.1103865E-009  0.9118800E+02  0.7818608E-02  0.1130116E+00
         25   -1    0    0    0    0  0.00000000000E+00  0.00000000000E+00  0.99999998245E-14  0.12500000000E+03  0.12500000000E+03 0.  0.
        -11    1    1    0    0    0 -0.53518224027E+01  0.29253744454E+01  0.11983477044E+02  0.13446320723E+02  0.51100000000E-03 0. -1.
         11    1    1    0    0    0 -0.21574175648E+02  0.23292828407E+02 -0.49269889947E+02  0.58613334368E+02  0.51100000000E-03 0.  1.
         22    1    1    0    0    0  0.26925998051E+02 -0.26218202853E+02  0.37286412903E+02  0.52940344909E+02  0.00000000000E+00 0.  1.
</event>
<event>
 4    1  0.1103865E-009  0.9118800E+02  0.7818608E-02  0.1130116E+00
         25   -1    0    0    0    0  0.00000000000E+00  0.00000000000E+00  0.99999998245E-14  0.12500000000E+03  0.12500000000E+03 0.  0.
        -11    1    1    0    0    0  0.51430919314E+01 -0.77184965223E+01  0.36151745859E+01  0.99547009361E+01  0.51100000000E-03 0. -1.
         11    1    1    0    0    0 -0.45899702561E+02  0.36023109003E+02 -0.21669797219E+02  0.62241683695E+02  0.51100000000E-03 0.  1.
         22    1    1    0    0    0  0.40756610629E+02 -0.28304612481E+02  0.18054622633E+02  0.52803615369E+02  0.00000000000E+00 0.  1.
</event>
<event>
 5    1  0.1103865E-009  0.9118800E+02  0.7818608E-02  0.1130116E+00
         25   -1    0    0    0    0  0.00000000000E+00  0.00000000000E+00  0.99999998245E-14  0.12500000000E+03  0.12500000000E+03 0.  0.
        -11    1    3    3    0    0 -0.24519252171E+02  0.22406756302E+02  0.12081407645E+02  0.35344262136E+02  0.51100000000E-03 0.  1.
         23    2    1    0    0    0 -0.55122825373E+01 -0.22063505978E+02 -0.21086210417E+02  0.93986908820E+02  0.88722754719E+02 0.  0.
         11    1    3    3    0    0  0.19006969634E+02 -0.44470262280E+02 -0.33167618062E+02  0.58642646684E+02  0.51100000000E-03 0. -1.
         22    1    1    0    0    0  0.55122825373E+01  0.22063505978E+02  0.21086210417E+02  0.31013091180E+02  0.00000000000E+00 0. -1.
</event>
<event>
 5    1  0.1103865E-009  0.9118800E+02  0.7818608E-02  0.1130116E+00
         25   -1    0    0    0    0  0.00000000000E+00  0.00000000000E+00  0.99999998245E-14  0.12500000000E+03  0.12500000000E+03 0.  0.
        -11    1    3    3    0    0  0.11564475183E+02  0.22029416695E+02  0.48781724597E+02  0.54760286167E+02  0.51100000000E-03 0.  1.
         23    2    1    0    0    0 -0.10305532854E+02 -0.52277200901E+01  0.26192084077E+02  0.96372070751E+02  0.92021832670E+02 0.  0.
         11    1    3    3    0    0 -0.21870008036E+02 -0.27257136785E+02 -0.22589640520E+02  0.41611784584E+02  0.51100000000E-03 0. -1.
         22    1    1    0    0    0  0.10305532854E+02  0.52277200901E+01 -0.26192084077E+02  0.28627929249E+02  0.00000000000E+00 0.  1.
</event>
<event>
 5    1  0.1103865E-009  0.9118800E+02  0.7818608E-02  0.1130116E+00
         25   -1    0    0    0    0  0.00000000000E+00  0.00000000000E+00  0.99999998245E-14  0.12500000000E+03  0.12500000000E+03 0.  0.
        -11    1    3    3    0    0 -0.44327205541E+02  0.68931809718E+00 -0.15323989620E+02  0.46906299883E+02  0.51100000000E-03 0. -1.
         23    2    1    0    0    0  0.64963278785E-01 -0.89683032521E+01 -0.29236068582E+02  0.94419248054E+02  0.89329793538E+02 0.  0.
         11    1    3    3    0    0  0.44392168820E+02 -0.96576213493E+01 -0.13912078961E+02  0.47512948172E+02  0.51100000000E-03 0.  1.
         22    1    1    0    0    0 -0.64963278785E-01  0.89683032521E+01  0.29236068582E+02  0.30580751946E+02  0.00000000000E+00 0.  1.
</event>
<event>
 5    1  0.1103865E-009  0.9118800E+02  0.7818608E-02  0.1130116E+00
         25   -1    0    0    0    0  0.00000000000E+00  0.00000000000E+00  0.99999998245E-14  0.12500000000E+03  0.12500000000E+03 0.  0.
        -11    1    3    3    0    0 -0.77261300832E+01 -0.14634361100E+02 -0.32241078376E+02  0.36240098592E+02  0.51100000000E-03 0.  1.
         23    2    1    0    0    0  0.27640258178E+02  0.67332776892E+01  0.95322162885E+01  0.94996932691E+02  0.90134528194E+02 0.  0.
         11    1    3    3    0    0  0.35366388261E+02  0.21367638789E+02  0.41773294664E+02  0.58756834099E+02  0.51100000000E-03 0. -1.
         22    1    1    0    0    0 -0.27640258178E+02 -0.67332776892E+01 -0.95322162885E+01  0.30003067309E+02  0.00000000000E+00 0. -1.
</event>
<event>
 5    1  0.1103865E-009  0.9118800E+02  0.7818608E-02  0.1130116E+00
         25   -1    0    0    0    0  0.00000000000E+00  0.00000000000E+00  0.99999998245E-14  0.12500000000E+03  0.12500000000E+03 0.  0.
        -11    1    3    3    0    0 -0.32887605088E+02 -0.41814999659E+02  0.20878141858E+01  0.53239531678E+02  0.51100000000E-03 0. -1.
         23    2    1    0    0    0 -0.16967493217E+02 -0.80837756719E+01  0.22438962287E+02  0.95729703047E+02  0.91145080843E+02 0.  0.
         11    1    3    3    0    0  0.15920111872E+02  0.33731223987E+02  0.20351148101E+02  0.42490171369E+02  0.51100000000E-03 0.  1.
         22    1    1    0    0    0  0.16967493217E+02  0.80837756719E+01 -0.22438962287E+02  0.29270296953E+02  0.00000000000E+00 0. -1.
</event>
<event>
 5    1  0.1103865E-009  0.9118800E+02  0.7818608E-02  0.1130116E+00
         25   -1    0    0    0    0  0.00000000000E+00  0.00000000000E+00  0.99999998245E-14  0.12500000000E+03  0.12500000000E+03 0.  0.
        -11    1    3    3    0    0 -0.29006844696E+02 -0.81709793506E+01 -0.47576560946E+02  0.56317768905E+02  0.51100000000E-03 0. -1.
         23    2    1    0    0    0 -0.21217255638E+02 -0.16150260627E+02 -0.84103972439E+01  0.97040428528E+02  0.92925277142E+02 0.  0.
         11    1    3    3    0    0  0.77895890584E+01 -0.79792812763E+01  0.39166163702E+02  0.40722659623E+02  0.51100000000E-03 0.  1.
         22    1    1    0    0    0  0.21217255638E+02  0.16150260627E+02  0.84103972439E+01  0.27959571472E+02  0.00000000000E+00 0. -1.
</event>
<event>
 5    1  0.1103865E-009  0.9118800E+02  0.7818608E-02  0.1130116E+00
         25   -1    0    0    0    0  0.00000000000E+00  0.00000000000E+00  0.99999998245E-14  0.12500000000E+03  0.12500000000E+03 0.  0.
        -11    1    3    3    0    0 -0.39074668175E+02  0.22206949420E+02  0.34734435133E+02  0.56801930247E+02  0.51100000000E-03 0.  1.
         23    2    1    0    0    0 -0.12883766253E+02  0.20501317862E+02 -0.55310958281E+00  0.10078014457E+03  0.97826561536E+02 0.  0.
         11    1    3    3    0    0  0.26190901923E+02 -0.17056315582E+01 -0.35287544715E+02  0.43978214321E+02  0.51100000000E-03 0. -1.
         22    1    1    0    0    0  0.12883766253E+02 -0.20501317862E+02  0.55310958281E+00  0.24219855432E+02  0.00000000000E+00 0.  1.
</event>
<event>
 5    1  0.1103865E-009  0.9118800E+02  0.7818608E-02  0.1130116E+00
         25   -1    0    0    0    0  0.00000000000E+00  0.00000000000E+00  0.99999998245E-14  0.12500000000E+03  0.12500000000E+03 0.  0.
        -11    1    3    3    0    0 -0.25212122831E+02 -0.11353739021E+02 -0.27451383460E+02  0.38963277346E+02  0.51100000000E-03 0. -1.
         23    2    1    0    0    0  0.25766298670E+02 -0.12542031289E+02 -0.11949195670E+01  0.96318428760E+02  0.91948937950E+02 0.  0.
         11    1    3    3    0    0  0.50978421501E+02 -0.11882922678E+01  0.26256463893E+02  0.57355151414E+02  0.51100000000E-03 0.  1.
         22    1    1    0    0    0 -0.25766298670E+02  0.12542031289E+02  0.11949195670E+01  0.28681571240E+02  0.00000000000E+00 0.  1.
</event>
<event>
 5    1  0.1103865E-009  0.9118800E+02  0.7818608E-02  0.1130116E+00
         25   -1    0    0    0    0  0.00000000000E+00  0.00000000000E+00  0.99999998245E-14  0.12500000000E+03  0.12500000000E+03 0.  0.
        -11    1    3    3    0    0  0.49954298679E+01  0.23167903749E+02 -0.27739189273E+02  0.36485184739E+02  0.51100000000E-03 0.  1.
         23    2    1    0    0    0 -0.12450915072E+02 -0.27080399174E+02 -0.33311896789E+01  0.95008832463E+02  0.90151029477E+02 0.  0.
         11    1    3    3    0    0 -0.17446344940E+02 -0.50248302923E+02  0.24407999594E+02  0.58523647723E+02  0.51100000000E-03 0. -1.
         22    1    1    0    0    0  0.12450915072E+02  0.27080399174E+02  0.33311896789E+01  0.29991167537E+02  0.00000000000E+00 0. -1.
</event>
<event>
 5    1  0.1103865E-009  0.9118800E+02  0.7818608E-02  0.1130116E+00
         25   -1    0    0    0    0  0.00000000000E+00  0.00000000000E+00  0.99999998245E-14  0.12500000000E+03  0.12500000000E+03 0.  0.
        -11    1    3    3    0    0  0.21867013651E+02 -0.27271197056E+02 -0.24119369847E+02  0.42469147354E+02  0.51100000000E-03 0.  1.
         23    2    1    0    0    0 -0.18462467178E+01  0.19397364541E+02 -0.23036608900E+02  0.94827964476E+02  0.89899894989E+02 0.  0.
         11    1    3    3    0    0 -0.23713260369E+02  0.46668561597E+02  0.10827609474E+01  0.52358817122E+02  0.51100000000E-03 0. -1.
         22    1    1    0    0    0  0.18462467178E+01 -0.19397364541E+02  0.23036608900E+02  0.30172035524E+02  0.00000000000E+00 0. -1.
</event>
<event>
 5    1  0.1103865E-009  0.9118800E+02  0.7818608E-02  0.1130116E+00
         25   -1    0    0    0    0  0.00000000000E+00  0.00000000000E+00  0.99999998245E-14  0.12500000000E+03  0.12500000000E+03 0.  0.
        -11    1    3    3    0    0  0.15613989527E+02  0.49106036123E+01 -0.32109407104E+02  0.36040598242E+02  0.51100000000E-03 0.  1.
         23    2    1    0    0    0  0.41243694108E+01 -0.18495546556E+01  0.27504355662E+02  0.97126699947E+02  0.93041254220E+02 0.  0.
         11    1    3    3    0    0 -0.11489620116E+02 -0.67601582679E+01  0.59613762766E+02  0.61086101706E+02  0.51100000000E-03 0. -1.
         22    1    1    0    0    0 -0.41243694108E+01  0.18495546556E+01 -0.27504355662E+02  0.27873300053E+02  0.00000000000E+00 0. -1.
</event>
<event>
 5    1  0.1103865E-009  0.9118800E+02  0.7818608E-02  0.1130116E+00
         25   -1    0    0    0    0  0.00000000000E+00  0.00000000000E+00  0.99999998245E-14  0.12500000000E+03  0.12500000000E+03 0.  0.
        -11    1    3    3    0    0  0.22387557155E+02  0.38861017388E+02  0.39281885806E+02  0.59619191042E+02  0.51100000000E-03 0. -1.
         23    2    1    0    0    0  0.74752813838E+01  0.78951678025E+01  0.26617226484E+02  0.96247778310E+02  0.91852841967E+02 0.  0.
         11    1    3    3    0    0 -0.14912275771E+02 -0.30965849586E+02 -0.12664659322E+02  0.36628587268E+02  0.51100000000E-03 0.  1.
         22    1    1    0    0    0 -0.74752813838E+01 -0.78951678025E+01 -0.26617226484E+02  0.28752221690E+02  0.00000000000E+00 0. -1.
</event>
<event>
 5    1  0.1103865E-009  0.9118800E+02  0.7818608E-02  0.1130116E+00
         25   -1    0    0    0    0  0.00000000000E+00  0.00000000000E+00  0.99999998245E-14  0.12500000000E+03  0.12500000000E+03 0.  0.
        -11    1    3    3    0    0 -0.38996351213E+02 -0.98913131852E+01 -0.21893288075E+02  0.45802505908E+02  0.51100000000E-03 0.  1.
         23    2    1    0    0    0 -0.93207333044E+01 -0.19353306899E+02  0.18389508868E+02  0.96722790208E+02  0.92497013746E+02 0.  0.
         11    1    3    3    0    0  0.29675617909E+02 -0.94619937133E+01  0.40282796943E+02  0.50920284299E+02  0.51100000000E-03 0. -1.
         22    1    1    0    0    0  0.93207333044E+01  0.19353306899E+02 -0.18389508868E+02  0.28277209792E+02  0.00000000000E+00 0. -1.
</event>
<event>
 5    1  0.1103865E-009  0.9118800E+02  0.7818608E-02  0.1130116E+00
         25   -1    0    0    0    0  0.00000000000E+00  0.00000000000E+00  0.99999998245E-14  0.12500000000E+03  0.12500000000E+03 0.  0.
        -11    1    3    3    0    0 -0.42268245146E+02  0.18271676709E+02  0.58891261285E+01  0.46423491082E+02  0.51100000000E-03 0.  1.
         23    2    1    0    0    0 -0.10217003877E+02  0.50654370263E+01 -0.27916821784E+02  0.94843827182E+02  0.89921948353E+02 0.  0.
         11    1    3    3    0    0  0.32051241269E+02 -0.13206239683E+02 -0.33805947913E+02  0.48420336100E+02  0.51100000000E-03 0. -1.
         22    1    1    0    0    0  0.10217003877E+02 -0.50654370263E+01  0.27916821784E+02  0.30156172818E+02  0.00000000000E+00 0. -1.
</event>
<event>
 5    1  0.1103865E-009  0.9118800E+02  0.7818608E-02  0.1130116E+00
         25   -1    0    0    0    0  0.00000000000E+00  0.00000000000E+00  0.99999998245E-14  0.12500000000E+03  0.12500000000E+03 0.  0.
        -11    1    3    3    0    0 -0.32521995865E+02 -0.17341455983E+02 -0.19769672559E+02  0.41823991488E+02  0.51100000000E-03 0. -1.
         23    2    1    0    0    0  0.12752957578E+01  0.18760043278E+02 -0.27304324479E+02  0.91847447484E+02  0.85655483601E+02 0.  0.
         11    1    3    3    0    0  0.33797291623E+02  0.36101499261E+02 -0.75346519207E+01  0.50023455996E+02  0.51100000000E-03 0.  1.
         22    1    1    0    0    0 -0.12752957578E+01 -0.18760043278E+02  0.27304324479E+02  0.33152552516E+02  0.00000000000E+00 0. -1.
</event>
<event>
 5    1  0.1103865E-009  0.9118800E+02  0.7818608E-02  0.1130116E+00
         25   -1    0    0    0    0  0.00000000000E+00  0.00000000000E+00  0.99999998245E-14  0.12500000000E+03  0.12500000000E+03 0.  0.
        -11    1    3    3    0    0 -0.29270465715E+02  0.14439807686E+02 -0.27368502920E+02  0.42594637708E+02  0.51100000000E-03 0.  1.
         23    2    1    0    0    0  0.14961403803E+02  0.21584139376E+02  0.55060377421E+01  0.98166529707E+02  0.94427921859E+02 0.  0.
         11    1    3    3    0    0  0.44231869518E+02  0.71443316908E+01  0.32874540662E+02  0.55571891999E+02  0.51100000000E-03 0. -1.
         22    1    1    0    0    0 -0.14961403803E+02 -0.21584139376E+02 -0.55060377421E+01  0.26833470293E+02  0.00000000000E+00 0. -1.
</event>
<event>
 5    1  0.1103865E-009  0.9118800E+02  0.7818608E-02  0.1130116E+00
         25   -1    0    0    0    0  0.00000000000E+00  0.00000000000E+00  0.99999998245E-14  0.12500000000E+03  0.12500000000E+03 0.  0.
        -11    1    3    3    0    0 -0.94632477966E+01 -0.40593472996E+02 -0.22515829633E+02  0.47374525782E+02  0.51100000000E-03 0.  1.
         23    2    1    0    0    0 -0.28967216824E+02 -0.28296172487E+01  0.86104646637E+00  0.95882174097E+02  0.91353946408E+02 0.  0.
         11    1    3    3    0    0 -0.19503969027E+02  0.37763855747E+02  0.23376876099E+02  0.48507648316E+02  0.51100000000E-03 0. -1.
         22    1    1    0    0    0  0.28967216824E+02  0.28296172487E+01 -0.86104646637E+00  0.29117825903E+02  0.00000000000E+00 0. -1.
</event>
<event>
 5    1  0.1103865E-009  0.9118800E+02  0.7818608E-02  0.1130116E+00
         25   -1    0    0    0    0  0.00000000000E+00  0.00000000000E+00  0.99999998245E-14  0.12500000000E+03  0.12500000000E+03 0.  0.
        -11    1    3    3    0    0  0.23707895854E+02  0.26487020214E+02  0.67399465663E+01  0.36180843628E+02  0.51100000000E-03 0.  1.
         23    2    1    0    0    0 -0.43868709686E+01 -0.25509034518E+02  0.13741569262E+02  0.95694945748E+02  0.91097400824E+02 0.  0.
         11    1    3    3    0    0 -0.28094766823E+02 -0.51996054732E+02  0.70016226952E+01  0.59514102120E+02  0.51100000000E-03 0. -1.
         22    1    1    0    0    0  0.43868709686E+01  0.25509034518E+02 -0.13741569262E+02  0.29305054252E+02  0.00000000000E+00 0. -1.
</event>
<event>
 5    1  0.1103865E-009  0.9118800E+02  0.7818608E-02  0.1130116E+00
         25   -1    0    0    0    0  0.00000000000E+00  0.00000000000E+00  0.99999998245E-14  0.12500000000E+03  0.12500000000E+03 0.  0.
        -11    1    3    3    0    0  0.44090565089E+01 -0.13121534211E+02 -0.35983751555E+02  0.38554439636E+02  0.51100000000E-03 0.  1.
         23    2    1    0    0    0  0.77189888303E+01 -0.13949156697E+02  0.22658003917E+02  0.97295363157E+02  0.93267576301E+02 0.  0.
         11    1    3    3    0    0  0.33099323213E+01 -0.82762248620E+00  0.58641755472E+02  0.58740923521E+02  0.51100000000E-03 0. -1.
         22    1    1    0    0    0 -0.77189888303E+01  0.13949156697E+02 -0.22658003917E+02  0.27704636843E+02  0.00000000000E+00 0. -1.
</event>
<event>
 5    1  0.1103865E-009  0.9118800E+02  0.7818608E-02  0.1130116E+00
         25   -1    0    0    0    0  0.00000000000E+00  0.00000000000E+00  0.99999998245E-14  0.12500000000E+03  0.12500000000E+03 0.  0.
        -11    1    3    3    0    0 -0.14268837320E+02  0.48000670329E+01 -0.59562616907E+02  0.61435703748E+02  0.51100000000E-03 0.  1.
         23    2    1    0    0    0 -0.13682800491E+02  0.53060453330E+01 -0.24972227040E+02  0.96034757559E+02  0.91562488988E+02 0.  0.
         11    1    3    3    0    0  0.58603682906E+00  0.50597830011E+00  0.34590389867E+02  0.34599053811E+02  0.51100000000E-03 0. -1.
         22    1    1    0    0    0  0.13682800491E+02 -0.53060453330E+01  0.24972227040E+02  0.28965242441E+02  0.00000000000E+00 0.  1.
</event>
<event>
 5    1  0.1103865E-009  0.9118800E+02  0.7818608E-02  0.1130116E+00
         25   -1    0    0    0    0  0.00000000000E+00  0.00000000000E+00  0.99999998245E-14  0.12500000000E+03  0.12500000000E+03 0.  0.
        -11    1    3    3    0    0 -0.18650420109E+02 -0.33486380845E+02  0.46005363562E+02  0.59880458825E+02  0.51100000000E-03 0.  1.
         23    2    1    0    0    0 -0.19344426505E+01 -0.40748581495E+01  0.24769325383E+02  0.99823304085E+02  0.96596200863E+02 0.  0.
         11    1    3    3    0    0  0.16715977458E+02  0.29411522695E+02 -0.21236038179E+02  0.39942845260E+02  0.51100000000E-03 0. -1.
         22    1    1    0    0    0  0.19344426505E+01  0.40748581495E+01 -0.24769325383E+02  0.25176695915E+02  0.00000000000E+00 0.  1.
</event>
<event>
 5    1  0.1103865E-009  0.9118800E+02  0.7818608E-02  0.1130116E+00
         25   -1    0    0    0    0  0.00000000000E+00  0.00000000000E+00  0.99999998245E-14  0.12500000000E+03  0.12500000000E+03 0.  0.
        -11    1    3    3    0    0  0.65323384584E+01 -0.50417561039E+02 -0.28937963391E+02  0.58497928445E+02  0.51100000000E-03 0. -1.
         23    2    1    0    0    0  0.15950351166E+02 -0.24023824376E+02 -0.42374237328E+01  0.95853583413E+02  0.91314817271E+02 0.  0.
         11    1    3    3    0    0  0.94180127080E+01  0.26393736663E+02  0.24700539658E+02  0.37355654968E+02  0.51100000000E-03 0.  1.
         22    1    1    0    0    0 -0.15950351166E+02  0.24023824376E+02  0.42374237328E+01  0.29146416587E+02  0.00000000000E+00 0. -1.
</event>
<event>
 5    1  0.1103865E-009  0.9118800E+02  0.7818608E-02  0.1130116E+00
         25   -1    0    0    0    0  0.00000000000E+00  0.00000000000E+00  0.99999998245E-14  0.12500000000E+03  0.12500000000E+03 0.  0.
        -11    1    3    3    0    0  0.15221657191E+02  0.33197366291E+02 -0.47114614045E+02  0.59611666922E+02  0.51100000000E-03 0.  1.
         23    2    1    0    0    0  0.19079430450E+02  0.97196597227E+01 -0.19794112698E+02  0.95840038599E+02  0.91296274019E+02 0.  0.
         11    1    3    3    0    0  0.38577732587E+01 -0.23477706568E+02  0.27320501348E+02  0.36228371677E+02  0.51100000000E-03 0. -1.
         22    1    1    0    0    0 -0.19079430450E+02 -0.97196597227E+01  0.19794112698E+02  0.29159961401E+02  0.00000000000E+00 0.  1.
</event>
<event>
 5    1  0.1103865E-009  0.9118800E+02  0.7818608E-02  0.1130116E+00
         25   -1    0    0    0    0  0.00000000000E+00  0.00000000000E+00  0.99999998245E-14  0.12500000000E+03  0.12500000000E+03 0.  0.
        -11    1    3    3    0    0  0.18745210880E+02 -0.11860838795E+02 -0.29130769751E+02  0.36615081242E+02  0.51100000000E-03 0.  1.
         23    2    1    0    0    0  0.10553321371E+02  0.28914519509E+01  0.27339223935E+02  0.95552313304E+02  0.90901475929E+02 0.  0.
         11    1    3    3    0    0 -0.81918895087E+01  0.14752290746E+02  0.56469993686E+02  0.58937232062E+02  0.51100000000E-03 0. -1.
         22    1    1    0    0    0 -0.10553321371E+02 -0.28914519509E+01 -0.27339223935E+02  0.29447686696E+02  0.00000000000E+00 0. -1.
</event>
<event>
 5    1  0.1103865E-009  0.9118800E+02  0.7818608E-02  0.1130116E+00
         25   -1    0    0    0    0  0.00000000000E+00  0.00000000000E+00  0.99999998245E-14  0.12500000000E+03  0.12500000000E+03 0.  0.
        -11    1    3    3    0    0  0.88880503488E+01  0.48474697318E+02 -0.16826110455E+02  0.52076018592E+02  0.51100000000E-03 0. -1.
         23    2    1    0    0    0 -0.16881903704E+02  0.22732183899E+02  0.72908482106E+01  0.95761201716E+02  0.91188269141E+02 0.  0.
         11    1    3    3    0    0 -0.25769954053E+02 -0.25742513420E+02  0.24116958666E+02  0.43685183124E+02  0.51100000000E-03 0.  1.
         22    1    1    0    0    0  0.16881903704E+02 -0.22732183899E+02 -0.72908482106E+01  0.29238798284E+02  0.00000000000E+00 0.  1.
</event>
<event>
 5    1  0.1103865E-009  0.9118800E+02  0.7818608E-02  0.1130116E+00
         25   -1    0    0    0    0  0.00000000000E+00  0.00000000000E+00  0.99999998245E-14  0.12500000000E+03  0.12500000000E+03 0.  0.
        -11    1    3    3    0    0 -0.24468489847E+02  0.32299482424E+02  0.12149402062E+02  0.42303327658E+02  0.51100000000E-03 0.  1.
         23    2    1    0    0    0  0.99339438811E+01  0.79470616398E+01 -0.24003639310E+02  0.97833591886E+02  0.93986158403E+02 0.  0.
         11    1    3    3    0    0  0.34402433728E+02 -0.24352420785E+02 -0.36153041372E+02  0.55530264227E+02  0.51100000000E-03 0. -1.
         22    1    1    0    0    0 -0.99339438811E+01 -0.79470616398E+01  0.24003639310E+02  0.27166408114E+02  0.00000000000E+00 0. -1.
</event>
<event>
 5    1  0.1103865E-009  0.9118800E+02  0.7818608E-02  0.1130116E+00
         25   -1    0    0    0    0  0.00000000000E+00  0.00000000000E+00  0.99999998245E-14  0.12500000000E+03  0.12500000000E+03 0.  0.
        -11    1    3    3    0    0 -0.31101994971E+02  0.74876611731E+01  0.37934001917E+01  0.32214733373E+02  0.51100000000E-03 0. -1.
         23    2    1    0    0    0  0.29962833502E+02 -0.49201593999E+01  0.23679783284E+01  0.94543692257E+02  0.89503760056E+02 0.  0.
         11    1    3    3    0    0  0.61064828473E+02 -0.12407820573E+02 -0.14254218633E+01  0.62328958884E+02  0.51100000000E-03 0.  1.
         22    1    1    0    0    0 -0.29962833502E+02  0.49201593999E+01 -0.23679783284E+01  0.30456307743E+02  0.00000000000E+00 0.  1.
</event>
<event>
 5    1  0.1103865E-009  0.9118800E+02  0.7818608E-02  0.1130116E+00
         25   -1    0    0    0    0  0.00000000000E+00  0.00000000000E+00  0.99999998245E-14  0.12500000000E+03  0.12500000000E+03 0.  0.
        -11    1    3    3    0    0 -0.17475563986E+02  0.11001868964E+02 -0.30901460970E+02  0.37166338906E+02  0.51100000000E-03 0.  1.
         23    2    1    0    0    0 -0.12334781407E+01  0.15216015924E+02  0.25096945373E+02  0.95624750622E+02  0.91001031069E+02 0.  0.
         11    1    3    3    0    0  0.16242085846E+02  0.42141469606E+01  0.55998406343E+02  0.58458411717E+02  0.51100000000E-03 0. -1.
         22    1    1    0    0    0  0.12334781407E+01 -0.15216015924E+02 -0.25096945373E+02  0.29375249378E+02  0.00000000000E+00 0. -1.
</event>
<event>
 5    1  0.1103865E-009  0.9118800E+02  0.7818608E-02  0.1130116E+00
         25   -1    0    0    0    0  0.00000000000E+00  0.00000000000E+00  0.99999998245E-14  0.12500000000E+03  0.12500000000E+03 0.  0.
        -11    1    3    3    0    0 -0.53700714914E+02 -0.38578642162E+01  0.22191367008E+02  0.58233209327E+02  0.51100000000E-03 0. -1.
         23    2    1    0    0    0 -0.24208495989E+02  0.11123230700E+02  0.20551135164E+02  0.91352909549E+02  0.84930721104E+02 0.  0.
         11    1    3    3    0    0  0.29492218925E+02  0.14981094917E+02 -0.16402318443E+01  0.33119700222E+02  0.51100000000E-03 0.  1.
         22    1    1    0    0    0  0.24208495989E+02 -0.11123230700E+02 -0.20551135164E+02  0.33647090451E+02  0.00000000000E+00 0. -1.
</event>
<event>
 5    1  0.1103865E-009  0.9118800E+02  0.7818608E-02  0.1130116E+00
         25   -1    0    0    0    0  0.00000000000E+00  0.00000000000E+00  0.99999998245E-14  0.12500000000E+03  0.12500000000E+03 0.  0.
        -11    1    3    3    0    0 -0.29458747359E+01 -0.25446358565E+02  0.25050803131E+02  0.35829290810E+02  0.51100000000E-03 0. -1.
         23    2    1    0    0    0  0.73981958900E+01  0.27714365530E+02 -0.17622546777E+01  0.96261090822E+02  0.91870956812E+02 0.  0.
         11    1    3    3    0    0  0.10344070626E+02  0.53160724095E+02 -0.26813057809E+02  0.60431800012E+02  0.51100000000E-03 0.  1.
         22    1    1    0    0    0 -0.73981958900E+01 -0.27714365530E+02  0.17622546777E+01  0.28738909178E+02  0.00000000000E+00 0.  1.
</event>
<event>
 5    1  0.1103865E-009  0.9118800E+02  0.7818608E-02  0.1130116E+00
         25   -1    0    0    0    0  0.00000000000E+00  0.00000000000E+00  0.99999998245E-14  0.12500000000E+03  0.12500000000E+03 0.  0.
        -11    1    3    3    0    0  0.49574890423E+02 -0.20627526208E+02 -0.22780732170E+02  0.58327749454E+02  0.51100000000E-03 0.  1.
         23    2    1    0    0    0  0.21312359591E+02  0.22338034743E+01 -0.21415040520E+02  0.94704612401E+02  0.89728217971E+02 0.  0.
         11    1    3    3    0    0 -0.28262530832E+02  0.22861329682E+02  0.13656916495E+01  0.36376862946E+02  0.51100000000E-03 0. -1.
         22    1    1    0    0    0 -0.21312359591E+02 -0.22338034743E+01  0.21415040520E+02  0.30295387599E+02  0.00000000000E+00 0. -1.
</event>
<event>
 5    1  0.1103865E-009  0.9118800E+02  0.7818608E-02  0.1130116E+00
         25   -1    0    0    0    0  0.00000000000E+00  0.00000000000E+00  0.99999998245E-14  0.12500000000E+03  0.12500000000E+03 0.  0.
        -11    1    3    3    0    0  0.32638675198E+02  0.19121372536E+02 -0.17646708623E+02  0.41741062898E+02  0.51100000000E-03 0. -1.
         23    2    1    0    0    0 -0.17237373337E+02 -0.12419195948E+01 -0.23388717523E+02  0.95919052436E+02  0.91404393269E+02 0.  0.
         11    1    3    3    0    0 -0.49876048536E+02 -0.20363292131E+02 -0.57420088999E+01  0.54177989538E+02  0.51100000000E-03 0.  1.
         22    1    1    0    0    0  0.17237373337E+02  0.12419195948E+01  0.23388717523E+02  0.29080947564E+02  0.00000000000E+00 0.  1.
</event>
<event>
 5    1  0.1103865E-009  0.9118800E+02  0.7818608E-02  0.1130116E+00
         25   -1    0    0    0    0  0.00000000000E+00  0.00000000000E+00  0.99999998245E-14  0.12500000000E+03  0.12500000000E+03 0.  0.
        -11    1    3    3    0    0  0.21083442764E+02  0.15183763628E+02 -0.21550310681E+02  0.33756097633E+02  0.51100000000E-03 0.  1.
         23    2    1    0    0    0  0.12871949837E+01 -0.10707143702E+02  0.29088546939E+02  0.93976728731E+02  0.88708411004E+02 0.  0.
         11    1    3    3    0    0 -0.19796247780E+02 -0.25890907330E+02  0.50638857620E+02  0.60220631098E+02  0.51100000000E-03 0. -1.
         22    1    1    0    0    0 -0.12871949837E+01  0.10707143702E+02 -0.29088546939E+02  0.31023271269E+02  0.00000000000E+00 0. -1.
</event>
<event>
 5    1  0.1103865E-009  0.9118800E+02  0.7818608E-02  0.1130116E+00
         25   -1    0    0    0    0  0.00000000000E+00  0.00000000000E+00  0.99999998245E-14  0.12500000000E+03  0.12500000000E+03 0.  0.
        -11    1    3    3    0    0 -0.21806085296E+02  0.18746277650E+02  0.33904856483E+02  0.44457480530E+02  0.51100000000E-03 0. -1.
         23    2    1    0    0    0  0.23562271243E+02  0.94539926494E+01  0.47772046505E+01  0.99166295515E+02  0.95742226206E+02 0.  0.
         11    1    3    3    0    0  0.45368356539E+02 -0.92922850003E+01 -0.29127651833E+02  0.54708814985E+02  0.51100000000E-03 0.  1.
         22    1    1    0    0    0 -0.23562271243E+02 -0.94539926494E+01 -0.47772046505E+01  0.25833704485E+02  0.00000000000E+00 0.  1.
</event>
<event>
 5    1  0.1103865E-009  0.9118800E+02  0.7818608E-02  0.1130116E+00
         25   -1    0    0    0    0  0.00000000000E+00  0.00000000000E+00  0.99999998245E-14  0.12500000000E+03  0.12500000000E+03 0.  0.
        -11    1    3    3    0    0  0.18440804024E+02 -0.62675423112E+01 -0.53419750055E+02  0.56859608123E+02  0.51100000000E-03 0. -1.
         23    2    1    0    0    0 -0.10353570928E+02 -0.32192859518E+01 -0.26386056282E+02  0.96473096924E+02  0.92158961751E+02 0.  0.
         11    1    3    3    0    0 -0.28794374952E+02  0.30482563594E+01  0.27033693773E+02  0.39613488801E+02  0.51100000000E-03 0.  1.
         22    1    1    0    0    0  0.10353570928E+02  0.32192859518E+01  0.26386056282E+02  0.28526903076E+02  0.00000000000E+00 0. -1.
</event>
<event>
 5    1  0.1103865E-009  0.9118800E+02  0.7818608E-02  0.1130116E+00
         25   -1    0    0    0    0  0.00000000000E+00  0.00000000000E+00  0.99999998245E-14  0.12500000000E+03  0.12500000000E+03 0.  0.
        -11    1    3    3    0    0  0.53947648283E+02 -0.19105105058E+02 -0.79737457818E-02  0.57230707303E+02  0.51100000000E-03 0.  1.
         23    2    1    0    0    0  0.43832566523E+02  0.22560879502E+01  0.27343722128E+01  0.81024317945E+02  0.68052035137E+02 0.  0.
         11    1    3    3    0    0 -0.10115081761E+02  0.21361193008E+02  0.27423459586E+01  0.23793610642E+02  0.51100000000E-03 0. -1.
         22    1    1    0    0    0 -0.43832566523E+02 -0.22560879502E+01 -0.27343722128E+01  0.43975682055E+02  0.00000000000E+00 0.  1.
</event>
<event>
 5    1  0.1103865E-009  0.9118800E+02  0.7818608E-02  0.1130116E+00
         25   -1    0    0    0    0  0.00000000000E+00  0.00000000000E+00  0.99999998245E-14  0.12500000000E+03  0.12500000000E+03 0.  0.
        -11    1    3    3    0    0  0.16900288202E+02 -0.34370588181E+01  0.29252459307E+02  0.33957907627E+02  0.51100000000E-03 0.  1.
         23    2    1    0    0    0 -0.74176516973E+01  0.49323815836E-01 -0.27880981982E+02  0.96149122269E+02  0.91718485418E+02 0.  0.
         11    1    3    3    0    0 -0.24317939899E+02  0.34863826339E+01 -0.57133441289E+02  0.62191214642E+02  0.51100000000E-03 0. -1.
         22    1    1    0    0    0  0.74176516973E+01 -0.49323815836E-01  0.27880981982E+02  0.28850877731E+02  0.00000000000E+00 0. -1.
</event>
<event>
 5    1  0.1103865E-009  0.9118800E+02  0.7818608E-02  0.1130116E+00
         25   -1    0    0    0    0  0.00000000000E+00  0.00000000000E+00  0.99999998245E-14  0.12500000000E+03  0.12500000000E+03 0.  0.
        -11    1    3    3    0    0 -0.54554573206E+02  0.44553223667E+01 -0.20265686332E+02  0.58367365864E+02  0.51100000000E-03 0.  1.
         23    2    1    0    0    0 -0.24127141517E+02 -0.13556316680E+02 -0.50168274583E+01  0.96874189123E+02  0.92701387696E+02 0.  0.
         11    1    3    3    0    0  0.30427431689E+02 -0.18011639047E+02  0.15248858874E+02  0.38506823260E+02  0.51100000000E-03 0. -1.
         22    1    1    0    0    0  0.24127141517E+02  0.13556316680E+02  0.50168274583E+01  0.28125810877E+02  0.00000000000E+00 0.  1.
</event>
<event>
 5    1  0.1103865E-009  0.9118800E+02  0.7818608E-02  0.1130116E+00
         25   -1    0    0    0    0  0.00000000000E+00  0.00000000000E+00  0.99999998245E-14  0.12500000000E+03  0.12500000000E+03 0.  0.
        -11    1    3    3    0    0 -0.21292018153E+02  0.32683376478E+02  0.14576508823E+02  0.41641658766E+02  0.51100000000E-03 0. -1.
         23    2    1    0    0    0 -0.99602199070E+01  0.60143220932E+00 -0.27495411664E+02  0.95749951045E+02  0.91172845525E+02 0.  0.
         11    1    3    3    0    0  0.11331798246E+02 -0.32081944269E+02 -0.42071920488E+02  0.54108292279E+02  0.51100000000E-03 0.  1.
         22    1    1    0    0    0  0.99602199070E+01 -0.60143220932E+00  0.27495411664E+02  0.29250048955E+02  0.00000000000E+00 0.  1.
</event>
<event>
 5    1  0.1103865E-009  0.9118800E+02  0.7818608E-02  0.1130116E+00
         25   -1    0    0    0    0  0.00000000000E+00  0.00000000000E+00  0.99999998245E-14  0.12500000000E+03  0.12500000000E+03 0.  0.
        -11    1    3    3    0    0  0.35899722394E+02  0.12316105074E+02 -0.18629497127E+01  0.37999303863E+02  0.51100000000E-03 0. -1.
         23    2    1    0    0    0 -0.20924770492E+02  0.20825440514E+02 -0.46468068440E+00  0.95474402278E+02  0.90794276083E+02 0.  0.
         11    1    3    3    0    0 -0.56824492885E+02  0.85093354396E+01  0.13982690283E+01  0.57475098415E+02  0.51100000000E-03 0.  1.
         22    1    1    0    0    0  0.20924770492E+02 -0.20825440514E+02  0.46468068440E+00  0.29525597722E+02  0.00000000000E+00 0.  1.
</event>
<event>
 5    1  0.1103865E-009  0.9118800E+02  0.7818608E-02  0.1130116E+00
         25   -1    0    0    0    0  0.00000000000E+00  0.00000000000E+00  0.99999998245E-14  0.12500000000E+03  0.12500000000E+03 0.  0.
        -11    1    3    3    0    0 -0.18909976544E+02  0.32242287619E+02 -0.86879150733E+01  0.38374890129E+02  0.51100000000E-03 0.  1.
         23    2    1    0    0    0 -0.25612445926E+02 -0.11158403730E+02 -0.27177843930E+02  0.86023820598E+02  0.76687385856E+02 0.  0.
         11    1    3    3    0    0 -0.67024693820E+01 -0.43400691349E+02 -0.18489928857E+02  0.47648930469E+02  0.51100000000E-03 0. -1.
         22    1    1    0    0    0  0.25612445926E+02  0.11158403730E+02  0.27177843930E+02  0.38976179402E+02  0.00000000000E+00 0. -1.
</event>
<event>
 5    1  0.1103865E-009  0.9118800E+02  0.7818608E-02  0.1130116E+00
         25   -1    0    0    0    0  0.00000000000E+00  0.00000000000E+00  0.99999998245E-14  0.12500000000E+03  0.12500000000E+03 0.  0.
        -11    1    3    3    0    0 -0.15745385437E+02 -0.19361972746E+02  0.50400848999E+02  0.56240988001E+02  0.51100000000E-03 0.  1.
         23    2    1    0    0    0 -0.23150981329E+02 -0.12960174626E+02  0.11980640004E+02  0.95888665476E+02  0.91362828158E+02 0.  0.
         11    1    3    3    0    0 -0.74055958924E+01  0.64017981204E+01 -0.38420208995E+02  0.39647677476E+02  0.51100000000E-03 0. -1.
         22    1    1    0    0    0  0.23150981329E+02  0.12960174626E+02 -0.11980640004E+02  0.29111334524E+02  0.00000000000E+00 0.  1.
</event>
<event>
 5    1  0.1103865E-009  0.9118800E+02  0.7818608E-02  0.1130116E+00
         25   -1    0    0    0    0  0.00000000000E+00  0.00000000000E+00  0.99999998245E-14  0.12500000000E+03  0.12500000000E+03 0.  0.
        -11    1    3    3    0    0  0.35491303017E+00 -0.15392359669E+02 -0.46499421525E+02  0.48982107976E+02  0.51100000000E-03 0.  1.
         23    2    1    0    0    0  0.23131443806E+02  0.10179151303E+02 -0.14429024681E+02  0.95898873440E+02  0.91376793334E+02 0.  0.
         11    1    3    3    0    0  0.22776530776E+02  0.25571510972E+02  0.32070396844E+02  0.46916765464E+02  0.51100000000E-03 0. -1.
         22    1    1    0    0    0 -0.23131443806E+02 -0.10179151303E+02  0.14429024681E+02  0.29101126560E+02  0.00000000000E+00 0. -1.
</event>
<event>
 5    1  0.1103865E-009  0.9118800E+02  0.7818608E-02  0.1130116E+00
         25   -1    0    0    0    0  0.00000000000E+00  0.00000000000E+00  0.99999998245E-14  0.12500000000E+03  0.12500000000E+03 0.  0.
        -11    1    3    3    0    0 -0.85931534766E+01 -0.31762351634E+02 -0.19950686277E+02  0.38480113711E+02  0.51100000000E-03 0.  1.
         23    2    1    0    0    0  0.13725236539E+02  0.21237519611E+02 -0.13464242044E+02  0.96352134964E+02  0.91994748443E+02 0.  0.
         11    1    3    3    0    0  0.22318390016E+02  0.52999871245E+02  0.64864442330E+01  0.57872021253E+02  0.51100000000E-03 0. -1.
         22    1    1    0    0    0 -0.13725236539E+02 -0.21237519611E+02  0.13464242044E+02  0.28647865036E+02  0.00000000000E+00 0. -1.
</event>
<event>
 5    1  0.1103865E-009  0.9118800E+02  0.7818608E-02  0.1130116E+00
         25   -1    0    0    0    0  0.00000000000E+00  0.00000000000E+00  0.99999998245E-14  0.12500000000E+03  0.12500000000E+03 0.  0.
        -11    1    3    3    0    0  0.89575557039E+01 -0.11330359050E+02 -0.30373250239E+02  0.33632561168E+02  0.51100000000E-03 0.  1.
         23    2    1    0    0    0  0.16887823872E+01 -0.59603548228E+01  0.29841778146E+02  0.94521982701E+02  0.89473435584E+02 0.  0.
         11    1    3    3    0    0 -0.72687733168E+01  0.53700042273E+01  0.60215028385E+02  0.60889421533E+02  0.51100000000E-03 0. -1.
         22    1    1    0    0    0 -0.16887823872E+01  0.59603548228E+01 -0.29841778146E+02  0.30478017299E+02  0.00000000000E+00 0. -1.
</event>
<event>
 4    1  0.1103865E-009  0.9118800E+02  0.7818608E-02  0.1130116E+00
         25   -1    0    0    0    0  0.00000000000E+00  0.00000000000E+00  0.99999998245E-14  0.12500000000E+03  0.12500000000E+03 0.  0.
        -11    1    1    0    0    0  0.54414672156E+01 -0.67280346813E+01 -0.93672865607E+01  0.12752336017E+02  0.51100000000E-03 0. -1.
         11    1    1    0    0    0 -0.41343567024E+00 -0.25750313519E+02  0.52230643376E+02  0.58234780700E+02  0.51100000000E-03 0.  1.
         22    1    1    0    0    0 -0.50280315454E+01  0.32478348201E+02 -0.42863356815E+02  0.54012883283E+02  0.00000000000E+00 0.  1.
</event>
<event>
 5    1  0.1103865E-009  0.9118800E+02  0.7818608E-02  0.1130116E+00
         25   -1    0    0    0    0  0.00000000000E+00  0.00000000000E+00  0.99999998245E-14  0.12500000000E+03  0.12500000000E+03 0.  0.
        -11    1    3    3    0    0  0.64859064209E+01  0.97910977278E+01  0.43399460782E+02  0.44960491248E+02  0.51100000000E-03 0. -1.
         23    2    1    0    0    0 -0.34343048016E+01  0.37476551441E+02  0.21215044417E+02  0.81798559434E+02  0.69459627544E+02 0.  0.
         11    1    3    3    0    0 -0.99202112225E+01  0.27685453713E+02 -0.22184416365E+02  0.36838068186E+02  0.51100000000E-03 0.  1.
         22    1    1    0    0    0  0.34343048016E+01 -0.37476551441E+02 -0.21215044417E+02  0.43201440566E+02  0.00000000000E+00 0. -1.
</event>
<event>
 5    1  0.1103865E-009  0.9118800E+02  0.7818608E-02  0.1130116E+00
         25   -1    0    0    0    0  0.00000000000E+00  0.00000000000E+00  0.99999998245E-14  0.12500000000E+03  0.12500000000E+03 0.  0.
        -11    1    3    3    0    0  0.31041958791E+02  0.35805649760E+02  0.22526038062E+02  0.52469706987E+02  0.51100000000E-03 0. -1.
         23    2    1    0    0    0 -0.76852263554E+01  0.52396534166E+01  0.21228554398E+02  0.10182311078E+03  0.99150278341E+02 0.  0.
         11    1    3    3    0    0 -0.38727185147E+02 -0.30565996343E+02 -0.12974836640E+01  0.49353403793E+02  0.51100000000E-03 0.  1.
         22    1    1    0    0    0  0.76852263554E+01 -0.52396534166E+01 -0.21228554398E+02  0.23176889220E+02  0.00000000000E+00 0. -1.
</event>
<event>
 5    1  0.1103865E-009  0.9118800E+02  0.7818608E-02  0.1130116E+00
         25   -1    0    0    0    0  0.00000000000E+00  0.00000000000E+00  0.99999998245E-14  0.12500000000E+03  0.12500000000E+03 0.  0.
        -11    1    3    3    0    0  0.15636670909E+02  0.49033787632E+02 -0.32618913389E+02  0.60932842684E+02  0.51100000000E-03 0.  1.
         23    2    1    0    0    0  0.15662494685E+02  0.18162976783E+02 -0.11042276025E+02  0.98596603908E+02  0.94995531352E+02 0.  0.
         11    1    3    3    0    0  0.25823776239E-01 -0.30870810849E+02  0.21576637363E+02  0.37663761223E+02  0.51100000000E-03 0. -1.
         22    1    1    0    0    0 -0.15662494685E+02 -0.18162976783E+02  0.11042276025E+02  0.26403396092E+02  0.00000000000E+00 0.  1.
</event>
<event>
 5    1  0.1103865E-009  0.9118800E+02  0.7818608E-02  0.1130116E+00
         25   -1    0    0    0    0  0.00000000000E+00  0.00000000000E+00  0.99999998245E-14  0.12500000000E+03  0.12500000000E+03 0.  0.
        -11    1    3    3    0    0 -0.34846821085E+02  0.15679682466E+02  0.57661661156E+01  0.38644560470E+02  0.51100000000E-03 0. -1.
         23    2    1    0    0    0  0.17558869446E+02  0.14421251409E+02 -0.17816681098E+02  0.96125781158E+02  0.91686669093E+02 0.  0.
         11    1    3    3    0    0  0.52405690531E+02 -0.12584310575E+01 -0.23582847213E+02  0.57481220687E+02  0.51100000000E-03 0.  1.
         22    1    1    0    0    0 -0.17558869446E+02 -0.14421251409E+02  0.17816681098E+02  0.28874218842E+02  0.00000000000E+00 0.  1.
</event>
<event>
 5    1  0.1103865E-009  0.9118800E+02  0.7818608E-02  0.1130116E+00
         25   -1    0    0    0    0  0.00000000000E+00  0.00000000000E+00  0.99999998245E-14  0.12500000000E+03  0.12500000000E+03 0.  0.
        -11    1    3    3    0    0 -0.40614323121E+02 -0.15409046186E+02  0.13539604794E+02  0.45500360935E+02  0.51100000000E-03 0. -1.
         23    2    1    0    0    0 -0.18562667519E+02  0.34233642360E+01 -0.24964294251E+02  0.93702906915E+02  0.88321722859E+02 0.  0.
         11    1    3    3    0    0  0.22051655602E+02  0.18832410422E+02 -0.38503899045E+02  0.48202545980E+02  0.51100000000E-03 0.  1.
         22    1    1    0    0    0  0.18562667519E+02 -0.34233642360E+01  0.24964294251E+02  0.31297093085E+02  0.00000000000E+00 0.  1.
</event>
<event>
 5    1  0.1103865E-009  0.9118800E+02  0.7818608E-02  0.1130116E+00
         25   -1    0    0    0    0  0.00000000000E+00  0.00000000000E+00  0.99999998245E-14  0.12500000000E+03  0.12500000000E+03 0.  0.
        -11    1    3    3    0    0  0.32567115949E+02 -0.40935118293E+02 -0.32543683180E+01  0.52410799119E+02  0.51100000000E-03 0. -1.
         23    2    1    0    0    0  0.39986752824E+02 -0.16770188887E+02  0.93272051959E+01  0.80647137708E+02  0.67355656236E+02 0.  0.
         11    1    3    3    0    0  0.74196368751E+01  0.24164929406E+02  0.12581573514E+02  0.28236338589E+02  0.51100000000E-03 0.  1.
         22    1    1    0    0    0 -0.39986752824E+02  0.16770188887E+02 -0.93272051959E+01  0.44352862292E+02  0.00000000000E+00 0. -1.
</event>
<event>
 5    1  0.1103865E-009  0.9118800E+02  0.7818608E-02  0.1130116E+00
         25   -1    0    0    0    0  0.00000000000E+00  0.00000000000E+00  0.99999998245E-14  0.12500000000E+03  0.12500000000E+03 0.  0.
        -11    1    3    3    0    0  0.48681389945E+02 -0.18525180686E+02  0.25620226224E+02  0.58047015758E+02  0.51100000000E-03 0.  1.
         23    2    1    0    0    0  0.24542143376E+02 -0.16364314005E+02 -0.27672502452E+01  0.95372896729E+02  0.90654421746E+02 0.  0.
         11    1    3    3    0    0 -0.24139246569E+02  0.21608666817E+01 -0.28387476469E+02  0.37325880971E+02  0.51100000000E-03 0. -1.
         22    1    1    0    0    0 -0.24542143376E+02  0.16364314005E+02  0.27672502452E+01  0.29627103271E+02  0.00000000000E+00 0.  1.
</event>
<event>
 5    1  0.1103865E-009  0.9118800E+02  0.7818608E-02  0.1130116E+00
         25   -1    0    0    0    0  0.00000000000E+00  0.00000000000E+00  0.99999998245E-14  0.12500000000E+03  0.12500000000E+03 0.  0.
        -11    1    3    3    0    0  0.20190693624E+02  0.21350366702E+02 -0.16218068163E+02  0.33563790051E+02  0.51100000000E-03 0. -1.
         23    2    1    0    0    0 -0.14135201209E+02 -0.26548630652E+02  0.83837616081E+00  0.94911188503E+02  0.90015538246E+02 0.  0.
         11    1    3    3    0    0 -0.34325894834E+02 -0.47898997354E+02  0.17056444324E+02  0.61347398452E+02  0.51100000000E-03 0.  1.
         22    1    1    0    0    0  0.14135201209E+02  0.26548630652E+02 -0.83837616081E+00  0.30088811497E+02  0.00000000000E+00 0.  1.
</event>
<event>
 5    1  0.1103865E-009  0.9118800E+02  0.7818608E-02  0.1130116E+00
         25   -1    0    0    0    0  0.00000000000E+00  0.00000000000E+00  0.99999998245E-14  0.12500000000E+03  0.12500000000E+03 0.  0.
        -11    1    3    3    0    0 -0.45107433168E+02  0.24068587805E+02 -0.43241299735E+01  0.51309604814E+02  0.51100000000E-03 0.  1.
         23    2    1    0    0    0 -0.96859590547E+00  0.27468387047E+02  0.62243473486E+01  0.96818570567E+02  0.92626360404E+02 0.  0.
         11    1    3    3    0    0  0.44138837262E+02  0.33997992419E+01  0.10548477322E+02  0.45508965752E+02  0.51100000000E-03 0. -1.
         22    1    1    0    0    0  0.96859590547E+00 -0.27468387047E+02 -0.62243473486E+01  0.28181429433E+02  0.00000000000E+00 0. -1.
</event>
<event>
 5    1  0.1103865E-009  0.9118800E+02  0.7818608E-02  0.1130116E+00
         25   -1    0    0    0    0  0.00000000000E+00  0.00000000000E+00  0.99999998245E-14  0.12500000000E+03  0.12500000000E+03 0.  0.
        -11    1    3    3    0    0  0.23379656697E+02 -0.31530330111E+02  0.11386143974E+02  0.40870702698E+02  0.51100000000E-03 0. -1.
         23    2    1    0    0    0  0.22962536630E+01 -0.32761603875E+01 -0.29713400988E+02  0.95018468918E+02  0.90164390030E+02 0.  0.
         11    1    3    3    0    0 -0.21083403034E+02  0.28254169723E+02 -0.41099544962E+02  0.54147766220E+02  0.51100000000E-03 0.  1.
         22    1    1    0    0    0 -0.22962536630E+01  0.32761603875E+01  0.29713400988E+02  0.29981531082E+02  0.00000000000E+00 0.  1.
</event>
<event>
 5    1  0.1103865E-009  0.9118800E+02  0.7818608E-02  0.1130116E+00
         25   -1    0    0    0    0  0.00000000000E+00  0.00000000000E+00  0.99999998245E-14  0.12500000000E+03  0.12500000000E+03 0.  0.
        -11    1    3    3    0    0  0.26035396530E+02  0.17701585468E+02  0.39767672952E+02  0.50721354603E+02  0.51100000000E-03 0.  1.
         23    2    1    0    0    0  0.31796765649E+02  0.25912922820E+01  0.60435620639E+00  0.93092095841E+02  0.87452981426E+02 0.  0.
         11    1    3    3    0    0  0.57613691183E+01 -0.15110293186E+02 -0.39163316745E+02  0.42370741238E+02  0.51100000000E-03 0. -1.
         22    1    1    0    0    0 -0.31796765649E+02 -0.25912922820E+01 -0.60435620639E+00  0.31907904159E+02  0.00000000000E+00 0.  1.
</event>
<event>
 5    1  0.1103865E-009  0.9118800E+02  0.7818608E-02  0.1130116E+00
         25   -1    0    0    0    0  0.00000000000E+00  0.00000000000E+00  0.99999998245E-14  0.12500000000E+03  0.12500000000E+03 0.  0.
        -11    1    3    3    0    0  0.39091831349E+02 -0.29196691282E+02  0.28559917295E+02  0.56535713812E+02  0.51100000000E-03 0. -1.
         23    2    1    0    0    0  0.27370958761E+01 -0.19575213326E+02  0.23199456728E+02  0.94522213613E+02  0.89473758182E+02 0.  0.
         11    1    3    3    0    0 -0.36354735473E+02  0.96214779561E+01 -0.53604605674E+01  0.37986499801E+02  0.51100000000E-03 0.  1.
         22    1    1    0    0    0 -0.27370958761E+01  0.19575213326E+02 -0.23199456728E+02  0.30477786387E+02  0.00000000000E+00 0. -1.
</event>
<event>
 5    1  0.1103865E-009  0.9118800E+02  0.7818608E-02  0.1130116E+00
         25   -1    0    0    0    0  0.00000000000E+00  0.00000000000E+00  0.99999998245E-14  0.12500000000E+03  0.12500000000E+03 0.  0.
        -11    1    3    3    0    0  0.50790918772E+01  0.17954535825E+02 -0.48411126434E+02  0.51882556739E+02  0.51100000000E-03 0.  1.
         23    2    1    0    0    0 -0.48961797960E+01 -0.16569290111E+02 -0.24400411325E+02  0.95101939457E+02  0.90280035802E+02 0.  0.
         11    1    3    3    0    0 -0.99752716732E+01 -0.34523825936E+02  0.24010715109E+02  0.43219382718E+02  0.51100000000E-03 0. -1.
         22    1    1    0    0    0  0.48961797960E+01  0.16569290111E+02  0.24400411325E+02  0.29898060543E+02  0.00000000000E+00 0.  1.
</event>
<event>
 5    1  0.1103865E-009  0.9118800E+02  0.7818608E-02  0.1130116E+00
         25   -1    0    0    0    0  0.00000000000E+00  0.00000000000E+00  0.99999998245E-14  0.12500000000E+03  0.12500000000E+03 0.  0.
        -11    1    3    3    0    0 -0.21880325294E+01 -0.39183448621E+02 -0.23669720642E+01  0.39315807116E+02  0.51100000000E-03 0. -1.
         23    2    1    0    0    0 -0.29359146065E+02  0.86640589102E+01 -0.40043075600E-01  0.94389103609E+02  0.89287602175E+02 0.  0.
         11    1    3    3    0    0 -0.27171113535E+02  0.47847507532E+02  0.23269289886E+01  0.55073296492E+02  0.51100000000E-03 0.  1.
         22    1    1    0    0    0  0.29359146065E+02 -0.86640589102E+01  0.40043075600E-01  0.30610896391E+02  0.00000000000E+00 0.  1.
</event>
<event>
 5    1  0.1103865E-009  0.9118800E+02  0.7818608E-02  0.1130116E+00
         25   -1    0    0    0    0  0.00000000000E+00  0.00000000000E+00  0.99999998245E-14  0.12500000000E+03  0.12500000000E+03 0.  0.
        -11    1    3    3    0    0  0.73177148708E+01  0.11930892714E+02  0.29502563172E+02  0.32654194002E+02  0.51100000000E-03 0.  1.
         23    2    1    0    0    0 -0.10652362984E+02 -0.20768953979E+02 -0.19736001732E+02  0.94433154384E+02  0.89349250675E+02 0.  0.
         11    1    3    3    0    0 -0.17970077855E+02 -0.32699846693E+02 -0.49238564905E+02  0.61778960383E+02  0.51100000000E-03 0. -1.
         22    1    1    0    0    0  0.10652362984E+02  0.20768953979E+02  0.19736001732E+02  0.30566845616E+02  0.00000000000E+00 0. -1.
</event>
<event>
 5    1  0.1103865E-009  0.9118800E+02  0.7818608E-02  0.1130116E+00
         25   -1    0    0    0    0  0.00000000000E+00  0.00000000000E+00  0.99999998245E-14  0.12500000000E+03  0.12500000000E+03 0.  0.
        -11    1    3    3    0    0  0.37029638783E+02  0.29467659502E+02 -0.18729523291E+02  0.50895305754E+02  0.51100000000E-03 0.  1.
         23    2    1    0    0    0  0.22204578198E+02 -0.11982836316E+02 -0.16253033075E+02  0.94986790520E+02  0.90120461773E+02 0.  0.
         11    1    3    3    0    0 -0.14825060585E+02 -0.41450495817E+02  0.24764902155E+01  0.44091484766E+02  0.51100000000E-03 0. -1.
         22    1    1    0    0    0 -0.22204578198E+02  0.11982836316E+02  0.16253033075E+02  0.30013209480E+02  0.00000000000E+00 0.  1.
</event>
<event>
 5    1  0.1103865E-009  0.9118800E+02  0.7818608E-02  0.1130116E+00
         25   -1    0    0    0    0  0.00000000000E+00  0.00000000000E+00  0.99999998245E-14  0.12500000000E+03  0.12500000000E+03 0.  0.
        -11    1    3    3    0    0  0.29090224883E+02 -0.65694424261E+01 -0.51329105766E+02  0.59363927233E+02  0.51100000000E-03 0. -1.
         23    2    1    0    0    0  0.23212736072E+02  0.40724084034E+01 -0.16562056403E+02  0.96195185499E+02  0.91781241955E+02 0.  0.
         11    1    3    3    0    0 -0.58774888107E+01  0.10641850829E+02  0.34767049363E+02  0.36831258266E+02  0.51100000000E-03 0.  1.
         22    1    1    0    0    0 -0.23212736072E+02 -0.40724084034E+01  0.16562056403E+02  0.28804814501E+02  0.00000000000E+00 0. -1.
</event>
<event>
 5    1  0.1103865E-009  0.9118800E+02  0.7818608E-02  0.1130116E+00
         25   -1    0    0    0    0  0.00000000000E+00  0.00000000000E+00  0.99999998245E-14  0.12500000000E+03  0.12500000000E+03 0.  0.
        -11    1    3    3    0    0 -0.15037842936E+02 -0.21569419990E+02 -0.53500478235E+02  0.59612731614E+02  0.51100000000E-03 0.  1.
         23    2    1    0    0    0 -0.17816402612E+02 -0.21961981890E+01 -0.23610593672E+02  0.95340134490E+02  0.90609235857E+02 0.  0.
         11    1    3    3    0    0 -0.27785596760E+01  0.19373221801E+02  0.29889884563E+02  0.35727402876E+02  0.51100000000E-03 0. -1.
         22    1    1    0    0    0  0.17816402612E+02  0.21961981890E+01  0.23610593672E+02  0.29659865510E+02  0.00000000000E+00 0.  1.
</event>
<event>
 5    1  0.1103865E-009  0.9118800E+02  0.7818608E-02  0.1130116E+00
         25   -1    0    0    0    0  0.00000000000E+00  0.00000000000E+00  0.99999998245E-14  0.12500000000E+03  0.12500000000E+03 0.  0.
        -11    1    3    3    0    0  0.14358758918E+02  0.29974719575E+02  0.11951643576E+01  0.33257874096E+02  0.51100000000E-03 0.  1.
         23    2    1    0    0    0 -0.15765008542E+02 -0.24461905030E+02 -0.36903720665E+01  0.95665052616E+02  0.91056373495E+02 0.  0.
         11    1    3    3    0    0 -0.30123767460E+02 -0.54436624605E+02 -0.48855364241E+01  0.62407178520E+02  0.51100000000E-03 0. -1.
         22    1    1    0    0    0  0.15765008542E+02  0.24461905030E+02  0.36903720665E+01  0.29334947384E+02  0.00000000000E+00 0. -1.
</event>
<event>
 5    1  0.1103865E-009  0.9118800E+02  0.7818608E-02  0.1130116E+00
         25   -1    0    0    0    0  0.00000000000E+00  0.00000000000E+00  0.99999998245E-14  0.12500000000E+03  0.12500000000E+03 0.  0.
        -11    1    3    3    0    0 -0.20126886543E+02  0.24400216775E+02 -0.34861975709E+02  0.47072491873E+02  0.51100000000E-03 0.  1.
         23    2    1    0    0    0 -0.20840780218E+02  0.15895207626E+02  0.13037146521E+02  0.95726070729E+02  0.91140099201E+02 0.  0.
         11    1    3    3    0    0 -0.71389367484E+00 -0.85050091492E+01  0.47899122230E+02  0.48653578856E+02  0.51100000000E-03 0. -1.
         22    1    1    0    0    0  0.20840780218E+02 -0.15895207626E+02 -0.13037146521E+02  0.29273929271E+02  0.00000000000E+00 0. -1.
</event>
<event>
 5    1  0.1103865E-009  0.9118800E+02  0.7818608E-02  0.1130116E+00
         25   -1    0    0    0    0  0.00000000000E+00  0.00000000000E+00  0.99999998245E-14  0.12500000000E+03  0.12500000000E+03 0.  0.
        -11    1    3    3    0    0 -0.44755648226E+02 -0.37610112502E+02 -0.19307133935E+02  0.61565851181E+02  0.51100000000E-03 0.  1.
         23    2    1    0    0    0 -0.23534336139E+02 -0.21045454795E+02 -0.24403838723E+01  0.93334062173E+02  0.87798152277E+02 0.  0.
         11    1    3    3    0    0  0.21221312087E+02  0.16564657708E+02  0.16866750063E+02  0.31768210992E+02  0.51100000000E-03 0. -1.
         22    1    1    0    0    0  0.23534336139E+02  0.21045454795E+02  0.24403838723E+01  0.31665937827E+02  0.00000000000E+00 0.  1.
</event>
<event>
 5    1  0.1103865E-009  0.9118800E+02  0.7818608E-02  0.1130116E+00
         25   -1    0    0    0    0  0.00000000000E+00  0.00000000000E+00  0.99999998245E-14  0.12500000000E+03  0.12500000000E+03 0.  0.
        -11    1    3    3    0    0  0.49641975061E+02 -0.31196856823E+01 -0.23345986304E+02  0.54946275611E+02  0.51100000000E-03 0. -1.
         23    2    1    0    0    0  0.10082827940E+02  0.11517717191E+02 -0.23293850189E+02  0.97126631256E+02  0.93041161933E+02 0.  0.
         11    1    3    3    0    0 -0.39559147122E+02  0.14637402873E+02  0.52136115831E-01  0.42180355644E+02  0.51100000000E-03 0.  1.
         22    1    1    0    0    0 -0.10082827940E+02 -0.11517717191E+02  0.23293850189E+02  0.27873368744E+02  0.00000000000E+00 0.  1.
</event>
<event>
 5    1  0.1103865E-009  0.9118800E+02  0.7818608E-02  0.1130116E+00
         25   -1    0    0    0    0  0.00000000000E+00  0.00000000000E+00  0.99999998245E-14  0.12500000000E+03  0.12500000000E+03 0.  0.
        -11    1    3    3    0    0  0.27466484458E+02  0.10698883197E+02  0.45517592634E+02  0.54228452953E+02  0.51100000000E-03 0.  1.
         23    2    1    0    0    0  0.91756595566E+01 -0.17754149021E+02  0.21041686269E+02  0.95980091372E+02  0.91487828933E+02 0.  0.
         11    1    3    3    0    0 -0.18290824902E+02 -0.28453032219E+02 -0.24475906365E+02  0.41751638419E+02  0.51100000000E-03 0. -1.
         22    1    1    0    0    0 -0.91756595566E+01  0.17754149021E+02 -0.21041686269E+02  0.29019908628E+02  0.00000000000E+00 0. -1.
</event>
<event>
 5    1  0.1103865E-009  0.9118800E+02  0.7818608E-02  0.1130116E+00
         25   -1    0    0    0    0  0.00000000000E+00  0.00000000000E+00  0.99999998245E-14  0.12500000000E+03  0.12500000000E+03 0.  0.
        -11    1    3    3    0    0 -0.21135223275E+02 -0.10252683161E+02 -0.56148635268E+02  0.60864475826E+02  0.51100000000E-03 0.  1.
         23    2    1    0    0    0 -0.14881466550E+01 -0.96064554188E+01 -0.29224360182E+02  0.94201269601E+02  0.89024251753E+02 0.  0.
         11    1    3    3    0    0  0.19647076620E+02  0.64622774206E+00  0.26924275086E+02  0.33336793775E+02  0.51100000000E-03 0. -1.
         22    1    1    0    0    0  0.14881466550E+01  0.96064554188E+01  0.29224360182E+02  0.30798730399E+02  0.00000000000E+00 0.  1.
</event>
<event>
 5    1  0.1103865E-009  0.9118800E+02  0.7818608E-02  0.1130116E+00
         25   -1    0    0    0    0  0.00000000000E+00  0.00000000000E+00  0.99999998245E-14  0.12500000000E+03  0.12500000000E+03 0.  0.
        -11    1    3    3    0    0  0.16244685852E+02 -0.14762083501E+02  0.32315421900E+02  0.39065271285E+02  0.51100000000E-03 0.  1.
         23    2    1    0    0    0  0.75007665480E+01 -0.11566583942E+02 -0.24634173140E+02  0.96770762512E+02  0.92561820574E+02 0.  0.
         11    1    3    3    0    0 -0.87439193044E+01  0.31954995594E+01 -0.56949595040E+02  0.57705491227E+02  0.51100000000E-03 0. -1.
         22    1    1    0    0    0 -0.75007665480E+01  0.11566583942E+02  0.24634173140E+02  0.28229237488E+02  0.00000000000E+00 0. -1.
</event>
<event>
 5    1  0.1103865E-009  0.9118800E+02  0.7818608E-02  0.1130116E+00
         25   -1    0    0    0    0  0.00000000000E+00  0.00000000000E+00  0.99999998245E-14  0.12500000000E+03  0.12500000000E+03 0.  0.
        -11    1    3    3    0    0  0.61949297384E+01  0.41951480441E+02 -0.18197225238E+02  0.46145886840E+02  0.51100000000E-03 0. -1.
         23    2    1    0    0    0 -0.18239665401E+02 -0.12710666164E+01 -0.22528510766E+02  0.95985610439E+02  0.91495369335E+02 0.  0.
         11    1    3    3    0    0 -0.24434595139E+02 -0.43222547058E+02 -0.43312855287E+01  0.49839723598E+02  0.51100000000E-03 0.  1.
         22    1    1    0    0    0  0.18239665401E+02  0.12710666164E+01  0.22528510766E+02  0.29014389561E+02  0.00000000000E+00 0.  1.
</event>
<event>
 5    1  0.1103865E-009  0.9118800E+02  0.7818608E-02  0.1130116E+00
         25   -1    0    0    0    0  0.00000000000E+00  0.00000000000E+00  0.99999998245E-14  0.12500000000E+03  0.12500000000E+03 0.  0.
        -11    1    3    3    0    0 -0.91771799728E+00  0.26815384932E+02  0.28297611298E+02  0.38995664898E+02  0.51100000000E-03 0.  1.
         23    2    1    0    0    0 -0.25168995351E+02 -0.15507900994E+02 -0.96351266290E-01  0.95436803221E+02  0.90742497239E+02 0.  0.
         11    1    3    3    0    0 -0.24251277354E+02 -0.42323285926E+02 -0.28393962565E+02  0.56441138323E+02  0.51100000000E-03 0. -1.
         22    1    1    0    0    0  0.25168995351E+02  0.15507900994E+02  0.96351266290E-01  0.29563196779E+02  0.00000000000E+00 0. -1.
</event>
<event>
 5    1  0.1103865E-009  0.9118800E+02  0.7818608E-02  0.1130116E+00
         25   -1    0    0    0    0  0.00000000000E+00  0.00000000000E+00  0.99999998245E-14  0.12500000000E+03  0.12500000000E+03 0.  0.
        -11    1    3    3    0    0  0.42901492863E+02  0.40165479542E+01 -0.11182003873E+02  0.44516378539E+02  0.51100000000E-03 0. -1.
         23    2    1    0    0    0  0.93171545993E+01 -0.29795321286E+02  0.12124212058E+01  0.93758353027E+02  0.88400159824E+02 0.  0.
         11    1    3    3    0    0 -0.33584338264E+02 -0.33811869241E+02  0.12394425079E+02  0.49241974488E+02  0.51100000000E-03 0.  1.
         22    1    1    0    0    0 -0.93171545993E+01  0.29795321286E+02 -0.12124212058E+01  0.31241646973E+02  0.00000000000E+00 0.  1.
</event>
<event>
 5    1  0.1103865E-009  0.9118800E+02  0.7818608E-02  0.1130116E+00
         25   -1    0    0    0    0  0.00000000000E+00  0.00000000000E+00  0.99999998245E-14  0.12500000000E+03  0.12500000000E+03 0.  0.
        -11    1    3    3    0    0  0.23154468048E+02 -0.15483288635E+02  0.21782620101E+02  0.35360205828E+02  0.51100000000E-03 0. -1.
         23    2    1    0    0    0 -0.55797388358E+01 -0.15121279700E+01 -0.29039137410E+02  0.95391023017E+02  0.90679411964E+02 0.  0.
         11    1    3    3    0    0 -0.28734206883E+02  0.13971160665E+02 -0.50821757511E+02  0.60030817188E+02  0.51100000000E-03 0.  1.
         22    1    1    0    0    0  0.55797388358E+01  0.15121279700E+01  0.29039137410E+02  0.29608976983E+02  0.00000000000E+00 0.  1.
</event>
<event>
 5    1  0.1103865E-009  0.9118800E+02  0.7818608E-02  0.1130116E+00
         25   -1    0    0    0    0  0.00000000000E+00  0.00000000000E+00  0.99999998245E-14  0.12500000000E+03  0.12500000000E+03 0.  0.
        -11    1    3    3    0    0  0.26276845791E+02 -0.28428282361E+02 -0.43301933144E+02  0.58083537056E+02  0.51100000000E-03 0. -1.
         23    2    1    0    0    0  0.35606998782E+00 -0.23991862656E+02 -0.15072523146E+02  0.96664206143E+02  0.92417809624E+02 0.  0.
         11    1    3    3    0    0 -0.25920775803E+02  0.44364197052E+01  0.28229409998E+02  0.38580669086E+02  0.51100000000E-03 0.  1.
         22    1    1    0    0    0 -0.35606998782E+00  0.23991862656E+02  0.15072523146E+02  0.28335793857E+02  0.00000000000E+00 0. -1.
</event>
<event>
 5    1  0.1103865E-009  0.9118800E+02  0.7818608E-02  0.1130116E+00
         25   -1    0    0    0    0  0.00000000000E+00  0.00000000000E+00  0.99999998245E-14  0.12500000000E+03  0.12500000000E+03 0.  0.
        -11    1    3    3    0    0 -0.35259567055E+02  0.23548228326E+02  0.17624687654E+02  0.45917161731E+02  0.51100000000E-03 0.  1.
         23    2    1    0    0    0 -0.20435970824E+02 -0.19335314582E+02 -0.46860863767E+01  0.96479083131E+02  0.92167080798E+02 0.  0.
         11    1    3    3    0    0  0.14823596231E+02 -0.42883542908E+02 -0.22310774030E+02  0.50561921401E+02  0.51100000000E-03 0. -1.
         22    1    1    0    0    0  0.20435970824E+02  0.19335314582E+02  0.46860863767E+01  0.28520916869E+02  0.00000000000E+00 0.  1.
</event>
<event>
 5    1  0.1103865E-009  0.9118800E+02  0.7818608E-02  0.1130116E+00
         25   -1    0    0    0    0  0.00000000000E+00  0.00000000000E+00  0.99999998245E-14  0.12500000000E+03  0.12500000000E+03 0.  0.
        -11    1    3    3    0    0 -0.12763552436E+02 -0.33056394800E+02  0.17852650840E+02  0.39678087785E+02  0.51100000000E-03 0. -1.
         23    2    1    0    0    0  0.29015763816E+02 -0.54501787140E+01 -0.55612201882E+01  0.94957593841E+02  0.90079955930E+02 0.  0.
         11    1    3    3    0    0  0.41779316252E+02  0.27606216086E+02 -0.23413871029E+02  0.55279506057E+02  0.51100000000E-03 0.  1.
         22    1    1    0    0    0 -0.29015763816E+02  0.54501787140E+01  0.55612201882E+01  0.30042406159E+02  0.00000000000E+00 0.  1.
</event>
<event>
 5    1  0.1103865E-009  0.9118800E+02  0.7818608E-02  0.1130116E+00
         25   -1    0    0    0    0  0.00000000000E+00  0.00000000000E+00  0.99999998245E-14  0.12500000000E+03  0.12500000000E+03 0.  0.
        -11    1    3    3    0    0  0.39423103508E+02 -0.10895595665E+02  0.22056536950E+02  0.46469193210E+02  0.51100000000E-03 0. -1.
         23    2    1    0    0    0  0.20290783742E+02  0.24579728791E+01 -0.21159327435E+02  0.95581049083E+02  0.90940982350E+02 0.  0.
         11    1    3    3    0    0 -0.19132319766E+02  0.13353568544E+02 -0.43215864385E+02  0.49111855873E+02  0.51100000000E-03 0.  1.
         22    1    1    0    0    0 -0.20290783742E+02 -0.24579728791E+01  0.21159327435E+02  0.29418950917E+02  0.00000000000E+00 0. -1.
</event>
<event>
 5    1  0.1103865E-009  0.9118800E+02  0.7818608E-02  0.1130116E+00
         25   -1    0    0    0    0  0.00000000000E+00  0.00000000000E+00  0.99999998245E-14  0.12500000000E+03  0.12500000000E+03 0.  0.
        -11    1    3    3    0    0 -0.16932828061E+02  0.52045001725E+01 -0.34009808734E+02  0.38346767511E+02  0.51100000000E-03 0.  1.
         23    2    1    0    0    0 -0.19259572316E+02  0.10943852998E+01  0.22675837754E+02  0.95228832357E+02  0.90455558642E+02 0.  0.
         11    1    3    3    0    0 -0.23267442552E+01 -0.41101148728E+01  0.56685646488E+02  0.56882064846E+02  0.51100000000E-03 0. -1.
         22    1    1    0    0    0  0.19259572316E+02 -0.10943852998E+01 -0.22675837754E+02  0.29771167643E+02  0.00000000000E+00 0. -1.
</event>
<event>
 5    1  0.1103865E-009  0.9118800E+02  0.7818608E-02  0.1130116E+00
         25   -1    0    0    0    0  0.00000000000E+00  0.00000000000E+00  0.99999998245E-14  0.12500000000E+03  0.12500000000E+03 0.  0.
        -11    1    3    3    0    0  0.28218184063E+02 -0.43990195514E+00 -0.22013709378E+02  0.35791938008E+02  0.51100000000E-03 0.  1.
         23    2    1    0    0    0 -0.19273911859E+02 -0.14251556611E+02  0.14242786035E+02  0.97117254471E+02  0.93028563451E+02 0.  0.
         11    1    3    3    0    0 -0.47492095922E+02 -0.13811654656E+02  0.36256495413E+02  0.61325316463E+02  0.51100000000E-03 0. -1.
         22    1    1    0    0    0  0.19273911859E+02  0.14251556611E+02 -0.14242786035E+02  0.27882745529E+02  0.00000000000E+00 0. -1.
</event>
<event>
 5    1  0.1103865E-009  0.9118800E+02  0.7818608E-02  0.1130116E+00
         25   -1    0    0    0    0  0.00000000000E+00  0.00000000000E+00  0.99999998245E-14  0.12500000000E+03  0.12500000000E+03 0.  0.
        -11    1    3    3    0    0 -0.11227189525E+02  0.48733768698E+02 -0.11096567271E+02  0.51226592719E+02  0.51100000000E-03 0.  1.
         23    2    1    0    0    0  0.10772042683E+02  0.10901767566E+02 -0.23706938306E+02  0.96770505434E+02  0.92561473402E+02 0.  0.
         11    1    3    3    0    0  0.21999232208E+02 -0.37832001133E+02 -0.12610371036E+02  0.45543912715E+02  0.51100000000E-03 0. -1.
         22    1    1    0    0    0 -0.10772042683E+02 -0.10901767566E+02  0.23706938306E+02  0.28229494566E+02  0.00000000000E+00 0.  1.
</event>
<event>
 5    1  0.1103865E-009  0.9118800E+02  0.7818608E-02  0.1130116E+00
         25   -1    0    0    0    0  0.00000000000E+00  0.00000000000E+00  0.99999998245E-14  0.12500000000E+03  0.12500000000E+03 0.  0.
        -11    1    3    3    0    0  0.10041299314E+02 -0.42611588821E+02  0.60803433946E+01  0.44198934035E+02  0.51100000000E-03 0. -1.
         23    2    1    0    0    0  0.30548494364E+02  0.25347529147E+01  0.58944570947E+01  0.93784937856E+02  0.88437743435E+02 0.  0.
         11    1    3    3    0    0  0.20507195050E+02  0.45146341736E+02 -0.18588629990E+00  0.49586003821E+02  0.51100000000E-03 0.  1.
         22    1    1    0    0    0 -0.30548494364E+02 -0.25347529147E+01 -0.58944570947E+01  0.31215062144E+02  0.00000000000E+00 0. -1.
</event>
<event>
 5    1  0.1103865E-009  0.9118800E+02  0.7818608E-02  0.1130116E+00
         25   -1    0    0    0    0  0.00000000000E+00  0.00000000000E+00  0.99999998245E-14  0.12500000000E+03  0.12500000000E+03 0.  0.
        -11    1    3    3    0    0  0.55957337486E+01  0.22349144620E+02 -0.50978257907E+02  0.55942642777E+02  0.51100000000E-03 0. -1.
         23    2    1    0    0    0  0.21555086732E+02  0.45466893958E+01 -0.18746926064E+02  0.96073517578E+02  0.91615388415E+02 0.  0.
         11    1    3    3    0    0  0.15959352983E+02 -0.17802455224E+02  0.32231331842E+02  0.40130874801E+02  0.51100000000E-03 0.  1.
         22    1    1    0    0    0 -0.21555086732E+02 -0.45466893958E+01  0.18746926064E+02  0.28926482422E+02  0.00000000000E+00 0. -1.
</event>
<event>
 5    1  0.1103865E-009  0.9118800E+02  0.7818608E-02  0.1130116E+00
         25   -1    0    0    0    0  0.00000000000E+00  0.00000000000E+00  0.99999998245E-14  0.12500000000E+03  0.12500000000E+03 0.  0.
        -11    1    3    3    0    0  0.14671314652E+02  0.27660077931E+02 -0.28110166767E+02  0.42077415091E+02  0.51100000000E-03 0.  1.
         23    2    1    0    0    0  0.23480914803E+02  0.20860659946E+01  0.17866792342E+02  0.95420829966E+02  0.90720491023E+02 0.  0.
         11    1    3    3    0    0  0.88096001506E+01 -0.25574011936E+02  0.45976959110E+02  0.53343414875E+02  0.51100000000E-03 0. -1.
         22    1    1    0    0    0 -0.23480914803E+02 -0.20860659946E+01 -0.17866792342E+02  0.29579170034E+02  0.00000000000E+00 0. -1.
</event>
<event>
 5    1  0.1103865E-009  0.9118800E+02  0.7818608E-02  0.1130116E+00
         25   -1    0    0    0    0  0.00000000000E+00  0.00000000000E+00  0.99999998245E-14  0.12500000000E+03  0.12500000000E+03 0.  0.
        -11    1    3    3    0    0  0.74021052215E+00  0.20779020360E+02  0.25601724946E+02  0.32981266186E+02  0.51100000000E-03 0. -1.
         23    2    1    0    0    0  0.45990011715E+01 -0.31842075698E+02 -0.24448394893E+01  0.92734758072E+02  0.86940724163E+02 0.  0.
         11    1    3    3    0    0  0.38587906494E+01 -0.52621096059E+02 -0.28046564435E+02  0.59753491886E+02  0.51100000000E-03 0.  1.
         22    1    1    0    0    0 -0.45990011715E+01  0.31842075698E+02  0.24448394893E+01  0.32265241928E+02  0.00000000000E+00 0.  1.
</event>
<event>
 5    1  0.1103865E-009  0.9118800E+02  0.7818608E-02  0.1130116E+00
         25   -1    0    0    0    0  0.00000000000E+00  0.00000000000E+00  0.99999998245E-14  0.12500000000E+03  0.12500000000E+03 0.  0.
        -11    1    3    3    0    0  0.18052382699E+02 -0.23592147200E+02 -0.18279076150E+02  0.34879830214E+02  0.51100000000E-03 0.  1.
         23    2    1    0    0    0 -0.10900719701E+02  0.19999118604E+02  0.15755781281E+02  0.97304601849E+02  0.93279957452E+02 0.  0.
         11    1    3    3    0    0 -0.28953102401E+02  0.43591265804E+02  0.34034857431E+02  0.62424771635E+02  0.51100000000E-03 0. -1.
         22    1    1    0    0    0  0.10900719701E+02 -0.19999118604E+02 -0.15755781281E+02  0.27695398151E+02  0.00000000000E+00 0. -1.
</event>
<event>
 5    1  0.1103865E-009  0.9118800E+02  0.7818608E-02  0.1130116E+00
         25   -1    0    0    0    0  0.00000000000E+00  0.00000000000E+00  0.99999998245E-14  0.12500000000E+03  0.12500000000E+03 0.  0.
        -11    1    3    3    0    0 -0.33543454958E+02  0.10372478071E+02  0.27349518914E+02  0.44505593547E+02  0.51100000000E-03 0. -1.
         23    2    1    0    0    0  0.40961860862E+01 -0.23453776450E+02  0.15838783066E+02  0.96404101357E+02  0.92065331907E+02 0.  0.
         11    1    3    3    0    0  0.37639641044E+02 -0.33826254521E+02 -0.11510735848E+02  0.51898507810E+02  0.51100000000E-03 0.  1.
         22    1    1    0    0    0 -0.40961860862E+01  0.23453776450E+02 -0.15838783066E+02  0.28595898643E+02  0.00000000000E+00 0.  1.
</event>
<event>
 5    1  0.1103865E-009  0.9118800E+02  0.7818608E-02  0.1130116E+00
         25   -1    0    0    0    0  0.00000000000E+00  0.00000000000E+00  0.99999998245E-14  0.12500000000E+03  0.12500000000E+03 0.  0.
        -11    1    3    3    0    0 -0.85325646021E+01 -0.46325313286E+01  0.33265203092E+02  0.34653120238E+02  0.51100000000E-03 0.  1.
         23    2    1    0    0    0  0.13780261599E+02  0.62852852071E+01 -0.23742506390E+02  0.96837844018E+02  0.92652366427E+02 0.  0.
         11    1    3    3    0    0  0.22312826201E+02  0.10917816536E+02 -0.57007709482E+02  0.62184723780E+02  0.51100000000E-03 0. -1.
         22    1    1    0    0    0 -0.13780261599E+02 -0.62852852071E+01  0.23742506390E+02  0.28162155982E+02  0.00000000000E+00 0. -1.
</event>
<event>
 5    1  0.1103865E-009  0.9118800E+02  0.7818608E-02  0.1130116E+00
         25   -1    0    0    0    0  0.00000000000E+00  0.00000000000E+00  0.99999998245E-14  0.12500000000E+03  0.12500000000E+03 0.  0.
        -11    1    3    3    0    0 -0.54265656966E+01 -0.40588680999E+02  0.40355980709E+02  0.57493424144E+02  0.51100000000E-03 0. -1.
         23    2    1    0    0    0  0.10309600952E+02 -0.25599091628E+02  0.83747332347E+01  0.96160140071E+02  0.91733499976E+02 0.  0.
         11    1    3    3    0    0  0.15736166649E+02  0.14989589371E+02 -0.31981247475E+02  0.38666715928E+02  0.51100000000E-03 0.  1.
         22    1    1    0    0    0 -0.10309600952E+02  0.25599091628E+02 -0.83747332347E+01  0.28839859929E+02  0.00000000000E+00 0. -1.
</event>
<event>
 5    1  0.1103865E-009  0.9118800E+02  0.7818608E-02  0.1130116E+00
         25   -1    0    0    0    0  0.00000000000E+00  0.00000000000E+00  0.99999998245E-14  0.12500000000E+03  0.12500000000E+03 0.  0.
        -11    1    3    3    0    0 -0.14510141529E+02 -0.10278585596E+02 -0.29152504683E+02  0.34147650850E+02  0.51100000000E-03 0. -1.
         23    2    1    0    0    0  0.13764407721E+02  0.18720852854E+02  0.17486978691E+02  0.95918671364E+02  0.91403872133E+02 0.  0.
         11    1    3    3    0    0  0.28274549249E+02  0.28999438450E+02  0.46639483374E+02  0.61771020514E+02  0.51100000000E-03 0.  1.
         22    1    1    0    0    0 -0.13764407721E+02 -0.18720852854E+02 -0.17486978691E+02  0.29081328636E+02  0.00000000000E+00 0.  1.
</event>
<event>
 5    1  0.1103865E-009  0.9118800E+02  0.7818608E-02  0.1130116E+00
         25   -1    0    0    0    0  0.00000000000E+00  0.00000000000E+00  0.99999998245E-14  0.12500000000E+03  0.12500000000E+03 0.  0.
        -11    1    3    3    0    0 -0.15805096549E+01  0.36840096414E+01  0.41242156459E+02  0.41436522628E+02  0.51100000000E-03 0. -1.
         23    2    1    0    0    0 -0.30736239240E+02  0.10288217000E+01 -0.25801241770E+01  0.94138504290E+02  0.88936078576E+02 0.  0.
         11    1    3    3    0    0 -0.29155729585E+02 -0.26551879414E+01 -0.43822280636E+02  0.52701981662E+02  0.51100000000E-03 0.  1.
         22    1    1    0    0    0  0.30736239240E+02 -0.10288217000E+01  0.25801241770E+01  0.30861495710E+02  0.00000000000E+00 0.  1.
</event>
<event>
 5    1  0.1103865E-009  0.9118800E+02  0.7818608E-02  0.1130116E+00
         25   -1    0    0    0    0  0.00000000000E+00  0.00000000000E+00  0.99999998245E-14  0.12500000000E+03  0.12500000000E+03 0.  0.
        -11    1    3    3    0    0 -0.41306150686E+02 -0.32028236044E+01 -0.20409219624E+02  0.46184330778E+02  0.51100000000E-03 0. -1.
         23    2    1    0    0    0 -0.13169072766E+02 -0.20409209591E+02  0.16465049288E+02  0.95656207442E+02  0.91044230243E+02 0.  0.
         11    1    3    3    0    0  0.28137077920E+02 -0.17206385987E+02  0.36874268912E+02  0.49471876664E+02  0.51100000000E-03 0.  1.
         22    1    1    0    0    0  0.13169072766E+02  0.20409209591E+02 -0.16465049288E+02  0.29343792558E+02  0.00000000000E+00 0.  1.
</event>
<event>
 5    1  0.1103865E-009  0.9118800E+02  0.7818608E-02  0.1130116E+00
         25   -1    0    0    0    0  0.00000000000E+00  0.00000000000E+00  0.99999998245E-14  0.12500000000E+03  0.12500000000E+03 0.  0.
        -11    1    3    3    0    0 -0.48734715138E+02  0.14447101300E+02  0.31625175298E+02  0.59866041363E+02  0.51100000000E-03 0. -1.
         23    2    1    0    0    0 -0.13034456334E+02  0.94267197170E+01  0.22996512391E+02  0.96935793639E+02  0.92784419003E+02 0.  0.
         11    1    3    3    0    0  0.35700258804E+02 -0.50203815830E+01 -0.86286629074E+01  0.37069752275E+02  0.51100000000E-03 0.  1.
         22    1    1    0    0    0  0.13034456334E+02 -0.94267197170E+01 -0.22996512391E+02  0.28064206361E+02  0.00000000000E+00 0. -1.
</event>
<event>
 5    1  0.1103865E-009  0.9118800E+02  0.7818608E-02  0.1130116E+00
         25   -1    0    0    0    0  0.00000000000E+00  0.00000000000E+00  0.99999998245E-14  0.12500000000E+03  0.12500000000E+03 0.  0.
        -11    1    3    3    0    0  0.36601140211E+02 -0.47806198442E+02  0.14784648546E+02  0.61997273384E+02  0.51100000000E-03 0. -1.
         23    2    1    0    0    0  0.22026105407E+02 -0.21626915033E+02  0.38547811446E+01  0.93891607066E+02  0.88588383926E+02 0.  0.
         11    1    3    3    0    0 -0.14575034804E+02  0.26179283409E+02 -0.10929867402E+02  0.31894333682E+02  0.51100000000E-03 0.  1.
         22    1    1    0    0    0 -0.22026105407E+02  0.21626915033E+02 -0.38547811446E+01  0.31108392934E+02  0.00000000000E+00 0. -1.
</event>
<event>
 5    1  0.1103865E-009  0.9118800E+02  0.7818608E-02  0.1130116E+00
         25   -1    0    0    0    0  0.00000000000E+00  0.00000000000E+00  0.99999998245E-14  0.12500000000E+03  0.12500000000E+03 0.  0.
        -11    1    3    3    0    0  0.33862064845E+02 -0.33084657578E+02  0.12764779127E+02  0.49032372868E+02  0.51100000000E-03 0.  1.
         23    2    1    0    0    0  0.15375713600E+02  0.34652064290E+01  0.28111042566E+02  0.92771892105E+02  0.86994097652E+02 0.  0.
         11    1    3    3    0    0 -0.18486351244E+02  0.36549864007E+02  0.15346263439E+02  0.43739519237E+02  0.51100000000E-03 0. -1.
         22    1    1    0    0    0 -0.15375713600E+02 -0.34652064290E+01 -0.28111042566E+02  0.32228107895E+02  0.00000000000E+00 0. -1.
</event>
<event>
 5    1  0.1103865E-009  0.9118800E+02  0.7818608E-02  0.1130116E+00
         25   -1    0    0    0    0  0.00000000000E+00  0.00000000000E+00  0.99999998245E-14  0.12500000000E+03  0.12500000000E+03 0.  0.
        -11    1    3    3    0    0 -0.22823732466E+02  0.36378546276E+02 -0.80317970440E+01  0.43690172315E+02  0.51100000000E-03 0. -1.
         23    2    1    0    0    0  0.80891069490E+01  0.82743455820E+01  0.25328261935E+02  0.97153648378E+02  0.93077452127E+02 0.  0.
         11    1    3    3    0    0  0.30912839416E+02 -0.28104200694E+02  0.33360058979E+02  0.53463476063E+02  0.51100000000E-03 0.  1.
         22    1    1    0    0    0 -0.80891069490E+01 -0.82743455820E+01 -0.25328261935E+02  0.27846351622E+02  0.00000000000E+00 0.  1.
</event>
<event>
 5    1  0.1103865E-009  0.9118800E+02  0.7818608E-02  0.1130116E+00
         25   -1    0    0    0    0  0.00000000000E+00  0.00000000000E+00  0.99999998245E-14  0.12500000000E+03  0.12500000000E+03 0.  0.
        -11    1    3    3    0    0  0.14515325045E+02  0.39092119775E+02 -0.43731915255E+02  0.60426557918E+02  0.51100000000E-03 0.  1.
         23    2    1    0    0    0  0.16352206913E+02  0.11977411274E+02 -0.20350641665E+02  0.96277157733E+02  0.91892814916E+02 0.  0.
         11    1    3    3    0    0  0.18368818673E+01 -0.27114708501E+02  0.23381273590E+02  0.35850599815E+02  0.51100000000E-03 0. -1.
         22    1    1    0    0    0 -0.16352206913E+02 -0.11977411274E+02  0.20350641665E+02  0.28722842267E+02  0.00000000000E+00 0.  1.
</event>
<event>
 5    1  0.1103865E-009  0.9118800E+02  0.7818608E-02  0.1130116E+00
         25   -1    0    0    0    0  0.00000000000E+00  0.00000000000E+00  0.99999998245E-14  0.12500000000E+03  0.12500000000E+03 0.  0.
        -11    1    3    3    0    0  0.22823716856E+02 -0.32530844125E+02 -0.43789771387E+02  0.59133086754E+02  0.51100000000E-03 0.  1.
         23    2    1    0    0    0  0.22359255526E+02 -0.15511427450E+02 -0.11867357216E+02  0.95312041894E+02  0.90570472415E+02 0.  0.
         11    1    3    3    0    0 -0.46446133063E+00  0.17019416675E+02  0.31922414171E+02  0.36178955140E+02  0.51100000000E-03 0. -1.
         22    1    1    0    0    0 -0.22359255526E+02  0.15511427450E+02  0.11867357216E+02  0.29687958106E+02  0.00000000000E+00 0.  1.
</event>
<event>
 5    1  0.1103865E-009  0.9118800E+02  0.7818608E-02  0.1130116E+00
         25   -1    0    0    0    0  0.00000000000E+00  0.00000000000E+00  0.99999998245E-14  0.12500000000E+03  0.12500000000E+03 0.  0.
        -11    1    3    3    0    0  0.22443279520E+02 -0.27867198675E+02 -0.15852081195E+02  0.39135278664E+02  0.51100000000E-03 0.  1.
         23    2    1    0    0    0  0.11073496200E+02  0.55285069031E+01  0.27390661185E+02  0.94942804076E+02  0.90059430483E+02 0.  0.
         11    1    3    3    0    0 -0.11369783320E+02  0.33395705578E+02  0.43242742380E+02  0.55807525412E+02  0.51100000000E-03 0. -1.
         22    1    1    0    0    0 -0.11073496200E+02 -0.55285069031E+01 -0.27390661185E+02  0.30057195924E+02  0.00000000000E+00 0. -1.
</event>
<event>
 5    1  0.1103865E-009  0.9118800E+02  0.7818608E-02  0.1130116E+00
         25   -1    0    0    0    0  0.00000000000E+00  0.00000000000E+00  0.99999998245E-14  0.12500000000E+03  0.12500000000E+03 0.  0.
        -11    1    3    3    0    0  0.79436297440E+01  0.59189607320E+02  0.10381059214E+02  0.60615816903E+02  0.51100000000E-03 0.  1.
         23    2    1    0    0    0 -0.71130049968E+01  0.28080517232E+02  0.40812463895E+01  0.95746506872E+02  0.91168123365E+02 0.  0.
         11    1    3    3    0    0 -0.15056634741E+02 -0.31109090088E+02 -0.62998128244E+01  0.35130689969E+02  0.51100000000E-03 0. -1.
         22    1    1    0    0    0  0.71130049968E+01 -0.28080517232E+02 -0.40812463895E+01  0.29253493128E+02  0.00000000000E+00 0.  1.
</event>
<event>
 5    1  0.1103865E-009  0.9118800E+02  0.7818608E-02  0.1130116E+00
         25   -1    0    0    0    0  0.00000000000E+00  0.00000000000E+00  0.99999998245E-14  0.12500000000E+03  0.12500000000E+03 0.  0.
        -11    1    3    3    0    0  0.96171047987E+01  0.27122450606E+01 -0.33979197685E+02  0.35417945361E+02  0.51100000000E-03 0. -1.
         23    2    1    0    0    0 -0.24088948972E+02  0.70366026834E+01  0.15544939122E+02  0.95479898845E+02  0.90801843105E+02 0.  0.
         11    1    3    3    0    0 -0.33706053770E+02  0.43243576229E+01  0.49524136807E+02  0.60061953484E+02  0.51100000000E-03 0.  1.
         22    1    1    0    0    0  0.24088948972E+02 -0.70366026834E+01 -0.15544939122E+02  0.29520101155E+02  0.00000000000E+00 0.  1.
</event>
<event>
 5    1  0.1103865E-009  0.9118800E+02  0.7818608E-02  0.1130116E+00
         25   -1    0    0    0    0  0.00000000000E+00  0.00000000000E+00  0.99999998245E-14  0.12500000000E+03  0.12500000000E+03 0.  0.
        -11    1    3    3    0    0 -0.28529169927E+01  0.36824643154E+02  0.10725757046E+02  0.38460828687E+02  0.51100000000E-03 0.  1.
         23    2    1    0    0    0  0.31194482672E+02 -0.24562594826E+01 -0.61419973992E+01  0.93111865971E+02  0.87481235089E+02 0.  0.
         11    1    3    3    0    0  0.34047399665E+02 -0.39280902637E+02 -0.16867754445E+02  0.54651037284E+02  0.51100000000E-03 0. -1.
         22    1    1    0    0    0 -0.31194482672E+02  0.24562594826E+01  0.61419973992E+01  0.31888134029E+02  0.00000000000E+00 0. -1.
</event>
<event>
 5    1  0.1103865E-009  0.9118800E+02  0.7818608E-02  0.1130116E+00
         25   -1    0    0    0    0  0.00000000000E+00  0.00000000000E+00  0.99999998245E-14  0.12500000000E+03  0.12500000000E+03 0.  0.
        -11    1    3    3    0    0 -0.29287885748E+02 -0.30124108657E+02 -0.22211094551E+02  0.47524466282E+02  0.51100000000E-03 0.  1.
         23    2    1    0    0    0 -0.35616501325E+02 -0.17802957472E+02  0.11152859127E+02  0.83649465202E+02  0.72714278518E+02 0.  0.
         11    1    3    3    0    0 -0.63286155773E+01  0.12321151185E+02  0.33363953678E+02  0.36124998919E+02  0.51100000000E-03 0. -1.
         22    1    1    0    0    0  0.35616501325E+02  0.17802957472E+02 -0.11152859127E+02  0.41350534798E+02  0.00000000000E+00 0.  1.
</event>
<event>
 5    1  0.1103865E-009  0.9118800E+02  0.7818608E-02  0.1130116E+00
         25   -1    0    0    0    0  0.00000000000E+00  0.00000000000E+00  0.99999998245E-14  0.12500000000E+03  0.12500000000E+03 0.  0.
        -11    1    3    3    0    0 -0.71996794604E+01  0.37354648447E+02 -0.42645329263E+02  0.57147434353E+02  0.51100000000E-03 0.  1.
         23    2    1    0    0    0 -0.52680473262E+01  0.27863201495E+02 -0.47661399943E+01  0.96245410616E+02  0.91849619782E+02 0.  0.
         11    1    3    3    0    0  0.19316321343E+01 -0.94914469518E+01  0.37879189269E+02  0.39097976263E+02  0.51100000000E-03 0. -1.
         22    1    1    0    0    0  0.52680473262E+01 -0.27863201495E+02  0.47661399943E+01  0.28754589384E+02  0.00000000000E+00 0.  1.
</event>
<event>
 5    1  0.1103865E-009  0.9118800E+02  0.7818608E-02  0.1130116E+00
         25   -1    0    0    0    0  0.00000000000E+00  0.00000000000E+00  0.99999998245E-14  0.12500000000E+03  0.12500000000E+03 0.  0.
        -11    1    3    3    0    0  0.17999410285E+02  0.55146014479E+02 -0.18575893003E+02  0.60910799409E+02  0.51100000000E-03 0. -1.
         23    2    1    0    0    0 -0.14938642429E+01  0.26931820063E+02 -0.97176613607E+01  0.96329675540E+02  0.91964226116E+02 0.  0.
         11    1    3    3    0    0 -0.19493274528E+02 -0.28214194416E+02  0.88582316421E+01  0.35418876132E+02  0.51100000000E-03 0.  1.
         22    1    1    0    0    0  0.14938642429E+01 -0.26931820063E+02  0.97176613607E+01  0.28670324460E+02  0.00000000000E+00 0. -1.
</event>
<event>
 5    1  0.1103865E-009  0.9118800E+02  0.7818608E-02  0.1130116E+00
         25   -1    0    0    0    0  0.00000000000E+00  0.00000000000E+00  0.99999998245E-14  0.12500000000E+03  0.12500000000E+03 0.  0.
        -11    1    3    3    0    0  0.10938718268E+02 -0.39403973642E+02  0.30134172122E+02  0.50797608466E+02  0.51100000000E-03 0.  1.
         23    2    1    0    0    0  0.23116686405E+02  0.20496806715E+01  0.17869384031E+02  0.95710116647E+02  0.91118215312E+02 0.  0.
         11    1    3    3    0    0  0.12177968137E+02  0.41453654314E+02 -0.12264788091E+02  0.44912508181E+02  0.51100000000E-03 0. -1.
         22    1    1    0    0    0 -0.23116686405E+02 -0.20496806715E+01 -0.17869384031E+02  0.29289883353E+02  0.00000000000E+00 0.  1.
</event>
<event>
 5    1  0.1103865E-009  0.9118800E+02  0.7818608E-02  0.1130116E+00
         25   -1    0    0    0    0  0.00000000000E+00  0.00000000000E+00  0.99999998245E-14  0.12500000000E+03  0.12500000000E+03 0.  0.
        -11    1    3    3    0    0  0.27232543618E+02 -0.32823807872E+02  0.34380343219E+02  0.54781582629E+02  0.51100000000E-03 0.  1.
         23    2    1    0    0    0  0.27216071607E+02 -0.10542239591E+02 -0.74549643097E-01  0.95813377603E+02  0.91259763317E+02 0.  0.
         11    1    3    3    0    0 -0.16472011278E-01  0.22281568281E+02 -0.34454892862E+02  0.41031794974E+02  0.51100000000E-03 0. -1.
         22    1    1    0    0    0 -0.27216071607E+02  0.10542239591E+02  0.74549643097E-01  0.29186622397E+02  0.00000000000E+00 0.  1.
</event>
<event>
 5    1  0.1103865E-009  0.9118800E+02  0.7818608E-02  0.1130116E+00
         25   -1    0    0    0    0  0.00000000000E+00  0.00000000000E+00  0.99999998245E-14  0.12500000000E+03  0.12500000000E+03 0.  0.
        -11    1    3    3    0    0 -0.38289040479E+02  0.46266541707E+01  0.15480214770E+01  0.38598612933E+02  0.51100000000E-03 0.  1.
         23    2    1    0    0    0  0.12884015194E+02 -0.11751666143E+02  0.22728185055E+02  0.96352663290E+02  0.91995466315E+02 0.  0.
         11    1    3    3    0    0  0.51173055673E+02 -0.16378320314E+02  0.21180163578E+02  0.57754050357E+02  0.51100000000E-03 0. -1.
         22    1    1    0    0    0 -0.12884015194E+02  0.11751666143E+02 -0.22728185055E+02  0.28647336710E+02  0.00000000000E+00 0. -1.
</event>
<event>
 5    1  0.1103865E-009  0.9118800E+02  0.7818608E-02  0.1130116E+00
         25   -1    0    0    0    0  0.00000000000E+00  0.00000000000E+00  0.99999998245E-14  0.12500000000E+03  0.12500000000E+03 0.  0.
        -11    1    3    3    0    0  0.13092057466E+02 -0.28766217812E+02 -0.22121585825E+02  0.38577996521E+02  0.51100000000E-03 0.  1.
         23    2    1    0    0    0 -0.19427760394E+02 -0.13847454419E+02  0.20017184590E+02  0.93857142926E+02  0.88539740972E+02 0.  0.
         11    1    3    3    0    0 -0.32519817861E+02  0.14918763394E+02  0.42138770415E+02  0.55279146405E+02  0.51100000000E-03 0. -1.
         22    1    1    0    0    0  0.19427760394E+02  0.13847454419E+02 -0.20017184590E+02  0.31142857074E+02  0.00000000000E+00 0. -1.
</event>
<event>
 5    1  0.1103865E-009  0.9118800E+02  0.7818608E-02  0.1130116E+00
         25   -1    0    0    0    0  0.00000000000E+00  0.00000000000E+00  0.99999998245E-14  0.12500000000E+03  0.12500000000E+03 0.  0.
        -11    1    3    3    0    0 -0.26427646612E+02  0.27895143244E+02 -0.91211089071E+00  0.38436850399E+02  0.51100000000E-03 0.  1.
         23    2    1    0    0    0  0.27569582895E+02  0.65445703307E+01 -0.27514273759E+01  0.96531005385E+02  0.92237472570E+02 0.  0.
         11    1    3    3    0    0  0.53997229507E+02 -0.21350572913E+02 -0.18393164852E+01  0.58094154986E+02  0.51100000000E-03 0. -1.
         22    1    1    0    0    0 -0.27569582895E+02 -0.65445703307E+01  0.27514273759E+01  0.28468994615E+02  0.00000000000E+00 0.  1.
</event>
<event>
 5    1  0.1103865E-009  0.9118800E+02  0.7818608E-02  0.1130116E+00
         25   -1    0    0    0    0  0.00000000000E+00  0.00000000000E+00  0.99999998245E-14  0.12500000000E+03  0.12500000000E+03 0.  0.
        -11    1    3    3    0    0  0.17606963554E+02 -0.30099892909E+02  0.16830127494E+02  0.38720303595E+02  0.51100000000E-03 0. -1.
         23    2    1    0    0    0  0.16508347841E+02  0.15212881689E+02 -0.18276440459E+02  0.96052019180E+02  0.91586051312E+02 0.  0.
         11    1    3    3    0    0 -0.10986157135E+01  0.45312774598E+02 -0.35106567953E+02  0.57331715585E+02  0.51100000000E-03 0.  1.
         22    1    1    0    0    0 -0.16508347841E+02 -0.15212881689E+02  0.18276440459E+02  0.28947980820E+02  0.00000000000E+00 0. -1.
</event>
<event>
 5    1  0.1103865E-009  0.9118800E+02  0.7818608E-02  0.1130116E+00
         25   -1    0    0    0    0  0.00000000000E+00  0.00000000000E+00  0.99999998245E-14  0.12500000000E+03  0.12500000000E+03 0.  0.
        -11    1    3    3    0    0 -0.30145816665E+02  0.55932207134E+01 -0.27947378796E+02  0.41486267151E+02  0.51100000000E-03 0.  1.
         23    2    1    0    0    0  0.22445068113E+02  0.89497383026E+01 -0.17385065650E+02  0.95232242175E+02  0.90460270527E+02 0.  0.
         11    1    3    3    0    0  0.52590884777E+02  0.33565175892E+01  0.10562313147E+02  0.53745975024E+02  0.51100000000E-03 0. -1.
         22    1    1    0    0    0 -0.22445068113E+02 -0.89497383026E+01  0.17385065650E+02  0.29767757825E+02  0.00000000000E+00 0. -1.
</event>
<event>
 5    1  0.1103865E-009  0.9118800E+02  0.7818608E-02  0.1130116E+00
         25   -1    0    0    0    0  0.00000000000E+00  0.00000000000E+00  0.99999998245E-14  0.12500000000E+03  0.12500000000E+03 0.  0.
        -11    1    3    3    0    0  0.14384418762E+02 -0.37633551459E+02  0.62075541142E+01  0.40764315606E+02  0.51100000000E-03 0.  1.
         23    2    1    0    0    0 -0.27255247259E+02 -0.11433168794E+01 -0.50342963318E+01  0.97260140299E+02  0.93220357620E+02 0.  0.
         11    1    3    3    0    0 -0.41639666021E+02  0.36490234580E+02 -0.11241850446E+02  0.56495824693E+02  0.51100000000E-03 0. -1.
         22    1    1    0    0    0  0.27255247259E+02  0.11433168794E+01  0.50342963318E+01  0.27739859701E+02  0.00000000000E+00 0. -1.
</event>
<event>
 5    1  0.1103865E-009  0.9118800E+02  0.7818608E-02  0.1130116E+00
         25   -1    0    0    0    0  0.00000000000E+00  0.00000000000E+00  0.99999998245E-14  0.12500000000E+03  0.12500000000E+03 0.  0.
        -11    1    3    3    0    0  0.33565907027E+02  0.26892876662E+02 -0.37377351245E+01  0.43172532863E+02  0.51100000000E-03 0.  1.
         23    2    1    0    0    0  0.44630599899E+01 -0.76780763995E+00  0.29413022274E+02  0.95240391260E+02  0.90471530412E+02 0.  0.
         11    1    3    3    0    0 -0.29102847037E+02 -0.27660684302E+02  0.33150757399E+02  0.52067858397E+02  0.51100000000E-03 0. -1.
         22    1    1    0    0    0 -0.44630599899E+01  0.76780763995E+00 -0.29413022274E+02  0.29759608740E+02  0.00000000000E+00 0.  1.
</event>
<event>
 5    1  0.1103865E-009  0.9118800E+02  0.7818608E-02  0.1130116E+00
         25   -1    0    0    0    0  0.00000000000E+00  0.00000000000E+00  0.99999998245E-14  0.12500000000E+03  0.12500000000E+03 0.  0.
        -11    1    3    3    0    0  0.47153710740E+02  0.66096103538E+01 -0.13243104717E+01  0.47633110166E+02  0.51100000000E-03 0. -1.
         23    2    1    0    0    0  0.95506450543E+01 -0.64362237014E+01  0.26439113910E+02  0.96161370684E+02  0.91735176846E+02 0.  0.
         11    1    3    3    0    0 -0.37603065686E+02 -0.13045834055E+02  0.27763424382E+02  0.48528260518E+02  0.51100000000E-03 0.  1.
         22    1    1    0    0    0 -0.95506450543E+01  0.64362237014E+01 -0.26439113910E+02  0.28838629316E+02  0.00000000000E+00 0. -1.
</event>
<event>
 5    1  0.1103865E-009  0.9118800E+02  0.7818608E-02  0.1130116E+00
         25   -1    0    0    0    0  0.00000000000E+00  0.00000000000E+00  0.99999998245E-14  0.12500000000E+03  0.12500000000E+03 0.  0.
        -11    1    3    3    0    0  0.62581273995E+00 -0.35255143884E+02 -0.23217641606E+02  0.42218191504E+02  0.51100000000E-03 0.  1.
         23    2    1    0    0    0 -0.17206535585E+02 -0.11009105200E+02  0.20997887653E+02  0.95705349464E+02  0.91111675245E+02 0.  0.
         11    1    3    3    0    0 -0.17832348325E+02  0.24246038684E+02  0.44215529259E+02  0.53487157960E+02  0.51100000000E-03 0. -1.
         22    1    1    0    0    0  0.17206535585E+02  0.11009105200E+02 -0.20997887653E+02  0.29294650536E+02  0.00000000000E+00 0. -1.
</event>
<event>
 5    1  0.1103865E-009  0.9118800E+02  0.7818608E-02  0.1130116E+00
         25   -1    0    0    0    0  0.00000000000E+00  0.00000000000E+00  0.99999998245E-14  0.12500000000E+03  0.12500000000E+03 0.  0.
        -11    1    3    3    0    0  0.17290969352E+02 -0.56831671511E+02 -0.13873932168E+02  0.61002479474E+02  0.51100000000E-03 0. -1.
         23    2    1    0    0    0  0.63531804171E+01 -0.27728591680E+02  0.30312008195E+01  0.96391856468E+02  0.92048705134E+02 0.  0.
         11    1    3    3    0    0 -0.10937788934E+02  0.29103079831E+02  0.16905132987E+02  0.35389376994E+02  0.51100000000E-03 0.  1.
         22    1    1    0    0    0 -0.63531804171E+01  0.27728591680E+02 -0.30312008195E+01  0.28608143532E+02  0.00000000000E+00 0. -1.
</event>
<event>
 5    1  0.1103865E-009  0.9118800E+02  0.7818608E-02  0.1130116E+00
         25   -1    0    0    0    0  0.00000000000E+00  0.00000000000E+00  0.99999998245E-14  0.12500000000E+03  0.12500000000E+03 0.  0.
        -11    1    3    3    0    0  0.32611438458E+01 -0.14571370214E+01 -0.24109815349E+02  0.24372966662E+02  0.51100000000E-03 0.  1.
         23    2    1    0    0    0 -0.30425803363E+02 -0.10999042273E+02  0.24597398366E+02  0.84358390194E+02  0.73922916261E+02 0.  0.
         11    1    3    3    0    0 -0.33686947209E+02 -0.95419052517E+01  0.48707213716E+02  0.59985423532E+02  0.51100000000E-03 0. -1.
         22    1    1    0    0    0  0.30425803363E+02  0.10999042273E+02 -0.24597398366E+02  0.40641609806E+02  0.00000000000E+00 0. -1.
</event>
<event>
 5    1  0.1103865E-009  0.9118800E+02  0.7818608E-02  0.1130116E+00
         25   -1    0    0    0    0  0.00000000000E+00  0.00000000000E+00  0.99999998245E-14  0.12500000000E+03  0.12500000000E+03 0.  0.
        -11    1    3    3    0    0  0.29360657458E+02 -0.30083528962E+02  0.13929284159E+02  0.44284217037E+02  0.51100000000E-03 0. -1.
         23    2    1    0    0    0  0.17610333177E+02 -0.91394805911E+00 -0.25048959397E+02  0.94366529701E+02  0.89255993778E+02 0.  0.
         11    1    3    3    0    0 -0.11750324281E+02  0.29169580903E+02 -0.38978243557E+02  0.50082312664E+02  0.51100000000E-03 0.  1.
         22    1    1    0    0    0 -0.17610333177E+02  0.91394805911E+00  0.25048959397E+02  0.30633470299E+02  0.00000000000E+00 0. -1.
</event>
<event>
 5    1  0.1103865E-009  0.9118800E+02  0.7818608E-02  0.1130116E+00
         25   -1    0    0    0    0  0.00000000000E+00  0.00000000000E+00  0.99999998245E-14  0.12500000000E+03  0.12500000000E+03 0.  0.
        -11    1    3    3    0    0  0.64954861308E+01 -0.32389037595E+02  0.22669285850E+02  0.40064168749E+02  0.51100000000E-03 0. -1.
         23    2    1    0    0    0 -0.22198336718E+02  0.13875493588E+02  0.14381202145E+02  0.95131714972E+02  0.90321252997E+02 0.  0.
         11    1    3    3    0    0 -0.28693822849E+02  0.46264531182E+02 -0.82880837042E+01  0.55067546223E+02  0.51100000000E-03 0.  1.
         22    1    1    0    0    0  0.22198336718E+02 -0.13875493588E+02 -0.14381202145E+02  0.29868285028E+02  0.00000000000E+00 0.  1.
</event>
<event>
 5    1  0.1103865E-009  0.9118800E+02  0.7818608E-02  0.1130116E+00
         25   -1    0    0    0    0  0.00000000000E+00  0.00000000000E+00  0.99999998245E-14  0.12500000000E+03  0.12500000000E+03 0.  0.
        -11    1    3    3    0    0 -0.31127828106E+02  0.16824214309E+02  0.27186690805E+02  0.44621878344E+02  0.51100000000E-03 0.  1.
         23    2    1    0    0    0  0.16301330486E+02  0.22579895540E+02  0.10767330450E+02  0.95141660073E+02  0.90335015460E+02 0.  0.
         11    1    3    3    0    0  0.47429158592E+02  0.57556812303E+01 -0.16419360356E+02  0.50519781729E+02  0.51100000000E-03 0. -1.
         22    1    1    0    0    0 -0.16301330486E+02 -0.22579895540E+02 -0.10767330450E+02  0.29858339927E+02  0.00000000000E+00 0. -1.
</event>
<event>
 5    1  0.1103865E-009  0.9118800E+02  0.7818608E-02  0.1130116E+00
         25   -1    0    0    0    0  0.00000000000E+00  0.00000000000E+00  0.99999998245E-14  0.12500000000E+03  0.12500000000E+03 0.  0.
        -11    1    3    3    0    0  0.32200504888E+02  0.26857168258E+02  0.25263064516E+02  0.48953063549E+02  0.51100000000E-03 0.  1.
         23    2    1    0    0    0  0.29161449224E+02 -0.49042700158E+01 -0.72989645465E+01  0.94541555052E+02  0.89500775209E+02 0.  0.
         11    1    3    3    0    0 -0.30390556645E+01 -0.31761438274E+02 -0.32562029062E+02  0.45588491502E+02  0.51100000000E-03 0. -1.
         22    1    1    0    0    0 -0.29161449224E+02  0.49042700158E+01  0.72989645465E+01  0.30458444948E+02  0.00000000000E+00 0.  1.
</event>
<event>
 5    1  0.1103865E-009  0.9118800E+02  0.7818608E-02  0.1130116E+00
         25   -1    0    0    0    0  0.00000000000E+00  0.00000000000E+00  0.99999998245E-14  0.12500000000E+03  0.12500000000E+03 0.  0.
        -11    1    3    3    0    0 -0.33887216708E+02  0.40375397621E+02 -0.32564527322E+02  0.61959378864E+02  0.51100000000E-03 0. -1.
         23    2    1    0    0    0 -0.13609999119E+02  0.18959772524E+02 -0.20887465064E+02  0.93679220205E+02  0.88288193159E+02 0.  0.
         11    1    3    3    0    0  0.20277217589E+02 -0.21415625097E+02  0.11677062257E+02  0.31719841341E+02  0.51100000000E-03 0.  1.
         22    1    1    0    0    0  0.13609999119E+02 -0.18959772524E+02  0.20887465064E+02  0.31320779795E+02  0.00000000000E+00 0. -1.
</event>
<event>
 5    1  0.1103865E-009  0.9118800E+02  0.7818608E-02  0.1130116E+00
         25   -1    0    0    0    0  0.00000000000E+00  0.00000000000E+00  0.99999998245E-14  0.12500000000E+03  0.12500000000E+03 0.  0.
        -11    1    3    3    0    0 -0.64810033641E+01 -0.38567563779E+01 -0.41704191767E+02  0.42380627479E+02  0.51100000000E-03 0. -1.
         23    2    1    0    0    0  0.69855378042E+01  0.31841932632E+02 -0.24427599981E+02  0.84264093812E+02  0.73763293399E+02 0.  0.
         11    1    3    3    0    0  0.13466541168E+02  0.35698689010E+02  0.17276591786E+02  0.41883466333E+02  0.51100000000E-03 0.  1.
         22    1    1    0    0    0 -0.69855378042E+01 -0.31841932632E+02  0.24427599981E+02  0.40735906188E+02  0.00000000000E+00 0.  1.
</event>
<event>
 5    1  0.1103865E-009  0.9118800E+02  0.7818608E-02  0.1130116E+00
         25   -1    0    0    0    0  0.00000000000E+00  0.00000000000E+00  0.99999998245E-14  0.12500000000E+03  0.12500000000E+03 0.  0.
        -11    1    3    3    0    0  0.23419986599E+02 -0.18928523892E+02 -0.21517960281E+02  0.37010909256E+02  0.51100000000E-03 0.  1.
         23    2    1    0    0    0 -0.94363265320E+01  0.27044967950E+02 -0.46597887449E+01  0.95979521352E+02  0.91487050110E+02 0.  0.
         11    1    3    3    0    0 -0.32856313131E+02  0.45973491842E+02  0.16858171536E+02  0.58968612096E+02  0.51100000000E-03 0. -1.
         22    1    1    0    0    0  0.94363265320E+01 -0.27044967950E+02  0.46597887449E+01  0.29020478648E+02  0.00000000000E+00 0. -1.
</event>
<event>
 5    1  0.1103865E-009  0.9118800E+02  0.7818608E-02  0.1130116E+00
         25   -1    0    0    0    0  0.00000000000E+00  0.00000000000E+00  0.99999998245E-14  0.12500000000E+03  0.12500000000E+03 0.  0.
        -11    1    3    3    0    0  0.23108952628E+02 -0.45844298780E+02  0.20809285359E+02  0.55396297526E+02  0.51100000000E-03 0.  1.
         23    2    1    0    0    0  0.59061277120E+01 -0.10381576356E+02  0.27169385147E+02  0.95321136116E+02  0.90583022852E+02 0.  0.
         11    1    3    3    0    0 -0.17202824916E+02  0.35462722424E+02  0.63600997879E+01  0.39924838590E+02  0.51100000000E-03 0. -1.
         22    1    1    0    0    0 -0.59061277120E+01  0.10381576356E+02 -0.27169385147E+02  0.29678863884E+02  0.00000000000E+00 0.  1.
</event>
<event>
 5    1  0.1103865E-009  0.9118800E+02  0.7818608E-02  0.1130116E+00
         25   -1    0    0    0    0  0.00000000000E+00  0.00000000000E+00  0.99999998245E-14  0.12500000000E+03  0.12500000000E+03 0.  0.
        -11    1    3    3    0    0 -0.29913036767E+02 -0.24832198944E+02  0.10951515605E+02  0.40390141957E+02  0.51100000000E-03 0.  1.
         23    2    1    0    0    0 -0.33360702416E+01  0.11753007373E+02 -0.24349644866E+02  0.97757244044E+02  0.93884562155E+02 0.  0.
         11    1    3    3    0    0  0.26576966526E+02  0.36585206317E+02 -0.35301160471E+02  0.57367102087E+02  0.51100000000E-03 0. -1.
         22    1    1    0    0    0  0.33360702416E+01 -0.11753007373E+02  0.24349644866E+02  0.27242755956E+02  0.00000000000E+00 0. -1.
</event>
<event>
 5    1  0.1103865E-009  0.9118800E+02  0.7818608E-02  0.1130116E+00
         25   -1    0    0    0    0  0.00000000000E+00  0.00000000000E+00  0.99999998245E-14  0.12500000000E+03  0.12500000000E+03 0.  0.
        -11    1    3    3    0    0 -0.12199221569E+02 -0.12100373666E+02 -0.40553759093E+02  0.44043699056E+02  0.51100000000E-03 0.  1.
         23    2    1    0    0    0  0.79438961886E+01 -0.27627644478E+02  0.46192093307E+01  0.95884208393E+02  0.91356729902E+02 0.  0.
         11    1    3    3    0    0  0.20143117758E+02 -0.15527270812E+02  0.45172968423E+02  0.51840509337E+02  0.51100000000E-03 0. -1.
         22    1    1    0    0    0 -0.79438961886E+01  0.27627644478E+02 -0.46192093307E+01  0.29115791607E+02  0.00000000000E+00 0.  1.
</event>
<event>
 5    1  0.1103865E-009  0.9118800E+02  0.7818608E-02  0.1130116E+00
         25   -1    0    0    0    0  0.00000000000E+00  0.00000000000E+00  0.99999998245E-14  0.12500000000E+03  0.12500000000E+03 0.  0.
        -11    1    3    3    0    0 -0.15856613496E+02  0.40960256975E+02  0.37090968320E+02  0.57488388169E+02  0.51100000000E-03 0.  1.
         23    2    1    0    0    0 -0.18826441459E+02  0.63435621245E+01  0.21969212242E+02  0.95380378716E+02  0.90664737793E+02 0.  0.
         11    1    3    3    0    0 -0.29698279634E+01 -0.34616694851E+02 -0.15121756078E+02  0.37891990548E+02  0.51100000000E-03 0. -1.
         22    1    1    0    0    0  0.18826441459E+02 -0.63435621245E+01 -0.21969212242E+02  0.29619621284E+02  0.00000000000E+00 0.  1.
</event>
<event>
 5    1  0.1103865E-009  0.9118800E+02  0.7818608E-02  0.1130116E+00
         25   -1    0    0    0    0  0.00000000000E+00  0.00000000000E+00  0.99999998245E-14  0.12500000000E+03  0.12500000000E+03 0.  0.
        -11    1    3    3    0    0 -0.60532334135E+01 -0.17239916709E+02 -0.49591036405E+02  0.52850044984E+02  0.51100000000E-03 0.  1.
         23    2    1    0    0    0 -0.21782634179E+02 -0.17740685832E+02 -0.10467238542E+02  0.95020370779E+02  0.90167026649E+02 0.  0.
         11    1    3    3    0    0 -0.15729400766E+02 -0.50076912287E+00  0.39123797862E+02  0.42170325794E+02  0.51100000000E-03 0. -1.
         22    1    1    0    0    0  0.21782634179E+02  0.17740685832E+02  0.10467238542E+02  0.29979629221E+02  0.00000000000E+00 0.  1.
</event>
<event>
 5    1  0.1103865E-009  0.9118800E+02  0.7818608E-02  0.1130116E+00
         25   -1    0    0    0    0  0.00000000000E+00  0.00000000000E+00  0.99999998245E-14  0.12500000000E+03  0.12500000000E+03 0.  0.
        -11    1    3    3    0    0 -0.23635726084E+01 -0.22962062514E+02  0.45146252871E+02  0.50705294979E+02  0.51100000000E-03 0. -1.
         23    2    1    0    0    0  0.80909485740E+00 -0.29816158464E+02  0.13560568891E+01  0.95142055825E+02  0.90335563076E+02 0.  0.
         11    1    3    3    0    0  0.31726674658E+01 -0.68540959501E+01 -0.43790195982E+02  0.44436760846E+02  0.51100000000E-03 0.  1.
         22    1    1    0    0    0 -0.80909485740E+00  0.29816158464E+02 -0.13560568891E+01  0.29857944175E+02  0.00000000000E+00 0. -1.
</event>
<event>
 5    1  0.1103865E-009  0.9118800E+02  0.7818608E-02  0.1130116E+00
         25   -1    0    0    0    0  0.00000000000E+00  0.00000000000E+00  0.99999998245E-14  0.12500000000E+03  0.12500000000E+03 0.  0.
        -11    1    3    3    0    0 -0.47023031237E+02 -0.23945754471E+02  0.95096691418E+01  0.53619011846E+02  0.51100000000E-03 0.  1.
         23    2    1    0    0    0 -0.75300156867E+01 -0.26682180548E+02 -0.68308086923E+01  0.96446544125E+02  0.92122939766E+02 0.  0.
         11    1    3    3    0    0  0.39493015550E+02 -0.27364260763E+01 -0.16340477834E+02  0.42827532278E+02  0.51100000000E-03 0. -1.
         22    1    1    0    0    0  0.75300156867E+01  0.26682180548E+02  0.68308086923E+01  0.28553455875E+02  0.00000000000E+00 0. -1.
</event>
<event>
 5    1  0.1103865E-009  0.9118800E+02  0.7818608E-02  0.1130116E+00
         25   -1    0    0    0    0  0.00000000000E+00  0.00000000000E+00  0.99999998245E-14  0.12500000000E+03  0.12500000000E+03 0.  0.
        -11    1    3    3    0    0 -0.76079085191E+01  0.36267401529E+02 -0.49796674241E+02  0.62071841051E+02  0.51100000000E-03 0. -1.
         23    2    1    0    0    0 -0.22951273255E+01  0.10649203678E+02 -0.23146049097E+02  0.99418507917E+02  0.96070947633E+02 0.  0.
         11    1    3    3    0    0  0.53127811936E+01 -0.25618197851E+02  0.26650625144E+02  0.37346666866E+02  0.51100000000E-03 0.  1.
         22    1    1    0    0    0  0.22951273255E+01 -0.10649203678E+02  0.23146049097E+02  0.25581492083E+02  0.00000000000E+00 0. -1.
</event>
<event>
 5    1  0.1103865E-009  0.9118800E+02  0.7818608E-02  0.1130116E+00
         25   -1    0    0    0    0  0.00000000000E+00  0.00000000000E+00  0.99999998245E-14  0.12500000000E+03  0.12500000000E+03 0.  0.
        -11    1    3    3    0    0 -0.28328358526E+02  0.29159429872E+02 -0.38934981171E+00  0.40656116893E+02  0.51100000000E-03 0. -1.
         23    2    1    0    0    0  0.16991984969E+02  0.92603415415E+01  0.22613544002E+02  0.95236702955E+02  0.90466434322E+02 0.  0.
         11    1    3    3    0    0  0.45320343495E+02 -0.19899088331E+02  0.23002893813E+02  0.54580586063E+02  0.51100000000E-03 0.  1.
         22    1    1    0    0    0 -0.16991984969E+02 -0.92603415415E+01 -0.22613544002E+02  0.29763297045E+02  0.00000000000E+00 0.  1.
</event>
<event>
 5    1  0.1103865E-009  0.9118800E+02  0.7818608E-02  0.1130116E+00
         25   -1    0    0    0    0  0.00000000000E+00  0.00000000000E+00  0.99999998245E-14  0.12500000000E+03  0.12500000000E+03 0.  0.
        -11    1    3    3    0    0 -0.28100683652E+02  0.22004122823E+01  0.26425432099E+02  0.38636688494E+02  0.51100000000E-03 0.  1.
         23    2    1    0    0    0  0.67344143251E+01 -0.25988925422E+02 -0.99644741747E+01  0.96363182326E+02  0.92009758078E+02 0.  0.
         11    1    3    3    0    0  0.34835097977E+02 -0.28189337705E+02 -0.36389906273E+02  0.57726493832E+02  0.51100000000E-03 0. -1.
         22    1    1    0    0    0 -0.67344143251E+01  0.25988925422E+02  0.99644741747E+01  0.28636817674E+02  0.00000000000E+00 0. -1.
</event>
<event>
 5    1  0.1103865E-009  0.9118800E+02  0.7818608E-02  0.1130116E+00
         25   -1    0    0    0    0  0.00000000000E+00  0.00000000000E+00  0.99999998245E-14  0.12500000000E+03  0.12500000000E+03 0.  0.
        -11    1    3    3    0    0  0.26167081563E+02 -0.22683602375E+02 -0.14575549458E+02  0.37572711061E+02  0.51100000000E-03 0.  1.
         23    2    1    0    0    0 -0.96384196721E+01 -0.40625243544E+01  0.27320715249E+02  0.95745517956E+02  0.91166767460E+02 0.  0.
         11    1    3    3    0    0 -0.35805501235E+02  0.18621078021E+02  0.41896264707E+02  0.58172806895E+02  0.51100000000E-03 0. -1.
         22    1    1    0    0    0  0.96384196721E+01  0.40625243544E+01 -0.27320715249E+02  0.29254482044E+02  0.00000000000E+00 0. -1.
</event>
<event>
 5    1  0.1103865E-009  0.9118800E+02  0.7818608E-02  0.1130116E+00
         25   -1    0    0    0    0  0.00000000000E+00  0.00000000000E+00  0.99999998245E-14  0.12500000000E+03  0.12500000000E+03 0.  0.
        -11    1    3    3    0    0  0.13098670825E+01  0.52213876383E+02 -0.67157440515E+01  0.52660287287E+02  0.51100000000E-03 0.  1.
         23    2    1    0    0    0  0.29219731250E+00  0.20727200570E+02  0.21631463456E+02  0.95039652305E+02  0.90193752978E+02 0.  0.
         11    1    3    3    0    0 -0.10176697700E+01 -0.31486675814E+02  0.28347207508E+02  0.42379365018E+02  0.51100000000E-03 0. -1.
         22    1    1    0    0    0 -0.29219731250E+00 -0.20727200570E+02 -0.21631463456E+02  0.29960347695E+02  0.00000000000E+00 0.  1.
</event>
<event>
 5    1  0.1103865E-009  0.9118800E+02  0.7818608E-02  0.1130116E+00
         25   -1    0    0    0    0  0.00000000000E+00  0.00000000000E+00  0.99999998245E-14  0.12500000000E+03  0.12500000000E+03 0.  0.
        -11    1    3    3    0    0 -0.20762073298E+02  0.35045488512E+02  0.19860597125E+02  0.45317692694E+02  0.51100000000E-03 0.  1.
         23    2    1    0    0    0 -0.11685126593E+01  0.24419800005E+02 -0.21591709970E+02  0.92382612098E+02  0.86432939465E+02 0.  0.
         11    1    3    3    0    0  0.19593560639E+02 -0.10625688507E+02 -0.41452307095E+02  0.47064919404E+02  0.51100000000E-03 0. -1.
         22    1    1    0    0    0  0.11685126593E+01 -0.24419800005E+02  0.21591709970E+02  0.32617387902E+02  0.00000000000E+00 0.  1.
</event>
<event>
 5    1  0.1103865E-009  0.9118800E+02  0.7818608E-02  0.1130116E+00
         25   -1    0    0    0    0  0.00000000000E+00  0.00000000000E+00  0.99999998245E-14  0.12500000000E+03  0.12500000000E+03 0.  0.
        -11    1    3    3    0    0  0.25320507590E+02 -0.36421785825E+02  0.30802935194E+01  0.44465298782E+02  0.51100000000E-03 0.  1.
         23    2    1    0    0    0  0.64950699710E+01  0.42896220369E+01  0.28111740386E+02  0.95830551279E+02  0.91283283354E+02 0.  0.
         11    1    3    3    0    0 -0.18825437619E+02  0.40711407862E+02  0.25031446866E+02  0.51365252498E+02  0.51100000000E-03 0. -1.
         22    1    1    0    0    0 -0.64950699710E+01 -0.42896220369E+01 -0.28111740386E+02  0.29169448721E+02  0.00000000000E+00 0. -1.
</event>
<event>
 5    1  0.1103865E-009  0.9118800E+02  0.7818608E-02  0.1130116E+00
         25   -1    0    0    0    0  0.00000000000E+00  0.00000000000E+00  0.99999998245E-14  0.12500000000E+03  0.12500000000E+03 0.  0.
        -11    1    3    3    0    0  0.10550431215E+02 -0.19602913858E+02 -0.37191612630E+02  0.43345148297E+02  0.51100000000E-03 0. -1.
         23    2    1    0    0    0 -0.13256909814E+02  0.21392377974E+02 -0.10689368588E+02  0.97656955290E+02  0.93750940382E+02 0.  0.
         11    1    3    3    0    0 -0.23807341029E+02  0.40995291832E+02  0.26502244043E+02  0.54311806993E+02  0.51100000000E-03 0.  1.
         22    1    1    0    0    0  0.13256909814E+02 -0.21392377974E+02  0.10689368588E+02  0.27343044710E+02  0.00000000000E+00 0.  1.
</event>
<event>
 5    1  0.1103865E-009  0.9118800E+02  0.7818608E-02  0.1130116E+00
         25   -1    0    0    0    0  0.00000000000E+00  0.00000000000E+00  0.99999998245E-14  0.12500000000E+03  0.12500000000E+03 0.  0.
        -11    1    3    3    0    0 -0.13890302436E+02 -0.31891305614E+01 -0.28280842740E+02  0.31668866760E+02  0.51100000000E-03 0. -1.
         23    2    1    0    0    0  0.22542145917E+01  0.16107797077E+02  0.27606500380E+02  0.92958441465E+02  0.87261734834E+02 0.  0.
         11    1    3    3    0    0  0.16144517028E+02  0.19296927638E+02  0.55887343120E+02  0.61289574706E+02  0.51100000000E-03 0.  1.
         22    1    1    0    0    0 -0.22542145917E+01 -0.16107797077E+02 -0.27606500380E+02  0.32041558535E+02  0.00000000000E+00 0.  1.
</event>
<event>
 5    1  0.1103865E-009  0.9118800E+02  0.7818608E-02  0.1130116E+00
         25   -1    0    0    0    0  0.00000000000E+00  0.00000000000E+00  0.99999998245E-14  0.12500000000E+03  0.12500000000E+03 0.  0.
        -11    1    3    3    0    0  0.30474608789E+02  0.19655706987E+02 -0.62322370586E+01  0.36795235793E+02  0.51100000000E-03 0.  1.
         23    2    1    0    0    0 -0.17598266249E+02 -0.17345467908E+00  0.22678872971E+02  0.96293548796E+02  0.91915108655E+02 0.  0.
         11    1    3    3    0    0 -0.48072875038E+02 -0.19829161666E+02  0.28911110029E+02  0.59498313003E+02  0.51100000000E-03 0. -1.
         22    1    1    0    0    0  0.17598266249E+02  0.17345467908E+00 -0.22678872971E+02  0.28706451204E+02  0.00000000000E+00 0. -1.
</event>
<event>
 5    1  0.1103865E-009  0.9118800E+02  0.7818608E-02  0.1130116E+00
         25   -1    0    0    0    0  0.00000000000E+00  0.00000000000E+00  0.99999998245E-14  0.12500000000E+03  0.12500000000E+03 0.  0.
        -11    1    3    3    0    0  0.13697008012E+02  0.13885802014E+02  0.38667740614E+02  0.43308402077E+02  0.51100000000E-03 0.  1.
         23    2    1    0    0    0 -0.13407176246E+02 -0.19913026840E+02  0.59140736784E+00  0.10098686244E+03  0.98090344122E+02 0.  0.
         11    1    3    3    0    0 -0.27104184257E+02 -0.33798828854E+02 -0.38076333246E+02  0.57678460363E+02  0.51100000000E-03 0. -1.
         22    1    1    0    0    0  0.13407176246E+02  0.19913026840E+02 -0.59140736784E+00  0.24013137560E+02  0.00000000000E+00 0. -1.
</event>
<event>
 5    1  0.1103865E-009  0.9118800E+02  0.7818608E-02  0.1130116E+00
         25   -1    0    0    0    0  0.00000000000E+00  0.00000000000E+00  0.99999998245E-14  0.12500000000E+03  0.12500000000E+03 0.  0.
        -11    1    3    3    0    0  0.33220734711E+02  0.23727189505E+02  0.42275487807E+02  0.58769155227E+02  0.51100000000E-03 0.  1.
         23    2    1    0    0    0  0.16423089715E+01  0.13897142585E+02  0.25638735943E+02  0.95790882732E+02  0.91228946520E+02 0.  0.
         11    1    3    3    0    0 -0.31578425739E+02 -0.98300469195E+01 -0.16636751864E+02  0.37021727505E+02  0.51100000000E-03 0. -1.
         22    1    1    0    0    0 -0.16423089715E+01 -0.13897142585E+02 -0.25638735943E+02  0.29209117268E+02  0.00000000000E+00 0.  1.
</event>
<event>
 5    1  0.1103865E-009  0.9118800E+02  0.7818608E-02  0.1130116E+00
         25   -1    0    0    0    0  0.00000000000E+00  0.00000000000E+00  0.99999998245E-14  0.12500000000E+03  0.12500000000E+03 0.  0.
        -11    1    3    3    0    0 -0.24240190473E+02 -0.26115705627E+02  0.51450556072E+01  0.36001229313E+02  0.51100000000E-03 0.  1.
         23    2    1    0    0    0 -0.31566798706E+01  0.28881664566E+02 -0.42207888302E+01  0.95641351627E+02  0.91023831533E+02 0.  0.
         11    1    3    3    0    0  0.21083510602E+02  0.54997370193E+02 -0.93658444374E+01  0.59640122315E+02  0.51100000000E-03 0. -1.
         22    1    1    0    0    0  0.31566798706E+01 -0.28881664566E+02  0.42207888302E+01  0.29358648373E+02  0.00000000000E+00 0. -1.
</event>
<event>
 5    1  0.1103865E-009  0.9118800E+02  0.7818608E-02  0.1130116E+00
         25   -1    0    0    0    0  0.00000000000E+00  0.00000000000E+00  0.99999998245E-14  0.12500000000E+03  0.12500000000E+03 0.  0.
        -11    1    3    3    0    0 -0.44383114010E+02 -0.12123743646E+02 -0.12532281439E+02  0.47685469984E+02  0.51100000000E-03 0. -1.
         23    2    1    0    0    0 -0.13998004044E+02  0.24518056831E+02 -0.87768785730E+01  0.95434600874E+02  0.90739463402E+02 0.  0.
         11    1    3    3    0    0  0.30385109966E+02  0.36641800477E+02  0.37554028662E+01  0.47749130890E+02  0.51100000000E-03 0.  1.
         22    1    1    0    0    0  0.13998004044E+02 -0.24518056831E+02  0.87768785730E+01  0.29565399126E+02  0.00000000000E+00 0.  1.
</event>
<event>
 5    1  0.1103865E-009  0.9118800E+02  0.7818608E-02  0.1130116E+00
         25   -1    0    0    0    0  0.00000000000E+00  0.00000000000E+00  0.99999998245E-14  0.12500000000E+03  0.12500000000E+03 0.  0.
        -11    1    3    3    0    0  0.47358414410E+02 -0.31061963268E+01 -0.26443200860E+02  0.54329648839E+02  0.51100000000E-03 0. -1.
         23    2    1    0    0    0  0.31606329939E+02 -0.78064084991E+00  0.80972718247E+01  0.92363589300E+02  0.86405424165E+02 0.  0.
         11    1    3    3    0    0 -0.15752084471E+02  0.23255554769E+01  0.34540472685E+02  0.38033940461E+02  0.51100000000E-03 0.  1.
         22    1    1    0    0    0 -0.31606329939E+02  0.78064084991E+00 -0.80972718247E+01  0.32636410700E+02  0.00000000000E+00 0. -1.
</event>
<event>
 5    1  0.1103865E-009  0.9118800E+02  0.7818608E-02  0.1130116E+00
         25   -1    0    0    0    0  0.00000000000E+00  0.00000000000E+00  0.99999998245E-14  0.12500000000E+03  0.12500000000E+03 0.  0.
        -11    1    3    3    0    0  0.48286856641E+02 -0.21607058733E+02  0.95823370539E+01  0.53761572661E+02  0.51100000000E-03 0. -1.
         23    2    1    0    0    0  0.62851441785E+01 -0.24935770250E+02 -0.58412154296E+01  0.98629268630E+02  0.95038503553E+02 0.  0.
         11    1    3    3    0    0 -0.42001712462E+02 -0.33287115161E+01 -0.15423552483E+02  0.44867695969E+02  0.51100000000E-03 0.  1.
         22    1    1    0    0    0 -0.62851441785E+01  0.24935770250E+02  0.58412154296E+01  0.26370731370E+02  0.00000000000E+00 0.  1.
</event>
<event>
 5    1  0.1103865E-009  0.9118800E+02  0.7818608E-02  0.1130116E+00
         25   -1    0    0    0    0  0.00000000000E+00  0.00000000000E+00  0.99999998245E-14  0.12500000000E+03  0.12500000000E+03 0.  0.
        -11    1    3    3    0    0  0.15464588941E+02  0.16443601894E+02 -0.54806178541E+02  0.59272782631E+02  0.51100000000E-03 0. -1.
         23    2    1    0    0    0  0.21728893438E+02  0.48705066366E+01 -0.40981054063E+02  0.78359744457E+02  0.62967738679E+02 0.  0.
         11    1    3    3    0    0  0.62643044973E+01 -0.11573095258E+02  0.13825124477E+02  0.19086961826E+02  0.51100000000E-03 0.  1.
         22    1    1    0    0    0 -0.21728893438E+02 -0.48705066366E+01  0.40981054063E+02  0.46640255543E+02  0.00000000000E+00 0. -1.
</event>
<event>
 5    1  0.1103865E-009  0.9118800E+02  0.7818608E-02  0.1130116E+00
         25   -1    0    0    0    0  0.00000000000E+00  0.00000000000E+00  0.99999998245E-14  0.12500000000E+03  0.12500000000E+03 0.  0.
        -11    1    3    3    0    0  0.37828651109E+02  0.41964485818E+02 -0.97481057320E+01  0.57332804574E+02  0.51100000000E-03 0.  1.
         23    2    1    0    0    0  0.24060584678E+02  0.12803579268E+02  0.10923549672E+02  0.95637314248E+02  0.91018286965E+02 0.  0.
         11    1    3    3    0    0 -0.13768066431E+02 -0.29160906550E+02  0.20671655404E+02  0.38304509675E+02  0.51100000000E-03 0. -1.
         22    1    1    0    0    0 -0.24060584678E+02 -0.12803579268E+02 -0.10923549672E+02  0.29362685752E+02  0.00000000000E+00 0.  1.
</event>
<event>
 5    1  0.1103865E-009  0.9118800E+02  0.7818608E-02  0.1130116E+00
         25   -1    0    0    0    0  0.00000000000E+00  0.00000000000E+00  0.99999998245E-14  0.12500000000E+03  0.12500000000E+03 0.  0.
        -11    1    3    3    0    0  0.16026659246E+02  0.10318977119E+02  0.71607339797E+01  0.20362003997E+02  0.51100000000E-03 0.  1.
         23    2    1    0    0    0 -0.31533257357E+02  0.11354968789E+02 -0.29445275168E+02  0.80387155825E+02  0.66871436026E+02 0.  0.
         11    1    3    3    0    0 -0.47559916603E+02  0.10359916699E+01 -0.36606009147E+02  0.60025151828E+02  0.51100000000E-03 0. -1.
         22    1    1    0    0    0  0.31533257357E+02 -0.11354968789E+02  0.29445275168E+02  0.44612844175E+02  0.00000000000E+00 0. -1.
</event>
<event>
 5    1  0.1103865E-009  0.9118800E+02  0.7818608E-02  0.1130116E+00
         25   -1    0    0    0    0  0.00000000000E+00  0.00000000000E+00  0.99999998245E-14  0.12500000000E+03  0.12500000000E+03 0.  0.
        -11    1    3    3    0    0 -0.85397812229E+01 -0.17272305297E+02 -0.41250580133E+02  0.45528790399E+02  0.51100000000E-03 0. -1.
         23    2    1    0    0    0  0.21438870314E+02 -0.22514588825E+02 -0.39632456137E+01  0.93659304633E+02  0.88259991832E+02 0.  0.
         11    1    3    3    0    0  0.29978651537E+02 -0.52422835274E+01  0.37287334520E+02  0.48130514234E+02  0.51100000000E-03 0.  1.
         22    1    1    0    0    0 -0.21438870314E+02  0.22514588825E+02  0.39632456137E+01  0.31340695367E+02  0.00000000000E+00 0.  1.
</event>
<event>
 5    1  0.1103865E-009  0.9118800E+02  0.7818608E-02  0.1130116E+00
         25   -1    0    0    0    0  0.00000000000E+00  0.00000000000E+00  0.99999998245E-14  0.12500000000E+03  0.12500000000E+03 0.  0.
        -11    1    3    3    0    0  0.11339129156E+02 -0.78094735914E+00  0.26953826466E+02  0.29252256156E+02  0.51100000000E-03 0. -1.
         23    2    1    0    0    0 -0.22208225904E+02 -0.36462999936E+02  0.93610173789E+01  0.81292056689E+02  0.68542061336E+02 0.  0.
         11    1    3    3    0    0 -0.33547355060E+02 -0.35682052577E+02 -0.17592809087E+02  0.52039800533E+02  0.51100000000E-03 0.  1.
         22    1    1    0    0    0  0.22208225904E+02  0.36462999936E+02 -0.93610173789E+01  0.43707943311E+02  0.00000000000E+00 0.  1.
</event>
<event>
 5    1  0.1103865E-009  0.9118800E+02  0.7818608E-02  0.1130116E+00
         25   -1    0    0    0    0  0.00000000000E+00  0.00000000000E+00  0.99999998245E-14  0.12500000000E+03  0.12500000000E+03 0.  0.
        -11    1    3    3    0    0 -0.14277053588E+02  0.31033068616E+02 -0.31209197365E+02  0.46269856357E+02  0.51100000000E-03 0.  1.
         23    2    1    0    0    0 -0.40048448396E+01 -0.16631744672E+02 -0.23952062878E+02  0.95566090489E+02  0.90920419171E+02 0.  0.
         11    1    3    3    0    0  0.10272208748E+02 -0.47664813288E+02  0.72571344879E+01  0.49296234132E+02  0.51100000000E-03 0. -1.
         22    1    1    0    0    0  0.40048448396E+01  0.16631744672E+02  0.23952062878E+02  0.29433909511E+02  0.00000000000E+00 0.  1.
</event>
<event>
 5    1  0.1103865E-009  0.9118800E+02  0.7818608E-02  0.1130116E+00
         25   -1    0    0    0    0  0.00000000000E+00  0.00000000000E+00  0.99999998245E-14  0.12500000000E+03  0.12500000000E+03 0.  0.
        -11    1    3    3    0    0 -0.34013606977E+02 -0.12053859460E+02  0.10765455349E+02  0.37657881202E+02  0.51100000000E-03 0.  1.
         23    2    1    0    0    0  0.21720119309E+02 -0.18781188267E+02  0.12169177719E+02  0.93813696887E+02  0.88478382793E+02 0.  0.
         11    1    3    3    0    0  0.55733726285E+02 -0.67273288064E+01  0.14037223704E+01  0.56155815685E+02  0.51100000000E-03 0. -1.
         22    1    1    0    0    0 -0.21720119309E+02  0.18781188267E+02 -0.12169177719E+02  0.31186303113E+02  0.00000000000E+00 0. -1.
</event>
<event>
 5    1  0.1103865E-009  0.9118800E+02  0.7818608E-02  0.1130116E+00
         25   -1    0    0    0    0  0.00000000000E+00  0.00000000000E+00  0.99999998245E-14  0.12500000000E+03  0.12500000000E+03 0.  0.
        -11    1    3    3    0    0 -0.21057004821E+02  0.75768803623E+01  0.34781345106E+02  0.41358778218E+02  0.51100000000E-03 0.  1.
         23    2    1    0    0    0  0.14185983888E+01 -0.28860213597E+02  0.67161780770E+00  0.96097138191E+02  0.91647610704E+02 0.  0.
         11    1    3    3    0    0  0.22475603210E+02 -0.36437093959E+02 -0.34109727299E+02  0.54738359973E+02  0.51100000000E-03 0. -1.
         22    1    1    0    0    0 -0.14185983888E+01  0.28860213597E+02 -0.67161780770E+00  0.28902861809E+02  0.00000000000E+00 0. -1.
</event>
<event>
 5    1  0.1103865E-009  0.9118800E+02  0.7818608E-02  0.1130116E+00
         25   -1    0    0    0    0  0.00000000000E+00  0.00000000000E+00  0.99999998245E-14  0.12500000000E+03  0.12500000000E+03 0.  0.
        -11    1    3    3    0    0  0.32797287519E+02 -0.97319443249E+01  0.91560258374E+01  0.35414765542E+02  0.51100000000E-03 0. -1.
         23    2    1    0    0    0 -0.12026870897E+02  0.81235113224E+01 -0.26075062737E+02  0.95157983370E+02  0.90357599805E+02 0.  0.
         11    1    3    3    0    0 -0.44824158416E+02  0.17855455647E+02 -0.35231088575E+02  0.59743217829E+02  0.51100000000E-03 0.  1.
         22    1    1    0    0    0  0.12026870897E+02 -0.81235113224E+01  0.26075062737E+02  0.29842016630E+02  0.00000000000E+00 0.  1.
</event>
<event>
 5    1  0.1103865E-009  0.9118800E+02  0.7818608E-02  0.1130116E+00
         25   -1    0    0    0    0  0.00000000000E+00  0.00000000000E+00  0.99999998245E-14  0.12500000000E+03  0.12500000000E+03 0.  0.
        -11    1    3    3    0    0 -0.27426649194E+02 -0.14538048804E+02  0.17328056645E+02  0.35550492210E+02  0.51100000000E-03 0.  1.
         23    2    1    0    0    0  0.23322622104E+02  0.15864555739E+02  0.95578860209E+01  0.95217756703E+02  0.90440251966E+02 0.  0.
         11    1    3    3    0    0  0.50749271298E+02  0.30402604543E+02 -0.77701706238E+01  0.59667264493E+02  0.51100000000E-03 0. -1.
         22    1    1    0    0    0 -0.23322622104E+02 -0.15864555739E+02 -0.95578860209E+01  0.29782243297E+02  0.00000000000E+00 0. -1.
</event>
<event>
 5    1  0.1103865E-009  0.9118800E+02  0.7818608E-02  0.1130116E+00
         25   -1    0    0    0    0  0.00000000000E+00  0.00000000000E+00  0.99999998245E-14  0.12500000000E+03  0.12500000000E+03 0.  0.
        -11    1    3    3    0    0 -0.53240113850E+02  0.43545996707E+01  0.27588445422E+02  0.60121498502E+02  0.51100000000E-03 0. -1.
         23    2    1    0    0    0 -0.17649827312E+02  0.67345332632E+01  0.21623925341E+02  0.96286510320E+02  0.91905536178E+02 0.  0.
         11    1    3    3    0    0  0.35590286538E+02  0.23799335926E+01 -0.59645200813E+01  0.36165011818E+02  0.51100000000E-03 0.  1.
         22    1    1    0    0    0  0.17649827312E+02 -0.67345332632E+01 -0.21623925341E+02  0.28713489680E+02  0.00000000000E+00 0. -1.
</event>
<event>
 5    1  0.1103865E-009  0.9118800E+02  0.7818608E-02  0.1130116E+00
         25   -1    0    0    0    0  0.00000000000E+00  0.00000000000E+00  0.99999998245E-14  0.12500000000E+03  0.12500000000E+03 0.  0.
        -11    1    3    3    0    0  0.17453270425E+02 -0.30966863812E+02  0.43665555420E+02  0.56304920151E+02  0.51100000000E-03 0. -1.
         23    2    1    0    0    0 -0.46658664347E+01 -0.26350294573E+02  0.10902830769E+02  0.96103978605E+02  0.91656940006E+02 0.  0.
         11    1    3    3    0    0 -0.22119136859E+02  0.46165692382E+01 -0.32762724651E+02  0.39799058453E+02  0.51100000000E-03 0.  1.
         22    1    1    0    0    0  0.46658664347E+01  0.26350294573E+02 -0.10902830769E+02  0.28896021395E+02  0.00000000000E+00 0.  1.
</event>
<event>
 5    1  0.1103865E-009  0.9118800E+02  0.7818608E-02  0.1130116E+00
         25   -1    0    0    0    0  0.00000000000E+00  0.00000000000E+00  0.99999998245E-14  0.12500000000E+03  0.12500000000E+03 0.  0.
        -11    1    3    3    0    0  0.61277571018E+01  0.23904907083E+02 -0.33010236035E+02  0.41214920516E+02  0.51100000000E-03 0.  1.
         23    2    1    0    0    0  0.18678114568E+02 -0.21406853649E+02 -0.44050810889E+01  0.96250563720E+02  0.91856632477E+02 0.  0.
         11    1    3    3    0    0  0.12550357467E+02 -0.45311760732E+02  0.28605154946E+02  0.55035643205E+02  0.51100000000E-03 0. -1.
         22    1    1    0    0    0 -0.18678114568E+02  0.21406853649E+02  0.44050810889E+01  0.28749436280E+02  0.00000000000E+00 0. -1.
</event>
<event>
 5    1  0.1103865E-009  0.9118800E+02  0.7818608E-02  0.1130116E+00
         25   -1    0    0    0    0  0.00000000000E+00  0.00000000000E+00  0.99999998245E-14  0.12500000000E+03  0.12500000000E+03 0.  0.
        -11    1    3    3    0    0 -0.34440638488E+02  0.67302940325E+01  0.68306540107E+01  0.35750696101E+02  0.51100000000E-03 0.  1.
         23    2    1    0    0    0  0.24158043355E+02  0.16098004398E+01 -0.12609202231E+02  0.97701749194E+02  0.93810645976E+02 0.  0.
         11    1    3    3    0    0  0.58598681843E+02 -0.51204935928E+01 -0.19439856241E+02  0.61951053093E+02  0.51100000000E-03 0. -1.
         22    1    1    0    0    0 -0.24158043355E+02 -0.16098004398E+01  0.12609202231E+02  0.27298250806E+02  0.00000000000E+00 0. -1.
</event>
<event>
 5    1  0.1103865E-009  0.9118800E+02  0.7818608E-02  0.1130116E+00
         25   -1    0    0    0    0  0.00000000000E+00  0.00000000000E+00  0.99999998245E-14  0.12500000000E+03  0.12500000000E+03 0.  0.
        -11    1    3    3    0    0  0.10352465495E+01 -0.28113737387E+02 -0.20025183410E+02  0.34532042166E+02  0.51100000000E-03 0.  1.
         23    2    1    0    0    0  0.47473599228E+01  0.16292906562E+02  0.22961388805E+02  0.96447914151E+02  0.92124798712E+02 0.  0.
         11    1    3    3    0    0  0.37121133733E+01  0.44406643949E+02  0.42986572216E+02  0.61915871985E+02  0.51100000000E-03 0. -1.
         22    1    1    0    0    0 -0.47473599228E+01 -0.16292906562E+02 -0.22961388805E+02  0.28552085849E+02  0.00000000000E+00 0. -1.
</event>
<event>
 5    1  0.1103865E-009  0.9118800E+02  0.7818608E-02  0.1130116E+00
         25   -1    0    0    0    0  0.00000000000E+00  0.00000000000E+00  0.99999998245E-14  0.12500000000E+03  0.12500000000E+03 0.  0.
        -11    1    3    3    0    0 -0.25064331962E+02  0.44981791295E+02  0.26635506991E+02  0.57974412612E+02  0.51100000000E-03 0. -1.
         23    2    1    0    0    0  0.38909732020E+01  0.27083015963E+02  0.99369815340E+01  0.95890327585E+02  0.91365102180E+02 0.  0.
         11    1    3    3    0    0  0.28955305164E+02 -0.17898775332E+02 -0.16698525457E+02  0.37915914973E+02  0.51100000000E-03 0.  1.
         22    1    1    0    0    0 -0.38909732020E+01 -0.27083015963E+02 -0.99369815340E+01  0.29109672415E+02  0.00000000000E+00 0. -1.
</event>
<event>
 5    1  0.1103865E-009  0.9118800E+02  0.7818608E-02  0.1130116E+00
         25   -1    0    0    0    0  0.00000000000E+00  0.00000000000E+00  0.99999998245E-14  0.12500000000E+03  0.12500000000E+03 0.  0.
        -11    1    3    3    0    0 -0.14625118807E+01  0.13921532904E+02  0.55958447931E+02  0.57682717642E+02  0.51100000000E-03 0.  1.
         23    2    1    0    0    0  0.13443034199E+02 -0.40800419502E+01  0.21015610472E+02  0.99721198717E+02  0.96463981253E+02 0.  0.
         11    1    3    3    0    0  0.14905546080E+02 -0.18001574854E+02 -0.34942837459E+02  0.42038481075E+02  0.51100000000E-03 0. -1.
         22    1    1    0    0    0 -0.13443034199E+02  0.40800419502E+01 -0.21015610472E+02  0.25278801283E+02  0.00000000000E+00 0.  1.
</event>
<event>
 5    1  0.1103865E-009  0.9118800E+02  0.7818608E-02  0.1130116E+00
         25   -1    0    0    0    0  0.00000000000E+00  0.00000000000E+00  0.99999998245E-14  0.12500000000E+03  0.12500000000E+03 0.  0.
        -11    1    3    3    0    0 -0.59961606312E+01  0.30935399844E+02 -0.92157941258E+01  0.32831140210E+02  0.51100000000E-03 0.  1.
         23    2    1    0    0    0  0.19886659115E+01 -0.29932745229E+02  0.57004647583E+00  0.94995850586E+02  0.90133027501E+02 0.  0.
         11    1    3    3    0    0  0.79848265426E+01 -0.60868145074E+02  0.97858406016E+01  0.62164710376E+02  0.51100000000E-03 0. -1.
         22    1    1    0    0    0 -0.19886659115E+01  0.29932745229E+02 -0.57004647583E+00  0.30004149414E+02  0.00000000000E+00 0. -1.
</event>
<event>
 5    1  0.1103865E-009  0.9118800E+02  0.7818608E-02  0.1130116E+00
         25   -1    0    0    0    0  0.00000000000E+00  0.00000000000E+00  0.99999998245E-14  0.12500000000E+03  0.12500000000E+03 0.  0.
        -11    1    3    3    0    0 -0.30555964143E+01  0.30663499456E+02 -0.43866856638E+02  0.53608655830E+02  0.51100000000E-03 0.  1.
         23    2    1    0    0    0 -0.23429238995E+02  0.65033477291E+01 -0.14876310444E+02  0.96495134029E+02  0.92188846979E+02 0.  0.
         11    1    3    3    0    0 -0.20373642581E+02 -0.24160151727E+02  0.28990546194E+02  0.42886478199E+02  0.51100000000E-03 0. -1.
         22    1    1    0    0    0  0.23429238995E+02 -0.65033477291E+01  0.14876310444E+02  0.28504865971E+02  0.00000000000E+00 0.  1.
</event>
<event>
 5    1  0.1103865E-009  0.9118800E+02  0.7818608E-02  0.1130116E+00
         25   -1    0    0    0    0  0.00000000000E+00  0.00000000000E+00  0.99999998245E-14  0.12500000000E+03  0.12500000000E+03 0.  0.
        -11    1    3    3    0    0  0.12746878787E+02 -0.60918694695E+02 -0.32432768278E+01  0.62322460855E+02  0.51100000000E-03 0.  1.
         23    2    1    0    0    0  0.37394139828E+01 -0.28944810166E+02  0.91603066506E+00  0.95800267730E+02  0.91241804741E+02 0.  0.
         11    1    3    3    0    0 -0.90074648038E+01  0.31973884529E+02  0.41593074929E+01  0.33477806875E+02  0.51100000000E-03 0. -1.
         22    1    1    0    0    0 -0.37394139828E+01  0.28944810166E+02 -0.91603066506E+00  0.29199732270E+02  0.00000000000E+00 0.  1.
</event>
<event>
 5    1  0.1103865E-009  0.9118800E+02  0.7818608E-02  0.1130116E+00
         25   -1    0    0    0    0  0.00000000000E+00  0.00000000000E+00  0.99999998245E-14  0.12500000000E+03  0.12500000000E+03 0.  0.
        -11    1    3    3    0    0  0.36090982038E+02  0.38815495132E+01 -0.66099114103E+00  0.36305128021E+02  0.51100000000E-03 0. -1.
         23    2    1    0    0    0 -0.21248830292E+02  0.19024249689E+02 -0.60147261739E+01  0.95851898931E+02  0.91312511370E+02 0.  0.
         11    1    3    3    0    0 -0.57339812330E+02  0.15142700176E+02 -0.53537350329E+01  0.59546770909E+02  0.51100000000E-03 0.  1.
         22    1    1    0    0    0  0.21248830292E+02 -0.19024249689E+02  0.60147261739E+01  0.29148101069E+02  0.00000000000E+00 0.  1.
</event>
<event>
 5    1  0.1103865E-009  0.9118800E+02  0.7818608E-02  0.1130116E+00
         25   -1    0    0    0    0  0.00000000000E+00  0.00000000000E+00  0.99999998245E-14  0.12500000000E+03  0.12500000000E+03 0.  0.
        -11    1    3    3    0    0 -0.29789055379E+02 -0.24716350649E+02  0.76436875195E+01  0.39455186845E+02  0.51100000000E-03 0.  1.
         23    2    1    0    0    0  0.18571315522E+01  0.47574225668E+01 -0.28641385949E+02  0.95906856543E+02  0.91387713265E+02 0.  0.
         11    1    3    3    0    0  0.31646186932E+02  0.29473773216E+02 -0.36285073469E+02  0.56451669699E+02  0.51100000000E-03 0. -1.
         22    1    1    0    0    0 -0.18571315522E+01 -0.47574225668E+01  0.28641385949E+02  0.29093143457E+02  0.00000000000E+00 0. -1.
</event>
<event>
 5    1  0.1103865E-009  0.9118800E+02  0.7818608E-02  0.1130116E+00
         25   -1    0    0    0    0  0.00000000000E+00  0.00000000000E+00  0.99999998245E-14  0.12500000000E+03  0.12500000000E+03 0.  0.
        -11    1    3    3    0    0 -0.33015441619E+02  0.19863121980E+02 -0.93974815073E+01  0.39659496455E+02  0.51100000000E-03 0. -1.
         23    2    1    0    0    0 -0.10748475096E+02 -0.22549189088E+02  0.17408989683E+02  0.94552199305E+02  0.89515640121E+02 0.  0.
         11    1    3    3    0    0  0.22266966524E+02 -0.42412311068E+02  0.26806471190E+02  0.54892702850E+02  0.51100000000E-03 0.  1.
         22    1    1    0    0    0  0.10748475096E+02  0.22549189088E+02 -0.17408989683E+02  0.30447800695E+02  0.00000000000E+00 0.  1.
</event>
<event>
 5    1  0.1103865E-009  0.9118800E+02  0.7818608E-02  0.1130116E+00
         25   -1    0    0    0    0  0.00000000000E+00  0.00000000000E+00  0.99999998245E-14  0.12500000000E+03  0.12500000000E+03 0.  0.
        -11    1    3    3    0    0  0.30835718776E+02 -0.31629472623E+02  0.39173774962E+01  0.44346487319E+02  0.51100000000E-03 0. -1.
         23    2    1    0    0    0 -0.13951873849E+02 -0.19099923339E+02 -0.17528366492E+02  0.95560137783E+02  0.90912234852E+02 0.  0.
         11    1    3    3    0    0 -0.44787592625E+02  0.12529549284E+02 -0.21445743988E+02  0.51213650464E+02  0.51100000000E-03 0.  1.
         22    1    1    0    0    0  0.13951873849E+02  0.19099923339E+02  0.17528366492E+02  0.29439862217E+02  0.00000000000E+00 0. -1.
</event>
<event>
 5    1  0.1103865E-009  0.9118800E+02  0.7818608E-02  0.1130116E+00
         25   -1    0    0    0    0  0.00000000000E+00  0.00000000000E+00  0.99999998245E-14  0.12500000000E+03  0.12500000000E+03 0.  0.
        -11    1    3    3    0    0  0.24651808011E+02  0.18808228552E+02 -0.36856039040E+02  0.48164600211E+02  0.51100000000E-03 0.  1.
         23    2    1    0    0    0 -0.19121814308E+02  0.62737918390E+01 -0.19745349125E+02  0.96806329460E+02  0.92609839461E+02 0.  0.
         11    1    3    3    0    0 -0.43773622319E+02 -0.12534436713E+02  0.17110689915E+02  0.48641729249E+02  0.51100000000E-03 0. -1.
         22    1    1    0    0    0  0.19121814308E+02 -0.62737918390E+01  0.19745349125E+02  0.28193670540E+02  0.00000000000E+00 0.  1.
</event>
<event>
 5    1  0.1103865E-009  0.9118800E+02  0.7818608E-02  0.1130116E+00
         25   -1    0    0    0    0  0.00000000000E+00  0.00000000000E+00  0.99999998245E-14  0.12500000000E+03  0.12500000000E+03 0.  0.
        -11    1    3    3    0    0 -0.49876201119E+02 -0.54713307311E+01 -0.11720267189E+02  0.51526066813E+02  0.51100000000E-03 0.  1.
         23    2    1    0    0    0 -0.11699785111E+02 -0.23030847415E+02  0.80179188270E+01  0.97952043948E+02  0.94143565829E+02 0.  0.
         11    1    3    3    0    0  0.38176416008E+02 -0.17559516684E+02  0.19738186016E+02  0.46425977134E+02  0.51100000000E-03 0. -1.
         22    1    1    0    0    0  0.11699785111E+02  0.23030847415E+02 -0.80179188270E+01  0.27047956052E+02  0.00000000000E+00 0.  1.
</event>
<event>
 5    1  0.1103865E-009  0.9118800E+02  0.7818608E-02  0.1130116E+00
         25   -1    0    0    0    0  0.00000000000E+00  0.00000000000E+00  0.99999998245E-14  0.12500000000E+03  0.12500000000E+03 0.  0.
        -11    1    3    3    0    0 -0.19058230698E+02  0.16497147138E+02 -0.52825928328E+02  0.58531621581E+02  0.51100000000E-03 0.  1.
         23    2    1    0    0    0  0.30505490995E+01 -0.15805459941E+01 -0.29206566295E+02  0.95592050561E+02  0.90956102820E+02 0.  0.
         11    1    3    3    0    0  0.22108779797E+02 -0.18077693132E+02  0.23619362032E+02  0.37060428980E+02  0.51100000000E-03 0. -1.
         22    1    1    0    0    0 -0.30505490995E+01  0.15805459941E+01  0.29206566295E+02  0.29407949439E+02  0.00000000000E+00 0.  1.
</event>
<event>
 5    1  0.1103865E-009  0.9118800E+02  0.7818608E-02  0.1130116E+00
         25   -1    0    0    0    0  0.00000000000E+00  0.00000000000E+00  0.99999998245E-14  0.12500000000E+03  0.12500000000E+03 0.  0.
        -11    1    3    3    0    0  0.21327204827E+02  0.35946916815E+02 -0.41482666586E+02  0.58888386984E+02  0.51100000000E-03 0.  1.
         23    2    1    0    0    0  0.20317723550E+02  0.63670193047E+01 -0.22351618191E+02  0.94130214435E+02  0.88924426390E+02 0.  0.
         11    1    3    3    0    0 -0.10094812765E+01 -0.29579897510E+02  0.19131048395E+02  0.35241827451E+02  0.51100000000E-03 0. -1.
         22    1    1    0    0    0 -0.20317723550E+02 -0.63670193047E+01  0.22351618191E+02  0.30869785565E+02  0.00000000000E+00 0.  1.
</event>
<event>
 5    1  0.1103865E-009  0.9118800E+02  0.7818608E-02  0.1130116E+00
         25   -1    0    0    0    0  0.00000000000E+00  0.00000000000E+00  0.99999998245E-14  0.12500000000E+03  0.12500000000E+03 0.  0.
        -11    1    3    3    0    0 -0.33968216039E+02 -0.11682822354E+02 -0.14324284143E+02  0.38671865167E+02  0.51100000000E-03 0.  1.
         23    2    1    0    0    0  0.11761940196E+01  0.21273578283E+02  0.18346145637E+02  0.96883641326E+02  0.92714132319E+02 0.  0.
         11    1    3    3    0    0  0.35144410059E+02  0.32956400637E+02  0.32670429779E+02  0.58211776159E+02  0.51100000000E-03 0. -1.
         22    1    1    0    0    0 -0.11761940196E+01 -0.21273578283E+02 -0.18346145637E+02  0.28116358674E+02  0.00000000000E+00 0. -1.
</event>
<event>
 5    1  0.1103865E-009  0.9118800E+02  0.7818608E-02  0.1130116E+00
         25   -1    0    0    0    0  0.00000000000E+00  0.00000000000E+00  0.99999998245E-14  0.12500000000E+03  0.12500000000E+03 0.  0.
        -11    1    3    3    0    0  0.27690911737E+02 -0.10002184911E+01  0.20181075135E+02  0.34279189368E+02  0.51100000000E-03 0. -1.
         23    2    1    0    0    0 -0.27087610471E+02  0.12172017458E+02 -0.28963004099E+01  0.95162352538E+02  0.90363643875E+02 0.  0.
         11    1    3    3    0    0 -0.54778522208E+02  0.13172235949E+02 -0.23077375545E+02  0.60883163169E+02  0.51100000000E-03 0.  1.
         22    1    1    0    0    0  0.27087610471E+02 -0.12172017458E+02  0.28963004099E+01  0.29837647462E+02  0.00000000000E+00 0.  1.
</event>
<event>
 5    1  0.1103865E-009  0.9118800E+02  0.7818608E-02  0.1130116E+00
         25   -1    0    0    0    0  0.00000000000E+00  0.00000000000E+00  0.99999998245E-14  0.12500000000E+03  0.12500000000E+03 0.  0.
        -11    1    3    3    0    0  0.31030102892E+02  0.25364846854E+02 -0.43023643052E+02  0.58798610555E+02  0.51100000000E-03 0.  1.
         23    2    1    0    0    0  0.23811063653E+02  0.25929046231E+00 -0.16477552922E+02  0.96042380379E+02  0.91572894979E+02 0.  0.
         11    1    3    3    0    0 -0.72190392390E+01 -0.25105556391E+02  0.26546090131E+02  0.37243769824E+02  0.51100000000E-03 0. -1.
         22    1    1    0    0    0 -0.23811063653E+02 -0.25929046231E+00  0.16477552922E+02  0.28957619621E+02  0.00000000000E+00 0.  1.
</event>
<event>
 5    1  0.1103865E-009  0.9118800E+02  0.7818608E-02  0.1130116E+00
         25   -1    0    0    0    0  0.00000000000E+00  0.00000000000E+00  0.99999998245E-14  0.12500000000E+03  0.12500000000E+03 0.  0.
        -11    1    3    3    0    0  0.12941690466E+02 -0.55076387885E+02 -0.16904171747E+02  0.59047835501E+02  0.51100000000E-03 0.  1.
         23    2    1    0    0    0  0.33251692368E+01 -0.18584761509E+02 -0.20708932240E+02  0.96976617169E+02  0.92839400538E+02 0.  0.
         11    1    3    3    0    0 -0.96165212296E+01  0.36491626376E+02 -0.38047604928E+01  0.37928781668E+02  0.51100000000E-03 0. -1.
         22    1    1    0    0    0 -0.33251692368E+01  0.18584761509E+02  0.20708932240E+02  0.28023382831E+02  0.00000000000E+00 0.  1.
</event>
<event>
 5    1  0.1103865E-009  0.9118800E+02  0.7818608E-02  0.1130116E+00
         25   -1    0    0    0    0  0.00000000000E+00  0.00000000000E+00  0.99999998245E-14  0.12500000000E+03  0.12500000000E+03 0.  0.
        -11    1    3    3    0    0 -0.42158172530E+01  0.50825455223E+02 -0.27992386947E+02  0.58177089485E+02  0.51100000000E-03 0. -1.
         23    2    1    0    0    0 -0.10862817675E+02  0.27137009120E+02  0.42654144751E+00  0.95766457460E+02  0.91195473381E+02 0.  0.
         11    1    3    3    0    0 -0.66470004225E+01 -0.23688446103E+02  0.28418928395E+02  0.37589367975E+02  0.51100000000E-03 0.  1.
         22    1    1    0    0    0  0.10862817675E+02 -0.27137009120E+02 -0.42654144751E+00  0.29233542540E+02  0.00000000000E+00 0. -1.
</event>
<event>
 5    1  0.1103865E-009  0.9118800E+02  0.7818608E-02  0.1130116E+00
         25   -1    0    0    0    0  0.00000000000E+00  0.00000000000E+00  0.99999998245E-14  0.12500000000E+03  0.12500000000E+03 0.  0.
        -11    1    3    3    0    0  0.46627166559E-01 -0.32208843409E+02 -0.17271639534E+02  0.36547521124E+02  0.51100000000E-03 0.  1.
         23    2    1    0    0    0 -0.96579776305E+01  0.94842234697E+01  0.24912628150E+02  0.96647468048E+02  0.92395167688E+02 0.  0.
         11    1    3    3    0    0 -0.97046047970E+01  0.41693066878E+02  0.42184267684E+02  0.60099946925E+02  0.51100000000E-03 0. -1.
         22    1    1    0    0    0  0.96579776305E+01 -0.94842234697E+01 -0.24912628150E+02  0.28352531952E+02  0.00000000000E+00 0. -1.
</event>
<event>
 5    1  0.1103865E-009  0.9118800E+02  0.7818608E-02  0.1130116E+00
         25   -1    0    0    0    0  0.00000000000E+00  0.00000000000E+00  0.99999998245E-14  0.12500000000E+03  0.12500000000E+03 0.  0.
        -11    1    3    3    0    0  0.28125600468E+02 -0.17897578767E+02  0.63375097945E+01  0.33934300612E+02  0.51100000000E-03 0. -1.
         23    2    1    0    0    0 -0.14851103270E+02  0.18697114081E+02 -0.17691883480E+02  0.95282327070E+02  0.90529452487E+02 0.  0.
         11    1    3    3    0    0 -0.42976703738E+02  0.36594692848E+02 -0.24029393274E+02  0.61348026458E+02  0.51100000000E-03 0.  1.
         22    1    1    0    0    0  0.14851103270E+02 -0.18697114081E+02  0.17691883480E+02  0.29717672930E+02  0.00000000000E+00 0.  1.
</event>
<event>
 5    1  0.1103865E-009  0.9118800E+02  0.7818608E-02  0.1130116E+00
         25   -1    0    0    0    0  0.00000000000E+00  0.00000000000E+00  0.99999998245E-14  0.12500000000E+03  0.12500000000E+03 0.  0.
        -11    1    3    3    0    0  0.39789734898E+02  0.67251859238E+01  0.46316283936E+02  0.61430035706E+02  0.51100000000E-03 0. -1.
         23    2    1    0    0    0  0.17706783246E+02 -0.32094723650E+01  0.27674213527E+02  0.91989501971E+02  0.85862538355E+02 0.  0.
         11    1    3    3    0    0 -0.22082951652E+02 -0.99346582888E+01 -0.18642070409E+02  0.30559466264E+02  0.51100000000E-03 0.  1.
         22    1    1    0    0    0 -0.17706783246E+02  0.32094723650E+01 -0.27674213527E+02  0.33010498029E+02  0.00000000000E+00 0. -1.
</event>
<event>
 5    1  0.1103865E-009  0.9118800E+02  0.7818608E-02  0.1130116E+00
         25   -1    0    0    0    0  0.00000000000E+00  0.00000000000E+00  0.99999998245E-14  0.12500000000E+03  0.12500000000E+03 0.  0.
        -11    1    3    3    0    0  0.18185382621E+01 -0.27824542221E+02 -0.33390520137E+02  0.43502173124E+02  0.51100000000E-03 0.  1.
         23    2    1    0    0    0  0.70117094606E+01  0.22592848112E+02 -0.10254316557E+02  0.99217217694E+02  0.95808686576E+02 0.  0.
         11    1    3    3    0    0  0.51931711985E+01  0.50417390333E+02  0.23136203580E+02  0.55715044570E+02  0.51100000000E-03 0. -1.
         22    1    1    0    0    0 -0.70117094606E+01 -0.22592848112E+02  0.10254316557E+02  0.25782782306E+02  0.00000000000E+00 0. -1.
</event>
<event>
 5    1  0.1103865E-009  0.9118800E+02  0.7818608E-02  0.1130116E+00
         25   -1    0    0    0    0  0.00000000000E+00  0.00000000000E+00  0.99999998245E-14  0.12500000000E+03  0.12500000000E+03 0.  0.
        -11    1    3    3    0    0  0.13073748523E+02 -0.26318634262E+02  0.19541303184E+02  0.35291017840E+02  0.51100000000E-03 0. -1.
         23    2    1    0    0    0 -0.23160627061E+02  0.18033587475E+02  0.50956406838E+00  0.95642129188E+02  0.91024899324E+02 0.  0.
         11    1    3    3    0    0 -0.36234375584E+02  0.44352221736E+02 -0.19031739115E+02  0.60351111348E+02  0.51100000000E-03 0.  1.
         22    1    1    0    0    0  0.23160627061E+02 -0.18033587475E+02 -0.50956406838E+00  0.29357870812E+02  0.00000000000E+00 0.  1.
</event>
<event>
 5    1  0.1103865E-009  0.9118800E+02  0.7818608E-02  0.1130116E+00
         25   -1    0    0    0    0  0.00000000000E+00  0.00000000000E+00  0.99999998245E-14  0.12500000000E+03  0.12500000000E+03 0.  0.
        -11    1    3    3    0    0  0.35325481337E+02  0.43830428485E+02  0.14037190641E+02  0.58017573322E+02  0.51100000000E-03 0.  1.
         23    2    1    0    0    0  0.13666394798E+02  0.22976686529E+02 -0.99441115384E+01  0.96476609162E+02  0.92163725459E+02 0.  0.
         11    1    3    3    0    0 -0.21659086539E+02 -0.20853741956E+02 -0.23981302179E+02  0.38459035840E+02  0.51100000000E-03 0. -1.
         22    1    1    0    0    0 -0.13666394798E+02 -0.22976686529E+02  0.99441115384E+01  0.28523390838E+02  0.00000000000E+00 0.  1.
</event>
<event>
 5    1  0.1103865E-009  0.9118800E+02  0.7818608E-02  0.1130116E+00
         25   -1    0    0    0    0  0.00000000000E+00  0.00000000000E+00  0.99999998245E-14  0.12500000000E+03  0.12500000000E+03 0.  0.
        -11    1    3    3    0    0  0.41973174650E+02 -0.35028697781E+02 -0.24717456441E+02  0.59997580881E+02  0.51100000000E-03 0.  1.
         23    2    1    0    0    0  0.10510923378E+02 -0.22955946340E+02 -0.16979888090E+02  0.94573505260E+02  0.89545386899E+02 0.  0.
         11    1    3    3    0    0 -0.31462251272E+02  0.12072751441E+02  0.77375683506E+01  0.34575924379E+02  0.51100000000E-03 0. -1.
         22    1    1    0    0    0 -0.10510923378E+02  0.22955946340E+02  0.16979888090E+02  0.30426494740E+02  0.00000000000E+00 0.  1.
</event>
<event>
 5    1  0.1103865E-009  0.9118800E+02  0.7818608E-02  0.1130116E+00
         25   -1    0    0    0    0  0.00000000000E+00  0.00000000000E+00  0.99999998245E-14  0.12500000000E+03  0.12500000000E+03 0.  0.
        -11    1    3    3    0    0  0.26634498781E+02 -0.34404910251E+02 -0.38471212674E+02  0.58078641338E+02  0.51100000000E-03 0. -1.
         23    2    1    0    0    0 -0.30061755390E+01 -0.22523539557E+02 -0.14000110552E+02  0.98310113881E+02  0.94617802080E+02 0.  0.
         11    1    3    3    0    0 -0.29640674320E+02  0.11881370694E+02  0.24471102122E+02  0.40231472544E+02  0.51100000000E-03 0.  1.
         22    1    1    0    0    0  0.30061755390E+01  0.22523539557E+02  0.14000110552E+02  0.26689886119E+02  0.00000000000E+00 0. -1.
</event>
<event>
 5    1  0.1103865E-009  0.9118800E+02  0.7818608E-02  0.1130116E+00
         25   -1    0    0    0    0  0.00000000000E+00  0.00000000000E+00  0.99999998245E-14  0.12500000000E+03  0.12500000000E+03 0.  0.
        -11    1    3    3    0    0 -0.34762943810E+02  0.50659444906E+01 -0.37615333663E+02  0.51468819519E+02  0.51100000000E-03 0.  1.
         23    2    1    0    0    0 -0.15493772655E+02 -0.23238926534E+02 -0.10444279534E+02  0.95180749967E+02  0.90389089451E+02 0.  0.
         11    1    3    3    0    0  0.19269171155E+02 -0.28304871025E+02  0.27171054129E+02  0.43711930448E+02  0.51100000000E-03 0. -1.
         22    1    1    0    0    0  0.15493772655E+02  0.23238926534E+02  0.10444279534E+02  0.29819250033E+02  0.00000000000E+00 0.  1.
</event>
<event>
 5    1  0.1103865E-009  0.9118800E+02  0.7818608E-02  0.1130116E+00
         25   -1    0    0    0    0  0.00000000000E+00  0.00000000000E+00  0.99999998245E-14  0.12500000000E+03  0.12500000000E+03 0.  0.
        -11    1    3    3    0    0 -0.91711747374E+01  0.25673341679E+02 -0.21479218613E+02  0.34707171471E+02  0.51100000000E-03 0.  1.
         23    2    1    0    0    0  0.20180131951E+02 -0.16892742499E+02  0.11760309413E+02  0.96174536392E+02  0.91753114922E+02 0.  0.
         11    1    3    3    0    0  0.29351306689E+02 -0.42566084179E+02  0.33239528026E+02  0.61467364921E+02  0.51100000000E-03 0. -1.
         22    1    1    0    0    0 -0.20180131951E+02  0.16892742499E+02 -0.11760309413E+02  0.28825463608E+02  0.00000000000E+00 0. -1.
</event>
<event>
 5    1  0.1103865E-009  0.9118800E+02  0.7818608E-02  0.1130116E+00
         25   -1    0    0    0    0  0.00000000000E+00  0.00000000000E+00  0.99999998245E-14  0.12500000000E+03  0.12500000000E+03 0.  0.
        -11    1    3    3    0    0 -0.62387269121E+01  0.13074129797E+02 -0.38706721893E+02  0.41328741856E+02  0.51100000000E-03 0.  1.
         23    2    1    0    0    0 -0.92440675029E+00  0.25528625664E+02  0.14084658566E+02  0.95829075039E+02  0.91281261822E+02 0.  0.
         11    1    3    3    0    0  0.53143201618E+01  0.12454495867E+02  0.52791380459E+02  0.54500333183E+02  0.51100000000E-03 0. -1.
         22    1    1    0    0    0  0.92440675029E+00 -0.25528625664E+02 -0.14084658566E+02  0.29170924961E+02  0.00000000000E+00 0. -1.
</event>
<event>
 5    1  0.1103865E-009  0.9118800E+02  0.7818608E-02  0.1130116E+00
         25   -1    0    0    0    0  0.00000000000E+00  0.00000000000E+00  0.99999998245E-14  0.12500000000E+03  0.12500000000E+03 0.  0.
        -11    1    3    3    0    0  0.17655368312E+02  0.20582819591E+02 -0.23824018209E+02  0.36096375669E+02  0.51100000000E-03 0. -1.
         23    2    1    0    0    0 -0.12400723481E+02 -0.26551861555E+02 -0.39307213145E+01  0.95432621608E+02  0.90736736783E+02 0.  0.
         11    1    3    3    0    0 -0.30056091794E+02 -0.47134681146E+02  0.19893296894E+02  0.59336245940E+02  0.51100000000E-03 0.  1.
         22    1    1    0    0    0  0.12400723481E+02  0.26551861555E+02  0.39307213145E+01  0.29567378392E+02  0.00000000000E+00 0.  1.
</event>
<event>
 5    1  0.1103865E-009  0.9118800E+02  0.7818608E-02  0.1130116E+00
         25   -1    0    0    0    0  0.00000000000E+00  0.00000000000E+00  0.99999998245E-14  0.12500000000E+03  0.12500000000E+03 0.  0.
        -11    1    3    3    0    0  0.55567341250E+02  0.56012016022E+01 -0.57133669600E+01  0.56140408222E+02  0.51100000000E-03 0.  1.
         23    2    1    0    0    0  0.23739313957E+02 -0.45738001404E+01  0.16016978985E+02  0.95999684645E+02  0.91514595346E+02 0.  0.
         11    1    3    3    0    0 -0.31828027293E+02 -0.10175001743E+02  0.21730345945E+02  0.39859276423E+02  0.51100000000E-03 0. -1.
         22    1    1    0    0    0 -0.23739313957E+02  0.45738001404E+01 -0.16016978985E+02  0.29000315355E+02  0.00000000000E+00 0.  1.
</event>
<event>
 5    1  0.1103865E-009  0.9118800E+02  0.7818608E-02  0.1130116E+00
         25   -1    0    0    0    0  0.00000000000E+00  0.00000000000E+00  0.99999998245E-14  0.12500000000E+03  0.12500000000E+03 0.  0.
        -11    1    3    3    0    0  0.18765432131E+02  0.58040613579E+02 -0.81672896986E+01  0.61543146564E+02  0.51100000000E-03 0. -1.
         23    2    1    0    0    0  0.24479019574E+01  0.32101011247E+02 -0.24909115830E+01  0.92709571270E+02  0.86904504012E+02 0.  0.
         11    1    3    3    0    0 -0.16317530174E+02 -0.25939602333E+02  0.56763781156E+01  0.31166424706E+02  0.51100000000E-03 0.  1.
         22    1    1    0    0    0 -0.24479019574E+01 -0.32101011247E+02  0.24909115830E+01  0.32290428730E+02  0.00000000000E+00 0. -1.
</event>
<event>
 5    1  0.1103865E-009  0.9118800E+02  0.7818608E-02  0.1130116E+00
         25   -1    0    0    0    0  0.00000000000E+00  0.00000000000E+00  0.99999998245E-14  0.12500000000E+03  0.12500000000E+03 0.  0.
        -11    1    3    3    0    0  0.25076523746E+02 -0.20785360027E+02  0.27106165201E+02  0.42374608279E+02  0.51100000000E-03 0. -1.
         23    2    1    0    0    0  0.20112521429E+02  0.22333594295E+02 -0.23865884813E+01  0.94850393751E+02  0.89931076041E+02 0.  0.
         11    1    3    3    0    0 -0.49640023170E+01  0.43118954323E+02 -0.29492753682E+02  0.52475785472E+02  0.51100000000E-03 0.  1.
         22    1    1    0    0    0 -0.20112521429E+02 -0.22333594295E+02  0.23865884813E+01  0.30149606249E+02  0.00000000000E+00 0.  1.
</event>
<event>
 5    1  0.1103865E-009  0.9118800E+02  0.7818608E-02  0.1130116E+00
         25   -1    0    0    0    0  0.00000000000E+00  0.00000000000E+00  0.99999998245E-14  0.12500000000E+03  0.12500000000E+03 0.  0.
        -11    1    3    3    0    0 -0.20295472635E+02  0.75558878499E+01  0.45669385211E+02  0.50543945201E+02  0.51100000000E-03 0.  1.
         23    2    1    0    0    0  0.12912210838E+02 -0.10838434507E+02  0.27768831504E+02  0.92514543956E+02  0.86623530227E+02 0.  0.
         11    1    3    3    0    0  0.33207683473E+02 -0.18394322357E+02 -0.17900553707E+02  0.41970598756E+02  0.51100000000E-03 0. -1.
         22    1    1    0    0    0 -0.12912210838E+02  0.10838434507E+02 -0.27768831504E+02  0.32485456044E+02  0.00000000000E+00 0.  1.
</event>
<event>
 5    1  0.1103865E-009  0.9118800E+02  0.7818608E-02  0.1130116E+00
         25   -1    0    0    0    0  0.00000000000E+00  0.00000000000E+00  0.99999998245E-14  0.12500000000E+03  0.12500000000E+03 0.  0.
        -11    1    3    3    0    0  0.24032733385E+02  0.11964584952E+02  0.19668676877E+02  0.33280330788E+02  0.51100000000E-03 0. -1.
         23    2    1    0    0    0 -0.20626638155E+02 -0.48146142010E+01 -0.20407872300E+02  0.95587078294E+02  0.90949269230E+02 0.  0.
         11    1    3    3    0    0 -0.44659371540E+02 -0.16779199153E+02 -0.40076549177E+02  0.62306747506E+02  0.51100000000E-03 0.  1.
         22    1    1    0    0    0  0.20626638155E+02  0.48146142010E+01  0.20407872300E+02  0.29412921706E+02  0.00000000000E+00 0.  1.
</event>
<event>
 5    1  0.1103865E-009  0.9118800E+02  0.7818608E-02  0.1130116E+00
         25   -1    0    0    0    0  0.00000000000E+00  0.00000000000E+00  0.99999998245E-14  0.12500000000E+03  0.12500000000E+03 0.  0.
        -11    1    3    3    0    0  0.27105495520E+02  0.11821838405E+01  0.49095997595E+02  0.56093871556E+02  0.51100000000E-03 0.  1.
         23    2    1    0    0    0  0.24116751368E+02  0.11359176973E+02  0.10122619911E+02  0.96484810505E+02  0.92174848122E+02 0.  0.
         11    1    3    3    0    0 -0.29887441520E+01  0.10176993132E+02 -0.38973377684E+02  0.40390938949E+02  0.51100000000E-03 0. -1.
         22    1    1    0    0    0 -0.24116751368E+02 -0.11359176973E+02 -0.10122619911E+02  0.28515189495E+02  0.00000000000E+00 0. -1.
</event>
<event>
 5    1  0.1103865E-009  0.9118800E+02  0.7818608E-02  0.1130116E+00
         25   -1    0    0    0    0  0.00000000000E+00  0.00000000000E+00  0.99999998245E-14  0.12500000000E+03  0.12500000000E+03 0.  0.
        -11    1    3    3    0    0  0.30237432236E+02  0.40315202151E+02 -0.29842301324E+02  0.58567745229E+02  0.51100000000E-03 0.  1.
         23    2    1    0    0    0  0.23759328898E+02  0.14045946396E+02 -0.20993618054E+01  0.97319652461E+02  0.93300123876E+02 0.  0.
         11    1    3    3    0    0 -0.64781033373E+01 -0.26269255754E+02  0.27742939519E+02  0.38751907232E+02  0.51100000000E-03 0. -1.
         22    1    1    0    0    0 -0.23759328898E+02 -0.14045946396E+02  0.20993618054E+01  0.27680347539E+02  0.00000000000E+00 0.  1.
</event>
<event>
 5    1  0.1103865E-009  0.9118800E+02  0.7818608E-02  0.1130116E+00
         25   -1    0    0    0    0  0.00000000000E+00  0.00000000000E+00  0.99999998245E-14  0.12500000000E+03  0.12500000000E+03 0.  0.
        -11    1    3    3    0    0  0.56389650444E+02  0.92427817676E+01  0.41367911453E+01  0.57291663733E+02  0.51100000000E-03 0. -1.
         23    2    1    0    0    0  0.20992435669E+02  0.19691695486E+02 -0.60698908519E+01  0.95584208300E+02  0.90945324646E+02 0.  0.
         11    1    3    3    0    0 -0.35397214776E+02  0.10448913718E+02 -0.10206681997E+02  0.38292544567E+02  0.51100000000E-03 0.  1.
         22    1    1    0    0    0 -0.20992435669E+02 -0.19691695486E+02  0.60698908519E+01  0.29415791700E+02  0.00000000000E+00 0. -1.
</event>
<event>
 5    1  0.1103865E-009  0.9118800E+02  0.7818608E-02  0.1130116E+00
         25   -1    0    0    0    0  0.00000000000E+00  0.00000000000E+00  0.99999998245E-14  0.12500000000E+03  0.12500000000E+03 0.  0.
        -11    1    3    3    0    0 -0.42956696621E+02  0.19772550541E+02  0.37118733081E+02  0.60116818656E+02  0.51100000000E-03 0.  1.
         23    2    1    0    0    0 -0.18391845545E+02 -0.23838044050E+01  0.21214182791E+02  0.96822277284E+02  0.92631362512E+02 0.  0.
         11    1    3    3    0    0  0.24564851076E+02 -0.22156354946E+02 -0.15904550290E+02  0.36705458628E+02  0.51100000000E-03 0. -1.
         22    1    1    0    0    0  0.18391845545E+02  0.23838044050E+01 -0.21214182791E+02  0.28177722716E+02  0.00000000000E+00 0.  1.
</event>
<event>
 5    1  0.1103865E-009  0.9118800E+02  0.7818608E-02  0.1130116E+00
         25   -1    0    0    0    0  0.00000000000E+00  0.00000000000E+00  0.99999998245E-14  0.12500000000E+03  0.12500000000E+03 0.  0.
        -11    1    3    3    0    0  0.73205920550E+00 -0.56699575788E+02 -0.18104178654E+02  0.59524273118E+02  0.51100000000E-03 0.  1.
         23    2    1    0    0    0 -0.13060453024E+02 -0.23480962190E+02 -0.94388308033E+01  0.96521542431E+02  0.92224647507E+02 0.  0.
         11    1    3    3    0    0 -0.13792512230E+02  0.33218613598E+02  0.86653478508E+01  0.36997269313E+02  0.51100000000E-03 0. -1.
         22    1    1    0    0    0  0.13060453024E+02  0.23480962190E+02  0.94388308033E+01  0.28478457569E+02  0.00000000000E+00 0.  1.
</event>
<event>
 5    1  0.1103865E-009  0.9118800E+02  0.7818608E-02  0.1130116E+00
         25   -1    0    0    0    0  0.00000000000E+00  0.00000000000E+00  0.99999998245E-14  0.12500000000E+03  0.12500000000E+03 0.  0.
        -11    1    3    3    0    0  0.12417790403E+02 -0.16841858604E+02  0.33310631677E+02  0.39337614350E+02  0.51100000000E-03 0. -1.
         23    2    1    0    0    0  0.32592168628E+01 -0.92976618286E+01 -0.24625696556E+02  0.98476539802E+02  0.94837413242E+02 0.  0.
         11    1    3    3    0    0 -0.91585735404E+01  0.75441967754E+01 -0.57936328233E+02  0.59138925452E+02  0.51100000000E-03 0.  1.
         22    1    1    0    0    0 -0.32592168628E+01  0.92976618286E+01  0.24625696556E+02  0.26523460198E+02  0.00000000000E+00 0. -1.
</event>
<event>
 5    1  0.1103865E-009  0.9118800E+02  0.7818608E-02  0.1130116E+00
         25   -1    0    0    0    0  0.00000000000E+00  0.00000000000E+00  0.99999998245E-14  0.12500000000E+03  0.12500000000E+03 0.  0.
        -11    1    3    3    0    0 -0.34420935222E+02  0.32816423887E+02 -0.21673289171E+02  0.52263275079E+02  0.51100000000E-03 0. -1.
         23    2    1    0    0    0 -0.11291290799E+02  0.20582141966E+02  0.14871797684E+02  0.97209926553E+02  0.93153001231E+02 0.  0.
         11    1    3    3    0    0  0.23129644423E+02 -0.12234281921E+02  0.36545086855E+02  0.44946651474E+02  0.51100000000E-03 0.  1.
         22    1    1    0    0    0  0.11291290799E+02 -0.20582141966E+02 -0.14871797684E+02  0.27790073447E+02  0.00000000000E+00 0. -1.
</event>
<event>
 5    1  0.1103865E-009  0.9118800E+02  0.7818608E-02  0.1130116E+00
         25   -1    0    0    0    0  0.00000000000E+00  0.00000000000E+00  0.99999998245E-14  0.12500000000E+03  0.12500000000E+03 0.  0.
        -11    1    3    3    0    0 -0.10912217366E+01  0.32870990896E+02 -0.86064379243E+01  0.33996523078E+02  0.51100000000E-03 0.  1.
         23    2    1    0    0    0 -0.30857660422E+01 -0.28657707785E+02 -0.56472708527E+01  0.95628622170E+02  0.91006348913E+02 0.  0.
         11    1    3    3    0    0 -0.19945443056E+01 -0.61528698682E+02  0.29591670716E+01  0.61632099092E+02  0.51100000000E-03 0. -1.
         22    1    1    0    0    0  0.30857660422E+01  0.28657707785E+02  0.56472708527E+01  0.29371377830E+02  0.00000000000E+00 0. -1.
</event>
<event>
 5    1  0.1103865E-009  0.9118800E+02  0.7818608E-02  0.1130116E+00
         25   -1    0    0    0    0  0.00000000000E+00  0.00000000000E+00  0.99999998245E-14  0.12500000000E+03  0.12500000000E+03 0.  0.
        -11    1    3    3    0    0  0.70034151394E+01  0.17072106822E+02  0.36442904699E+02  0.40848377668E+02  0.51100000000E-03 0. -1.
         23    2    1    0    0    0  0.66329765649E+01 -0.25320123316E+02 -0.28747868531E+01  0.98668091176E+02  0.95089551445E+02 0.  0.
         11    1    3    3    0    0 -0.37043857453E+00 -0.42392230139E+02 -0.39317691552E+02  0.57819713508E+02  0.51100000000E-03 0.  1.
         22    1    1    0    0    0 -0.66329765649E+01  0.25320123316E+02  0.28747868531E+01  0.26331908824E+02  0.00000000000E+00 0.  1.
</event>
<event>
 5    1  0.1103865E-009  0.9118800E+02  0.7818608E-02  0.1130116E+00
         25   -1    0    0    0    0  0.00000000000E+00  0.00000000000E+00  0.99999998245E-14  0.12500000000E+03  0.12500000000E+03 0.  0.
        -11    1    3    3    0    0 -0.25180168426E+02 -0.27071065378E+02 -0.35530590283E+02  0.51276761879E+02  0.51100000000E-03 0. -1.
         23    2    1    0    0    0 -0.27126019082E+02  0.53319232288E+01 -0.30675405239E+01  0.97185253526E+02  0.93119887143E+02 0.  0.
         11    1    3    3    0    0 -0.19458506559E+01  0.32402988607E+02  0.32463049759E+02  0.45908491647E+02  0.51100000000E-03 0.  1.
         22    1    1    0    0    0  0.27126019082E+02 -0.53319232288E+01  0.30675405239E+01  0.27814746474E+02  0.00000000000E+00 0. -1.
</event>
<event>
 5    1  0.1103865E-009  0.9118800E+02  0.7818608E-02  0.1130116E+00
         25   -1    0    0    0    0  0.00000000000E+00  0.00000000000E+00  0.99999998245E-14  0.12500000000E+03  0.12500000000E+03 0.  0.
        -11    1    3    3    0    0 -0.88018838163E+01 -0.15378602401E+02 -0.44955572806E+02  0.48321611077E+02  0.51100000000E-03 0.  1.
         23    2    1    0    0    0  0.25327718648E+02 -0.48095432419E+01 -0.13629231402E+02  0.95838707389E+02  0.91294451350E+02 0.  0.
         11    1    3    3    0    0  0.34129602465E+02  0.10569059160E+02  0.31326341404E+02  0.47517096312E+02  0.51100000000E-03 0. -1.
         22    1    1    0    0    0 -0.25327718648E+02  0.48095432419E+01  0.13629231402E+02  0.29161292611E+02  0.00000000000E+00 0.  1.
</event>
<event>
 5    1  0.1103865E-009  0.9118800E+02  0.7818608E-02  0.1130116E+00
         25   -1    0    0    0    0  0.00000000000E+00  0.00000000000E+00  0.99999998245E-14  0.12500000000E+03  0.12500000000E+03 0.  0.
        -11    1    3    3    0    0  0.38177350604E+02  0.71359734505E+01  0.78507009789E+01  0.39624054845E+02  0.51100000000E-03 0. -1.
         23    2    1    0    0    0 -0.17192953928E+02  0.14722706934E+02 -0.12549562956E+02  0.99118591719E+02  0.95679924381E+02 0.  0.
         11    1    3    3    0    0 -0.55370304532E+02  0.75867334832E+01 -0.20400263935E+02  0.59494536874E+02  0.51100000000E-03 0.  1.
         22    1    1    0    0    0  0.17192953928E+02 -0.14722706934E+02  0.12549562956E+02  0.25881408281E+02  0.00000000000E+00 0.  1.
</event>
<event>
 5    1  0.1103865E-009  0.9118800E+02  0.7818608E-02  0.1130116E+00
         25   -1    0    0    0    0  0.00000000000E+00  0.00000000000E+00  0.99999998245E-14  0.12500000000E+03  0.12500000000E+03 0.  0.
        -11    1    3    3    0    0 -0.13899144035E+02 -0.10565671622E+02 -0.43719562944E+02  0.47076743792E+02  0.51100000000E-03 0. -1.
         23    2    1    0    0    0  0.24520895148E+02 -0.72342844332E+01 -0.13382056807E+02  0.96143655559E+02  0.91711034721E+02 0.  0.
         11    1    3    3    0    0  0.38420039184E+02  0.33313871890E+01  0.30337506137E+02  0.49066911767E+02  0.51100000000E-03 0.  1.
         22    1    1    0    0    0 -0.24520895148E+02  0.72342844332E+01  0.13382056807E+02  0.28856344441E+02  0.00000000000E+00 0. -1.
</event>
<event>
 5    1  0.1103865E-009  0.9118800E+02  0.7818608E-02  0.1130116E+00
         25   -1    0    0    0    0  0.00000000000E+00  0.00000000000E+00  0.99999998245E-14  0.12500000000E+03  0.12500000000E+03 0.  0.
        -11    1    3    3    0    0 -0.14050124710E+02 -0.20806090667E+02  0.59833749484E+01  0.25808916855E+02  0.51100000000E-03 0.  1.
         23    2    1    0    0    0  0.39101750725E+02 -0.23390463236E+02  0.61439269785E+01  0.79023826617E+02  0.64272518656E+02 0.  0.
         11    1    3    3    0    0  0.53151875435E+02 -0.25843725697E+01  0.16055203007E+00  0.53214909763E+02  0.51100000000E-03 0. -1.
         22    1    1    0    0    0 -0.39101750725E+02  0.23390463236E+02 -0.61439269785E+01  0.45976173383E+02  0.00000000000E+00 0. -1.
</event>
<event>
 5    1  0.1103865E-009  0.9118800E+02  0.7818608E-02  0.1130116E+00
         25   -1    0    0    0    0  0.00000000000E+00  0.00000000000E+00  0.99999998245E-14  0.12500000000E+03  0.12500000000E+03 0.  0.
        -11    1    3    3    0    0 -0.56397596538E+02 -0.98822467401E+01  0.16280902876E+02  0.59526594852E+02  0.51100000000E-03 0. -1.
         23    2    1    0    0    0 -0.23300726920E+02 -0.17832986773E+02  0.64283762907E+01  0.94962301787E+02  0.90086488702E+02 0.  0.
         11    1    3    3    0    0  0.33096869618E+02 -0.79507400326E+01 -0.98525265849E+01  0.35435706935E+02  0.51100000000E-03 0.  1.
         22    1    1    0    0    0  0.23300726920E+02  0.17832986773E+02 -0.64283762907E+01  0.30037698213E+02  0.00000000000E+00 0. -1.
</event>
<event>
 5    1  0.1103865E-009  0.9118800E+02  0.7818608E-02  0.1130116E+00
         25   -1    0    0    0    0  0.00000000000E+00  0.00000000000E+00  0.99999998245E-14  0.12500000000E+03  0.12500000000E+03 0.  0.
        -11    1    3    3    0    0 -0.32162691011E+02  0.36258402558E+02  0.52171030307E+01  0.48747601104E+02  0.51100000000E-03 0.  1.
         23    2    1    0    0    0 -0.91610991892E+01  0.13329233878E+01  0.27394446616E+02  0.96083601045E+02  0.91629145261E+02 0.  0.
         11    1    3    3    0    0  0.23001591822E+02 -0.34925479170E+02  0.22177343586E+02  0.47335999941E+02  0.51100000000E-03 0. -1.
         22    1    1    0    0    0  0.91610991892E+01 -0.13329233878E+01 -0.27394446616E+02  0.28916398955E+02  0.00000000000E+00 0.  1.
</event>
<event>
 5    1  0.1103865E-009  0.9118800E+02  0.7818608E-02  0.1130116E+00
         25   -1    0    0    0    0  0.00000000000E+00  0.00000000000E+00  0.99999998245E-14  0.12500000000E+03  0.12500000000E+03 0.  0.
        -11    1    3    3    0    0  0.99767050298E+00  0.14819141641E+02 -0.29485201288E+02  0.33014836069E+02  0.51100000000E-03 0.  1.
         23    2    1    0    0    0  0.70711368952E+01 -0.10239668628E+02  0.27089964118E+02  0.95188627228E+02  0.90399982340E+02 0.  0.
         11    1    3    3    0    0  0.60734663922E+01 -0.25058810269E+02  0.56575165406E+02  0.62173791159E+02  0.51100000000E-03 0. -1.
         22    1    1    0    0    0 -0.70711368952E+01  0.10239668628E+02 -0.27089964118E+02  0.29811372772E+02  0.00000000000E+00 0. -1.
</event>
<event>
 5    1  0.1103865E-009  0.9118800E+02  0.7818608E-02  0.1130116E+00
         25   -1    0    0    0    0  0.00000000000E+00  0.00000000000E+00  0.99999998245E-14  0.12500000000E+03  0.12500000000E+03 0.  0.
        -11    1    3    3    0    0  0.19166953824E+02 -0.45564764942E+02 -0.29259552020E+01  0.49518492881E+02  0.51100000000E-03 0.  1.
         23    2    1    0    0    0  0.25242944205E+02 -0.69950238356E+01 -0.19910117731E+02  0.92097881852E+02  0.86020174744E+02 0.  0.
         11    1    3    3    0    0  0.60759903809E+01  0.38569741106E+02 -0.16984162529E+02  0.42579388971E+02  0.51100000000E-03 0. -1.
         22    1    1    0    0    0 -0.25242944205E+02  0.69950238356E+01  0.19910117731E+02  0.32902118148E+02  0.00000000000E+00 0.  1.
</event>
<event>
 5    1  0.1103865E-009  0.9118800E+02  0.7818608E-02  0.1130116E+00
         25   -1    0    0    0    0  0.00000000000E+00  0.00000000000E+00  0.99999998245E-14  0.12500000000E+03  0.12500000000E+03 0.  0.
        -11    1    3    3    0    0 -0.99635881800E+01 -0.37342819077E+01  0.44842068575E+02  0.46087189816E+02  0.51100000000E-03 0. -1.
         23    2    1    0    0    0 -0.27384114713E+02  0.65094547018E+01 -0.16734982795E+01  0.96803132521E+02  0.92605524297E+02 0.  0.
         11    1    3    3    0    0 -0.17420526533E+02  0.10243736609E+02 -0.46515566855E+02  0.50715942705E+02  0.51100000000E-03 0.  1.
         22    1    1    0    0    0  0.27384114713E+02 -0.65094547018E+01  0.16734982795E+01  0.28196867479E+02  0.00000000000E+00 0.  1.
</event>
<event>
 5    1  0.1103865E-009  0.9118800E+02  0.7818608E-02  0.1130116E+00
         25   -1    0    0    0    0  0.00000000000E+00  0.00000000000E+00  0.99999998245E-14  0.12500000000E+03  0.12500000000E+03 0.  0.
        -11    1    3    3    0    0  0.13222731844E+02 -0.44602750289E+02  0.35187414927E+02  0.58330096350E+02  0.51100000000E-03 0. -1.
         23    2    1    0    0    0  0.20170765548E+02 -0.14071136609E+02  0.10264751863E+02  0.98350013151E+02  0.94670498508E+02 0.  0.
         11    1    3    3    0    0  0.69480337039E+01  0.30531613681E+02 -0.24922663064E+02  0.40019916801E+02  0.51100000000E-03 0.  1.
         22    1    1    0    0    0 -0.20170765548E+02  0.14071136609E+02 -0.10264751863E+02  0.26649986849E+02  0.00000000000E+00 0. -1.
</event>
<event>
 5    1  0.1103865E-009  0.9118800E+02  0.7818608E-02  0.1130116E+00
         25   -1    0    0    0    0  0.00000000000E+00  0.00000000000E+00  0.99999998245E-14  0.12500000000E+03  0.12500000000E+03 0.  0.
        -11    1    3    3    0    0 -0.18475093866E+02 -0.18168173539E+02 -0.52964928218E+02  0.58963507736E+02  0.51100000000E-03 0.  1.
         23    2    1    0    0    0 -0.23282177748E+01  0.40796487915E+01 -0.29565597582E+02  0.95063589182E+02  0.90226921124E+02 0.  0.
         11    1    3    3    0    0  0.16146876092E+02  0.22247822330E+02  0.23399330636E+02  0.36100081446E+02  0.51100000000E-03 0. -1.
         22    1    1    0    0    0  0.23282177748E+01 -0.40796487915E+01  0.29565597582E+02  0.29936410818E+02  0.00000000000E+00 0. -1.
</event>
<event>
 5    1  0.1103865E-009  0.9118800E+02  0.7818608E-02  0.1130116E+00
         25   -1    0    0    0    0  0.00000000000E+00  0.00000000000E+00  0.99999998245E-14  0.12500000000E+03  0.12500000000E+03 0.  0.
        -11    1    3    3    0    0 -0.37361307556E+02  0.13729228024E+02 -0.66948826158E+01  0.40363107635E+02  0.51100000000E-03 0. -1.
         23    2    1    0    0    0  0.15716514525E+02  0.25392660829E+02 -0.49060686243E+01  0.94736729157E+02  0.89772948538E+02 0.  0.
         11    1    3    3    0    0  0.53077822081E+02  0.11663432805E+02  0.17888139915E+01  0.54373621522E+02  0.51100000000E-03 0.  1.
         22    1    1    0    0    0 -0.15716514525E+02 -0.25392660829E+02  0.49060686243E+01  0.30263270843E+02  0.00000000000E+00 0.  1.
</event>
<event>
 5    1  0.1103865E-009  0.9118800E+02  0.7818608E-02  0.1130116E+00
         25   -1    0    0    0    0  0.00000000000E+00  0.00000000000E+00  0.99999998245E-14  0.12500000000E+03  0.12500000000E+03 0.  0.
        -11    1    3    3    0    0 -0.27830750192E+02 -0.40005722376E+02  0.36977910404E+02  0.61174948608E+02  0.51100000000E-03 0.  1.
         23    2    1    0    0    0 -0.11033982175E+02 -0.26307939468E+02  0.12546060187E+02  0.93834954390E+02  0.88508409755E+02 0.  0.
         11    1    3    3    0    0  0.16796768017E+02  0.13697782909E+02 -0.24431850216E+02  0.32660005782E+02  0.51100000000E-03 0. -1.
         22    1    1    0    0    0  0.11033982175E+02  0.26307939468E+02 -0.12546060187E+02  0.31165045610E+02  0.00000000000E+00 0.  1.
</event>
<event>
 5    1  0.1103865E-009  0.9118800E+02  0.7818608E-02  0.1130116E+00
         25   -1    0    0    0    0  0.00000000000E+00  0.00000000000E+00  0.99999998245E-14  0.12500000000E+03  0.12500000000E+03 0.  0.
        -11    1    3    3    0    0  0.61159959816E+02 -0.55816475993E+01  0.33187598340E+01  0.61503736811E+02  0.51100000000E-03 0. -1.
         23    2    1    0    0    0  0.31089312044E+02 -0.92515152677E+01  0.63461229257E+01  0.91948386813E+02  0.85802661399E+02 0.  0.
         11    1    3    3    0    0 -0.30070647772E+02 -0.36698676683E+01  0.30273630916E+01  0.30444650001E+02  0.51100000000E-03 0.  1.
         22    1    1    0    0    0 -0.31089312044E+02  0.92515152677E+01 -0.63461229257E+01  0.33051613187E+02  0.00000000000E+00 0. -1.
</event>
<event>
 5    1  0.1103865E-009  0.9118800E+02  0.7818608E-02  0.1130116E+00
         25   -1    0    0    0    0  0.00000000000E+00  0.00000000000E+00  0.99999998245E-14  0.12500000000E+03  0.12500000000E+03 0.  0.
        -11    1    3    3    0    0 -0.48876820069E+02  0.12566555387E+02 -0.26382957141E+02  0.56946661729E+02  0.51100000000E-03 0. -1.
         23    2    1    0    0    0 -0.14506480972E+02 -0.70526432954E+01 -0.23325937898E+02  0.96640219562E+02  0.92385360802E+02 0.  0.
         11    1    3    3    0    0  0.34370339097E+02 -0.19619198682E+02  0.30570192426E+01  0.39693557833E+02  0.51100000000E-03 0.  1.
         22    1    1    0    0    0  0.14506480972E+02  0.70526432954E+01  0.23325937898E+02  0.28359780438E+02  0.00000000000E+00 0. -1.
</event>
<event>
 5    1  0.1103865E-009  0.9118800E+02  0.7818608E-02  0.1130116E+00
         25   -1    0    0    0    0  0.00000000000E+00  0.00000000000E+00  0.99999998245E-14  0.12500000000E+03  0.12500000000E+03 0.  0.
        -11    1    3    3    0    0  0.52843874760E+02  0.20298506031E+02  0.21666367998E+02  0.60613001487E+02  0.51100000000E-03 0.  1.
         23    2    1    0    0    0  0.28084227807E+02 -0.77763207330E+00  0.10905496030E+02  0.94862674192E+02  0.89948143661E+02 0.  0.
         11    1    3    3    0    0 -0.24759646953E+02 -0.21076138104E+02 -0.10760871968E+02  0.34249672705E+02  0.51100000000E-03 0. -1.
         22    1    1    0    0    0 -0.28084227807E+02  0.77763207330E+00 -0.10905496030E+02  0.30137325808E+02  0.00000000000E+00 0.  1.
</event>
<event>
 5    1  0.1103865E-009  0.9118800E+02  0.7818608E-02  0.1130116E+00
         25   -1    0    0    0    0  0.00000000000E+00  0.00000000000E+00  0.99999998245E-14  0.12500000000E+03  0.12500000000E+03 0.  0.
        -11    1    3    3    0    0 -0.81715074692E+01  0.38161193216E+02 -0.16274542157E+02  0.42283695731E+02  0.51100000000E-03 0.  1.
         23    2    1    0    0    0 -0.15619679719E+02  0.50628375192E+01  0.24612570216E+02  0.95413088520E+02  0.90709823779E+02 0.  0.
         11    1    3    3    0    0 -0.74481722494E+01 -0.33098355697E+02  0.40887112373E+02  0.53129392789E+02  0.51100000000E-03 0. -1.
         22    1    1    0    0    0  0.15619679719E+02 -0.50628375192E+01 -0.24612570216E+02  0.29586911480E+02  0.00000000000E+00 0. -1.
</event>
<event>
 5    1  0.1103865E-009  0.9118800E+02  0.7818608E-02  0.1130116E+00
         25   -1    0    0    0    0  0.00000000000E+00  0.00000000000E+00  0.99999998245E-14  0.12500000000E+03  0.12500000000E+03 0.  0.
        -11    1    3    3    0    0  0.19602977516E+02 -0.20660822304E+02  0.31630497781E+02  0.42563302220E+02  0.51100000000E-03 0.  1.
         23    2    1    0    0    0  0.66566925022E+01  0.26420514775E+02  0.98746870299E+01  0.96019582474E+02  0.91541769802E+02 0.  0.
         11    1    3    3    0    0 -0.12946285013E+02  0.47081337079E+02 -0.21755810751E+02  0.53456280253E+02  0.51100000000E-03 0. -1.
         22    1    1    0    0    0 -0.66566925022E+01 -0.26420514775E+02 -0.98746870299E+01  0.28980417526E+02  0.00000000000E+00 0. -1.
</event>
<event>
 5    1  0.1103865E-009  0.9118800E+02  0.7818608E-02  0.1130116E+00
         25   -1    0    0    0    0  0.00000000000E+00  0.00000000000E+00  0.99999998245E-14  0.12500000000E+03  0.12500000000E+03 0.  0.
        -11    1    3    3    0    0 -0.56874227207E+02  0.23725477547E+02  0.36608912304E+01  0.61733120203E+02  0.51100000000E-03 0. -1.
         23    2    1    0    0    0 -0.28846179324E+02  0.45691005068E+01  0.21285079850E+01  0.95716740494E+02  0.91127301746E+02 0.  0.
         11    1    3    3    0    0  0.28028047882E+02 -0.19156377040E+02 -0.15323832454E+01  0.33983620291E+02  0.51100000000E-03 0.  1.
         22    1    1    0    0    0  0.28846179324E+02 -0.45691005068E+01 -0.21285079850E+01  0.29283259506E+02  0.00000000000E+00 0. -1.
</event>
<event>
 5    1  0.1103865E-009  0.9118800E+02  0.7818608E-02  0.1130116E+00
         25   -1    0    0    0    0  0.00000000000E+00  0.00000000000E+00  0.99999998245E-14  0.12500000000E+03  0.12500000000E+03 0.  0.
        -11    1    3    3    0    0  0.53969740757E+02  0.13669149936E+02 -0.19664405523E+01  0.55708576234E+02  0.51100000000E-03 0. -1.
         23    2    1    0    0    0  0.17056604929E+02  0.53778198162E+01 -0.20464851290E+02  0.97821720879E+02  0.93970368839E+02 0.  0.
         11    1    3    3    0    0 -0.36913135828E+02 -0.82913301193E+01 -0.18498410738E+02  0.42113144645E+02  0.51100000000E-03 0.  1.
         22    1    1    0    0    0 -0.17056604929E+02 -0.53778198162E+01  0.20464851290E+02  0.27178279121E+02  0.00000000000E+00 0. -1.
</event>
<event>
 5    1  0.1103865E-009  0.9118800E+02  0.7818608E-02  0.1130116E+00
         25   -1    0    0    0    0  0.00000000000E+00  0.00000000000E+00  0.99999998245E-14  0.12500000000E+03  0.12500000000E+03 0.  0.
        -11    1    3    3    0    0 -0.29381712025E+02  0.10350734169E+02 -0.40984694028E+02  0.51479780926E+02  0.51100000000E-03 0. -1.
         23    2    1    0    0    0 -0.21762937944E+02 -0.17796741761E+02 -0.74563875816E+01  0.95914828503E+02  0.91398616651E+02 0.  0.
         11    1    3    3    0    0  0.76187740803E+01 -0.28147475930E+02  0.33528306447E+02  0.44435047577E+02  0.51100000000E-03 0.  1.
         22    1    1    0    0    0  0.21762937944E+02  0.17796741761E+02  0.74563875816E+01  0.29085171497E+02  0.00000000000E+00 0. -1.
</event>
<event>
 5    1  0.1103865E-009  0.9118800E+02  0.7818608E-02  0.1130116E+00
         25   -1    0    0    0    0  0.00000000000E+00  0.00000000000E+00  0.99999998245E-14  0.12500000000E+03  0.12500000000E+03 0.  0.
        -11    1    3    3    0    0 -0.11807184128E+02  0.24122380555E+02  0.47743039361E+02  0.54778614881E+02  0.51100000000E-03 0.  1.
         23    2    1    0    0    0  0.92320850775E+01 -0.46452554146E+01  0.27170677249E+02  0.95930161767E+02  0.91419584563E+02 0.  0.
         11    1    3    3    0    0  0.21039269205E+02 -0.28767635969E+02 -0.20572362112E+02  0.41151546886E+02  0.51100000000E-03 0. -1.
         22    1    1    0    0    0 -0.92320850775E+01  0.46452554146E+01 -0.27170677249E+02  0.29069838233E+02  0.00000000000E+00 0.  1.
</event>
<event>
 5    1  0.1103865E-009  0.9118800E+02  0.7818608E-02  0.1130116E+00
         25   -1    0    0    0    0  0.00000000000E+00  0.00000000000E+00  0.99999998245E-14  0.12500000000E+03  0.12500000000E+03 0.  0.
        -11    1    3    3    0    0  0.10245978972E+02 -0.69683157971E+01 -0.29251076170E+02  0.31767325470E+02  0.51100000000E-03 0.  1.
         23    2    1    0    0    0 -0.24406707822E+02 -0.95508941354E+01  0.19992140625E+02  0.92036495146E+02  0.85930924506E+02 0.  0.
         11    1    3    3    0    0 -0.34652686794E+02 -0.25825783384E+01  0.49243216795E+02  0.60269169676E+02  0.51100000000E-03 0. -1.
         22    1    1    0    0    0  0.24406707822E+02  0.95508941354E+01 -0.19992140625E+02  0.32963504854E+02  0.00000000000E+00 0. -1.
</event>
<event>
 5    1  0.1103865E-009  0.9118800E+02  0.7818608E-02  0.1130116E+00
         25   -1    0    0    0    0  0.00000000000E+00  0.00000000000E+00  0.99999998245E-14  0.12500000000E+03  0.12500000000E+03 0.  0.
        -11    1    3    3    0    0  0.34342376208E+02  0.45198670745E+02 -0.12699890889E+02  0.58168770570E+02  0.51100000000E-03 0. -1.
         23    2    1    0    0    0  0.15733285678E+02  0.14395943574E+02 -0.20966845760E+02  0.95093678080E+02  0.90268596533E+02 0.  0.
         11    1    3    3    0    0 -0.18609090530E+02 -0.30802727171E+02 -0.82669548718E+01  0.36924907510E+02  0.51100000000E-03 0.  1.
         22    1    1    0    0    0 -0.15733285678E+02 -0.14395943574E+02  0.20966845760E+02  0.29906321920E+02  0.00000000000E+00 0. -1.
</event>
<event>
 5    1  0.1103865E-009  0.9118800E+02  0.7818608E-02  0.1130116E+00
         25   -1    0    0    0    0  0.00000000000E+00  0.00000000000E+00  0.99999998245E-14  0.12500000000E+03  0.12500000000E+03 0.  0.
        -11    1    3    3    0    0 -0.54998832398E+02 -0.22716084212E+02  0.15850893291E+01  0.59526502967E+02  0.51100000000E-03 0.  1.
         23    2    1    0    0    0 -0.26032597657E+02 -0.28292294666E+01 -0.10649329337E+02  0.96731485793E+02  0.92508764170E+02 0.  0.
         11    1    3    3    0    0  0.28966234741E+02  0.19886854745E+02 -0.12234418666E+02  0.37204982826E+02  0.51100000000E-03 0. -1.
         22    1    1    0    0    0  0.26032597657E+02  0.28292294666E+01  0.10649329337E+02  0.28268514207E+02  0.00000000000E+00 0.  1.
</event>
<event>
 5    1  0.1103865E-009  0.9118800E+02  0.7818608E-02  0.1130116E+00
         25   -1    0    0    0    0  0.00000000000E+00  0.00000000000E+00  0.99999998245E-14  0.12500000000E+03  0.12500000000E+03 0.  0.
        -11    1    3    3    0    0 -0.39590045828E+02  0.22284921893E+02  0.35297354865E+02  0.57531667220E+02  0.51100000000E-03 0. -1.
         23    2    1    0    0    0 -0.38769688529E+01  0.21394711105E+02  0.14436382046E+02  0.98900695846E+02  0.95394831944E+02 0.  0.
         11    1    3    3    0    0  0.35713076975E+02 -0.89021078811E+00 -0.20860972818E+02  0.41369028626E+02  0.51100000000E-03 0.  1.
         22    1    1    0    0    0  0.38769688529E+01 -0.21394711105E+02 -0.14436382046E+02  0.26099304154E+02  0.00000000000E+00 0. -1.
</event>
<event>
 5    1  0.1103865E-009  0.9118800E+02  0.7818608E-02  0.1130116E+00
         25   -1    0    0    0    0  0.00000000000E+00  0.00000000000E+00  0.99999998245E-14  0.12500000000E+03  0.12500000000E+03 0.  0.
        -11    1    3    3    0    0  0.17491210990E+02 -0.19867566582E+02 -0.53530274843E+02  0.59717275464E+02  0.51100000000E-03 0. -1.
         23    2    1    0    0    0  0.15903296337E+02 -0.36488123919E+01 -0.10843592754E+02  0.10540887522E+03  0.10357228783E+03 0.  0.
         11    1    3    3    0    0 -0.15879146525E+01  0.16218754190E+02  0.42686682089E+02  0.45691599758E+02  0.51100000000E-03 0.  1.
         22    1    1    0    0    0 -0.15903296337E+02  0.36488123919E+01  0.10843592754E+02  0.19591124778E+02  0.00000000000E+00 0. -1.
</event>
<event>
 5    1  0.1103865E-009  0.9118800E+02  0.7818608E-02  0.1130116E+00
         25   -1    0    0    0    0  0.00000000000E+00  0.00000000000E+00  0.99999998245E-14  0.12500000000E+03  0.12500000000E+03 0.  0.
        -11    1    3    3    0    0  0.55697408944E+01  0.18892211080E+02  0.32404959552E+02  0.37921221723E+02  0.51100000000E-03 0.  1.
         23    2    1    0    0    0 -0.31457279085E+02 -0.10356623393E+02  0.85417946278E+01  0.90797919493E+02  0.84109927317E+02 0.  0.
         11    1    3    3    0    0 -0.37027019980E+02 -0.29248834473E+02 -0.23863164924E+02  0.52876697770E+02  0.51100000000E-03 0. -1.
         22    1    1    0    0    0  0.31457279085E+02  0.10356623393E+02 -0.85417946278E+01  0.34202080507E+02  0.00000000000E+00 0. -1.
</event>
<event>
 5    1  0.1103865E-009  0.9118800E+02  0.7818608E-02  0.1130116E+00
         25   -1    0    0    0    0  0.00000000000E+00  0.00000000000E+00  0.99999998245E-14  0.12500000000E+03  0.12500000000E+03 0.  0.
        -11    1    3    3    0    0 -0.23460775411E+02 -0.21181277268E+02 -0.14594083279E+02  0.34814390079E+02  0.51100000000E-03 0. -1.
         23    2    1    0    0    0  0.29728830360E+02  0.34039613285E+01 -0.54382781354E+00  0.95071985432E+02  0.90238552504E+02 0.  0.
         11    1    3    3    0    0  0.53189605770E+02  0.24585238596E+02  0.14050255465E+02  0.60257595353E+02  0.51100000000E-03 0.  1.
         22    1    1    0    0    0 -0.29728830360E+02 -0.34039613285E+01  0.54382781354E+00  0.29928014568E+02  0.00000000000E+00 0.  1.
</event>
<event>
 5    1  0.1103865E-009  0.9118800E+02  0.7818608E-02  0.1130116E+00
         25   -1    0    0    0    0  0.00000000000E+00  0.00000000000E+00  0.99999998245E-14  0.12500000000E+03  0.12500000000E+03 0.  0.
        -11    1    3    3    0    0 -0.30371421180E+02 -0.17904818211E+02 -0.81159706675E+01  0.36178373648E+02  0.51100000000E-03 0.  1.
         23    2    1    0    0    0 -0.20789085000E+02  0.11885483764E+02 -0.38412261774E+02  0.79734642009E+02  0.65640387738E+02 0.  0.
         11    1    3    3    0    0  0.95823361803E+01  0.29790301976E+02 -0.30296291106E+02  0.43556268361E+02  0.51100000000E-03 0. -1.
         22    1    1    0    0    0  0.20789085000E+02 -0.11885483764E+02  0.38412261774E+02  0.45265357991E+02  0.00000000000E+00 0. -1.
</event>
<event>
 5    1  0.1103865E-009  0.9118800E+02  0.7818608E-02  0.1130116E+00
         25   -1    0    0    0    0  0.00000000000E+00  0.00000000000E+00  0.99999998245E-14  0.12500000000E+03  0.12500000000E+03 0.  0.
        -11    1    3    3    0    0  0.19985530393E+02  0.39358423766E+02  0.35372062473E+01  0.44283391635E+02  0.51100000000E-03 0. -1.
         23    2    1    0    0    0 -0.24717426294E+02  0.10549760448E+02 -0.33821377384E+01  0.97913334207E+02  0.94092154570E+02 0.  0.
         11    1    3    3    0    0 -0.44702956687E+02 -0.28808663318E+02 -0.69193439856E+01  0.53629942571E+02  0.51100000000E-03 0.  1.
         22    1    1    0    0    0  0.24717426294E+02 -0.10549760448E+02  0.33821377384E+01  0.27086665793E+02  0.00000000000E+00 0.  1.
</event>
<event>
 5    1  0.1103865E-009  0.9118800E+02  0.7818608E-02  0.1130116E+00
         25   -1    0    0    0    0  0.00000000000E+00  0.00000000000E+00  0.99999998245E-14  0.12500000000E+03  0.12500000000E+03 0.  0.
        -11    1    3    3    0    0  0.37439761808E+02 -0.11021259409E+02 -0.46851027141E+01  0.39308448340E+02  0.51100000000E-03 0.  1.
         23    2    1    0    0    0 -0.75934583453E+01  0.23602916594E+02  0.10447157874E+02  0.98094584392E+02  0.94332635382E+02 0.  0.
         11    1    3    3    0    0 -0.45033220153E+02  0.34624176002E+02  0.15132260588E+02  0.58786136052E+02  0.51100000000E-03 0. -1.
         22    1    1    0    0    0  0.75934583453E+01 -0.23602916594E+02 -0.10447157874E+02  0.26905415608E+02  0.00000000000E+00 0. -1.
</event>
<event>
 5    1  0.1103865E-009  0.9118800E+02  0.7818608E-02  0.1130116E+00
         25   -1    0    0    0    0  0.00000000000E+00  0.00000000000E+00  0.99999998245E-14  0.12500000000E+03  0.12500000000E+03 0.  0.
        -11    1    3    3    0    0  0.63848079422E+01  0.35876760719E+02  0.14526854778E+02  0.39229290615E+02  0.51100000000E-03 0.  1.
         23    2    1    0    0    0 -0.25958034634E+02 -0.66308626600E+01 -0.77625626929E+01  0.97106536945E+02  0.93014161482E+02 0.  0.
         11    1    3    3    0    0 -0.32342842576E+02 -0.42507623379E+02 -0.22289417471E+02  0.57877246330E+02  0.51100000000E-03 0. -1.
         22    1    1    0    0    0  0.25958034634E+02  0.66308626600E+01  0.77625626929E+01  0.27893463055E+02  0.00000000000E+00 0. -1.
</event>
<event>
 5    1  0.1103865E-009  0.9118800E+02  0.7818608E-02  0.1130116E+00
         25   -1    0    0    0    0  0.00000000000E+00  0.00000000000E+00  0.99999998245E-14  0.12500000000E+03  0.12500000000E+03 0.  0.
        -11    1    3    3    0    0 -0.16389795280E+02 -0.77673504471E+01  0.58774870832E+02  0.61509694877E+02  0.51100000000E-03 0. -1.
         23    2    1    0    0    0  0.27243087685E+00 -0.37919106494E+01  0.28104551565E+02  0.96639488304E+02  0.92384371384E+02 0.  0.
         11    1    3    3    0    0  0.16662226157E+02  0.39754397976E+01 -0.30670319266E+02  0.35129793427E+02  0.51100000000E-03 0.  1.
         22    1    1    0    0    0 -0.27243087685E+00  0.37919106494E+01 -0.28104551565E+02  0.28360511696E+02  0.00000000000E+00 0. -1.
</event>
<event>
 5    1  0.1103865E-009  0.9118800E+02  0.7818608E-02  0.1130116E+00
         25   -1    0    0    0    0  0.00000000000E+00  0.00000000000E+00  0.99999998245E-14  0.12500000000E+03  0.12500000000E+03 0.  0.
        -11    1    3    3    0    0 -0.27989975220E+02 -0.30711779360E+02 -0.16986553868E+02  0.44890924660E+02  0.51100000000E-03 0.  1.
         23    2    1    0    0    0 -0.21766002221E+02  0.18182099611E+02 -0.11158807633E+02  0.94522687344E+02  0.89474420009E+02 0.  0.
         11    1    3    3    0    0  0.62239729986E+01  0.48893878970E+02  0.58277462354E+01  0.49631762684E+02  0.51100000000E-03 0. -1.
         22    1    1    0    0    0  0.21766002221E+02 -0.18182099611E+02  0.11158807633E+02  0.30477312656E+02  0.00000000000E+00 0. -1.
</event>
<event>
 5    1  0.1103865E-009  0.9118800E+02  0.7818608E-02  0.1130116E+00
         25   -1    0    0    0    0  0.00000000000E+00  0.00000000000E+00  0.99999998245E-14  0.12500000000E+03  0.12500000000E+03 0.  0.
        -11    1    3    3    0    0  0.28042494007E+02 -0.26050719729E+02 -0.36344366008E+02  0.52781951549E+02  0.51100000000E-03 0. -1.
         23    2    1    0    0    0  0.15886794515E+02 -0.23763594526E+02  0.50390573810E+01  0.95974308552E+02  0.91479927514E+02 0.  0.
         11    1    3    3    0    0 -0.12155699492E+02  0.22871252032E+01  0.41383423389E+02  0.43192357003E+02  0.51100000000E-03 0.  1.
         22    1    1    0    0    0 -0.15886794515E+02  0.23763594526E+02 -0.50390573810E+01  0.29025691448E+02  0.00000000000E+00 0.  1.
</event>
<event>
 5    1  0.1103865E-009  0.9118800E+02  0.7818608E-02  0.1130116E+00
         25   -1    0    0    0    0  0.00000000000E+00  0.00000000000E+00  0.99999998245E-14  0.12500000000E+03  0.12500000000E+03 0.  0.
        -11    1    3    3    0    0  0.59990220463E+02  0.14779818124E+02 -0.86119560400E+01  0.62381370313E+02  0.51100000000E-03 0.  1.
         23    2    1    0    0    0  0.28745588869E+02  0.53898997233E+01 -0.62590498716E+01  0.95091211931E+02  0.90265181453E+02 0.  0.
         11    1    3    3    0    0 -0.31244631594E+02 -0.93899184004E+01  0.23529061685E+01  0.32709841618E+02  0.51100000000E-03 0. -1.
         22    1    1    0    0    0 -0.28745588869E+02 -0.53898997233E+01  0.62590498716E+01  0.29908788069E+02  0.00000000000E+00 0.  1.
</event>
<event>
 5    1  0.1103865E-009  0.9118800E+02  0.7818608E-02  0.1130116E+00
         25   -1    0    0    0    0  0.00000000000E+00  0.00000000000E+00  0.99999998245E-14  0.12500000000E+03  0.12500000000E+03 0.  0.
        -11    1    3    3    0    0  0.14932191314E+02  0.31709165780E+02  0.24537259100E+02  0.42784560490E+02  0.51100000000E-03 0.  1.
         23    2    1    0    0    0 -0.15766136536E+02  0.19668209478E+02 -0.16078771910E+02  0.95101230268E+02  0.90279053866E+02 0.  0.
         11    1    3    3    0    0 -0.30698327850E+02 -0.12040956302E+02 -0.40616031010E+02  0.52316669778E+02  0.51100000000E-03 0. -1.
         22    1    1    0    0    0  0.15766136536E+02 -0.19668209478E+02  0.16078771910E+02  0.29898769732E+02  0.00000000000E+00 0.  1.
</event>
<event>
 5    1  0.1103865E-009  0.9118800E+02  0.7818608E-02  0.1130116E+00
         25   -1    0    0    0    0  0.00000000000E+00  0.00000000000E+00  0.99999998245E-14  0.12500000000E+03  0.12500000000E+03 0.  0.
        -11    1    3    3    0    0  0.31121779108E+02  0.32339229759E+02  0.24819796297E+02  0.51287554092E+02  0.51100000000E-03 0. -1.
         23    2    1    0    0    0 -0.19728948719E+01  0.30684694373E+02 -0.23836143270E+01  0.94159695199E+02  0.88965857495E+02 0.  0.
         11    1    3    3    0    0 -0.33094673980E+02 -0.16545353857E+01 -0.27203410624E+02  0.42872141107E+02  0.51100000000E-03 0.  1.
         22    1    1    0    0    0  0.19728948719E+01 -0.30684694373E+02  0.23836143270E+01  0.30840304801E+02  0.00000000000E+00 0. -1.
</event>
<event>
 5    1  0.1103865E-009  0.9118800E+02  0.7818608E-02  0.1130116E+00
         25   -1    0    0    0    0  0.00000000000E+00  0.00000000000E+00  0.99999998245E-14  0.12500000000E+03  0.12500000000E+03 0.  0.
        -11    1    3    3    0    0 -0.46257592136E+01 -0.40345704702E+02  0.29191265042E+02  0.50013033214E+02  0.51100000000E-03 0.  1.
         23    2    1    0    0    0 -0.23471463485E+01 -0.27363101730E+02 -0.13288258092E+02  0.94490554980E+02  0.89429518310E+02 0.  0.
         11    1    3    3    0    0  0.22786128651E+01  0.12982602972E+02 -0.42479523134E+02  0.44477521767E+02  0.51100000000E-03 0. -1.
         22    1    1    0    0    0  0.23471463485E+01  0.27363101730E+02  0.13288258092E+02  0.30509445020E+02  0.00000000000E+00 0.  1.
</event>
<event>
 5    1  0.1103865E-009  0.9118800E+02  0.7818608E-02  0.1130116E+00
         25   -1    0    0    0    0  0.00000000000E+00  0.00000000000E+00  0.99999998245E-14  0.12500000000E+03  0.12500000000E+03 0.  0.
        -11    1    3    3    0    0  0.50734936566E+02  0.57575025556E+01 -0.11338526628E+02  0.52304347910E+02  0.51100000000E-03 0.  1.
         23    2    1    0    0    0  0.21433661044E+02 -0.22463921552E+02 -0.65583560408E+01  0.93266080746E+02  0.87701312343E+02 0.  0.
         11    1    3    3    0    0 -0.29301275521E+02 -0.28221424107E+02  0.47801705869E+01  0.40961732836E+02  0.51100000000E-03 0. -1.
         22    1    1    0    0    0 -0.21433661044E+02  0.22463921552E+02  0.65583560408E+01  0.31733919254E+02  0.00000000000E+00 0.  1.
</event>
<event>
 5    1  0.1103865E-009  0.9118800E+02  0.7818608E-02  0.1130116E+00
         25   -1    0    0    0    0  0.00000000000E+00  0.00000000000E+00  0.99999998245E-14  0.12500000000E+03  0.12500000000E+03 0.  0.
        -11    1    3    3    0    0 -0.52210862374E+00 -0.21881255040E+02 -0.32708738174E+02  0.39356365085E+02  0.51100000000E-03 0. -1.
         23    2    1    0    0    0 -0.68306723033E+01 -0.20874707927E-01  0.23781763739E+02  0.10025670179E+03  0.97155419031E+02 0.  0.
         11    1    3    3    0    0 -0.63085636796E+01  0.21860380332E+02  0.56490501913E+02  0.60900336703E+02  0.51100000000E-03 0.  1.
         22    1    1    0    0    0  0.68306723033E+01  0.20874707927E-01 -0.23781763739E+02  0.24743298212E+02  0.00000000000E+00 0.  1.
</event>
<event>
 5    1  0.1103865E-009  0.9118800E+02  0.7818608E-02  0.1130116E+00
         25   -1    0    0    0    0  0.00000000000E+00  0.00000000000E+00  0.99999998245E-14  0.12500000000E+03  0.12500000000E+03 0.  0.
        -11    1    3    3    0    0  0.22186500923E+02  0.34673082388E+02  0.20724814299E+02  0.46086672623E+02  0.51100000000E-03 0.  1.
         23    2    1    0    0    0  0.26476409306E+02 -0.13554659551E+00 -0.13664053398E+02  0.95205286075E+02  0.90423014320E+02 0.  0.
         11    1    3    3    0    0  0.42899083832E+01 -0.34808628984E+02 -0.34388867697E+02  0.49118613452E+02  0.51100000000E-03 0. -1.
         22    1    1    0    0    0 -0.26476409306E+02  0.13554659551E+00  0.13664053398E+02  0.29794713925E+02  0.00000000000E+00 0.  1.
</event>
<event>
 5    1  0.1103865E-009  0.9118800E+02  0.7818608E-02  0.1130116E+00
         25   -1    0    0    0    0  0.00000000000E+00  0.00000000000E+00  0.99999998245E-14  0.12500000000E+03  0.12500000000E+03 0.  0.
        -11    1    3    3    0    0  0.27005692493E+02  0.40530938387E+02 -0.27230286213E+02  0.55799219359E+02  0.51100000000E-03 0. -1.
         23    2    1    0    0    0 -0.60033353939E+01  0.27279598934E+02 -0.99088748427E+01  0.95362146594E+02  0.90639597575E+02 0.  0.
         11    1    3    3    0    0 -0.33009027887E+02 -0.13251339454E+02  0.17321411370E+02  0.39562927236E+02  0.51100000000E-03 0.  1.
         22    1    1    0    0    0  0.60033353939E+01 -0.27279598934E+02  0.99088748427E+01  0.29637853406E+02  0.00000000000E+00 0. -1.
</event>
<event>
 5    1  0.1103865E-009  0.9118800E+02  0.7818608E-02  0.1130116E+00
         25   -1    0    0    0    0  0.00000000000E+00  0.00000000000E+00  0.99999998245E-14  0.12500000000E+03  0.12500000000E+03 0.  0.
        -11    1    3    3    0    0  0.34133688821E+02  0.20497173676E+02 -0.11821813745E+02  0.41533096703E+02  0.51100000000E-03 0. -1.
         23    2    1    0    0    0 -0.15029047036E+02  0.98598619542E+01 -0.25630879975E+02  0.93694550940E+02  0.88309896019E+02 0.  0.
         11    1    3    3    0    0 -0.49162735857E+02 -0.10637311722E+02 -0.13809066231E+02  0.52161454237E+02  0.51100000000E-03 0.  1.
         22    1    1    0    0    0  0.15029047036E+02 -0.98598619542E+01  0.25630879975E+02  0.31305449060E+02  0.00000000000E+00 0. -1.
</event>
<event>
 5    1  0.1103865E-009  0.9118800E+02  0.7818608E-02  0.1130116E+00
         25   -1    0    0    0    0  0.00000000000E+00  0.00000000000E+00  0.99999998245E-14  0.12500000000E+03  0.12500000000E+03 0.  0.
        -11    1    3    3    0    0  0.34661801663E+02  0.94925024920E+00 -0.78989028787E+01  0.35563102192E+02  0.51100000000E-03 0.  1.
         23    2    1    0    0    0 -0.14982787898E+02  0.16900514411E+02  0.20114579613E+02  0.94755866130E+02  0.89799590937E+02 0.  0.
         11    1    3    3    0    0 -0.49644589561E+02  0.15951264162E+02  0.28013482491E+02  0.59192763938E+02  0.51100000000E-03 0. -1.
         22    1    1    0    0    0  0.14982787898E+02 -0.16900514411E+02 -0.20114579613E+02  0.30244133870E+02  0.00000000000E+00 0. -1.
</event>
<event>
 5    1  0.1103865E-009  0.9118800E+02  0.7818608E-02  0.1130116E+00
         25   -1    0    0    0    0  0.00000000000E+00  0.00000000000E+00  0.99999998245E-14  0.12500000000E+03  0.12500000000E+03 0.  0.
        -11    1    3    3    0    0  0.13992404221E+02  0.48282931531E+02 -0.49320802404E+01  0.50510932172E+02  0.51100000000E-03 0.  1.
         23    2    1    0    0    0 -0.92106662256E+00  0.30669979163E+02 -0.28230712410E+02  0.83305046963E+02  0.72119773576E+02 0.  0.
         11    1    3    3    0    0 -0.14913470843E+02 -0.17612952367E+02 -0.23298632170E+02  0.32794114791E+02  0.51100000000E-03 0. -1.
         22    1    1    0    0    0  0.92106662256E+00 -0.30669979163E+02  0.28230712410E+02  0.41694953037E+02  0.00000000000E+00 0.  1.
</event>
<event>
 5    1  0.1103865E-009  0.9118800E+02  0.7818608E-02  0.1130116E+00
         25   -1    0    0    0    0  0.00000000000E+00  0.00000000000E+00  0.99999998245E-14  0.12500000000E+03  0.12500000000E+03 0.  0.
        -11    1    3    3    0    0 -0.26498350858E+02  0.73065317500E+01  0.25355825953E+02  0.37396068168E+02  0.51100000000E-03 0.  1.
         23    2    1    0    0    0 -0.65363433232E+00 -0.76873191106E+01 -0.26585194524E+02  0.97317971880E+02  0.93297872269E+02 0.  0.
         11    1    3    3    0    0  0.25844716526E+02 -0.14993850861E+02 -0.51941020478E+02  0.59921903712E+02  0.51100000000E-03 0. -1.
         22    1    1    0    0    0  0.65363433232E+00  0.76873191106E+01  0.26585194524E+02  0.27682028120E+02  0.00000000000E+00 0. -1.
</event>
<event>
 5    1  0.1103865E-009  0.9118800E+02  0.7818608E-02  0.1130116E+00
         25   -1    0    0    0    0  0.00000000000E+00  0.00000000000E+00  0.99999998245E-14  0.12500000000E+03  0.12500000000E+03 0.  0.
        -11    1    3    3    0    0  0.27641694953E+02  0.33044924719E+02 -0.21053047117E+02  0.47950611495E+02  0.51100000000E-03 0. -1.
         23    2    1    0    0    0  0.24612415240E+02  0.21155108567E+01 -0.35118943012E+02  0.82062993485E+02  0.69933885716E+02 0.  0.
         11    1    3    3    0    0 -0.30292797134E+01 -0.30929413862E+02 -0.14065895895E+02  0.34112381990E+02  0.51100000000E-03 0.  1.
         22    1    1    0    0    0 -0.24612415240E+02 -0.21155108567E+01  0.35118943012E+02  0.42937006515E+02  0.00000000000E+00 0.  1.
</event>
<event>
 5    1  0.1103865E-009  0.9118800E+02  0.7818608E-02  0.1130116E+00
         25   -1    0    0    0    0  0.00000000000E+00  0.00000000000E+00  0.99999998245E-14  0.12500000000E+03  0.12500000000E+03 0.  0.
        -11    1    3    3    0    0 -0.46667028856E+01 -0.25566527235E+02 -0.20237762184E+02  0.32939223566E+02  0.51100000000E-03 0.  1.
         23    2    1    0    0    0  0.20678823837E+02  0.12626209273E+02  0.19729638372E+02  0.93754303557E+02  0.88394433588E+02 0.  0.
         11    1    3    3    0    0  0.25345526722E+02  0.38192736508E+02  0.39967400557E+02  0.60815079991E+02  0.51100000000E-03 0. -1.
         22    1    1    0    0    0 -0.20678823837E+02 -0.12626209273E+02 -0.19729638372E+02  0.31245696443E+02  0.00000000000E+00 0. -1.
</event>
<event>
 5    1  0.1103865E-009  0.9118800E+02  0.7818608E-02  0.1130116E+00
         25   -1    0    0    0    0  0.00000000000E+00  0.00000000000E+00  0.99999998245E-14  0.12500000000E+03  0.12500000000E+03 0.  0.
        -11    1    3    3    0    0 -0.35323485707E+01  0.15665615825E+02 -0.42824072863E+02  0.45736093213E+02  0.51100000000E-03 0.  1.
         23    2    1    0    0    0 -0.23401487218E+02 -0.12771679026E+02 -0.34478195683E+02  0.81416845379E+02  0.68769261628E+02 0.  0.
         11    1    3    3    0    0 -0.19869138647E+02 -0.28437294850E+02  0.83458771798E+01  0.35680752166E+02  0.51100000000E-03 0. -1.
         22    1    1    0    0    0  0.23401487218E+02  0.12771679026E+02  0.34478195683E+02  0.43583154621E+02  0.00000000000E+00 0.  1.
</event>
<event>
 5    1  0.1103865E-009  0.9118800E+02  0.7818608E-02  0.1130116E+00
         25   -1    0    0    0    0  0.00000000000E+00  0.00000000000E+00  0.99999998245E-14  0.12500000000E+03  0.12500000000E+03 0.  0.
        -11    1    3    3    0    0  0.36671227253E+02  0.30919745531E+02 -0.32993104928E+02  0.58218163359E+02  0.51100000000E-03 0. -1.
         23    2    1    0    0    0  0.16894916391E+02 -0.10430790455E+01 -0.21728945160E+02  0.97455975757E+02  0.93482586289E+02 0.  0.
         11    1    3    3    0    0 -0.19776310862E+02 -0.31962824576E+02  0.11264159768E+02  0.39237812397E+02  0.51100000000E-03 0.  1.
         22    1    1    0    0    0 -0.16894916391E+02  0.10430790455E+01  0.21728945160E+02  0.27544024243E+02  0.00000000000E+00 0. -1.
</event>
<event>
 5    1  0.1103865E-009  0.9118800E+02  0.7818608E-02  0.1130116E+00
         25   -1    0    0    0    0  0.00000000000E+00  0.00000000000E+00  0.99999998245E-14  0.12500000000E+03  0.12500000000E+03 0.  0.
        -11    1    3    3    0    0 -0.37680170207E+02 -0.19062476765E+01  0.43414367749E+02  0.57517269879E+02  0.51100000000E-03 0. -1.
         23    2    1    0    0    0 -0.19742047382E+01 -0.39050281521E+01  0.28336328164E+02  0.96327814470E+02  0.91961696470E+02 0.  0.
         11    1    3    3    0    0  0.35705965469E+02 -0.19987804756E+01 -0.15078039585E+02  0.38810544591E+02  0.51100000000E-03 0.  1.
         22    1    1    0    0    0  0.19742047382E+01  0.39050281521E+01 -0.28336328164E+02  0.28672185530E+02  0.00000000000E+00 0. -1.
</event>
<event>
 5    1  0.1103865E-009  0.9118800E+02  0.7818608E-02  0.1130116E+00
         25   -1    0    0    0    0  0.00000000000E+00  0.00000000000E+00  0.99999998245E-14  0.12500000000E+03  0.12500000000E+03 0.  0.
        -11    1    3    3    0    0  0.11433177849E+02 -0.58021989672E+01  0.20646642852E+02  0.24303640260E+02  0.51100000000E-03 0. -1.
         23    2    1    0    0    0 -0.41304094615E+02  0.74013838712E+01 -0.15113393312E+01  0.83010800653E+02  0.71607961592E+02 0.  0.
         11    1    3    3    0    0 -0.52737272464E+02  0.13203582838E+02 -0.22157982183E+02  0.58707160393E+02  0.51100000000E-03 0.  1.
         22    1    1    0    0    0  0.41304094615E+02 -0.74013838712E+01  0.15113393312E+01  0.41989199347E+02  0.00000000000E+00 0.  1.
</event>
<event>
 5    1  0.1103865E-009  0.9118800E+02  0.7818608E-02  0.1130116E+00
         25   -1    0    0    0    0  0.00000000000E+00  0.00000000000E+00  0.99999998245E-14  0.12500000000E+03  0.12500000000E+03 0.  0.
        -11    1    3    3    0    0 -0.14346680374E+02 -0.40136757591E+02  0.32399125883E+02  0.53539610625E+02  0.51100000000E-03 0.  1.
         23    2    1    0    0    0 -0.25386938897E+02 -0.12056318752E+02  0.13070139586E+01  0.96865327905E+02  0.92689438321E+02 0.  0.
         11    1    3    3    0    0 -0.11040258523E+02  0.28080438839E+02 -0.31092111924E+02  0.43325717280E+02  0.51100000000E-03 0. -1.
         22    1    1    0    0    0  0.25386938897E+02  0.12056318752E+02 -0.13070139586E+01  0.28134672095E+02  0.00000000000E+00 0.  1.
</event>
<event>
 5    1  0.1103865E-009  0.9118800E+02  0.7818608E-02  0.1130116E+00
         25   -1    0    0    0    0  0.00000000000E+00  0.00000000000E+00  0.99999998245E-14  0.12500000000E+03  0.12500000000E+03 0.  0.
        -11    1    3    3    0    0 -0.19251466698E+02 -0.33483282108E+02 -0.25007019049E+02  0.46011956628E+02  0.51100000000E-03 0. -1.
         23    2    1    0    0    0 -0.35782624083E+01  0.13137739208E+02 -0.26485663145E+02  0.95219225907E+02  0.90442282572E+02 0.  0.
         11    1    3    3    0    0  0.15673204290E+02  0.46621021316E+02 -0.14786440956E+01  0.49207269279E+02  0.51100000000E-03 0.  1.
         22    1    1    0    0    0  0.35782624083E+01 -0.13137739208E+02  0.26485663145E+02  0.29780774093E+02  0.00000000000E+00 0. -1.
</event>
<event>
 5    1  0.1103865E-009  0.9118800E+02  0.7818608E-02  0.1130116E+00
         25   -1    0    0    0    0  0.00000000000E+00  0.00000000000E+00  0.99999998245E-14  0.12500000000E+03  0.12500000000E+03 0.  0.
        -11    1    3    3    0    0  0.20089303443E+01  0.43647044700E+02  0.30014242077E+02  0.53009009045E+02  0.51100000000E-03 0. -1.
         23    2    1    0    0    0  0.23602775220E+02  0.10753573422E+02  0.14327919168E+02  0.95368604368E+02  0.90648502977E+02 0.  0.
         11    1    3    3    0    0  0.21593844875E+02 -0.32893471279E+02 -0.15686322909E+02  0.42359595323E+02  0.51100000000E-03 0.  1.
         22    1    1    0    0    0 -0.23602775220E+02 -0.10753573422E+02 -0.14327919168E+02  0.29631395632E+02  0.00000000000E+00 0. -1.
</event>
<event>
 5    1  0.1103865E-009  0.9118800E+02  0.7818608E-02  0.1130116E+00
         25   -1    0    0    0    0  0.00000000000E+00  0.00000000000E+00  0.99999998245E-14  0.12500000000E+03  0.12500000000E+03 0.  0.
        -11    1    3    3    0    0 -0.25942440075E+02  0.44831610048E+02 -0.29019569114E+02  0.59371869167E+02  0.51100000000E-03 0. -1.
         23    2    1    0    0    0 -0.23504320473E+02  0.14276802168E+02 -0.86646611809E+01  0.96166746378E+02  0.91742501572E+02 0.  0.
         11    1    3    3    0    0  0.24381196022E+01 -0.30554807880E+02  0.20354907933E+02  0.36794877212E+02  0.51100000000E-03 0.  1.
         22    1    1    0    0    0  0.23504320473E+02 -0.14276802168E+02  0.86646611809E+01  0.28833253622E+02  0.00000000000E+00 0. -1.
</event>
<event>
 5    1  0.1103865E-009  0.9118800E+02  0.7818608E-02  0.1130116E+00
         25   -1    0    0    0    0  0.00000000000E+00  0.00000000000E+00  0.99999998245E-14  0.12500000000E+03  0.12500000000E+03 0.  0.
        -11    1    3    3    0    0  0.18141509971E+01  0.21808097324E+02 -0.54676714316E+02  0.58893355664E+02  0.51100000000E-03 0.  1.
         23    2    1    0    0    0  0.11572641270E+02 -0.31908224236E+00 -0.26851459756E+02  0.95759125689E+02  0.91185423299E+02 0.  0.
         11    1    3    3    0    0  0.97584902729E+01 -0.22127179566E+02  0.27825254560E+02  0.36865770025E+02  0.51100000000E-03 0. -1.
         22    1    1    0    0    0 -0.11572641270E+02  0.31908224236E+00  0.26851459756E+02  0.29240874311E+02  0.00000000000E+00 0.  1.
</event>
<event>
 5    1  0.1103865E-009  0.9118800E+02  0.7818608E-02  0.1130116E+00
         25   -1    0    0    0    0  0.00000000000E+00  0.00000000000E+00  0.99999998245E-14  0.12500000000E+03  0.12500000000E+03 0.  0.
        -11    1    3    3    0    0  0.44482010607E+01  0.37798378756E+02 -0.20633400319E+02  0.43292506722E+02  0.51100000000E-03 0.  1.
         23    2    1    0    0    0 -0.26492409412E+02 -0.42735676223E+01 -0.70932318110E+01  0.97243467900E+02  0.93197998771E+02 0.  0.
         11    1    3    3    0    0 -0.30940610473E+02 -0.42071946379E+02  0.13540168508E+02  0.53950961178E+02  0.51100000000E-03 0. -1.
         22    1    1    0    0    0  0.26492409412E+02  0.42735676223E+01  0.70932318110E+01  0.27756532100E+02  0.00000000000E+00 0. -1.
</event>
<event>
 5    1  0.1103865E-009  0.9118800E+02  0.7818608E-02  0.1130116E+00
         25   -1    0    0    0    0  0.00000000000E+00  0.00000000000E+00  0.99999998245E-14  0.12500000000E+03  0.12500000000E+03 0.  0.
        -11    1    3    3    0    0 -0.21018846642E+02 -0.25796168445E+02  0.20380472802E+01  0.33337484272E+02  0.51100000000E-03 0.  1.
         23    2    1    0    0    0  0.26455892800E+02  0.12126460918E+02 -0.77515594537E+01  0.94882696134E+02  0.89975963642E+02 0.  0.
         11    1    3    3    0    0  0.47474739442E+02  0.37922629363E+02 -0.97896067339E+01  0.61545211862E+02  0.51100000000E-03 0. -1.
         22    1    1    0    0    0 -0.26455892800E+02 -0.12126460918E+02  0.77515594537E+01  0.30117303866E+02  0.00000000000E+00 0. -1.
</event>
<event>
 5    1  0.1103865E-009  0.9118800E+02  0.7818608E-02  0.1130116E+00
         25   -1    0    0    0    0  0.00000000000E+00  0.00000000000E+00  0.99999998245E-14  0.12500000000E+03  0.12500000000E+03 0.  0.
        -11    1    3    3    0    0 -0.13982729978E+02  0.11765076740E+01 -0.30353249360E+02  0.33439806443E+02  0.51100000000E-03 0. -1.
         23    2    1    0    0    0 -0.74446446759E+01  0.84771924346E+01  0.29149034575E+02  0.93743772739E+02  0.88379540533E+02 0.  0.
         11    1    3    3    0    0  0.65380853018E+01  0.73006847606E+01  0.59502283935E+02  0.60303966297E+02  0.51100000000E-03 0.  1.
         22    1    1    0    0    0  0.74446446759E+01 -0.84771924346E+01 -0.29149034575E+02  0.31256227261E+02  0.00000000000E+00 0.  1.
</event>
<event>
 5    1  0.1103865E-009  0.9118800E+02  0.7818608E-02  0.1130116E+00
         25   -1    0    0    0    0  0.00000000000E+00  0.00000000000E+00  0.99999998245E-14  0.12500000000E+03  0.12500000000E+03 0.  0.
        -11    1    3    3    0    0  0.19389653103E+02  0.26739645155E+02 -0.30046550556E+01  0.33166175883E+02  0.51100000000E-03 0. -1.
         23    2    1    0    0    0 -0.17732606980E+02 -0.10100812948E+02 -0.27366762972E+02  0.90861876324E+02  0.84204923140E+02 0.  0.
         11    1    3    3    0    0 -0.37122260083E+02 -0.36840458103E+02 -0.24362107917E+02  0.57695700441E+02  0.51100000000E-03 0.  1.
         22    1    1    0    0    0  0.17732606980E+02  0.10100812948E+02  0.27366762972E+02  0.34138123676E+02  0.00000000000E+00 0. -1.
</event>
<event>
 5    1  0.1103865E-009  0.9118800E+02  0.7818608E-02  0.1130116E+00
         25   -1    0    0    0    0  0.00000000000E+00  0.00000000000E+00  0.99999998245E-14  0.12500000000E+03  0.12500000000E+03 0.  0.
        -11    1    3    3    0    0  0.35135523156E+02  0.42921293121E+02 -0.57624715284E+01  0.55766911955E+02  0.51100000000E-03 0. -1.
         23    2    1    0    0    0  0.13252518221E+01  0.25405322418E+02 -0.15680906564E+02  0.95115597208E+02  0.90298944081E+02 0.  0.
         11    1    3    3    0    0 -0.33810271334E+02 -0.17515970703E+02 -0.99184350353E+01  0.39348685253E+02  0.51100000000E-03 0.  1.
         22    1    1    0    0    0 -0.13252518221E+01 -0.25405322418E+02  0.15680906564E+02  0.29884402792E+02  0.00000000000E+00 0. -1.
</event>
<event>
 5    1  0.1103865E-009  0.9118800E+02  0.7818608E-02  0.1130116E+00
         25   -1    0    0    0    0  0.00000000000E+00  0.00000000000E+00  0.99999998245E-14  0.12500000000E+03  0.12500000000E+03 0.  0.
        -11    1    3    3    0    0 -0.26162477147E+02  0.41479878889E+02  0.33715095333E+02  0.59512714749E+02  0.51100000000E-03 0. -1.
         23    2    1    0    0    0 -0.23944217090E+02  0.12691473695E+02  0.13796233123E+02  0.94590542836E+02  0.89569167178E+02 0.  0.
         11    1    3    3    0    0  0.22182600569E+01 -0.28788405194E+02 -0.19918862210E+02  0.35077828087E+02  0.51100000000E-03 0.  1.
         22    1    1    0    0    0  0.23944217090E+02 -0.12691473695E+02 -0.13796233123E+02  0.30409457164E+02  0.00000000000E+00 0. -1.
</event>
<event>
 5    1  0.1103865E-009  0.9118800E+02  0.7818608E-02  0.1130116E+00
         25   -1    0    0    0    0  0.00000000000E+00  0.00000000000E+00  0.99999998245E-14  0.12500000000E+03  0.12500000000E+03 0.  0.
        -11    1    3    3    0    0 -0.53865135394E+02 -0.10632217266E+02  0.24066988517E+02  0.59947617063E+02  0.51100000000E-03 0.  1.
         23    2    1    0    0    0 -0.21955863630E+02 -0.83905167877E+01  0.23239863333E+02  0.91946226124E+02  0.85799513582E+02 0.  0.
         11    1    3    3    0    0  0.31909271764E+02  0.22417004785E+01 -0.82712518314E+00  0.31998609061E+02  0.51100000000E-03 0. -1.
         22    1    1    0    0    0  0.21955863630E+02  0.83905167877E+01 -0.23239863333E+02  0.33053773876E+02  0.00000000000E+00 0.  1.
</event>
<event>
 5    1  0.1103865E-009  0.9118800E+02  0.7818608E-02  0.1130116E+00
         25   -1    0    0    0    0  0.00000000000E+00  0.00000000000E+00  0.99999998245E-14  0.12500000000E+03  0.12500000000E+03 0.  0.
        -11    1    3    3    0    0  0.11191156782E+01 -0.35853446810E+02  0.40763398061E+01  0.36101781321E+02  0.51100000000E-03 0.  1.
         23    2    1    0    0    0  0.14335219057E+02  0.16200694409E+02 -0.20530382481E+02  0.95176224090E+02  0.90382830352E+02 0.  0.
         11    1    3    3    0    0  0.13216103378E+02  0.52054141218E+02 -0.24606722287E+02  0.59074442769E+02  0.51100000000E-03 0. -1.
         22    1    1    0    0    0 -0.14335219057E+02 -0.16200694409E+02  0.20530382481E+02  0.29823775910E+02  0.00000000000E+00 0. -1.
</event>
<event>
 5    1  0.1103865E-009  0.9118800E+02  0.7818608E-02  0.1130116E+00
         25   -1    0    0    0    0  0.00000000000E+00  0.00000000000E+00  0.99999998245E-14  0.12500000000E+03  0.12500000000E+03 0.  0.
        -11    1    3    3    0    0 -0.12909290981E+02  0.25120061015E+02 -0.32587102086E+02  0.43122922925E+02  0.51100000000E-03 0. -1.
         23    2    1    0    0    0  0.15454629655E+01  0.25312400156E+02  0.16798839078E+02  0.94581139867E+02  0.89556043720E+02 0.  0.
         11    1    3    3    0    0  0.14454753946E+02  0.19233914057E+00  0.49385941163E+02  0.51458216942E+02  0.51100000000E-03 0.  1.
         22    1    1    0    0    0 -0.15454629655E+01 -0.25312400156E+02 -0.16798839078E+02  0.30418860133E+02  0.00000000000E+00 0.  1.
</event>
<event>
 5    1  0.1103865E-009  0.9118800E+02  0.7818608E-02  0.1130116E+00
         25   -1    0    0    0    0  0.00000000000E+00  0.00000000000E+00  0.99999998245E-14  0.12500000000E+03  0.12500000000E+03 0.  0.
        -11    1    3    3    0    0  0.38982487496E+02  0.38550339188E+02 -0.14238721084E+02  0.56643659497E+02  0.51100000000E-03 0.  1.
         23    2    1    0    0    0  0.18345841017E+02  0.20550850769E+02  0.12348395724E+02  0.94810759750E+02  0.89875969744E+02 0.  0.
         11    1    3    3    0    0 -0.20636646479E+02 -0.17999488419E+02  0.26587116808E+02  0.38167100252E+02  0.51100000000E-03 0. -1.
         22    1    1    0    0    0 -0.18345841017E+02 -0.20550850769E+02 -0.12348395724E+02  0.30189240250E+02  0.00000000000E+00 0.  1.
</event>
<event>
 5    1  0.1103865E-009  0.9118800E+02  0.7818608E-02  0.1130116E+00
         25   -1    0    0    0    0  0.00000000000E+00  0.00000000000E+00  0.99999998245E-14  0.12500000000E+03  0.12500000000E+03 0.  0.
        -11    1    3    3    0    0  0.20215149088E+02 -0.21370596189E+02 -0.45821258633E+02  0.54451284440E+02  0.51100000000E-03 0.  1.
         23    2    1    0    0    0  0.22836578226E+01 -0.26421694808E+02 -0.69066674408E+01  0.97595199239E+02  0.93668563616E+02 0.  0.
         11    1    3    3    0    0 -0.17931491266E+02 -0.50510986194E+01  0.38914591193E+02  0.43143914800E+02  0.51100000000E-03 0. -1.
         22    1    1    0    0    0 -0.22836578226E+01  0.26421694808E+02  0.69066674408E+01  0.27404800761E+02  0.00000000000E+00 0.  1.
</event>
<event>
 5    1  0.1103865E-009  0.9118800E+02  0.7818608E-02  0.1130116E+00
         25   -1    0    0    0    0  0.00000000000E+00  0.00000000000E+00  0.99999998245E-14  0.12500000000E+03  0.12500000000E+03 0.  0.
        -11    1    3    3    0    0 -0.32808794216E+02 -0.18003496252E+02  0.28786790674E+02  0.47214639390E+02  0.51100000000E-03 0. -1.
         23    2    1    0    0    0 -0.23369908362E+02  0.11342709288E+00 -0.16160539372E+02  0.96586473021E+02  0.92312611573E+02 0.  0.
         11    1    3    3    0    0  0.94388858535E+01  0.18116923345E+02 -0.44947330046E+02  0.49371833631E+02  0.51100000000E-03 0.  1.
         22    1    1    0    0    0  0.23369908362E+02 -0.11342709288E+00  0.16160539372E+02  0.28413526979E+02  0.00000000000E+00 0. -1.
</event>
<event>
 5    1  0.1103865E-009  0.9118800E+02  0.7818608E-02  0.1130116E+00
         25   -1    0    0    0    0  0.00000000000E+00  0.00000000000E+00  0.99999998245E-14  0.12500000000E+03  0.12500000000E+03 0.  0.
        -11    1    3    3    0    0  0.52522333192E+01 -0.51942461128E+01  0.39517917607E+02  0.40202387489E+02  0.51100000000E-03 0. -1.
         23    2    1    0    0    0  0.22575834494E+02 -0.13194773767E+02 -0.12796175512E+02  0.95887932647E+02  0.91361825516E+02 0.  0.
         11    1    3    3    0    0  0.17323601175E+02 -0.80005276541E+01 -0.52314093119E+02  0.55685545158E+02  0.51100000000E-03 0.  1.
         22    1    1    0    0    0 -0.22575834494E+02  0.13194773767E+02  0.12796175512E+02  0.29112067353E+02  0.00000000000E+00 0.  1.
</event>
<event>
 5    1  0.1103865E-009  0.9118800E+02  0.7818608E-02  0.1130116E+00
         25   -1    0    0    0    0  0.00000000000E+00  0.00000000000E+00  0.99999998245E-14  0.12500000000E+03  0.12500000000E+03 0.  0.
        -11    1    3    3    0    0  0.23328234616E+02  0.25071671462E+02  0.65972786407E+01  0.34875769898E+02  0.51100000000E-03 0. -1.
         23    2    1    0    0    0 -0.47686994274E+01 -0.21129153879E+02 -0.20339083933E+02  0.95287040318E+02  0.90535960145E+02 0.  0.
         11    1    3    3    0    0 -0.28096934044E+02 -0.46200825341E+02 -0.26936362573E+02  0.60411270420E+02  0.51100000000E-03 0.  1.
         22    1    1    0    0    0  0.47686994274E+01  0.21129153879E+02  0.20339083933E+02  0.29712959682E+02  0.00000000000E+00 0.  1.
</event>
<event>
 5    1  0.1103865E-009  0.9118800E+02  0.7818608E-02  0.1130116E+00
         25   -1    0    0    0    0  0.00000000000E+00  0.00000000000E+00  0.99999998245E-14  0.12500000000E+03  0.12500000000E+03 0.  0.
        -11    1    3    3    0    0 -0.13633539796E+02 -0.49791947620E+02  0.78384369764E+01  0.52216401156E+02  0.51100000000E-03 0. -1.
         23    2    1    0    0    0 -0.23389476328E+02 -0.13020567548E+02 -0.12612154409E+02  0.95408291347E+02  0.90703212935E+02 0.  0.
         11    1    3    3    0    0 -0.97559365324E+01  0.36771380072E+02 -0.20450591385E+02  0.43191890191E+02  0.51100000000E-03 0.  1.
         22    1    1    0    0    0  0.23389476328E+02  0.13020567548E+02  0.12612154409E+02  0.29591708653E+02  0.00000000000E+00 0. -1.
</event>
<event>
 5    1  0.1103865E-009  0.9118800E+02  0.7818608E-02  0.1130116E+00
         25   -1    0    0    0    0  0.00000000000E+00  0.00000000000E+00  0.99999998245E-14  0.12500000000E+03  0.12500000000E+03 0.  0.
        -11    1    3    3    0    0 -0.41149607835E+02 -0.79059424378E+01  0.16010442222E+02  0.44856754355E+02  0.51100000000E-03 0. -1.
         23    2    1    0    0    0  0.75171857091E+01  0.23170812864E+01  0.27920947230E+02  0.95992134844E+02  0.91504282473E+02 0.  0.
         11    1    3    3    0    0  0.48666793544E+02  0.10223023724E+02  0.11910505008E+02  0.51135380489E+02  0.51100000000E-03 0.  1.
         22    1    1    0    0    0 -0.75171857091E+01 -0.23170812864E+01 -0.27920947230E+02  0.29007865156E+02  0.00000000000E+00 0.  1.
</event>
<event>
 5    1  0.1103865E-009  0.9118800E+02  0.7818608E-02  0.1130116E+00
         25   -1    0    0    0    0  0.00000000000E+00  0.00000000000E+00  0.99999998245E-14  0.12500000000E+03  0.12500000000E+03 0.  0.
        -11    1    3    3    0    0  0.29990374617E+02 -0.51825215433E+02  0.36600741776E+01  0.59988929542E+02  0.51100000000E-03 0.  1.
         23    2    1    0    0    0  0.22633590518E+02 -0.19376349082E+02  0.94103964675E+01  0.93754554169E+02  0.88394787982E+02 0.  0.
         11    1    3    3    0    0 -0.73567840989E+01  0.32448866351E+02  0.57503222899E+01  0.33765624627E+02  0.51100000000E-03 0. -1.
         22    1    1    0    0    0 -0.22633590518E+02  0.19376349082E+02 -0.94103964675E+01  0.31245445831E+02  0.00000000000E+00 0.  1.
</event>
<event>
 5    1  0.1103865E-009  0.9118800E+02  0.7818608E-02  0.1130116E+00
         25   -1    0    0    0    0  0.00000000000E+00  0.00000000000E+00  0.99999998245E-14  0.12500000000E+03  0.12500000000E+03 0.  0.
        -11    1    3    3    0    0  0.28825998788E+01  0.52975775420E+02  0.25552797551E+02  0.58887075206E+02  0.51100000000E-03 0.  1.
         23    2    1    0    0    0 -0.12833292065E+02  0.25070893531E+02  0.67027296246E+01  0.96048839884E+02  0.91581711990E+02 0.  0.
         11    1    3    3    0    0 -0.15715891944E+02 -0.27904881889E+02 -0.18850067927E+02  0.37161764677E+02  0.51100000000E-03 0. -1.
         22    1    1    0    0    0  0.12833292065E+02 -0.25070893531E+02 -0.67027296246E+01  0.28951160116E+02  0.00000000000E+00 0.  1.
</event>
<event>
 5    1  0.1103865E-009  0.9118800E+02  0.7818608E-02  0.1130116E+00
         25   -1    0    0    0    0  0.00000000000E+00  0.00000000000E+00  0.99999998245E-14  0.12500000000E+03  0.12500000000E+03 0.  0.
        -11    1    3    3    0    0  0.37516374400E+02  0.48467581089E+02 -0.31555798042E+01  0.61372163469E+02  0.51100000000E-03 0. -1.
         23    2    1    0    0    0  0.11192599825E+02  0.26699370896E+02  0.22780301610E+01  0.95960025508E+02  0.91460408795E+02 0.  0.
         11    1    3    3    0    0 -0.26323774575E+02 -0.21768210193E+02  0.54336099651E+01  0.34587862038E+02  0.51100000000E-03 0.  1.
         22    1    1    0    0    0 -0.11192599825E+02 -0.26699370896E+02 -0.22780301610E+01  0.29039974492E+02  0.00000000000E+00 0. -1.
</event>
<event>
 5    1  0.1103865E-009  0.9118800E+02  0.7818608E-02  0.1130116E+00
         25   -1    0    0    0    0  0.00000000000E+00  0.00000000000E+00  0.99999998245E-14  0.12500000000E+03  0.12500000000E+03 0.  0.
        -11    1    3    3    0    0 -0.40122633142E+02 -0.41532734078E+02  0.23941762143E+01  0.57797281685E+02  0.51100000000E-03 0. -1.
         23    2    1    0    0    0 -0.20298702842E+02 -0.14085746580E+02 -0.15238891797E+02  0.95971231218E+02  0.91475722487E+02 0.  0.
         11    1    3    3    0    0  0.19823930299E+02  0.27446987498E+02 -0.17633068011E+02  0.38173949533E+02  0.51100000000E-03 0.  1.
         22    1    1    0    0    0  0.20298702842E+02  0.14085746580E+02  0.15238891797E+02  0.29028768782E+02  0.00000000000E+00 0. -1.
</event>
<event>
 5    1  0.1103865E-009  0.9118800E+02  0.7818608E-02  0.1130116E+00
         25   -1    0    0    0    0  0.00000000000E+00  0.00000000000E+00  0.99999998245E-14  0.12500000000E+03  0.12500000000E+03 0.  0.
        -11    1    3    3    0    0  0.16521709631E+02 -0.13088585653E+02 -0.48515805025E+02  0.52896704066E+02  0.51100000000E-03 0.  1.
         23    2    1    0    0    0 -0.14974795978E+02 -0.15744692541E+02 -0.20102214368E+02  0.95398667592E+02  0.90689949267E+02 0.  0.
         11    1    3    3    0    0 -0.31496505609E+02 -0.26561068882E+01  0.28413590657E+02  0.42501963527E+02  0.51100000000E-03 0. -1.
         22    1    1    0    0    0  0.14974795978E+02  0.15744692541E+02  0.20102214368E+02  0.29601332408E+02  0.00000000000E+00 0.  1.
</event>
<event>
 5    1  0.1103865E-009  0.9118800E+02  0.7818608E-02  0.1130116E+00
         25   -1    0    0    0    0  0.00000000000E+00  0.00000000000E+00  0.99999998245E-14  0.12500000000E+03  0.12500000000E+03 0.  0.
        -11    1    3    3    0    0 -0.16610246042E+02  0.48277542834E+02  0.94382185271E+01  0.51920144307E+02  0.51100000000E-03 0. -1.
         23    2    1    0    0    0  0.16173432467E+02  0.25277961193E+02 -0.51709137365E+01  0.94548504327E+02  0.89510480290E+02 0.  0.
         11    1    3    3    0    0  0.32783678509E+02 -0.22999581641E+02 -0.14609132264E+02  0.42628360020E+02  0.51100000000E-03 0.  1.
         22    1    1    0    0    0 -0.16173432467E+02 -0.25277961193E+02  0.51709137365E+01  0.30451495673E+02  0.00000000000E+00 0.  1.
</event>
<event>
 5    1  0.1103865E-009  0.9118800E+02  0.7818608E-02  0.1130116E+00
         25   -1    0    0    0    0  0.00000000000E+00  0.00000000000E+00  0.99999998245E-14  0.12500000000E+03  0.12500000000E+03 0.  0.
        -11    1    3    3    0    0  0.15056134810E+02  0.55461345369E+01 -0.33946154265E+02  0.37547146274E+02  0.51100000000E-03 0.  1.
         23    2    1    0    0    0  0.90364991875E+01  0.18621700669E+02  0.21691975472E+02  0.95017207381E+02  0.90162641073E+02 0.  0.
         11    1    3    3    0    0 -0.60196356220E+01  0.13075566132E+02  0.55638129737E+02  0.57470061106E+02  0.51100000000E-03 0. -1.
         22    1    1    0    0    0 -0.90364991875E+01 -0.18621700669E+02 -0.21691975472E+02  0.29982792619E+02  0.00000000000E+00 0. -1.
</event>
<event>
 5    1  0.1103865E-009  0.9118800E+02  0.7818608E-02  0.1130116E+00
         25   -1    0    0    0    0  0.00000000000E+00  0.00000000000E+00  0.99999998245E-14  0.12500000000E+03  0.12500000000E+03 0.  0.
        -11    1    3    3    0    0 -0.51970748263E+02  0.20377651135E+02  0.15574054081E+02  0.57954797054E+02  0.51100000000E-03 0.  1.
         23    2    1    0    0    0 -0.12719747619E+02  0.10118842696E+02  0.20517772923E+02  0.98824401387E+02  0.95294807554E+02 0.  0.
         11    1    3    3    0    0  0.39251000644E+02 -0.10258808439E+02  0.49437188422E+01  0.40869604333E+02  0.51100000000E-03 0. -1.
         22    1    1    0    0    0  0.12719747619E+02 -0.10118842696E+02 -0.20517772923E+02  0.26175598613E+02  0.00000000000E+00 0.  1.
</event>
<event>
 5    1  0.1103865E-009  0.9118800E+02  0.7818608E-02  0.1130116E+00
         25   -1    0    0    0    0  0.00000000000E+00  0.00000000000E+00  0.99999998245E-14  0.12500000000E+03  0.12500000000E+03 0.  0.
        -11    1    3    3    0    0 -0.21169247333E+02  0.43887296078E+02  0.21382770260E+02  0.53211414696E+02  0.51100000000E-03 0. -1.
         23    2    1    0    0    0 -0.72571788572E+01  0.27035635924E+02 -0.13146012021E+02  0.94074122699E+02  0.88845543921E+02 0.  0.
         11    1    3    3    0    0  0.13912068475E+02 -0.16851660154E+02 -0.34528782281E+02  0.40862708003E+02  0.51100000000E-03 0.  1.
         22    1    1    0    0    0  0.72571788572E+01 -0.27035635924E+02  0.13146012021E+02  0.30925877301E+02  0.00000000000E+00 0. -1.
</event>
<event>
 5    1  0.1103865E-009  0.9118800E+02  0.7818608E-02  0.1130116E+00
         25   -1    0    0    0    0  0.00000000000E+00  0.00000000000E+00  0.99999998245E-14  0.12500000000E+03  0.12500000000E+03 0.  0.
        -11    1    3    3    0    0  0.21022124471E+02  0.30801895450E+02  0.27723260226E+00  0.37292939529E+02  0.51100000000E-03 0.  1.
         23    2    1    0    0    0 -0.28438755673E+02  0.11185459458E+01  0.78608670539E+01  0.95473618574E+02  0.90793197122E+02 0.  0.
         11    1    3    3    0    0 -0.49460880144E+02 -0.29683349504E+02  0.75836344516E+01  0.58180679045E+02  0.51100000000E-03 0. -1.
         22    1    1    0    0    0  0.28438755673E+02 -0.11185459458E+01 -0.78608670539E+01  0.29526381426E+02  0.00000000000E+00 0. -1.
</event>
<event>
 5    1  0.1103865E-009  0.9118800E+02  0.7818608E-02  0.1130116E+00
         25   -1    0    0    0    0  0.00000000000E+00  0.00000000000E+00  0.99999998245E-14  0.12500000000E+03  0.12500000000E+03 0.  0.
        -11    1    3    3    0    0 -0.69736384164E+01 -0.63133328451E+01  0.31816998118E+02  0.33178474556E+02  0.51100000000E-03 0.  1.
         23    2    1    0    0    0  0.13137079380E+02  0.78313386293E+01 -0.25341629587E+02  0.95400829243E+02  0.90692928670E+02 0.  0.
         11    1    3    3    0    0  0.20110717796E+02  0.14144671474E+02 -0.57158627705E+02  0.62222354687E+02  0.51100000000E-03 0. -1.
         22    1    1    0    0    0 -0.13137079380E+02 -0.78313386293E+01  0.25341629587E+02  0.29599170757E+02  0.00000000000E+00 0. -1.
</event>
<event>
 5    1  0.1103865E-009  0.9118800E+02  0.7818608E-02  0.1130116E+00
         25   -1    0    0    0    0  0.00000000000E+00  0.00000000000E+00  0.99999998245E-14  0.12500000000E+03  0.12500000000E+03 0.  0.
        -11    1    3    3    0    0  0.13284013128E+02  0.25631695431E+02 -0.41268974588E+02  0.50364442609E+02  0.51100000000E-03 0.  1.
         23    2    1    0    0    0  0.22128008558E+01  0.29244368028E+02  0.24137363551E+01  0.95572875231E+02  0.90929746550E+02 0.  0.
         11    1    3    3    0    0 -0.11071212272E+02  0.36126725970E+01  0.43682710944E+02  0.45208432622E+02  0.51100000000E-03 0. -1.
         22    1    1    0    0    0 -0.22128008558E+01 -0.29244368028E+02 -0.24137363551E+01  0.29427124769E+02  0.00000000000E+00 0.  1.
</event>
<event>
 5    1  0.1103865E-009  0.9118800E+02  0.7818608E-02  0.1130116E+00
         25   -1    0    0    0    0  0.00000000000E+00  0.00000000000E+00  0.99999998245E-14  0.12500000000E+03  0.12500000000E+03 0.  0.
        -11    1    3    3    0    0 -0.47589031503E+02  0.16988672746E+01 -0.48134256121E+00  0.47621778215E+02  0.51100000000E-03 0.  1.
         23    2    1    0    0    0 -0.18046264479E+02 -0.28113583236E+02 -0.88976029472E+01  0.90428211469E+02  0.83558679186E+02 0.  0.
         11    1    3    3    0    0  0.29542767024E+02 -0.29812450510E+02 -0.84162603860E+01  0.42806433255E+02  0.51100000000E-03 0. -1.
         22    1    1    0    0    0  0.18046264479E+02  0.28113583236E+02  0.88976029472E+01  0.34571788531E+02  0.00000000000E+00 0. -1.
</event>
<event>
 5    1  0.1103865E-009  0.9118800E+02  0.7818608E-02  0.1130116E+00
         25   -1    0    0    0    0  0.00000000000E+00  0.00000000000E+00  0.99999998245E-14  0.12500000000E+03  0.12500000000E+03 0.  0.
        -11    1    3    3    0    0 -0.11910605853E+02 -0.43108038282E+02 -0.34760517124E+02  0.56643261270E+02  0.51100000000E-03 0. -1.
         23    2    1    0    0    0  0.35803709891E+00 -0.26828154649E+02  0.13772485480E+01  0.98134131579E+02  0.94385024738E+02 0.  0.
         11    1    3    3    0    0  0.12268642952E+02  0.16279883633E+02  0.36137765672E+02  0.41490870309E+02  0.51100000000E-03 0.  1.
         22    1    1    0    0    0 -0.35803709891E+00  0.26828154649E+02 -0.13772485480E+01  0.26865868421E+02  0.00000000000E+00 0. -1.
</event>
<event>
 5    1  0.1103865E-009  0.9118800E+02  0.7818608E-02  0.1130116E+00
         25   -1    0    0    0    0  0.00000000000E+00  0.00000000000E+00  0.99999998245E-14  0.12500000000E+03  0.12500000000E+03 0.  0.
        -11    1    3    3    0    0  0.32542397229E+02  0.81461212254E+01 -0.61150202078E+01  0.34099272438E+02  0.51100000000E-03 0.  1.
         23    2    1    0    0    0 -0.67876055749E+01 -0.13113295819E+02  0.29994172896E+02  0.91568270694E+02  0.85247097742E+02 0.  0.
         11    1    3    3    0    0 -0.39330002804E+02 -0.21259417045E+02  0.36109193104E+02  0.57468998256E+02  0.51100000000E-03 0. -1.
         22    1    1    0    0    0  0.67876055749E+01  0.13113295819E+02 -0.29994172896E+02  0.33431729306E+02  0.00000000000E+00 0. -1.
</event>
<event>
 5    1  0.1103865E-009  0.9118800E+02  0.7818608E-02  0.1130116E+00
         25   -1    0    0    0    0  0.00000000000E+00  0.00000000000E+00  0.99999998245E-14  0.12500000000E+03  0.12500000000E+03 0.  0.
        -11    1    3    3    0    0  0.24167694713E+02 -0.28483327842E+01 -0.42268279730E+02  0.48772922190E+02  0.51100000000E-03 0.  1.
         23    2    1    0    0    0 -0.13682705025E+02  0.14971887059E+02 -0.21368306319E+02  0.95538527975E+02  0.90882517537E+02 0.  0.
         11    1    3    3    0    0 -0.37850399738E+02  0.17820219843E+02  0.20899973411E+02  0.46765605785E+02  0.51100000000E-03 0. -1.
         22    1    1    0    0    0  0.13682705025E+02 -0.14971887059E+02  0.21368306319E+02  0.29461472025E+02  0.00000000000E+00 0.  1.
</event>
<event>
 5    1  0.1103865E-009  0.9118800E+02  0.7818608E-02  0.1130116E+00
         25   -1    0    0    0    0  0.00000000000E+00  0.00000000000E+00  0.99999998245E-14  0.12500000000E+03  0.12500000000E+03 0.  0.
        -11    1    3    3    0    0  0.15836347053E+02 -0.12106245695E+01  0.30531076423E+02  0.34415143871E+02  0.51100000000E-03 0. -1.
         23    2    1    0    0    0 -0.22459508653E+02  0.12964298593E+02 -0.14568892438E+02  0.95255165258E+02  0.90491940606E+02 0.  0.
         11    1    3    3    0    0 -0.38295855706E+02  0.14174923162E+02 -0.45099968862E+02  0.60840021388E+02  0.51100000000E-03 0.  1.
         22    1    1    0    0    0  0.22459508653E+02 -0.12964298593E+02  0.14568892438E+02  0.29744834742E+02  0.00000000000E+00 0.  1.
</event>
<event>
 5    1  0.1103865E-009  0.9118800E+02  0.7818608E-02  0.1130116E+00
         25   -1    0    0    0    0  0.00000000000E+00  0.00000000000E+00  0.99999998245E-14  0.12500000000E+03  0.12500000000E+03 0.  0.
        -11    1    3    3    0    0 -0.59530958588E+01  0.48286094524E+02 -0.45646001338E+01  0.48865344052E+02  0.51100000000E-03 0.  1.
         23    2    1    0    0    0 -0.10348153678E+02  0.70203862204E+01 -0.26421737618E+02  0.95768538764E+02  0.91198326142E+02 0.  0.
         11    1    3    3    0    0 -0.43950578194E+01 -0.41265708303E+02 -0.21857137484E+02  0.46903194713E+02  0.51100000000E-03 0. -1.
         22    1    1    0    0    0  0.10348153678E+02 -0.70203862204E+01  0.26421737618E+02  0.29231461236E+02  0.00000000000E+00 0. -1.
</event>
<event>
 5    1  0.1103865E-009  0.9118800E+02  0.7818608E-02  0.1130116E+00
         25   -1    0    0    0    0  0.00000000000E+00  0.00000000000E+00  0.99999998245E-14  0.12500000000E+03  0.12500000000E+03 0.  0.
        -11    1    3    3    0    0  0.36815733139E+02  0.22680645888E+02 -0.38563182532E+02  0.57939010621E+02  0.51100000000E-03 0.  1.
         23    2    1    0    0    0  0.28609126388E+02  0.65630199126E+00 -0.10563385648E+02  0.94495935331E+02  0.89437038372E+02 0.  0.
         11    1    3    3    0    0 -0.82066067507E+01 -0.22024343896E+02  0.27999796885E+02  0.36556924710E+02  0.51100000000E-03 0. -1.
         22    1    1    0    0    0 -0.28609126388E+02 -0.65630199126E+00  0.10563385648E+02  0.30504064669E+02  0.00000000000E+00 0. -1.
</event>
<event>
 5    1  0.1103865E-009  0.9118800E+02  0.7818608E-02  0.1130116E+00
         25   -1    0    0    0    0  0.00000000000E+00  0.00000000000E+00  0.99999998245E-14  0.12500000000E+03  0.12500000000E+03 0.  0.
        -11    1    3    3    0    0 -0.22001894592E+02 -0.11967600167E+02  0.53084928408E+02  0.58696818003E+02  0.51100000000E-03 0. -1.
         23    2    1    0    0    0 -0.62254955323E+01 -0.19998033749E+02  0.21004579114E+02  0.95337388985E+02  0.90605448216E+02 0.  0.
         11    1    3    3    0    0  0.15776399060E+02 -0.80304335827E+01 -0.32080349294E+02  0.36640570982E+02  0.51100000000E-03 0.  1.
         22    1    1    0    0    0  0.62254955323E+01  0.19998033749E+02 -0.21004579114E+02  0.29662611015E+02  0.00000000000E+00 0. -1.
</event>
<event>
 5    1  0.1103865E-009  0.9118800E+02  0.7818608E-02  0.1130116E+00
         25   -1    0    0    0    0  0.00000000000E+00  0.00000000000E+00  0.99999998245E-14  0.12500000000E+03  0.12500000000E+03 0.  0.
        -11    1    3    3    0    0 -0.16191872906E+02  0.29448943909E+02 -0.19907457690E+02  0.39060516093E+02  0.51100000000E-03 0.  1.
         23    2    1    0    0    0 -0.25154946545E+02 -0.20503325425E+02 -0.36914026111E+01  0.92338338339E+02  0.86368886671E+02 0.  0.
         11    1    3    3    0    0 -0.89630736396E+01 -0.49952269334E+02  0.16216055079E+02  0.53277822246E+02  0.51100000000E-03 0. -1.
         22    1    1    0    0    0  0.25154946545E+02  0.20503325425E+02  0.36914026111E+01  0.32661661661E+02  0.00000000000E+00 0. -1.
</event>
<event>
 5    1  0.1103865E-009  0.9118800E+02  0.7818608E-02  0.1130116E+00
         25   -1    0    0    0    0  0.00000000000E+00  0.00000000000E+00  0.99999998245E-14  0.12500000000E+03  0.12500000000E+03 0.  0.
        -11    1    3    3    0    0 -0.57430649800E+02 -0.10315000260E+02  0.17402310588E+02  0.60889401220E+02  0.51100000000E-03 0. -1.
         23    2    1    0    0    0 -0.29037181678E+02 -0.55535500408E+01 -0.16135791311E+01  0.95392509808E+02  0.90681461457E+02 0.  0.
         11    1    3    3    0    0  0.28393468122E+02  0.47614502196E+01 -0.19015889719E+02  0.34503108588E+02  0.51100000000E-03 0.  1.
         22    1    1    0    0    0  0.29037181678E+02  0.55535500408E+01  0.16135791311E+01  0.29607490192E+02  0.00000000000E+00 0. -1.
</event>
<event>
 5    1  0.1103865E-009  0.9118800E+02  0.7818608E-02  0.1130116E+00
         25   -1    0    0    0    0  0.00000000000E+00  0.00000000000E+00  0.99999998245E-14  0.12500000000E+03  0.12500000000E+03 0.  0.
        -11    1    3    3    0    0  0.35625649260E+02 -0.81667102457E+00 -0.50250559926E+02  0.61603349015E+02  0.51100000000E-03 0. -1.
         23    2    1    0    0    0  0.18664282551E+02  0.62904502846E+01 -0.20557499890E+02  0.96530085886E+02  0.92236226460E+02 0.  0.
         11    1    3    3    0    0 -0.16961366709E+02  0.71071213092E+01  0.29693060035E+02  0.34926736871E+02  0.51100000000E-03 0.  1.
         22    1    1    0    0    0 -0.18664282551E+02 -0.62904502846E+01  0.20557499890E+02  0.28469914114E+02  0.00000000000E+00 0. -1.
</event>
<event>
 5    1  0.1103865E-009  0.9118800E+02  0.7818608E-02  0.1130116E+00
         25   -1    0    0    0    0  0.00000000000E+00  0.00000000000E+00  0.99999998245E-14  0.12500000000E+03  0.12500000000E+03 0.  0.
        -11    1    3    3    0    0 -0.18815183980E+02 -0.18573685458E+02  0.49444708646E+02  0.56069351281E+02  0.51100000000E-03 0.  1.
         23    2    1    0    0    0  0.11010172030E+02 -0.60079107639E+01  0.26313546924E+02  0.95850014895E+02  0.91309932230E+02 0.  0.
         11    1    3    3    0    0  0.29825356010E+02  0.12565774694E+02 -0.23131161722E+02  0.39780663615E+02  0.51100000000E-03 0. -1.
         22    1    1    0    0    0 -0.11010172030E+02  0.60079107639E+01 -0.26313546924E+02  0.29149985105E+02  0.00000000000E+00 0.  1.
</event>
<event>
 5    1  0.1103865E-009  0.9118800E+02  0.7818608E-02  0.1130116E+00
         25   -1    0    0    0    0  0.00000000000E+00  0.00000000000E+00  0.99999998245E-14  0.12500000000E+03  0.12500000000E+03 0.  0.
        -11    1    3    3    0    0 -0.15563305503E+02 -0.38380792007E+02  0.22550161085E+02  0.47157305251E+02  0.51100000000E-03 0. -1.
         23    2    1    0    0    0 -0.28818213417E+02  0.46663409200E+01  0.56525774233E+01  0.95264233764E+02  0.90504466414E+02 0.  0.
         11    1    3    3    0    0 -0.13254907914E+02  0.43047132927E+02 -0.16897583662E+02  0.48106928513E+02  0.51100000000E-03 0.  1.
         22    1    1    0    0    0  0.28818213417E+02 -0.46663409200E+01 -0.56525774233E+01  0.29735766236E+02  0.00000000000E+00 0.  1.
</event>
<event>
 5    1  0.1103865E-009  0.9118800E+02  0.7818608E-02  0.1130116E+00
         25   -1    0    0    0    0  0.00000000000E+00  0.00000000000E+00  0.99999998245E-14  0.12500000000E+03  0.12500000000E+03 0.  0.
        -11    1    3    3    0    0  0.10078580662E+02 -0.27638192264E+02 -0.20293617522E+02  0.35739031495E+02  0.51100000000E-03 0.  1.
         23    2    1    0    0    0 -0.23143465733E+02  0.32647391680E+00  0.19572257415E+02  0.94688288539E+02  0.89705474386E+02 0.  0.
         11    1    3    3    0    0 -0.33222046396E+02  0.27964666181E+02  0.39865874937E+02  0.58949257044E+02  0.51100000000E-03 0. -1.
         22    1    1    0    0    0  0.23143465733E+02 -0.32647391680E+00 -0.19572257415E+02  0.30311711461E+02  0.00000000000E+00 0. -1.
</event>
<event>
 5    1  0.1103865E-009  0.9118800E+02  0.7818608E-02  0.1130116E+00
         25   -1    0    0    0    0  0.00000000000E+00  0.00000000000E+00  0.99999998245E-14  0.12500000000E+03  0.12500000000E+03 0.  0.
        -11    1    3    3    0    0 -0.33656250000E+02 -0.93965257714E+01  0.79682626583E+01  0.35840355337E+02  0.51100000000E-03 0. -1.
         23    2    1    0    0    0  0.24941529127E+02 -0.11365267704E+02 -0.77025946757E+01  0.96529328250E+02  0.92235199694E+02 0.  0.
         11    1    3    3    0    0  0.58597779127E+02 -0.19687419323E+01 -0.15670857334E+02  0.60688972913E+02  0.51100000000E-03 0.  1.
         22    1    1    0    0    0 -0.24941529127E+02  0.11365267704E+02  0.77025946757E+01  0.28470671750E+02  0.00000000000E+00 0.  1.
</event>
<event>
 5    1  0.1103865E-009  0.9118800E+02  0.7818608E-02  0.1130116E+00
         25   -1    0    0    0    0  0.00000000000E+00  0.00000000000E+00  0.99999998245E-14  0.12500000000E+03  0.12500000000E+03 0.  0.
        -11    1    3    3    0    0 -0.52052367530E+02 -0.21796857879E+01 -0.34496682413E+02  0.62483766639E+02  0.51100000000E-03 0. -1.
         23    2    1    0    0    0 -0.23091617833E+02 -0.26663067440E-01 -0.14867204302E+02  0.97536255011E+02  0.93589869927E+02 0.  0.
         11    1    3    3    0    0  0.28960749698E+02  0.21530227205E+01  0.19629478112E+02  0.35052488372E+02  0.51100000000E-03 0.  1.
         22    1    1    0    0    0  0.23091617833E+02  0.26663067440E-01  0.14867204302E+02  0.27463744989E+02  0.00000000000E+00 0. -1.
</event>
<event>
 5    1  0.1103865E-009  0.9118800E+02  0.7818608E-02  0.1130116E+00
         25   -1    0    0    0    0  0.00000000000E+00  0.00000000000E+00  0.99999998245E-14  0.12500000000E+03  0.12500000000E+03 0.  0.
        -11    1    3    3    0    0 -0.19210285017E+02  0.37406847076E+02 -0.31114925807E+02  0.52311049185E+02  0.51100000000E-03 0.  1.
         23    2    1    0    0    0 -0.82941442297E+00  0.26661439563E+01 -0.33212268809E+02  0.91670567792E+02  0.85396966855E+02 0.  0.
         11    1    3    3    0    0  0.18380870594E+02 -0.34740703120E+02 -0.20973430015E+01  0.39359518607E+02  0.51100000000E-03 0. -1.
         22    1    1    0    0    0  0.82941442297E+00 -0.26661439563E+01  0.33212268809E+02  0.33329432208E+02  0.00000000000E+00 0.  1.
</event>
<event>
 5    1  0.1103865E-009  0.9118800E+02  0.7818608E-02  0.1130116E+00
         25   -1    0    0    0    0  0.00000000000E+00  0.00000000000E+00  0.99999998245E-14  0.12500000000E+03  0.12500000000E+03 0.  0.
        -11    1    3    3    0    0 -0.45071086864E+02  0.14112501208E+02 -0.38851843691E+02  0.61155795472E+02  0.51100000000E-03 0.  1.
         23    2    1    0    0    0 -0.16925308696E+02  0.20315875581E+01 -0.24926984940E+02  0.94801523206E+02  0.89863122590E+02 0.  0.
         11    1    3    3    0    0  0.28145778167E+02 -0.12080913650E+02  0.13924858751E+02  0.33645727734E+02  0.51100000000E-03 0. -1.
         22    1    1    0    0    0  0.16925308696E+02 -0.20315875581E+01  0.24926984940E+02  0.30198476794E+02  0.00000000000E+00 0.  1.
</event>
<event>
 5    1  0.1103865E-009  0.9118800E+02  0.7818608E-02  0.1130116E+00
         25   -1    0    0    0    0  0.00000000000E+00  0.00000000000E+00  0.99999998245E-14  0.12500000000E+03  0.12500000000E+03 0.  0.
        -11    1    3    3    0    0 -0.15341438834E+02  0.58915818175E+02 -0.72559873073E+01  0.61311358889E+02  0.51100000000E-03 0. -1.
         23    2    1    0    0    0 -0.67721425248E+01  0.26207363556E+02 -0.11882010901E+02  0.95438707708E+02  0.90745120678E+02 0.  0.
         11    1    3    3    0    0  0.85692963090E+01 -0.32708454619E+02 -0.46260235940E+01  0.34127348818E+02  0.51100000000E-03 0.  1.
         22    1    1    0    0    0  0.67721425248E+01 -0.26207363556E+02  0.11882010901E+02  0.29561292292E+02  0.00000000000E+00 0. -1.
</event>
<event>
 5    1  0.1103865E-009  0.9118800E+02  0.7818608E-02  0.1130116E+00
         25   -1    0    0    0    0  0.00000000000E+00  0.00000000000E+00  0.99999998245E-14  0.12500000000E+03  0.12500000000E+03 0.  0.
        -11    1    3    3    0    0 -0.13401205359E+02 -0.34685245577E+02  0.38100077616E+02  0.53237904546E+02  0.51100000000E-03 0.  1.
         23    2    1    0    0    0 -0.22397686841E+01  0.96373244256E+01  0.20539588599E+02  0.10220155081E+03  0.99626240025E+02 0.  0.
         11    1    3    3    0    0  0.11161436675E+02  0.44322570003E+02 -0.17560489017E+02  0.48963646260E+02  0.51100000000E-03 0. -1.
         22    1    1    0    0    0  0.22397686841E+01 -0.96373244256E+01 -0.20539588599E+02  0.22798449194E+02  0.00000000000E+00 0. -1.
</event>
<event>
 5    1  0.1103865E-009  0.9118800E+02  0.7818608E-02  0.1130116E+00
         25   -1    0    0    0    0  0.00000000000E+00  0.00000000000E+00  0.99999998245E-14  0.12500000000E+03  0.12500000000E+03 0.  0.
        -11    1    3    3    0    0 -0.18010983237E+02  0.14226632497E+02 -0.26642317415E+02  0.35165404404E+02  0.51100000000E-03 0.  1.
         23    2    1    0    0    0  0.14205504614E+02  0.60551814728E+01  0.24429061080E+02  0.96099470433E+02  0.91650791640E+02 0.  0.
         11    1    3    3    0    0  0.32216487851E+02 -0.81714510237E+01  0.51071378495E+02  0.60934066030E+02  0.51100000000E-03 0. -1.
         22    1    1    0    0    0 -0.14205504614E+02 -0.60551814728E+01 -0.24429061080E+02  0.28900529567E+02  0.00000000000E+00 0. -1.
</event>
<event>
 5    1  0.1103865E-009  0.9118800E+02  0.7818608E-02  0.1130116E+00
         25   -1    0    0    0    0  0.00000000000E+00  0.00000000000E+00  0.99999998245E-14  0.12500000000E+03  0.12500000000E+03 0.  0.
        -11    1    3    3    0    0 -0.44918298821E+02 -0.17023352281E+02  0.36136271695E+02  0.60110550023E+02  0.51100000000E-03 0.  1.
         23    2    1    0    0    0 -0.27193830893E+02 -0.41606355843E+01  0.69034385484E+01  0.96636770444E+02  0.92380693929E+02 0.  0.
         11    1    3    3    0    0  0.17724467928E+02  0.12862716696E+02 -0.29232833147E+02  0.36526220420E+02  0.51100000000E-03 0. -1.
         22    1    1    0    0    0  0.27193830893E+02  0.41606355843E+01 -0.69034385484E+01  0.28363229556E+02  0.00000000000E+00 0.  1.
</event>
<event>
 5    1  0.1103865E-009  0.9118800E+02  0.7818608E-02  0.1130116E+00
         25   -1    0    0    0    0  0.00000000000E+00  0.00000000000E+00  0.99999998245E-14  0.12500000000E+03  0.12500000000E+03 0.  0.
        -11    1    3    3    0    0  0.51996255825E+02 -0.55768376097E+01  0.67169669883E+01  0.52724087316E+02  0.51100000000E-03 0.  1.
         23    2    1    0    0    0  0.21463017682E+02 -0.44842265723E+01 -0.21484034725E+02  0.94302554438E+02  0.89166353574E+02 0.  0.
         11    1    3    3    0    0 -0.30533238143E+02  0.10926110374E+01 -0.28201001713E+02  0.41578467123E+02  0.51100000000E-03 0. -1.
         22    1    1    0    0    0 -0.21463017682E+02  0.44842265723E+01  0.21484034725E+02  0.30697445562E+02  0.00000000000E+00 0.  1.
</event>
<event>
 5    1  0.1103865E-009  0.9118800E+02  0.7818608E-02  0.1130116E+00
         25   -1    0    0    0    0  0.00000000000E+00  0.00000000000E+00  0.99999998245E-14  0.12500000000E+03  0.12500000000E+03 0.  0.
        -11    1    3    3    0    0  0.16637776954E+02  0.36691861069E+02 -0.77663876544E+01  0.41029563344E+02  0.51100000000E-03 0.  1.
         23    2    1    0    0    0 -0.68817517353E+01  0.82515017906E+01  0.29576647101E+02  0.93532177666E+02  0.88079761673E+02 0.  0.
         11    1    3    3    0    0 -0.23519528689E+02 -0.28440359279E+02  0.37343034755E+02  0.52502614322E+02  0.51100000000E-03 0. -1.
         22    1    1    0    0    0  0.68817517353E+01 -0.82515017906E+01 -0.29576647101E+02  0.31467822334E+02  0.00000000000E+00 0. -1.
</event>
<event>
 5    1  0.1103865E-009  0.9118800E+02  0.7818608E-02  0.1130116E+00
         25   -1    0    0    0    0  0.00000000000E+00  0.00000000000E+00  0.99999998245E-14  0.12500000000E+03  0.12500000000E+03 0.  0.
        -11    1    3    3    0    0 -0.30754363966E+02 -0.40052511272E+02  0.20483532973E+02  0.54494125238E+02  0.51100000000E-03 0. -1.
         23    2    1    0    0    0 -0.13057993372E+02 -0.23269739310E+02 -0.12515268876E+02  0.95527573675E+02  0.90867449721E+02 0.  0.
         11    1    3    3    0    0  0.17696370594E+02  0.16782771962E+02 -0.32998801849E+02  0.41033448437E+02  0.51100000000E-03 0.  1.
         22    1    1    0    0    0  0.13057993372E+02  0.23269739310E+02  0.12515268876E+02  0.29472426325E+02  0.00000000000E+00 0. -1.
</event>
<event>
 5    1  0.1103865E-009  0.9118800E+02  0.7818608E-02  0.1130116E+00
         25   -1    0    0    0    0  0.00000000000E+00  0.00000000000E+00  0.99999998245E-14  0.12500000000E+03  0.12500000000E+03 0.  0.
        -11    1    3    3    0    0  0.59122973046E+02 -0.95235713996E+01  0.17624751614E+02  0.62424804555E+02  0.51100000000E-03 0.  1.
         23    2    1    0    0    0  0.28529623507E+02 -0.43869980002E+01  0.62489947192E+01  0.95466373336E+02  0.90783221655E+02 0.  0.
         11    1    3    3    0    0 -0.30593349539E+02  0.51365733994E+01 -0.11375756895E+02  0.33041568781E+02  0.51100000000E-03 0. -1.
         22    1    1    0    0    0 -0.28529623507E+02  0.43869980002E+01 -0.62489947192E+01  0.29533626664E+02  0.00000000000E+00 0.  1.
</event>
<event>
 5    1  0.1103865E-009  0.9118800E+02  0.7818608E-02  0.1130116E+00
         25   -1    0    0    0    0  0.00000000000E+00  0.00000000000E+00  0.99999998245E-14  0.12500000000E+03  0.12500000000E+03 0.  0.
        -11    1    3    3    0    0 -0.46509295256E+02 -0.51585215780E+01 -0.16411509830E+02  0.49588935714E+02  0.51100000000E-03 0.  1.
         23    2    1    0    0    0 -0.19826029842E+01 -0.14373447813E+02 -0.25219569307E+02  0.95904409395E+02  0.91384365997E+02 0.  0.
         11    1    3    3    0    0  0.44526692272E+02 -0.92149262348E+01 -0.88080594775E+01  0.46315473680E+02  0.51100000000E-03 0. -1.
         22    1    1    0    0    0  0.19826029842E+01  0.14373447813E+02  0.25219569307E+02  0.29095590605E+02  0.00000000000E+00 0.  1.
</event>
<event>
 5    1  0.1103865E-009  0.9118800E+02  0.7818608E-02  0.1130116E+00
         25   -1    0    0    0    0  0.00000000000E+00  0.00000000000E+00  0.99999998245E-14  0.12500000000E+03  0.12500000000E+03 0.  0.
        -11    1    3    3    0    0  0.24810104389E+01 -0.54665657639E+02  0.12762064703E+02  0.56190389157E+02  0.51100000000E-03 0.  1.
         23    2    1    0    0    0  0.20155296046E+02 -0.20451142832E+02  0.18015932467E+01  0.96229686479E+02  0.91828217993E+02 0.  0.
         11    1    3    3    0    0  0.17674285608E+02  0.34214514807E+02 -0.10960471456E+02  0.40039297322E+02  0.51100000000E-03 0. -1.
         22    1    1    0    0    0 -0.20155296046E+02  0.20451142832E+02 -0.18015932467E+01  0.28770313521E+02  0.00000000000E+00 0.  1.
</event>
<event>
 5    1  0.1103865E-009  0.9118800E+02  0.7818608E-02  0.1130116E+00
         25   -1    0    0    0    0  0.00000000000E+00  0.00000000000E+00  0.99999998245E-14  0.12500000000E+03  0.12500000000E+03 0.  0.
        -11    1    3    3    0    0  0.21605090403E+02  0.10259883247E+01 -0.48567980478E+02  0.53166543157E+02  0.51100000000E-03 0. -1.
         23    2    1    0    0    0  0.21778767723E+02 -0.16125468959E+02 -0.87470531847E+01  0.96524459407E+02  0.92228601050E+02 0.  0.
         11    1    3    3    0    0  0.17367732007E+00 -0.17151457284E+02  0.39820927293E+02  0.43357916249E+02  0.51100000000E-03 0.  1.
         22    1    1    0    0    0 -0.21778767723E+02  0.16125468959E+02  0.87470531847E+01  0.28475540593E+02  0.00000000000E+00 0. -1.
</event>
<event>
 5    1  0.1103865E-009  0.9118800E+02  0.7818608E-02  0.1130116E+00
         25   -1    0    0    0    0  0.00000000000E+00  0.00000000000E+00  0.99999998245E-14  0.12500000000E+03  0.12500000000E+03 0.  0.
        -11    1    3    3    0    0 -0.10395819401E+02  0.33199733382E+02  0.36232797763E+02  0.50230578253E+02  0.51100000000E-03 0.  1.
         23    2    1    0    0    0 -0.12900696850E+02  0.26513417029E+02 -0.75269600505E+01  0.94569022537E+02  0.89539129068E+02 0.  0.
         11    1    3    3    0    0 -0.25048774485E+01 -0.66863163528E+01 -0.43759757813E+02  0.44338444284E+02  0.51100000000E-03 0. -1.
         22    1    1    0    0    0  0.12900696850E+02 -0.26513417029E+02  0.75269600505E+01  0.30430977463E+02  0.00000000000E+00 0.  1.
</event>
<event>
 5    1  0.1103865E-009  0.9118800E+02  0.7818608E-02  0.1130116E+00
         25   -1    0    0    0    0  0.00000000000E+00  0.00000000000E+00  0.99999998245E-14  0.12500000000E+03  0.12500000000E+03 0.  0.
        -11    1    3    3    0    0  0.25673192540E+02  0.31925156050E+01 -0.22388195450E+02  0.34213100807E+02  0.51100000000E-03 0.  1.
         23    2    1    0    0    0 -0.26220662472E+02 -0.30121976469E+01  0.11188979851E+02  0.96333124599E+02  0.91968914041E+02 0.  0.
         11    1    3    3    0    0 -0.51893855012E+02 -0.62047132518E+01  0.33577175301E+02  0.62120023792E+02  0.51100000000E-03 0. -1.
         22    1    1    0    0    0  0.26220662472E+02  0.30121976469E+01 -0.11188979851E+02  0.28666875401E+02  0.00000000000E+00 0. -1.
</event>
<event>
 5    1  0.1103865E-009  0.9118800E+02  0.7818608E-02  0.1130116E+00
         25   -1    0    0    0    0  0.00000000000E+00  0.00000000000E+00  0.99999998245E-14  0.12500000000E+03  0.12500000000E+03 0.  0.
        -11    1    3    3    0    0 -0.17547902661E+02  0.12234432065E+02  0.52938218034E+02  0.57096980170E+02  0.51100000000E-03 0.  1.
         23    2    1    0    0    0  0.10155570692E+02  0.90744063978E+01  0.24776338276E+02  0.96727267449E+02  0.92503064069E+02 0.  0.
         11    1    3    3    0    0  0.27703473352E+02 -0.31600256672E+01 -0.28161879758E+02  0.39630287279E+02  0.51100000000E-03 0. -1.
         22    1    1    0    0    0 -0.10155570692E+02 -0.90744063978E+01 -0.24776338276E+02  0.28272732551E+02  0.00000000000E+00 0.  1.
</event>
<event>
 5    1  0.1103865E-009  0.9118800E+02  0.7818608E-02  0.1130116E+00
         25   -1    0    0    0    0  0.00000000000E+00  0.00000000000E+00  0.99999998245E-14  0.12500000000E+03  0.12500000000E+03 0.  0.
        -11    1    3    3    0    0 -0.39892552359E+02 -0.37358351403E+02 -0.29900350802E+02  0.62298419977E+02  0.51100000000E-03 0. -1.
         23    2    1    0    0    0 -0.15935002737E+02 -0.10678724727E+02 -0.88924600880E+01  0.10385679020E+03  0.10168184475E+03 0.  0.
         11    1    3    3    0    0  0.23957549622E+02  0.26679626677E+02  0.21007890714E+02  0.41558370228E+02  0.51100000000E-03 0.  1.
         22    1    1    0    0    0  0.15935002737E+02  0.10678724727E+02  0.88924600880E+01  0.21143209795E+02  0.00000000000E+00 0. -1.
</event>
<event>
 5    1  0.1103865E-009  0.9118800E+02  0.7818608E-02  0.1130116E+00
         25   -1    0    0    0    0  0.00000000000E+00  0.00000000000E+00  0.99999998245E-14  0.12500000000E+03  0.12500000000E+03 0.  0.
        -11    1    3    3    0    0 -0.57440484868E+01  0.23062425279E+02  0.48783042997E+02  0.54264673933E+02  0.51100000000E-03 0. -1.
         23    2    1    0    0    0 -0.10526387119E+02  0.31037253749E+02  0.15643282008E+02  0.88684325450E+02  0.80907857235E+02 0.  0.
         11    1    3    3    0    0 -0.47823386326E+01  0.79748284699E+01 -0.33139760988E+02  0.34419651517E+02  0.51100000000E-03 0.  1.
         22    1    1    0    0    0  0.10526387119E+02 -0.31037253749E+02 -0.15643282008E+02  0.36315674550E+02  0.00000000000E+00 0. -1.
</event>
<event>
 5    1  0.1103865E-009  0.9118800E+02  0.7818608E-02  0.1130116E+00
         25   -1    0    0    0    0  0.00000000000E+00  0.00000000000E+00  0.99999998245E-14  0.12500000000E+03  0.12500000000E+03 0.  0.
        -11    1    3    3    0    0 -0.43105145226E+02  0.22468986126E+02 -0.22338585136E+02  0.53496927655E+02  0.51100000000E-03 0.  1.
         23    2    1    0    0    0 -0.92860715229E+01  0.30842930266E+02 -0.50326728118E+01  0.92398692245E+02  0.86456191573E+02 0.  0.
         11    1    3    3    0    0  0.33819073703E+02  0.83739441398E+01  0.17305912324E+02  0.38901764590E+02  0.51100000000E-03 0. -1.
         22    1    1    0    0    0  0.92860715229E+01 -0.30842930266E+02  0.50326728118E+01  0.32601307755E+02  0.00000000000E+00 0.  1.
</event>
<event>
 5    1  0.1103865E-009  0.9118800E+02  0.7818608E-02  0.1130116E+00
         25   -1    0    0    0    0  0.00000000000E+00  0.00000000000E+00  0.99999998245E-14  0.12500000000E+03  0.12500000000E+03 0.  0.
        -11    1    3    3    0    0  0.14692106348E+02  0.12919834057E+02  0.36821733615E+02  0.41696764475E+02  0.51100000000E-03 0.  1.
         23    2    1    0    0    0 -0.25555173692E+02 -0.10240319088E+02  0.80766669206E+01  0.96309172442E+02  0.91936353585E+02 0.  0.
         11    1    3    3    0    0 -0.40247280040E+02 -0.23160153145E+02 -0.28745066695E+02  0.54612407966E+02  0.51100000000E-03 0. -1.
         22    1    1    0    0    0  0.25555173692E+02  0.10240319088E+02 -0.80766669206E+01  0.28690827558E+02  0.00000000000E+00 0. -1.
</event>
<event>
 5    1  0.1103865E-009  0.9118800E+02  0.7818608E-02  0.1130116E+00
         25   -1    0    0    0    0  0.00000000000E+00  0.00000000000E+00  0.99999998245E-14  0.12500000000E+03  0.12500000000E+03 0.  0.
        -11    1    3    3    0    0  0.27400792872E+02  0.26336876372E+02 -0.14278468121E+02  0.40599373877E+02  0.51100000000E-03 0. -1.
         23    2    1    0    0    0  0.17844951455E+02 -0.19464416577E+02  0.13840200355E+02  0.95186295919E+02  0.90396758680E+02 0.  0.
         11    1    3    3    0    0 -0.95558414169E+01 -0.45801292949E+02  0.28118668476E+02  0.54586922043E+02  0.51100000000E-03 0.  1.
         22    1    1    0    0    0 -0.17844951455E+02  0.19464416577E+02 -0.13840200355E+02  0.29813704081E+02  0.00000000000E+00 0.  1.
</event>
<event>
 5    1  0.1103865E-009  0.9118800E+02  0.7818608E-02  0.1130116E+00
         25   -1    0    0    0    0  0.00000000000E+00  0.00000000000E+00  0.99999998245E-14  0.12500000000E+03  0.12500000000E+03 0.  0.
        -11    1    3    3    0    0  0.30675885171E+02 -0.23180099569E+02  0.21230996065E+02  0.43921317617E+02  0.51100000000E-03 0. -1.
         23    2    1    0    0    0 -0.13003057408E+02  0.57023299531E+01  0.24816895131E+02  0.96408491596E+02  0.92071292481E+02 0.  0.
         11    1    3    3    0    0 -0.43678942579E+02  0.28882429522E+02  0.35858990666E+01  0.52487173979E+02  0.51100000000E-03 0.  1.
         22    1    1    0    0    0  0.13003057408E+02 -0.57023299531E+01 -0.24816895131E+02  0.28591508404E+02  0.00000000000E+00 0.  1.
</event>
<event>
 5    1  0.1103865E-009  0.9118800E+02  0.7818608E-02  0.1130116E+00
         25   -1    0    0    0    0  0.00000000000E+00  0.00000000000E+00  0.99999998245E-14  0.12500000000E+03  0.12500000000E+03 0.  0.
        -11    1    3    3    0    0 -0.34415724858E+01 -0.10564594683E+01  0.35262978038E+02  0.35446271287E+02  0.51100000000E-03 0. -1.
         23    2    1    0    0    0  0.10325719487E+02  0.78233986594E+01 -0.24430621750E+02  0.97347128023E+02  0.93336927342E+02 0.  0.
         11    1    3    3    0    0  0.13767291973E+02  0.88798581277E+01 -0.59693599788E+02  0.61900856735E+02  0.51100000000E-03 0.  1.
         22    1    1    0    0    0 -0.10325719487E+02 -0.78233986594E+01  0.24430621750E+02  0.27652871977E+02  0.00000000000E+00 0.  1.
</event>
<event>
 5    1  0.1103865E-009  0.9118800E+02  0.7818608E-02  0.1130116E+00
         25   -1    0    0    0    0  0.00000000000E+00  0.00000000000E+00  0.99999998245E-14  0.12500000000E+03  0.12500000000E+03 0.  0.
        -11    1    3    3    0    0 -0.12915410811E+02 -0.74687022678E+01  0.31727388954E+02  0.35060184827E+02  0.51100000000E-03 0. -1.
         23    2    1    0    0    0 -0.73364663011E+01  0.16669265615E+02 -0.23311406093E+02  0.95417745049E+02  0.90716240345E+02 0.  0.
         11    1    3    3    0    0  0.55789445102E+01  0.24137967883E+02 -0.55038795048E+02  0.60357560222E+02  0.51100000000E-03 0.  1.
         22    1    1    0    0    0  0.73364663011E+01 -0.16669265615E+02  0.23311406093E+02  0.29582254951E+02  0.00000000000E+00 0.  1.
</event>
<event>
 5    1  0.1103865E-009  0.9118800E+02  0.7818608E-02  0.1130116E+00
         25   -1    0    0    0    0  0.00000000000E+00  0.00000000000E+00  0.99999998245E-14  0.12500000000E+03  0.12500000000E+03 0.  0.
        -11    1    3    3    0    0  0.24025725132E+02 -0.14910543370E+02 -0.33411202824E+02  0.43770632233E+02  0.51100000000E-03 0. -1.
         23    2    1    0    0    0 -0.18808135095E+01  0.25753268601E+02 -0.11997290941E+02  0.96527148141E+02  0.92232245095E+02 0.  0.
         11    1    3    3    0    0 -0.25906538641E+02  0.40663811970E+02  0.21413911883E+02  0.52756515908E+02  0.51100000000E-03 0.  1.
         22    1    1    0    0    0  0.18808135095E+01 -0.25753268601E+02  0.11997290941E+02  0.28472851859E+02  0.00000000000E+00 0. -1.
</event>
<event>
 5    1  0.1103865E-009  0.9118800E+02  0.7818608E-02  0.1130116E+00
         25   -1    0    0    0    0  0.00000000000E+00  0.00000000000E+00  0.99999998245E-14  0.12500000000E+03  0.12500000000E+03 0.  0.
        -11    1    3    3    0    0 -0.19668903931E+02 -0.30258503673E+02  0.14165186875E+02  0.38769773611E+02  0.51100000000E-03 0.  1.
         23    2    1    0    0    0 -0.16362550565E+02  0.14240600666E+02 -0.20407359906E+02  0.95217654447E+02  0.90440110635E+02 0.  0.
         11    1    3    3    0    0  0.33063533666E+01  0.44499104340E+02 -0.34572546781E+02  0.56447880835E+02  0.51100000000E-03 0. -1.
         22    1    1    0    0    0  0.16362550565E+02 -0.14240600666E+02  0.20407359906E+02  0.29782345553E+02  0.00000000000E+00 0. -1.
</event>
<event>
 5    1  0.1103865E-009  0.9118800E+02  0.7818608E-02  0.1130116E+00
         25   -1    0    0    0    0  0.00000000000E+00  0.00000000000E+00  0.99999998245E-14  0.12500000000E+03  0.12500000000E+03 0.  0.
        -11    1    3    3    0    0 -0.50581219847E+02 -0.11290160362E+02 -0.69054045963E+00  0.51830535099E+02  0.51100000000E-03 0. -1.
         23    2    1    0    0    0 -0.16273468981E+02  0.20249763908E+01  0.23844659209E+02  0.96060509769E+02  0.91597638846E+02 0.  0.
         11    1    3    3    0    0  0.34307750867E+02  0.13315136753E+02  0.24535199668E+02  0.44229974670E+02  0.51100000000E-03 0.  1.
         22    1    1    0    0    0  0.16273468981E+02 -0.20249763908E+01 -0.23844659209E+02  0.28939490231E+02  0.00000000000E+00 0. -1.
</event>
<event>
 5    1  0.1103865E-009  0.9118800E+02  0.7818608E-02  0.1130116E+00
         25   -1    0    0    0    0  0.00000000000E+00  0.00000000000E+00  0.99999998245E-14  0.12500000000E+03  0.12500000000E+03 0.  0.
        -11    1    3    3    0    0  0.80226215297E+01  0.15367589573E+02 -0.24390658204E+02  0.29923727598E+02  0.51100000000E-03 0.  1.
         23    2    1    0    0    0 -0.22294228377E+02  0.68639144332E+01  0.26455091138E+02  0.89729363666E+02  0.82506611351E+02 0.  0.
         11    1    3    3    0    0 -0.30316849906E+02 -0.85036751394E+01  0.50845749342E+02  0.59805636068E+02  0.51100000000E-03 0. -1.
         22    1    1    0    0    0  0.22294228377E+02 -0.68639144332E+01 -0.26455091138E+02  0.35270636334E+02  0.00000000000E+00 0. -1.
</event>
<event>
 5    1  0.1103865E-009  0.9118800E+02  0.7818608E-02  0.1130116E+00
         25   -1    0    0    0    0  0.00000000000E+00  0.00000000000E+00  0.99999998245E-14  0.12500000000E+03  0.12500000000E+03 0.  0.
        -11    1    3    3    0    0  0.57355614333E+02  0.28833346793E+01 -0.23335883980E+02  0.61988253692E+02  0.51100000000E-03 0.  1.
         23    2    1    0    0    0  0.27963463132E+02 -0.29721818667E+01 -0.74455681285E+01  0.95910042624E+02  0.91392071079E+02 0.  0.
         11    1    3    3    0    0 -0.29392151201E+02 -0.58555165460E+01  0.15890315851E+02  0.33921788932E+02  0.51100000000E-03 0. -1.
         22    1    1    0    0    0 -0.27963463132E+02  0.29721818667E+01  0.74455681285E+01  0.29089957376E+02  0.00000000000E+00 0.  1.
</event>
<event>
 5    1  0.1103865E-009  0.9118800E+02  0.7818608E-02  0.1130116E+00
         25   -1    0    0    0    0  0.00000000000E+00  0.00000000000E+00  0.99999998245E-14  0.12500000000E+03  0.12500000000E+03 0.  0.
        -11    1    3    3    0    0 -0.10226471129E+02 -0.87474362639E+01 -0.59091332140E+02  0.60604322348E+02  0.51100000000E-03 0.  1.
         23    2    1    0    0    0  0.12184807886E+01 -0.12971637967E+02 -0.25073982266E+02  0.96743095115E+02  0.92524449627E+02 0.  0.
         11    1    3    3    0    0  0.11444951918E+02 -0.42242017031E+01  0.34017349874E+02  0.36138772767E+02  0.51100000000E-03 0. -1.
         22    1    1    0    0    0 -0.12184807886E+01  0.12971637967E+02  0.25073982266E+02  0.28256904885E+02  0.00000000000E+00 0.  1.
</event>
<event>
 5    1  0.1103865E-009  0.9118800E+02  0.7818608E-02  0.1130116E+00
         25   -1    0    0    0    0  0.00000000000E+00  0.00000000000E+00  0.99999998245E-14  0.12500000000E+03  0.12500000000E+03 0.  0.
        -11    1    3    3    0    0 -0.14338728128E+02  0.12075978317E+02  0.45470932755E+02  0.49183677196E+02  0.51100000000E-03 0.  1.
         23    2    1    0    0    0 -0.18907492732E+02 -0.15818648958E+02  0.30490813064E+01  0.10016011608E+03  0.97031072448E+02 0.  0.
         11    1    3    3    0    0 -0.45687646033E+01 -0.27894627276E+02 -0.42421851449E+02  0.50976438885E+02  0.51100000000E-03 0. -1.
         22    1    1    0    0    0  0.18907492732E+02  0.15818648958E+02 -0.30490813064E+01  0.24839883918E+02  0.00000000000E+00 0. -1.
</event>
<event>
 5    1  0.1103865E-009  0.9118800E+02  0.7818608E-02  0.1130116E+00
         25   -1    0    0    0    0  0.00000000000E+00  0.00000000000E+00  0.99999998245E-14  0.12500000000E+03  0.12500000000E+03 0.  0.
        -11    1    3    3    0    0 -0.54253240037E+01 -0.36149611088E+02  0.97945452303E+01  0.37843911517E+02  0.51100000000E-03 0.  1.
         23    2    1    0    0    0  0.25732516515E+02  0.11075718701E+02 -0.54952172719E+01  0.96451245845E+02  0.92129319227E+02 0.  0.
         11    1    3    3    0    0  0.31157840519E+02  0.47225329788E+02 -0.15289762502E+02  0.58607334328E+02  0.51100000000E-03 0. -1.
         22    1    1    0    0    0 -0.25732516515E+02 -0.11075718701E+02  0.54952172719E+01  0.28548754155E+02  0.00000000000E+00 0. -1.
</event>
<event>
 5    1  0.1103865E-009  0.9118800E+02  0.7818608E-02  0.1130116E+00
         25   -1    0    0    0    0  0.00000000000E+00  0.00000000000E+00  0.99999998245E-14  0.12500000000E+03  0.12500000000E+03 0.  0.
        -11    1    3    3    0    0 -0.69512731774E+01 -0.32251368082E+02 -0.13581319370E+02  0.35678048966E+02  0.51100000000E-03 0.  1.
         23    2    1    0    0    0  0.98250297590E+01  0.24717655477E+02 -0.13731232893E+02  0.95066065096E+02  0.90230351180E+02 0.  0.
         11    1    3    3    0    0  0.16776302936E+02  0.56969023559E+02 -0.14991352289E+00  0.59388016130E+02  0.51100000000E-03 0. -1.
         22    1    1    0    0    0 -0.98250297590E+01 -0.24717655477E+02  0.13731232893E+02  0.29933934904E+02  0.00000000000E+00 0. -1.
</event>
<event>
 5    1  0.1103865E-009  0.9118800E+02  0.7818608E-02  0.1130116E+00
         25   -1    0    0    0    0  0.00000000000E+00  0.00000000000E+00  0.99999998245E-14  0.12500000000E+03  0.12500000000E+03 0.  0.
        -11    1    3    3    0    0  0.19277444453E+02 -0.33554061667E+02 -0.64248965092E+01  0.39227212677E+02  0.51100000000E-03 0. -1.
         23    2    1    0    0    0  0.17063265799E+02  0.23024616952E+02 -0.52723241853E+01  0.95860929530E+02  0.91324872748E+02 0.  0.
         11    1    3    3    0    0 -0.22141786538E+01  0.56578678619E+02  0.11525723239E+01  0.56633716853E+02  0.51100000000E-03 0.  1.
         22    1    1    0    0    0 -0.17063265799E+02 -0.23024616952E+02  0.52723241853E+01  0.29139070470E+02  0.00000000000E+00 0.  1.
</event>
<event>
 5    1  0.1103865E-009  0.9118800E+02  0.7818608E-02  0.1130116E+00
         25   -1    0    0    0    0  0.00000000000E+00  0.00000000000E+00  0.99999998245E-14  0.12500000000E+03  0.12500000000E+03 0.  0.
        -11    1    3    3    0    0 -0.47710579891E+01 -0.26109143433E+02  0.54124133040E+02  0.60281607002E+02  0.51100000000E-03 0.  1.
         23    2    1    0    0    0 -0.10793621468E+02 -0.45191843302E+01  0.27687866860E+02  0.94941003632E+02  0.90056931482E+02 0.  0.
         11    1    3    3    0    0 -0.60225634792E+01  0.21589959103E+02 -0.26436266181E+02  0.34659396630E+02  0.51100000000E-03 0. -1.
         22    1    1    0    0    0  0.10793621468E+02  0.45191843302E+01 -0.27687866860E+02  0.30058996368E+02  0.00000000000E+00 0.  1.
</event>
<event>
 5    1  0.1103865E-009  0.9118800E+02  0.7818608E-02  0.1130116E+00
         25   -1    0    0    0    0  0.00000000000E+00  0.00000000000E+00  0.99999998245E-14  0.12500000000E+03  0.12500000000E+03 0.  0.
        -11    1    3    3    0    0 -0.31026943971E+02 -0.38290076669E+00 -0.20066701292E+02  0.36952542080E+02  0.51100000000E-03 0. -1.
         23    2    1    0    0    0  0.10381399956E+02  0.20187998500E+02  0.17346764799E+02  0.96430103299E+02  0.92100628797E+02 0.  0.
         11    1    3    3    0    0  0.41408343927E+02  0.20570899267E+02  0.37413466091E+02  0.59477561219E+02  0.51100000000E-03 0.  1.
         22    1    1    0    0    0 -0.10381399956E+02 -0.20187998500E+02 -0.17346764799E+02  0.28569896701E+02  0.00000000000E+00 0.  1.
</event>
<event>
 5    1  0.1103865E-009  0.9118800E+02  0.7818608E-02  0.1130116E+00
         25   -1    0    0    0    0  0.00000000000E+00  0.00000000000E+00  0.99999998245E-14  0.12500000000E+03  0.12500000000E+03 0.  0.
        -11    1    3    3    0    0  0.24968421589E+02 -0.20478568349E+02 -0.38849538632E+02  0.50518120416E+02  0.51100000000E-03 0.  1.
         23    2    1    0    0    0 -0.15524895097E+02 -0.72426095590E+01 -0.23749352449E+02  0.95716736815E+02  0.91127296700E+02 0.  0.
         11    1    3    3    0    0 -0.40493316686E+02  0.13235958790E+02  0.15100186183E+02  0.45198616399E+02  0.51100000000E-03 0. -1.
         22    1    1    0    0    0  0.15524895097E+02  0.72426095590E+01  0.23749352449E+02  0.29283263185E+02  0.00000000000E+00 0.  1.
</event>
<event>
 5    1  0.1103865E-009  0.9118800E+02  0.7818608E-02  0.1130116E+00
         25   -1    0    0    0    0  0.00000000000E+00  0.00000000000E+00  0.99999998245E-14  0.12500000000E+03  0.12500000000E+03 0.  0.
        -11    1    3    3    0    0  0.28088325017E+02  0.21447020119E+02 -0.30219337161E+02  0.46498785070E+02  0.51100000000E-03 0. -1.
         23    2    1    0    0    0 -0.15746824576E+02  0.23633250553E+02 -0.93147654270E+01  0.95112580057E+02  0.90294767369E+02 0.  0.
         11    1    3    3    0    0 -0.43835149593E+02  0.21862304336E+01  0.20904571734E+02  0.48613794987E+02  0.51100000000E-03 0.  1.
         22    1    1    0    0    0  0.15746824576E+02 -0.23633250553E+02  0.93147654270E+01  0.29887419943E+02  0.00000000000E+00 0. -1.
</event>
<event>
 5    1  0.1103865E-009  0.9118800E+02  0.7818608E-02  0.1130116E+00
         25   -1    0    0    0    0  0.00000000000E+00  0.00000000000E+00  0.99999998245E-14  0.12500000000E+03  0.12500000000E+03 0.  0.
        -11    1    3    3    0    0 -0.45234670041E+02  0.88679427672E+01  0.21595082497E+02  0.50903471109E+02  0.51100000000E-03 0.  1.
         23    2    1    0    0    0 -0.18579844190E+02 -0.21009742952E+02 -0.11076402871E+01  0.96931391626E+02  0.92778488383E+02 0.  0.
         11    1    3    3    0    0  0.26654825851E+02 -0.29877685719E+02 -0.22702722784E+02  0.46027920517E+02  0.51100000000E-03 0. -1.
         22    1    1    0    0    0  0.18579844190E+02  0.21009742952E+02  0.11076402871E+01  0.28068608374E+02  0.00000000000E+00 0.  1.
</event>
<event>
 5    1  0.1103865E-009  0.9118800E+02  0.7818608E-02  0.1130116E+00
         25   -1    0    0    0    0  0.00000000000E+00  0.00000000000E+00  0.99999998245E-14  0.12500000000E+03  0.12500000000E+03 0.  0.
        -11    1    3    3    0    0  0.31351619651E+02  0.37044337555E+02  0.49064836359E+01  0.48777869793E+02  0.51100000000E-03 0. -1.
         23    2    1    0    0    0 -0.10990350413E+02  0.20952661179E+02  0.17241786961E+02  0.95724053725E+02  0.91137332808E+02 0.  0.
         11    1    3    3    0    0 -0.42341970064E+02 -0.16091676376E+02  0.12335303325E+02  0.46946183933E+02  0.51100000000E-03 0.  1.
         22    1    1    0    0    0  0.10990350413E+02 -0.20952661179E+02 -0.17241786961E+02  0.29275946275E+02  0.00000000000E+00 0. -1.
</event>
<event>
 5    1  0.1103865E-009  0.9118800E+02  0.7818608E-02  0.1130116E+00
         25   -1    0    0    0    0  0.00000000000E+00  0.00000000000E+00  0.99999998245E-14  0.12500000000E+03  0.12500000000E+03 0.  0.
        -11    1    3    3    0    0  0.25805537812E+02  0.43668397488E+02 -0.27363898095E+02  0.57633650241E+02  0.51100000000E-03 0. -1.
         23    2    1    0    0    0  0.26271889884E+02  0.12531342442E+02 -0.63305535243E+01  0.95212038516E+02  0.90432348354E+02 0.  0.
         11    1    3    3    0    0  0.46635207166E+00 -0.31137055046E+02  0.21033344570E+02  0.37578388274E+02  0.51100000000E-03 0.  1.
         22    1    1    0    0    0 -0.26271889884E+02 -0.12531342442E+02  0.63305535243E+01  0.29787961484E+02  0.00000000000E+00 0. -1.
</event>
<event>
 5    1  0.1103865E-009  0.9118800E+02  0.7818608E-02  0.1130116E+00
         25   -1    0    0    0    0  0.00000000000E+00  0.00000000000E+00  0.99999998245E-14  0.12500000000E+03  0.12500000000E+03 0.  0.
        -11    1    3    3    0    0 -0.41434645928E+02  0.98372428743E+01  0.21873632919E+02  0.47875432613E+02  0.51100000000E-03 0.  1.
         23    2    1    0    0    0 -0.20817670229E+02 -0.63399753319E+01 -0.18787814177E+02  0.96250171435E+02  0.91856098648E+02 0.  0.
         11    1    3    3    0    0  0.20616975700E+02 -0.16177218206E+02 -0.40661447096E+02  0.48374738822E+02  0.51100000000E-03 0. -1.
         22    1    1    0    0    0  0.20817670229E+02  0.63399753319E+01  0.18787814177E+02  0.28749828565E+02  0.00000000000E+00 0.  1.
</event>
<event>
 5    1  0.1103865E-009  0.9118800E+02  0.7818608E-02  0.1130116E+00
         25   -1    0    0    0    0  0.00000000000E+00  0.00000000000E+00  0.99999998245E-14  0.12500000000E+03  0.12500000000E+03 0.  0.
        -11    1    3    3    0    0 -0.32081124796E+02  0.20828014736E+02 -0.34568065377E+01  0.38405133482E+02  0.51100000000E-03 0. -1.
         23    2    1    0    0    0  0.23789298562E+02  0.97941832360E+01  0.10778329495E+02  0.97106826318E+02  0.93014550365E+02 0.  0.
         11    1    3    3    0    0  0.55870423358E+02 -0.11033831500E+02  0.14235136033E+02  0.58701692837E+02  0.51100000000E-03 0.  1.
         22    1    1    0    0    0 -0.23789298562E+02 -0.97941832360E+01 -0.10778329495E+02  0.27893173682E+02  0.00000000000E+00 0.  1.
</event>
<event>
 5    1  0.1103865E-009  0.9118800E+02  0.7818608E-02  0.1130116E+00
         25   -1    0    0    0    0  0.00000000000E+00  0.00000000000E+00  0.99999998245E-14  0.12500000000E+03  0.12500000000E+03 0.  0.
        -11    1    3    3    0    0  0.41039727158E+02  0.35076104010E+02  0.10659805901E+01  0.53997486910E+02  0.51100000000E-03 0. -1.
         23    2    1    0    0    0  0.28020756758E+02 -0.37526256642E+01  0.81921723790E+01  0.95566062157E+02  0.90920380219E+02 0.  0.
         11    1    3    3    0    0 -0.13018970400E+02 -0.38828729674E+02  0.71261917889E+01  0.41568575247E+02  0.51100000000E-03 0.  1.
         22    1    1    0    0    0 -0.28020756758E+02  0.37526256642E+01 -0.81921723790E+01  0.29433937843E+02  0.00000000000E+00 0. -1.
</event>
<event>
 5    1  0.1103865E-009  0.9118800E+02  0.7818608E-02  0.1130116E+00
         25   -1    0    0    0    0  0.00000000000E+00  0.00000000000E+00  0.99999998245E-14  0.12500000000E+03  0.12500000000E+03 0.  0.
        -11    1    3    3    0    0  0.16484204378E+02  0.28904409923E+02  0.40506305513E+01  0.33520165798E+02  0.51100000000E-03 0. -1.
         23    2    1    0    0    0 -0.19358781649E+02 -0.20147476478E+02  0.11614923584E+02  0.94741287449E+02  0.89779295287E+02 0.  0.
         11    1    3    3    0    0 -0.35842986027E+02 -0.49051886401E+02  0.75642930332E+01  0.61221121651E+02  0.51100000000E-03 0.  1.
         22    1    1    0    0    0  0.19358781649E+02  0.20147476478E+02 -0.11614923584E+02  0.30258712551E+02  0.00000000000E+00 0.  1.
</event>
<event>
 5    1  0.1103865E-009  0.9118800E+02  0.7818608E-02  0.1130116E+00
         25   -1    0    0    0    0  0.00000000000E+00  0.00000000000E+00  0.99999998245E-14  0.12500000000E+03  0.12500000000E+03 0.  0.
        -11    1    3    3    0    0 -0.21355838924E+02  0.53421480108E+02  0.57482619065E+01  0.57818413229E+02  0.51100000000E-03 0.  1.
         23    2    1    0    0    0 -0.20594314691E+02  0.37510017266E+02  0.18653260907E+02  0.78319475846E+02  0.62887748898E+02 0.  0.
         11    1    3    3    0    0  0.76152423291E+00 -0.15911462843E+02  0.12904999000E+02  0.20501062617E+02  0.51100000000E-03 0. -1.
         22    1    1    0    0    0  0.20594314691E+02 -0.37510017266E+02 -0.18653260907E+02  0.46680524154E+02  0.00000000000E+00 0.  1.
</event>
<event>
 5    1  0.1103865E-009  0.9118800E+02  0.7818608E-02  0.1130116E+00
         25   -1    0    0    0    0  0.00000000000E+00  0.00000000000E+00  0.99999998245E-14  0.12500000000E+03  0.12500000000E+03 0.  0.
        -11    1    3    3    0    0  0.10553229864E+02  0.39178870290E+02  0.43931873901E+02  0.59802709659E+02  0.51100000000E-03 0.  1.
         23    2    1    0    0    0  0.14718364287E+02  0.10220334705E+02  0.23319008949E+02  0.95591469484E+02  0.90955304248E+02 0.  0.
         11    1    3    3    0    0  0.41651344232E+01 -0.28958535585E+02 -0.20612864952E+02  0.35788759825E+02  0.51100000000E-03 0. -1.
         22    1    1    0    0    0 -0.14718364287E+02 -0.10220334705E+02 -0.23319008949E+02  0.29408530516E+02  0.00000000000E+00 0.  1.
</event>
<event>
 5    1  0.1103865E-009  0.9118800E+02  0.7818608E-02  0.1130116E+00
         25   -1    0    0    0    0  0.00000000000E+00  0.00000000000E+00  0.99999998245E-14  0.12500000000E+03  0.12500000000E+03 0.  0.
        -11    1    3    3    0    0 -0.43556655362E+02  0.26274739033E+02  0.35050591261E+02  0.61774493811E+02  0.51100000000E-03 0. -1.
         23    2    1    0    0    0 -0.17502563611E+02  0.18030767878E+02  0.14298694306E+02  0.96088047764E+02  0.91635211251E+02 0.  0.
         11    1    3    3    0    0  0.26054091751E+02 -0.82439711551E+01 -0.20751896955E+02  0.34313553953E+02  0.51100000000E-03 0.  1.
         22    1    1    0    0    0  0.17502563611E+02 -0.18030767878E+02 -0.14298694306E+02  0.28911952236E+02  0.00000000000E+00 0. -1.
</event>
<event>
 5    1  0.1103865E-009  0.9118800E+02  0.7818608E-02  0.1130116E+00
         25   -1    0    0    0    0  0.00000000000E+00  0.00000000000E+00  0.99999998245E-14  0.12500000000E+03  0.12500000000E+03 0.  0.
        -11    1    3    3    0    0  0.38438496399E+02 -0.11917961413E+02 -0.47745890094E+02  0.62443781362E+02  0.51100000000E-03 0.  1.
         23    2    1    0    0    0  0.17170758379E+02 -0.41963815978E+01 -0.23305435016E+02  0.95749566446E+02  0.91172318230E+02 0.  0.
         11    1    3    3    0    0 -0.21267738021E+02  0.77215798153E+01  0.24440455078E+02  0.33305785084E+02  0.51100000000E-03 0. -1.
         22    1    1    0    0    0 -0.17170758379E+02  0.41963815978E+01  0.23305435016E+02  0.29250433554E+02  0.00000000000E+00 0.  1.
</event>
<event>
 5    1  0.1103865E-009  0.9118800E+02  0.7818608E-02  0.1130116E+00
         25   -1    0    0    0    0  0.00000000000E+00  0.00000000000E+00  0.99999998245E-14  0.12500000000E+03  0.12500000000E+03 0.  0.
        -11    1    3    3    0    0  0.21652026337E+02 -0.34499718759E+02 -0.51592010849E+01  0.41056767957E+02  0.51100000000E-03 0. -1.
         23    2    1    0    0    0  0.12869114662E+02  0.17978990550E+02 -0.18790598788E+02  0.95983714638E+02  0.91492779276E+02 0.  0.
         11    1    3    3    0    0 -0.87829116746E+01  0.52478709309E+02 -0.13631397703E+02  0.54926946682E+02  0.51100000000E-03 0.  1.
         22    1    1    0    0    0 -0.12869114662E+02 -0.17978990550E+02  0.18790598788E+02  0.29016285362E+02  0.00000000000E+00 0.  1.
</event>
<event>
 5    1  0.1103865E-009  0.9118800E+02  0.7818608E-02  0.1130116E+00
         25   -1    0    0    0    0  0.00000000000E+00  0.00000000000E+00  0.99999998245E-14  0.12500000000E+03  0.12500000000E+03 0.  0.
        -11    1    3    3    0    0  0.62893894217E+01 -0.27748745610E+02  0.50446436527E+02  0.57917115439E+02  0.51100000000E-03 0. -1.
         23    2    1    0    0    0  0.35762262717E+01  0.35021716830E+01  0.28165068627E+02  0.96393607505E+02  0.92051082971E+02 0.  0.
         11    1    3    3    0    0 -0.27131631500E+01  0.31250917293E+02 -0.22281367900E+02  0.38476492066E+02  0.51100000000E-03 0.  1.
         22    1    1    0    0    0 -0.35762262717E+01 -0.35021716830E+01 -0.28165068627E+02  0.28606392495E+02  0.00000000000E+00 0. -1.
</event>
<event>
 5    1  0.1103865E-009  0.9118800E+02  0.7818608E-02  0.1130116E+00
         25   -1    0    0    0    0  0.00000000000E+00  0.00000000000E+00  0.99999998245E-14  0.12500000000E+03  0.12500000000E+03 0.  0.
        -11    1    3    3    0    0 -0.53622057547E+01  0.49538838562E+01  0.37562528759E+02  0.38265360090E+02  0.51100000000E-03 0. -1.
         23    2    1    0    0    0  0.28139366215E+02 -0.17780238215E+01 -0.84378550614E+01  0.95569018064E+02  0.90924443996E+02 0.  0.
         11    1    3    3    0    0  0.33501571969E+02 -0.67319076777E+01 -0.46000383820E+02  0.57303657974E+02  0.51100000000E-03 0.  1.
         22    1    1    0    0    0 -0.28139366215E+02  0.17780238215E+01  0.84378550614E+01  0.29430981936E+02  0.00000000000E+00 0.  1.
</event>
<event>
 5    1  0.1103865E-009  0.9118800E+02  0.7818608E-02  0.1130116E+00
         25   -1    0    0    0    0  0.00000000000E+00  0.00000000000E+00  0.99999998245E-14  0.12500000000E+03  0.12500000000E+03 0.  0.
        -11    1    3    3    0    0  0.44183956073E+02 -0.14185005403E+02 -0.38269795613E+02  0.60149926093E+02  0.51100000000E-03 0.  1.
         23    2    1    0    0    0  0.26919816729E+02  0.71272979162E+00 -0.10466969226E+02  0.96108098691E+02  0.91662558729E+02 0.  0.
         11    1    3    3    0    0 -0.17264139344E+02  0.14897735194E+02  0.27802826387E+02  0.35958172598E+02  0.51100000000E-03 0. -1.
         22    1    1    0    0    0 -0.26919816729E+02 -0.71272979162E+00  0.10466969226E+02  0.28891901309E+02  0.00000000000E+00 0.  1.
</event>
<event>
 5    1  0.1103865E-009  0.9118800E+02  0.7818608E-02  0.1130116E+00
         25   -1    0    0    0    0  0.00000000000E+00  0.00000000000E+00  0.99999998245E-14  0.12500000000E+03  0.12500000000E+03 0.  0.
        -11    1    3    3    0    0 -0.30110420289E+02  0.51089936042E+02  0.52492414248E+01  0.59534641265E+02  0.51100000000E-03 0. -1.
         23    2    1    0    0    0 -0.75110760372E+01  0.20318000942E+02  0.14644025406E+02  0.98852631000E+02  0.95331829680E+02 0.  0.
         11    1    3    3    0    0  0.22599344252E+02 -0.30771935101E+02  0.93947839817E+01  0.39317989735E+02  0.51100000000E-03 0.  1.
         22    1    1    0    0    0  0.75110760372E+01 -0.20318000942E+02 -0.14644025406E+02  0.26147369000E+02  0.00000000000E+00 0. -1.
</event>
<event>
 5    1  0.1103865E-009  0.9118800E+02  0.7818608E-02  0.1130116E+00
         25   -1    0    0    0    0  0.00000000000E+00  0.00000000000E+00  0.99999998245E-14  0.12500000000E+03  0.12500000000E+03 0.  0.
        -11    1    3    3    0    0  0.20032105432E+02 -0.29129681824E+02 -0.20825934002E+02  0.41031002163E+02  0.51100000000E-03 0.  1.
         23    2    1    0    0    0 -0.37475333886E+01  0.12056679765E+02  0.18404058134E+02  0.10268146758E+03  0.10022657779E+03 0.  0.
         11    1    3    3    0    0 -0.23779638821E+02  0.41186361588E+02  0.39229992136E+02  0.61650465420E+02  0.51100000000E-03 0. -1.
         22    1    1    0    0    0  0.37475333886E+01 -0.12056679765E+02 -0.18404058134E+02  0.22318532417E+02  0.00000000000E+00 0. -1.
</event>
<event>
 5    1  0.1103865E-009  0.9118800E+02  0.7818608E-02  0.1130116E+00
         25   -1    0    0    0    0  0.00000000000E+00  0.00000000000E+00  0.99999998245E-14  0.12500000000E+03  0.12500000000E+03 0.  0.
        -11    1    3    3    0    0  0.39561582310E+02 -0.12115341849E+02  0.31380835096E+02  0.51929347334E+02  0.51100000000E-03 0.  1.
         23    2    1    0    0    0  0.23720947272E+01 -0.24620299557E+02  0.21097487521E+02  0.92490155901E+02  0.86588330479E+02 0.  0.
         11    1    3    3    0    0 -0.37189487583E+02 -0.12504957708E+02 -0.10283347576E+02  0.40560808566E+02  0.51100000000E-03 0. -1.
         22    1    1    0    0    0 -0.23720947272E+01  0.24620299557E+02 -0.21097487521E+02  0.32509844099E+02  0.00000000000E+00 0.  1.
</event>
<event>
 5    1  0.1103865E-009  0.9118800E+02  0.7818608E-02  0.1130116E+00
         25   -1    0    0    0    0  0.00000000000E+00  0.00000000000E+00  0.99999998245E-14  0.12500000000E+03  0.12500000000E+03 0.  0.
        -11    1    3    3    0    0 -0.30508367059E+01  0.56924734775E+02 -0.21558175881E+02  0.60946599424E+02  0.51100000000E-03 0. -1.
         23    2    1    0    0    0 -0.77743121008E+01  0.25346055689E+02 -0.17732131128E+02  0.93105001301E+02  0.87471425765E+02 0.  0.
         11    1    3    3    0    0 -0.47234753949E+01 -0.31578679085E+02  0.38260447530E+01  0.32158401877E+02  0.51100000000E-03 0.  1.
         22    1    1    0    0    0  0.77743121008E+01 -0.25346055689E+02  0.17732131128E+02  0.31894998699E+02  0.00000000000E+00 0. -1.
</event>
<event>
 5    1  0.1103865E-009  0.9118800E+02  0.7818608E-02  0.1130116E+00
         25   -1    0    0    0    0  0.00000000000E+00  0.00000000000E+00  0.99999998245E-14  0.12500000000E+03  0.12500000000E+03 0.  0.
        -11    1    3    3    0    0 -0.12759900164E+02 -0.16164656460E+01  0.33692852531E+02  0.36064335920E+02  0.51100000000E-03 0. -1.
         23    2    1    0    0    0  0.28171267975E+02 -0.98693400694E+01 -0.69693819794E+01  0.94347161667E+02  0.89228865378E+02 0.  0.
         11    1    3    3    0    0  0.40931168139E+02 -0.82528744233E+01 -0.40662234510E+02  0.58282825747E+02  0.51100000000E-03 0.  1.
         22    1    1    0    0    0 -0.28171267975E+02  0.98693400694E+01  0.69693819794E+01  0.30652838333E+02  0.00000000000E+00 0.  1.
</event>
<event>
 5    1  0.1103865E-009  0.9118800E+02  0.7818608E-02  0.1130116E+00
         25   -1    0    0    0    0  0.00000000000E+00  0.00000000000E+00  0.99999998245E-14  0.12500000000E+03  0.12500000000E+03 0.  0.
        -11    1    3    3    0    0 -0.13527492370E+02 -0.25031248783E+02  0.19607420771E+02  0.34554412381E+02  0.51100000000E-03 0.  1.
         23    2    1    0    0    0  0.17977288807E+02  0.22265351718E+02 -0.40253103053E+01  0.96101350844E+02  0.91653356246E+02 0.  0.
         11    1    3    3    0    0  0.31504781176E+02  0.47296600500E+02 -0.23632731076E+02  0.61546938464E+02  0.51100000000E-03 0. -1.
         22    1    1    0    0    0 -0.17977288807E+02 -0.22265351718E+02  0.40253103053E+01  0.28898649156E+02  0.00000000000E+00 0. -1.
</event>
<event>
 5    1  0.1103865E-009  0.9118800E+02  0.7818608E-02  0.1130116E+00
         25   -1    0    0    0    0  0.00000000000E+00  0.00000000000E+00  0.99999998245E-14  0.12500000000E+03  0.12500000000E+03 0.  0.
        -11    1    3    3    0    0  0.24292721912E+02 -0.30351313429E+02 -0.17224530386E+02  0.42520853849E+02  0.51100000000E-03 0. -1.
         23    2    1    0    0    0 -0.18397395133E+02 -0.43866474643E+01 -0.25586846809E+02  0.93181867540E+02  0.87581201664E+02 0.  0.
         11    1    3    3    0    0 -0.42690117045E+02  0.25964665965E+02 -0.83623164229E+01  0.50661013691E+02  0.51100000000E-03 0.  1.
         22    1    1    0    0    0  0.18397395133E+02  0.43866474643E+01  0.25586846809E+02  0.31818132460E+02  0.00000000000E+00 0.  1.
</event>
<event>
 5    1  0.1103865E-009  0.9118800E+02  0.7818608E-02  0.1130116E+00
         25   -1    0    0    0    0  0.00000000000E+00  0.00000000000E+00  0.99999998245E-14  0.12500000000E+03  0.12500000000E+03 0.  0.
        -11    1    3    3    0    0 -0.12686467607E+02  0.38456914643E+02  0.10772992697E+02  0.41903915283E+02  0.51100000000E-03 0.  1.
         23    2    1    0    0    0 -0.24586149679E+02 -0.13488201832E+02  0.10083934268E+02  0.95199059159E+02  0.90414405875E+02 0.  0.
         11    1    3    3    0    0 -0.11899682072E+02 -0.51945116474E+02 -0.68905842912E+00  0.53295143876E+02  0.51100000000E-03 0. -1.
         22    1    1    0    0    0  0.24586149679E+02  0.13488201832E+02 -0.10083934268E+02  0.29800940841E+02  0.00000000000E+00 0. -1.
</event>
<event>
 5    1  0.1103865E-009  0.9118800E+02  0.7818608E-02  0.1130116E+00
         25   -1    0    0    0    0  0.00000000000E+00  0.00000000000E+00  0.99999998245E-14  0.12500000000E+03  0.12500000000E+03 0.  0.
        -11    1    3    3    0    0 -0.10273226025E+02  0.46636668011E+02  0.14527447262E+02  0.49915575729E+02  0.51100000000E-03 0. -1.
         23    2    1    0    0    0  0.12081976358E+02  0.20729581821E+02 -0.16316807538E+02  0.95984005731E+02  0.91493176973E+02 0.  0.
         11    1    3    3    0    0  0.22355202383E+02 -0.25907086189E+02 -0.30844254800E+02  0.46068430002E+02  0.51100000000E-03 0.  1.
         22    1    1    0    0    0 -0.12081976358E+02 -0.20729581821E+02  0.16316807538E+02  0.29015994269E+02  0.00000000000E+00 0. -1.
</event>
<event>
 5    1  0.1103865E-009  0.9118800E+02  0.7818608E-02  0.1130116E+00
         25   -1    0    0    0    0  0.00000000000E+00  0.00000000000E+00  0.99999998245E-14  0.12500000000E+03  0.12500000000E+03 0.  0.
        -11    1    3    3    0    0 -0.87473945717E+01  0.28087358950E+02  0.31348734268E+02  0.42990228949E+02  0.51100000000E-03 0.  1.
         23    2    1    0    0    0  0.19417684900E+02 -0.14151227196E+02  0.16386647844E+02  0.95916913067E+02  0.91401467530E+02 0.  0.
         11    1    3    3    0    0  0.28165079471E+02 -0.42238586146E+02 -0.14962086424E+02  0.52926684118E+02  0.51100000000E-03 0. -1.
         22    1    1    0    0    0 -0.19417684900E+02  0.14151227196E+02 -0.16386647844E+02  0.29083086933E+02  0.00000000000E+00 0. -1.
</event>
<event>
 5    1  0.1103865E-009  0.9118800E+02  0.7818608E-02  0.1130116E+00
         25   -1    0    0    0    0  0.00000000000E+00  0.00000000000E+00  0.99999998245E-14  0.12500000000E+03  0.12500000000E+03 0.  0.
        -11    1    3    3    0    0 -0.59000312047E+02 -0.31016468803E+01 -0.99459412671E+01  0.59913093586E+02  0.51100000000E-03 0. -1.
         23    2    1    0    0    0 -0.26591007514E+02 -0.11407795296E+02  0.32606854136E+01  0.95882109563E+02  0.91353858106E+02 0.  0.
         11    1    3    3    0    0  0.32409304533E+02 -0.83061484154E+01  0.13206626681E+02  0.35969015977E+02  0.51100000000E-03 0.  1.
         22    1    1    0    0    0  0.26591007514E+02  0.11407795296E+02 -0.32606854136E+01  0.29117890437E+02  0.00000000000E+00 0. -1.
</event>
<event>
 5    1  0.1103865E-009  0.9118800E+02  0.7818608E-02  0.1130116E+00
         25   -1    0    0    0    0  0.00000000000E+00  0.00000000000E+00  0.99999998245E-14  0.12500000000E+03  0.12500000000E+03 0.  0.
        -11    1    3    3    0    0 -0.11351730887E+02 -0.14390941559E+02 -0.44226376306E+02  0.47874140771E+02  0.51100000000E-03 0. -1.
         23    2    1    0    0    0 -0.22615696615E+02  0.83068130912E+01  0.22427690706E+01  0.10080283301E+03  0.97855547892E+02 0.  0.
         11    1    3    3    0    0 -0.11263965727E+02  0.22697754651E+02  0.46469145377E+02  0.52928692242E+02  0.51100000000E-03 0.  1.
         22    1    1    0    0    0  0.22615696615E+02 -0.83068130912E+01 -0.22427690706E+01  0.24197166987E+02  0.00000000000E+00 0.  1.
</event>
<event>
 5    1  0.1103865E-009  0.9118800E+02  0.7818608E-02  0.1130116E+00
         25   -1    0    0    0    0  0.00000000000E+00  0.00000000000E+00  0.99999998245E-14  0.12500000000E+03  0.12500000000E+03 0.  0.
        -11    1    3    3    0    0  0.84685949135E+00  0.48692575585E+02 -0.34913298464E+02  0.59921803194E+02  0.51100000000E-03 0.  1.
         23    2    1    0    0    0  0.11258701854E+02  0.27765801243E+02 -0.11785793607E+02  0.92803680069E+02  0.87039761129E+02 0.  0.
         11    1    3    3    0    0  0.10411842362E+02 -0.20926774341E+02  0.23127504857E+02  0.32881876876E+02  0.51100000000E-03 0. -1.
         22    1    1    0    0    0 -0.11258701854E+02 -0.27765801243E+02  0.11785793607E+02  0.32196319931E+02  0.00000000000E+00 0.  1.
</event>
<event>
 5    1  0.1103865E-009  0.9118800E+02  0.7818608E-02  0.1130116E+00
         25   -1    0    0    0    0  0.00000000000E+00  0.00000000000E+00  0.99999998245E-14  0.12500000000E+03  0.12500000000E+03 0.  0.
        -11    1    3    3    0    0 -0.34153992275E+02 -0.50658868639E+01 -0.44856885939E+02  0.56606524487E+02  0.51100000000E-03 0.  1.
         23    2    1    0    0    0 -0.10822902425E+01 -0.94282859103E+01 -0.30739271838E+02  0.92829100720E+02  0.87076260714E+02 0.  0.
         11    1    3    3    0    0  0.33071702033E+02 -0.43623990464E+01  0.14117614101E+02  0.36222576233E+02  0.51100000000E-03 0. -1.
         22    1    1    0    0    0  0.10822902425E+01  0.94282859103E+01  0.30739271838E+02  0.32170899280E+02  0.00000000000E+00 0.  1.
</event>
<event>
 5    1  0.1103865E-009  0.9118800E+02  0.7818608E-02  0.1130116E+00
         25   -1    0    0    0    0  0.00000000000E+00  0.00000000000E+00  0.99999998245E-14  0.12500000000E+03  0.12500000000E+03 0.  0.
        -11    1    3    3    0    0 -0.38048878517E+02 -0.36174360563E+02 -0.25869664930E+02  0.58528122150E+02  0.51100000000E-03 0.  1.
         23    2    1    0    0    0 -0.14558369834E+02 -0.82056905257E+01 -0.24832957519E+02  0.95067488105E+02  0.90232322513E+02 0.  0.
         11    1    3    3    0    0  0.23490508683E+02  0.27968670037E+02  0.10367074113E+01  0.36539365955E+02  0.51100000000E-03 0. -1.
         22    1    1    0    0    0  0.14558369834E+02  0.82056905257E+01  0.24832957519E+02  0.29932511895E+02  0.00000000000E+00 0. -1.
</event>
<event>
 5    1  0.1103865E-009  0.9118800E+02  0.7818608E-02  0.1130116E+00
         25   -1    0    0    0    0  0.00000000000E+00  0.00000000000E+00  0.99999998245E-14  0.12500000000E+03  0.12500000000E+03 0.  0.
        -11    1    3    3    0    0  0.19244279675E+02 -0.36423658806E+02 -0.16677664704E+02  0.44442881559E+02  0.51100000000E-03 0.  1.
         23    2    1    0    0    0 -0.13805854255E+02  0.39420793187E+01 -0.23908633384E+02  0.97111573164E+02  0.93020929317E+02 0.  0.
         11    1    3    3    0    0 -0.33050133930E+02  0.40365738124E+02 -0.72309686800E+01  0.52668691605E+02  0.51100000000E-03 0. -1.
         22    1    1    0    0    0  0.13805854255E+02 -0.39420793187E+01  0.23908633384E+02  0.27888426836E+02  0.00000000000E+00 0. -1.
</event>
<event>
 5    1  0.1103865E-009  0.9118800E+02  0.7818608E-02  0.1130116E+00
         25   -1    0    0    0    0  0.00000000000E+00  0.00000000000E+00  0.99999998245E-14  0.12500000000E+03  0.12500000000E+03 0.  0.
        -11    1    3    3    0    0 -0.53679684913E+02 -0.22831597074E+02  0.13839055094E+02  0.59952563277E+02  0.51100000000E-03 0.  1.
         23    2    1    0    0    0 -0.28607939870E+02  0.13813551979E+01  0.76745931946E+01  0.95348326413E+02  0.90620536322E+02 0.  0.
         11    1    3    3    0    0  0.25071745043E+02  0.24212952272E+02 -0.61644618994E+01  0.35395763136E+02  0.51100000000E-03 0. -1.
         22    1    1    0    0    0  0.28607939870E+02 -0.13813551979E+01 -0.76745931946E+01  0.29651673587E+02  0.00000000000E+00 0.  1.
</event>
<event>
 5    1  0.1103865E-009  0.9118800E+02  0.7818608E-02  0.1130116E+00
         25   -1    0    0    0    0  0.00000000000E+00  0.00000000000E+00  0.99999998245E-14  0.12500000000E+03  0.12500000000E+03 0.  0.
        -11    1    3    3    0    0 -0.29793469384E+02  0.19315721541E+02  0.31018583939E-01  0.35507025770E+02  0.51100000000E-03 0. -1.
         23    2    1    0    0    0  0.21289775986E+02 -0.15890247778E+02 -0.57600157962E+01  0.97816690452E+02  0.93963677094E+02 0.  0.
         11    1    3    3    0    0  0.51083245371E+02 -0.35205969320E+02 -0.57910343801E+01  0.62309664682E+02  0.51100000000E-03 0.  1.
         22    1    1    0    0    0 -0.21289775986E+02  0.15890247778E+02  0.57600157962E+01  0.27183309548E+02  0.00000000000E+00 0.  1.
</event>
<event>
 5    1  0.1103865E-009  0.9118800E+02  0.7818608E-02  0.1130116E+00
         25   -1    0    0    0    0  0.00000000000E+00  0.00000000000E+00  0.99999998245E-14  0.12500000000E+03  0.12500000000E+03 0.  0.
        -11    1    3    3    0    0  0.24543157254E+02 -0.43009593426E+02 -0.64411583330E-01  0.49519651087E+02  0.51100000000E-03 0. -1.
         23    2    1    0    0    0 -0.92512664412E+01 -0.18475949014E+02  0.20346238358E+02  0.96001447656E+02  0.91517003415E+02 0.  0.
         11    1    3    3    0    0 -0.33794423695E+02  0.24533644412E+02  0.20410649941E+02  0.46481796569E+02  0.51100000000E-03 0.  1.
         22    1    1    0    0    0  0.92512664412E+01  0.18475949014E+02 -0.20346238358E+02  0.28998552344E+02  0.00000000000E+00 0.  1.
</event>
<event>
 5    1  0.1103865E-009  0.9118800E+02  0.7818608E-02  0.1130116E+00
         25   -1    0    0    0    0  0.00000000000E+00  0.00000000000E+00  0.99999998245E-14  0.12500000000E+03  0.12500000000E+03 0.  0.
        -11    1    3    3    0    0  0.32665634872E+02  0.15411619556E+01  0.14887924419E+02  0.35931451063E+02  0.51100000000E-03 0. -1.
         23    2    1    0    0    0 -0.89898005833E+01 -0.31933027645E+02  0.12896001243E+02  0.89407281403E+02  0.82017195458E+02 0.  0.
         11    1    3    3    0    0 -0.41655435455E+02 -0.33474189600E+02 -0.19919231759E+01  0.53475830340E+02  0.51100000000E-03 0.  1.
         22    1    1    0    0    0  0.89898005833E+01  0.31933027645E+02 -0.12896001243E+02  0.35592718597E+02  0.00000000000E+00 0.  1.
</event>
<event>
 5    1  0.1103865E-009  0.9118800E+02  0.7818608E-02  0.1130116E+00
         25   -1    0    0    0    0  0.00000000000E+00  0.00000000000E+00  0.99999998245E-14  0.12500000000E+03  0.12500000000E+03 0.  0.
        -11    1    3    3    0    0  0.34885386469E+02 -0.37639177326E+02 -0.22166549324E+01  0.51367415919E+02  0.51100000000E-03 0. -1.
         23    2    1    0    0    0 -0.59479954713E+01 -0.25320558534E+02  0.12040745882E+02  0.96338372412E+02  0.91976046355E+02 0.  0.
         11    1    3    3    0    0 -0.40833381940E+02  0.12318618792E+02  0.14257400814E+02  0.44970956493E+02  0.51100000000E-03 0.  1.
         22    1    1    0    0    0  0.59479954713E+01  0.25320558534E+02 -0.12040745882E+02  0.28661627588E+02  0.00000000000E+00 0. -1.
</event>
<event>
 5    1  0.1103865E-009  0.9118800E+02  0.7818608E-02  0.1130116E+00
         25   -1    0    0    0    0  0.00000000000E+00  0.00000000000E+00  0.99999998245E-14  0.12500000000E+03  0.12500000000E+03 0.  0.
        -11    1    3    3    0    0 -0.43218480235E+02 -0.27417913284E+02 -0.96918611339E+01  0.52091373328E+02  0.51100000000E-03 0.  1.
         23    2    1    0    0    0 -0.82802444230E+01 -0.96394893498E+01 -0.27164268782E+02  0.95010340097E+02  0.90153119881E+02 0.  0.
         11    1    3    3    0    0  0.34938235812E+02  0.17778423934E+02 -0.17472407648E+02  0.42918966769E+02  0.51100000000E-03 0. -1.
         22    1    1    0    0    0  0.82802444230E+01  0.96394893498E+01  0.27164268782E+02  0.29989659903E+02  0.00000000000E+00 0.  1.
</event>
<event>
 5    1  0.1103865E-009  0.9118800E+02  0.7818608E-02  0.1130116E+00
         25   -1    0    0    0    0  0.00000000000E+00  0.00000000000E+00  0.99999998245E-14  0.12500000000E+03  0.12500000000E+03 0.  0.
        -11    1    3    3    0    0  0.13504018472E+01  0.46660834423E+02 -0.15555771511E+02  0.49204055542E+02  0.51100000000E-03 0. -1.
         23    2    1    0    0    0  0.87442285842E+01  0.19909563779E+02  0.20776920172E+02  0.94924550291E+02  0.90034091169E+02 0.  0.
         11    1    3    3    0    0  0.73938267370E+01 -0.26751270644E+02  0.36332691683E+02  0.45720494749E+02  0.51100000000E-03 0.  1.
         22    1    1    0    0    0 -0.87442285842E+01 -0.19909563779E+02 -0.20776920172E+02  0.30075449709E+02  0.00000000000E+00 0. -1.
</event>
<event>
 5    1  0.1103865E-009  0.9118800E+02  0.7818608E-02  0.1130116E+00
         25   -1    0    0    0    0  0.00000000000E+00  0.00000000000E+00  0.99999998245E-14  0.12500000000E+03  0.12500000000E+03 0.  0.
        -11    1    3    3    0    0  0.60301914794E+01 -0.32990745862E+01 -0.42147357516E+02  0.42704178346E+02  0.51100000000E-03 0.  1.
         23    2    1    0    0    0 -0.28361639777E+02 -0.49782397849E+01 -0.12344504522E+01  0.96178318055E+02  0.91758266732E+02 0.  0.
         11    1    3    3    0    0 -0.34391831257E+02 -0.16791651987E+01  0.40912907063E+02  0.53474139709E+02  0.51100000000E-03 0. -1.
         22    1    1    0    0    0  0.28361639777E+02  0.49782397849E+01  0.12344504522E+01  0.28821681945E+02  0.00000000000E+00 0. -1.
</event>
<event>
 5    1  0.1103865E-009  0.9118800E+02  0.7818608E-02  0.1130116E+00
         25   -1    0    0    0    0  0.00000000000E+00  0.00000000000E+00  0.99999998245E-14  0.12500000000E+03  0.12500000000E+03 0.  0.
        -11    1    3    3    0    0 -0.62091442482E+01  0.44122680796E+02  0.20436565832E+02  0.49020584006E+02  0.51100000000E-03 0.  1.
         23    2    1    0    0    0  0.47149948974E+00 -0.93234801154E+00  0.29516980364E+02  0.95464534634E+02  0.90780689899E+02 0.  0.
         11    1    3    3    0    0  0.66806437379E+01 -0.45055028808E+02  0.90804145317E+01  0.46443950628E+02  0.51100000000E-03 0. -1.
         22    1    1    0    0    0 -0.47149948974E+00  0.93234801154E+00 -0.29516980364E+02  0.29535465366E+02  0.00000000000E+00 0. -1.
</event>
<event>
 5    1  0.1103865E-009  0.9118800E+02  0.7818608E-02  0.1130116E+00
         25   -1    0    0    0    0  0.00000000000E+00  0.00000000000E+00  0.99999998245E-14  0.12500000000E+03  0.12500000000E+03 0.  0.
        -11    1    3    3    0    0 -0.11626944629E+01  0.44712830853E+02 -0.99933947893E+01  0.45830743404E+02  0.51100000000E-03 0.  1.
         23    2    1    0    0    0  0.27269107388E+02  0.60674858120E+01  0.60442042260E+01  0.96417645189E+02  0.92083718959E+02 0.  0.
         11    1    3    3    0    0  0.28431801851E+02 -0.38645345041E+02  0.16037599015E+02  0.50586901785E+02  0.51100000000E-03 0. -1.
         22    1    1    0    0    0 -0.27269107388E+02 -0.60674858120E+01 -0.60442042260E+01  0.28582354811E+02  0.00000000000E+00 0. -1.
</event>
<event>
 5    1  0.1103865E-009  0.9118800E+02  0.7818608E-02  0.1130116E+00
         25   -1    0    0    0    0  0.00000000000E+00  0.00000000000E+00  0.99999998245E-14  0.12500000000E+03  0.12500000000E+03 0.  0.
        -11    1    3    3    0    0 -0.30223115287E+02  0.24456940563E+02 -0.39752405140E+02  0.55604247625E+02  0.51100000000E-03 0.  1.
         23    2    1    0    0    0 -0.25880963525E+02  0.12594090678E+02 -0.11792323495E+01  0.96193299704E+02  0.91778673591E+02 0.  0.
         11    1    3    3    0    0  0.43421517617E+01 -0.11862849885E+02  0.38573172790E+02  0.40589052079E+02  0.51100000000E-03 0. -1.
         22    1    1    0    0    0  0.25880963525E+02 -0.12594090678E+02  0.11792323495E+01  0.28806700296E+02  0.00000000000E+00 0.  1.
</event>
<event>
 5    1  0.1103865E-009  0.9118800E+02  0.7818608E-02  0.1130116E+00
         25   -1    0    0    0    0  0.00000000000E+00  0.00000000000E+00  0.99999998245E-14  0.12500000000E+03  0.12500000000E+03 0.  0.
        -11    1    3    3    0    0 -0.16893173465E+02 -0.22787958990E+02 -0.53659786671E+02  0.60696318591E+02  0.51100000000E-03 0. -1.
         23    2    1    0    0    0 -0.54448919818E+01 -0.14172681392E+01 -0.29663014242E+02  0.94808115137E+02  0.89872291526E+02 0.  0.
         11    1    3    3    0    0  0.11448281483E+02  0.21370690851E+02  0.23996772428E+02  0.34111796546E+02  0.51100000000E-03 0.  1.
         22    1    1    0    0    0  0.54448919818E+01  0.14172681392E+01  0.29663014242E+02  0.30191884863E+02  0.00000000000E+00 0. -1.
</event>
<event>
 5    1  0.1103865E-009  0.9118800E+02  0.7818608E-02  0.1130116E+00
         25   -1    0    0    0    0  0.00000000000E+00  0.00000000000E+00  0.99999998245E-14  0.12500000000E+03  0.12500000000E+03 0.  0.
        -11    1    3    3    0    0  0.14014532765E+02  0.28997308345E+02 -0.15501194542E+02  0.35742664315E+02  0.51100000000E-03 0. -1.
         23    2    1    0    0    0 -0.28226656220E+02  0.12893072951E+02  0.15256265993E+02  0.90420683877E+02  0.83547417490E+02 0.  0.
         11    1    3    3    0    0 -0.42241188985E+02 -0.16104235394E+02  0.30757460534E+02  0.54678019562E+02  0.51100000000E-03 0.  1.
         22    1    1    0    0    0  0.28226656220E+02 -0.12893072951E+02 -0.15256265993E+02  0.34579316123E+02  0.00000000000E+00 0.  1.
</event>
<event>
 5    1  0.1103865E-009  0.9118800E+02  0.7818608E-02  0.1130116E+00
         25   -1    0    0    0    0  0.00000000000E+00  0.00000000000E+00  0.99999998245E-14  0.12500000000E+03  0.12500000000E+03 0.  0.
        -11    1    3    3    0    0  0.10298322986E+02 -0.13320215263E+01  0.43750301314E+02  0.44965749221E+02  0.51100000000E-03 0.  1.
         23    2    1    0    0    0 -0.15116705543E+01  0.27758665780E+02  0.21042623287E+01  0.97120678027E+02  0.93033163478E+02 0.  0.
         11    1    3    3    0    0 -0.11809993541E+02  0.29090687306E+02 -0.41646038985E+02  0.52154928806E+02  0.51100000000E-03 0. -1.
         22    1    1    0    0    0  0.15116705543E+01 -0.27758665780E+02 -0.21042623287E+01  0.27879321973E+02  0.00000000000E+00 0. -1.
</event>
<event>
 5    1  0.1103865E-009  0.9118800E+02  0.7818608E-02  0.1130116E+00
         25   -1    0    0    0    0  0.00000000000E+00  0.00000000000E+00  0.99999998245E-14  0.12500000000E+03  0.12500000000E+03 0.  0.
        -11    1    3    3    0    0 -0.36537961433E+02  0.19099659479E+02 -0.38916621926E+01  0.41412131710E+02  0.51100000000E-03 0. -1.
         23    2    1    0    0    0 -0.52247510461E+01 -0.23250650295E+02 -0.17047469899E+02  0.95699710026E+02  0.91103937931E+02 0.  0.
         11    1    3    3    0    0  0.31313210387E+02 -0.42350309774E+02 -0.13155807706E+02  0.54287578315E+02  0.51100000000E-03 0.  1.
         22    1    1    0    0    0  0.52247510461E+01  0.23250650295E+02  0.17047469899E+02  0.29300289974E+02  0.00000000000E+00 0. -1.
</event>
<event>
 5    1  0.1103865E-009  0.9118800E+02  0.7818608E-02  0.1130116E+00
         25   -1    0    0    0    0  0.00000000000E+00  0.00000000000E+00  0.99999998245E-14  0.12500000000E+03  0.12500000000E+03 0.  0.
        -11    1    3    3    0    0  0.39722911234E+02 -0.34057025337E+02 -0.17117515193E+02  0.55052701826E+02  0.51100000000E-03 0. -1.
         23    2    1    0    0    0  0.26573277834E+02 -0.55000116131E+01  0.95024785509E+01  0.96247846668E+02  0.91852934995E+02 0.  0.
         11    1    3    3    0    0 -0.13149633400E+02  0.28557013724E+02  0.26619993744E+02  0.41195144842E+02  0.51100000000E-03 0.  1.
         22    1    1    0    0    0 -0.26573277834E+02  0.55000116131E+01 -0.95024785509E+01  0.28752153332E+02  0.00000000000E+00 0. -1.
</event>
<event>
 5    1  0.1103865E-009  0.9118800E+02  0.7818608E-02  0.1130116E+00
         25   -1    0    0    0    0  0.00000000000E+00  0.00000000000E+00  0.99999998245E-14  0.12500000000E+03  0.12500000000E+03 0.  0.
        -11    1    3    3    0    0  0.44180131280E+02 -0.35377125191E+02 -0.13144243436E+02  0.58105043864E+02  0.51100000000E-03 0. -1.
         23    2    1    0    0    0  0.11354206079E+02 -0.29417787860E+02 -0.11246768095E+02  0.91521439236E+02  0.85178399896E+02 0.  0.
         11    1    3    3    0    0 -0.32825925201E+02  0.59593373306E+01  0.18974753410E+01  0.33416395372E+02  0.51100000000E-03 0.  1.
         22    1    1    0    0    0 -0.11354206079E+02  0.29417787860E+02  0.11246768095E+02  0.33478560764E+02  0.00000000000E+00 0. -1.
</event>
<event>
 5    1  0.1103865E-009  0.9118800E+02  0.7818608E-02  0.1130116E+00
         25   -1    0    0    0    0  0.00000000000E+00  0.00000000000E+00  0.99999998245E-14  0.12500000000E+03  0.12500000000E+03 0.  0.
        -11    1    3    3    0    0 -0.12020720462E+02 -0.26941173260E+01 -0.22549113690E+02  0.25694717688E+02  0.51100000000E-03 0. -1.
         23    2    1    0    0    0  0.12119950578E+02  0.51061186657E+01  0.34471769463E+02  0.88104627122E+02  0.80007229552E+02 0.  0.
         11    1    3    3    0    0  0.24140671040E+02  0.78002359917E+01  0.57020883153E+02  0.62409909435E+02  0.51100000000E-03 0.  1.
         22    1    1    0    0    0 -0.12119950578E+02 -0.51061186657E+01 -0.34471769463E+02  0.36895372878E+02  0.00000000000E+00 0.  1.
</event>
<event>
 5    1  0.1103865E-009  0.9118800E+02  0.7818608E-02  0.1130116E+00
         25   -1    0    0    0    0  0.00000000000E+00  0.00000000000E+00  0.99999998245E-14  0.12500000000E+03  0.12500000000E+03 0.  0.
        -11    1    3    3    0    0 -0.47270594580E+02 -0.24516179116E+02 -0.92878493889E+01  0.54053827773E+02  0.51100000000E-03 0.  1.
         23    2    1    0    0    0 -0.11126222705E+02 -0.10948141179E+02 -0.24829338594E+02  0.95671674409E+02  0.91065463280E+02 0.  0.
         11    1    3    3    0    0  0.36144371875E+02  0.13568037937E+02 -0.15541489205E+02  0.41617846636E+02  0.51100000000E-03 0. -1.
         22    1    1    0    0    0  0.11126222705E+02  0.10948141179E+02  0.24829338594E+02  0.29328325591E+02  0.00000000000E+00 0.  1.
</event>
<event>
 5    1  0.1103865E-009  0.9118800E+02  0.7818608E-02  0.1130116E+00
         25   -1    0    0    0    0  0.00000000000E+00  0.00000000000E+00  0.99999998245E-14  0.12500000000E+03  0.12500000000E+03 0.  0.
        -11    1    3    3    0    0  0.21826076162E+02  0.51820710312E+02 -0.22052182116E+02  0.60399191668E+02  0.51100000000E-03 0. -1.
         23    2    1    0    0    0  0.10546307832E+02  0.28217605709E+02  0.40052682602E+00  0.94873295856E+02  0.89962903265E+02 0.  0.
         11    1    3    3    0    0 -0.11279768330E+02 -0.23603104602E+02  0.22452708942E+02  0.34474104187E+02  0.51100000000E-03 0.  1.
         22    1    1    0    0    0 -0.10546307832E+02 -0.28217605709E+02 -0.40052682602E+00  0.30126704144E+02  0.00000000000E+00 0. -1.
</event>
<event>
 5    1  0.1103865E-009  0.9118800E+02  0.7818608E-02  0.1130116E+00
         25   -1    0    0    0    0  0.00000000000E+00  0.00000000000E+00  0.99999998245E-14  0.12500000000E+03  0.12500000000E+03 0.  0.
        -11    1    3    3    0    0 -0.36710776191E+02  0.21406342150E+01  0.47494314927E+02  0.60066407867E+02  0.51100000000E-03 0. -1.
         23    2    1    0    0    0 -0.18496596635E+02  0.12830731650E+02  0.18948313071E+02  0.95575684716E+02  0.90933608632E+02 0.  0.
         11    1    3    3    0    0  0.18214179556E+02  0.10690097435E+02 -0.28546001856E+02  0.35509276849E+02  0.51100000000E-03 0.  1.
         22    1    1    0    0    0  0.18496596635E+02 -0.12830731650E+02 -0.18948313071E+02  0.29424315284E+02  0.00000000000E+00 0. -1.
</event>
<event>
 5    1  0.1103865E-009  0.9118800E+02  0.7818608E-02  0.1130116E+00
         25   -1    0    0    0    0  0.00000000000E+00  0.00000000000E+00  0.99999998245E-14  0.12500000000E+03  0.12500000000E+03 0.  0.
        -11    1    3    3    0    0  0.66051859786E+01  0.15953968172E+02 -0.56811937997E+02  0.59378058923E+02  0.51100000000E-03 0.  1.
         23    2    1    0    0    0 -0.10603898517E+02  0.10119344123E+02 -0.26316113312E+02  0.94877224413E+02  0.89968361679E+02 0.  0.
         11    1    3    3    0    0 -0.17209084496E+02 -0.58346240492E+01  0.30495824685E+02  0.35499165490E+02  0.51100000000E-03 0. -1.
         22    1    1    0    0    0  0.10603898517E+02 -0.10119344123E+02  0.26316113312E+02  0.30122775587E+02  0.00000000000E+00 0.  1.
</event>
<event>
 5    1  0.1103865E-009  0.9118800E+02  0.7818608E-02  0.1130116E+00
         25   -1    0    0    0    0  0.00000000000E+00  0.00000000000E+00  0.99999998245E-14  0.12500000000E+03  0.12500000000E+03 0.  0.
        -11    1    3    3    0    0  0.29419004222E+02 -0.24441607088E+02 -0.26708446084E+01  0.38340623073E+02  0.51100000000E-03 0. -1.
         23    2    1    0    0    0 -0.17550681647E+01  0.17686240207E+02  0.22374544200E+02  0.96425473144E+02  0.92094344484E+02 0.  0.
         11    1    3    3    0    0 -0.31174072387E+02  0.42127847295E+02  0.25045388808E+02  0.58084850070E+02  0.51100000000E-03 0.  1.
         22    1    1    0    0    0  0.17550681647E+01 -0.17686240207E+02 -0.22374544200E+02  0.28574526856E+02  0.00000000000E+00 0.  1.
</event>
<event>
 5    1  0.1103865E-009  0.9118800E+02  0.7818608E-02  0.1130116E+00
         25   -1    0    0    0    0  0.00000000000E+00  0.00000000000E+00  0.99999998245E-14  0.12500000000E+03  0.12500000000E+03 0.  0.
        -11    1    3    3    0    0  0.39312906709E+01 -0.47603386380E+02 -0.72144573545E+01  0.48307202738E+02  0.51100000000E-03 0. -1.
         23    2    1    0    0    0 -0.25448855061E+02 -0.16690439897E+02 -0.14016417813E+02  0.91493657672E+02  0.85137620462E+02 0.  0.
         11    1    3    3    0    0 -0.29380145732E+02  0.30912946482E+02 -0.68019604588E+01  0.43186454934E+02  0.51100000000E-03 0.  1.
         22    1    1    0    0    0  0.25448855061E+02  0.16690439897E+02  0.14016417813E+02  0.33506342328E+02  0.00000000000E+00 0. -1.
</event>
<event>
 5    1  0.1103865E-009  0.9118800E+02  0.7818608E-02  0.1130116E+00
         25   -1    0    0    0    0  0.00000000000E+00  0.00000000000E+00  0.99999998245E-14  0.12500000000E+03  0.12500000000E+03 0.  0.
        -11    1    3    3    0    0 -0.41415582825E+02  0.37095182685E+02  0.17430804504E+02  0.58267795780E+02  0.51100000000E-03 0.  1.
         23    2    1    0    0    0 -0.29209580972E+02  0.54265656795E+01  0.30285457665E+01  0.95136655829E+02  0.90328090632E+02 0.  0.
         11    1    3    3    0    0  0.12206001853E+02 -0.31668617005E+02 -0.14402258738E+02  0.36868860049E+02  0.51100000000E-03 0. -1.
         22    1    1    0    0    0  0.29209580972E+02 -0.54265656795E+01 -0.30285457665E+01  0.29863344171E+02  0.00000000000E+00 0.  1.
</event>
<event>
 5    1  0.1103865E-009  0.9118800E+02  0.7818608E-02  0.1130116E+00
         25   -1    0    0    0    0  0.00000000000E+00  0.00000000000E+00  0.99999998245E-14  0.12500000000E+03  0.12500000000E+03 0.  0.
        -11    1    3    3    0    0  0.50384754694E+02  0.32954388793E+02 -0.11393372494E+02  0.61273356227E+02  0.51100000000E-03 0.  1.
         23    2    1    0    0    0  0.17708522638E+02  0.21340923925E+02 -0.81101063692E+01  0.96107083336E+02  0.91661174082E+02 0.  0.
         11    1    3    3    0    0 -0.32676232056E+02 -0.11613464867E+02  0.32832661246E+01  0.34833727109E+02  0.51100000000E-03 0. -1.
         22    1    1    0    0    0 -0.17708522638E+02 -0.21340923925E+02  0.81101063692E+01  0.28892916664E+02  0.00000000000E+00 0.  1.
</event>
<event>
 5    1  0.1103865E-009  0.9118800E+02  0.7818608E-02  0.1130116E+00
         25   -1    0    0    0    0  0.00000000000E+00  0.00000000000E+00  0.99999998245E-14  0.12500000000E+03  0.12500000000E+03 0.  0.
        -11    1    3    3    0    0 -0.93108138014E+01 -0.45955214237E+02  0.14021028024E+02  0.48940394321E+02  0.51100000000E-03 0. -1.
         23    2    1    0    0    0 -0.98469484598E+01 -0.79292593953E+00  0.27259176738E+02  0.96005968856E+02  0.91523178562E+02 0.  0.
         11    1    3    3    0    0 -0.53613465831E+00  0.45162288298E+02  0.13238148714E+02  0.47065574535E+02  0.51100000000E-03 0.  1.
         22    1    1    0    0    0  0.98469484598E+01  0.79292593953E+00 -0.27259176738E+02  0.28994031144E+02  0.00000000000E+00 0.  1.
</event>
<event>
 5    1  0.1103865E-009  0.9118800E+02  0.7818608E-02  0.1130116E+00
         25   -1    0    0    0    0  0.00000000000E+00  0.00000000000E+00  0.99999998245E-14  0.12500000000E+03  0.12500000000E+03 0.  0.
        -11    1    3    3    0    0  0.28356392265E+02 -0.11992638227E+02  0.30839958519E+02  0.43577647890E+02  0.51100000000E-03 0.  1.
         23    2    1    0    0    0 -0.21055809123E+02  0.53038286350E+01  0.16111144467E+02  0.97962125230E+02  0.94156950394E+02 0.  0.
         11    1    3    3    0    0 -0.49412201388E+02  0.17296466862E+02 -0.14728814051E+02  0.54384477340E+02  0.51100000000E-03 0. -1.
         22    1    1    0    0    0  0.21055809123E+02 -0.53038286350E+01 -0.16111144467E+02  0.27037874770E+02  0.00000000000E+00 0. -1.
</event>
<event>
 5    1  0.1103865E-009  0.9118800E+02  0.7818608E-02  0.1130116E+00
         25   -1    0    0    0    0  0.00000000000E+00  0.00000000000E+00  0.99999998245E-14  0.12500000000E+03  0.12500000000E+03 0.  0.
        -11    1    3    3    0    0 -0.21825134011E+02  0.44690494880E+02 -0.24419937874E+02  0.55406770103E+02  0.51100000000E-03 0.  1.
         23    2    1    0    0    0 -0.29345086103E+02  0.12153043676E+02 -0.11268151387E+02  0.91298341514E+02  0.84850370527E+02 0.  0.
         11    1    3    3    0    0 -0.75199520923E+01 -0.32537451204E+02  0.13151786487E+02  0.35891571411E+02  0.51100000000E-03 0. -1.
         22    1    1    0    0    0  0.29345086103E+02 -0.12153043676E+02  0.11268151387E+02  0.33701658486E+02  0.00000000000E+00 0.  1.
</event>
<event>
 5    1  0.1103865E-009  0.9118800E+02  0.7818608E-02  0.1130116E+00
         25   -1    0    0    0    0  0.00000000000E+00  0.00000000000E+00  0.99999998245E-14  0.12500000000E+03  0.12500000000E+03 0.  0.
        -11    1    3    3    0    0 -0.11917708764E+01 -0.16719089597E+01  0.54504395285E+02  0.54543053664E+02  0.51100000000E-03 0. -1.
         23    2    1    0    0    0  0.18073451153E+02 -0.12129730618E+02  0.34429670899E+02  0.84266939230E+02  0.73768115115E+02 0.  0.
         11    1    3    3    0    0  0.19265222030E+02 -0.10457821658E+02 -0.20074724386E+02  0.29723885566E+02  0.51100000000E-03 0.  1.
         22    1    1    0    0    0 -0.18073451153E+02  0.12129730618E+02 -0.34429670899E+02  0.40733060770E+02  0.00000000000E+00 0. -1.
</event>
<event>
 5    1  0.1103865E-009  0.9118800E+02  0.7818608E-02  0.1130116E+00
         25   -1    0    0    0    0  0.00000000000E+00  0.00000000000E+00  0.99999998245E-14  0.12500000000E+03  0.12500000000E+03 0.  0.
        -11    1    3    3    0    0  0.27168728188E+02  0.18070195119E+02  0.53231074240E+02  0.62435719007E+02  0.51100000000E-03 0.  1.
         23    2    1    0    0    0  0.12639038088E+02  0.63248330666E+01  0.24779343930E+02  0.96473438996E+02  0.92159425719E+02 0.  0.
         11    1    3    3    0    0 -0.14529690100E+02 -0.11745362053E+02 -0.28451730309E+02  0.34037719988E+02  0.51100000000E-03 0. -1.
         22    1    1    0    0    0 -0.12639038088E+02 -0.63248330666E+01 -0.24779343930E+02  0.28526561004E+02  0.00000000000E+00 0.  1.
</event>
<event>
 5    1  0.1103865E-009  0.9118800E+02  0.7818608E-02  0.1130116E+00
         25   -1    0    0    0    0  0.00000000000E+00  0.00000000000E+00  0.99999998245E-14  0.12500000000E+03  0.12500000000E+03 0.  0.
        -11    1    3    3    0    0 -0.82991962214E+01  0.27716373679E+02  0.57466275375E+01  0.29497419483E+02  0.51100000000E-03 0.  1.
         23    2    1    0    0    0  0.30452243910E+02 -0.68225353108E+01  0.25155150132E+02  0.84916740086E+02  0.74861104863E+02 0.  0.
         11    1    3    3    0    0  0.38751440131E+02 -0.34538908990E+02  0.19408522594E+02  0.55419320602E+02  0.51100000000E-03 0. -1.
         22    1    1    0    0    0 -0.30452243910E+02  0.68225353108E+01 -0.25155150132E+02  0.40083259914E+02  0.00000000000E+00 0. -1.
</event>
<event>
 5    1  0.1103865E-009  0.9118800E+02  0.7818608E-02  0.1130116E+00
         25   -1    0    0    0    0  0.00000000000E+00  0.00000000000E+00  0.99999998245E-14  0.12500000000E+03  0.12500000000E+03 0.  0.
        -11    1    3    3    0    0 -0.66901407690E+01  0.41818632687E+02 -0.73656375325E+01  0.42986144743E+02  0.51100000000E-03 0. -1.
         23    2    1    0    0    0  0.26603330336E+02  0.29986575336E+01 -0.14387010786E+02  0.94607316483E+02  0.89592572911E+02 0.  0.
         11    1    3    3    0    0  0.33293471105E+02 -0.38819975154E+02 -0.70213732540E+01  0.51621171740E+02  0.51100000000E-03 0.  1.
         22    1    1    0    0    0 -0.26603330336E+02 -0.29986575336E+01  0.14387010786E+02  0.30392683517E+02  0.00000000000E+00 0.  1.
</event>
<event>
 5    1  0.1103865E-009  0.9118800E+02  0.7818608E-02  0.1130116E+00
         25   -1    0    0    0    0  0.00000000000E+00  0.00000000000E+00  0.99999998245E-14  0.12500000000E+03  0.12500000000E+03 0.  0.
        -11    1    3    3    0    0  0.44418945700E+01  0.42063358287E+02 -0.20344389864E+01  0.42346138903E+02  0.51100000000E-03 0. -1.
         23    2    1    0    0    0  0.15800494253E+02 -0.61713323132E+01 -0.23224209987E+02  0.96240568665E+02  0.91843030037E+02 0.  0.
         11    1    3    3    0    0  0.11358599683E+02 -0.48234690600E+02 -0.21189771001E+02  0.53894429762E+02  0.51100000000E-03 0.  1.
         22    1    1    0    0    0 -0.15800494253E+02  0.61713323132E+01  0.23224209987E+02  0.28759431335E+02  0.00000000000E+00 0.  1.
</event>
<event>
 5    1  0.1103865E-009  0.9118800E+02  0.7818608E-02  0.1130116E+00
         25   -1    0    0    0    0  0.00000000000E+00  0.00000000000E+00  0.99999998245E-14  0.12500000000E+03  0.12500000000E+03 0.  0.
        -11    1    3    3    0    0  0.10393656001E+02 -0.22518373281E+02  0.53988281870E+02  0.59412454922E+02  0.51100000000E-03 0. -1.
         23    2    1    0    0    0 -0.83041296688E+01 -0.41850855623E+01  0.24203251615E+02  0.99071812646E+02  0.95618790839E+02 0.  0.
         11    1    3    3    0    0 -0.18697785670E+02  0.18333287718E+02 -0.29785030256E+02  0.39659357724E+02  0.51100000000E-03 0.  1.
         22    1    1    0    0    0  0.83041296688E+01  0.41850855623E+01 -0.24203251615E+02  0.25928187354E+02  0.00000000000E+00 0. -1.
</event>
<event>
 5    1  0.1103865E-009  0.9118800E+02  0.7818608E-02  0.1130116E+00
         25   -1    0    0    0    0  0.00000000000E+00  0.00000000000E+00  0.99999998245E-14  0.12500000000E+03  0.12500000000E+03 0.  0.
        -11    1    3    3    0    0  0.28073307049E+02  0.66182884864E+01 -0.21261044023E+02  0.35832168569E+02  0.51100000000E-03 0. -1.
         23    2    1    0    0    0 -0.28620111096E+02 -0.33342400213E+01 -0.10119872374E+02  0.94460849184E+02  0.89387987426E+02 0.  0.
         11    1    3    3    0    0 -0.56693418145E+02 -0.99525285076E+01  0.11141171649E+02  0.58628680615E+02  0.51100000000E-03 0.  1.
         22    1    1    0    0    0  0.28620111096E+02  0.33342400213E+01  0.10119872374E+02  0.30539150816E+02  0.00000000000E+00 0.  1.
</event>
<event>
 5    1  0.1103865E-009  0.9118800E+02  0.7818608E-02  0.1130116E+00
         25   -1    0    0    0    0  0.00000000000E+00  0.00000000000E+00  0.99999998245E-14  0.12500000000E+03  0.12500000000E+03 0.  0.
        -11    1    3    3    0    0 -0.10755680344E+02  0.51882863615E+02  0.11934351817E+02  0.54313395678E+02  0.51100000000E-03 0.  1.
         23    2    1    0    0    0 -0.58880497400E+01  0.15766674805E+02  0.26539508865E+02  0.93573853323E+02  0.88138886598E+02 0.  0.
         11    1    3    3    0    0  0.48676306040E+01 -0.36116188809E+02  0.14605157048E+02  0.39260457645E+02  0.51100000000E-03 0. -1.
         22    1    1    0    0    0  0.58880497400E+01 -0.15766674805E+02 -0.26539508865E+02  0.31426146677E+02  0.00000000000E+00 0.  1.
</event>
<event>
 5    1  0.1103865E-009  0.9118800E+02  0.7818608E-02  0.1130116E+00
         25   -1    0    0    0    0  0.00000000000E+00  0.00000000000E+00  0.99999998245E-14  0.12500000000E+03  0.12500000000E+03 0.  0.
        -11    1    3    3    0    0  0.56626386691E+02 -0.45743748535E+01  0.12105044678E+02  0.58086183227E+02  0.51100000000E-03 0. -1.
         23    2    1    0    0    0  0.25875791926E+02  0.45344587641E+01 -0.98406459653E+01  0.96947259722E+02  0.92799864928E+02 0.  0.
         11    1    3    3    0    0 -0.30750594765E+02  0.91088336176E+01 -0.21945690643E+02  0.38861076495E+02  0.51100000000E-03 0.  1.
         22    1    1    0    0    0 -0.25875791926E+02 -0.45344587641E+01  0.98406459653E+01  0.28052740278E+02  0.00000000000E+00 0. -1.
</event>
<event>
 5    1  0.1103865E-009  0.9118800E+02  0.7818608E-02  0.1130116E+00
         25   -1    0    0    0    0  0.00000000000E+00  0.00000000000E+00  0.99999998245E-14  0.12500000000E+03  0.12500000000E+03 0.  0.
        -11    1    3    3    0    0 -0.95502197158E+01  0.30136221820E+01  0.35610187988E+02  0.36991540980E+02  0.51100000000E-03 0.  1.
         23    2    1    0    0    0 -0.12972907426E+02  0.91579623303E+01 -0.23565371049E+02  0.96583608361E+02  0.92308732470E+02 0.  0.
         11    1    3    3    0    0 -0.34226877106E+01  0.61443401482E+01 -0.59175559037E+02  0.59592067380E+02  0.51100000000E-03 0. -1.
         22    1    1    0    0    0  0.12972907426E+02 -0.91579623303E+01  0.23565371049E+02  0.28416391639E+02  0.00000000000E+00 0. -1.
</event>
<event>
 5    1  0.1103865E-009  0.9118800E+02  0.7818608E-02  0.1130116E+00
         25   -1    0    0    0    0  0.00000000000E+00  0.00000000000E+00  0.99999998245E-14  0.12500000000E+03  0.12500000000E+03 0.  0.
        -11    1    3    3    0    0 -0.15591346383E+02 -0.24266779342E+02  0.23617899910E+02  0.37279644018E+02  0.51100000000E-03 0.  1.
         23    2    1    0    0    0 -0.12546831240E+02  0.17468948340E+02 -0.18484212855E+02  0.96640640784E+02  0.92385930725E+02 0.  0.
         11    1    3    3    0    0  0.30445151432E+01  0.41735727681E+02 -0.42102112765E+02  0.59360996766E+02  0.51100000000E-03 0. -1.
         22    1    1    0    0    0  0.12546831240E+02 -0.17468948340E+02  0.18484212855E+02  0.28359359216E+02  0.00000000000E+00 0. -1.
</event>
<event>
 5    1  0.1103865E-009  0.9118800E+02  0.7818608E-02  0.1130116E+00
         25   -1    0    0    0    0  0.00000000000E+00  0.00000000000E+00  0.99999998245E-14  0.12500000000E+03  0.12500000000E+03 0.  0.
        -11    1    3    3    0    0  0.54222690051E+02  0.22942388291E+02 -0.32740324417E+01  0.58967555363E+02  0.51100000000E-03 0. -1.
         23    2    1    0    0    0  0.24397406526E+02  0.10843060489E+02  0.13302127156E+02  0.95171289119E+02  0.90376005000E+02 0.  0.
         11    1    3    3    0    0 -0.29825283525E+02 -0.12099327802E+02  0.16576159597E+02  0.36203733756E+02  0.51100000000E-03 0.  1.
         22    1    1    0    0    0 -0.24397406526E+02 -0.10843060489E+02 -0.13302127156E+02  0.29828710881E+02  0.00000000000E+00 0. -1.
</event>
<event>
 5    1  0.1103865E-009  0.9118800E+02  0.7818608E-02  0.1130116E+00
         25   -1    0    0    0    0  0.00000000000E+00  0.00000000000E+00  0.99999998245E-14  0.12500000000E+03  0.12500000000E+03 0.  0.
        -11    1    3    3    0    0  0.24424149534E+01 -0.45440393490E+02  0.18287346790E+02  0.49043060714E+02  0.51100000000E-03 0. -1.
         23    2    1    0    0    0 -0.15264999538E+02  0.70000855911E+01  0.11129460934E+02  0.10485337969E+03  0.10289968378E+03 0.  0.
         11    1    3    3    0    0 -0.17707414492E+02  0.52440479081E+02 -0.71578858565E+01  0.55810318978E+02  0.51100000000E-03 0.  1.
         22    1    1    0    0    0  0.15264999538E+02 -0.70000855911E+01 -0.11129460934E+02  0.20146620309E+02  0.00000000000E+00 0.  1.
</event>
<event>
 5    1  0.1103865E-009  0.9118800E+02  0.7818608E-02  0.1130116E+00
         25   -1    0    0    0    0  0.00000000000E+00  0.00000000000E+00  0.99999998245E-14  0.12500000000E+03  0.12500000000E+03 0.  0.
        -11    1    3    3    0    0 -0.43320361060E+02  0.29386130803E+01 -0.15745646340E+02  0.46186735197E+02  0.51100000000E-03 0.  1.
         23    2    1    0    0    0 -0.39385813515E+01 -0.27178238417E+02 -0.82321662615E+01  0.96330545386E+02  0.91965408424E+02 0.  0.
         11    1    3    3    0    0  0.39381779709E+02 -0.30116851497E+02  0.75134800783E+01  0.50143810189E+02  0.51100000000E-03 0. -1.
         22    1    1    0    0    0  0.39385813515E+01  0.27178238417E+02  0.82321662615E+01  0.28669454614E+02  0.00000000000E+00 0.  1.
</event>
<event>
 5    1  0.1103865E-009  0.9118800E+02  0.7818608E-02  0.1130116E+00
         25   -1    0    0    0    0  0.00000000000E+00  0.00000000000E+00  0.99999998245E-14  0.12500000000E+03  0.12500000000E+03 0.  0.
        -11    1    3    3    0    0  0.53185103780E+01  0.89313744725E+01  0.35875218617E+02  0.37350867643E+02  0.51100000000E-03 0. -1.
         23    2    1    0    0    0 -0.12592545874E+02 -0.29647069461E+02  0.31226706689E+02  0.80137675608E+02  0.66403455497E+02 0.  0.
         11    1    3    3    0    0 -0.17911056252E+02 -0.38578443933E+02 -0.46485119283E+01  0.42786807965E+02  0.51100000000E-03 0.  1.
         22    1    1    0    0    0  0.12592545874E+02  0.29647069461E+02 -0.31226706689E+02  0.44862324392E+02  0.00000000000E+00 0.  1.
</event>
<event>
 5    1  0.1103865E-009  0.9118800E+02  0.7818608E-02  0.1130116E+00
         25   -1    0    0    0    0  0.00000000000E+00  0.00000000000E+00  0.99999998245E-14  0.12500000000E+03  0.12500000000E+03 0.  0.
        -11    1    3    3    0    0  0.41017240931E+02 -0.16956960987E+01 -0.27741085178E+02  0.49546515982E+02  0.51100000000E-03 0. -1.
         23    2    1    0    0    0  0.79036677625E+01  0.24626435449E+02 -0.20107016136E+01  0.99058292115E+02  0.95601114161E+02 0.  0.
         11    1    3    3    0    0 -0.33113573169E+02  0.26322131548E+02  0.25730383564E+02  0.49511776133E+02  0.51100000000E-03 0.  1.
         22    1    1    0    0    0 -0.79036677625E+01 -0.24626435449E+02  0.20107016136E+01  0.25941707885E+02  0.00000000000E+00 0. -1.
</event>
<event>
 5    1  0.1103865E-009  0.9118800E+02  0.7818608E-02  0.1130116E+00
         25   -1    0    0    0    0  0.00000000000E+00  0.00000000000E+00  0.99999998245E-14  0.12500000000E+03  0.12500000000E+03 0.  0.
        -11    1    3    3    0    0  0.85962681729E+01 -0.28100574796E+02 -0.19185945021E+02  0.35094709245E+02  0.51100000000E-03 0.  1.
         23    2    1    0    0    0  0.10084783564E+02  0.11318347408E+02  0.25892771304E+02  0.94995942718E+02  0.90133155273E+02 0.  0.
         11    1    3    3    0    0  0.14885153914E+01  0.39418922204E+02  0.45078716325E+02  0.59901233473E+02  0.51100000000E-03 0. -1.
         22    1    1    0    0    0 -0.10084783564E+02 -0.11318347408E+02 -0.25892771304E+02  0.30004057282E+02  0.00000000000E+00 0. -1.
</event>
<event>
 5    1  0.1103865E-009  0.9118800E+02  0.7818608E-02  0.1130116E+00
         25   -1    0    0    0    0  0.00000000000E+00  0.00000000000E+00  0.99999998245E-14  0.12500000000E+03  0.12500000000E+03 0.  0.
        -11    1    3    3    0    0 -0.37677390100E+02  0.39237381028E+02  0.25046156505E+01  0.54455770076E+02  0.51100000000E-03 0.  1.
         23    2    1    0    0    0 -0.71766513536E+01  0.16147137641E+02  0.21502539064E+02  0.97168478934E+02  0.93097366953E+02 0.  0.
         11    1    3    3    0    0  0.30500738746E+02 -0.23090243387E+02  0.18997923413E+02  0.42712708859E+02  0.51100000000E-03 0. -1.
         22    1    1    0    0    0  0.71766513536E+01 -0.16147137641E+02 -0.21502539064E+02  0.27831521066E+02  0.00000000000E+00 0.  1.
</event>
<event>
 5    1  0.1103865E-009  0.9118800E+02  0.7818608E-02  0.1130116E+00
         25   -1    0    0    0    0  0.00000000000E+00  0.00000000000E+00  0.99999998245E-14  0.12500000000E+03  0.12500000000E+03 0.  0.
        -11    1    3    3    0    0  0.34069855914E+02 -0.19859205825E+01  0.48142376539E+01  0.34465574810E+02  0.51100000000E-03 0.  1.
         23    2    1    0    0    0 -0.23178944638E+02 -0.81538398425E+01 -0.15984548411E+02  0.95686959103E+02  0.91086441228E+02 0.  0.
         11    1    3    3    0    0 -0.57248800552E+02 -0.61679192600E+01 -0.20798786065E+02  0.61221384293E+02  0.51100000000E-03 0. -1.
         22    1    1    0    0    0  0.23178944638E+02  0.81538398425E+01  0.15984548411E+02  0.29313040897E+02  0.00000000000E+00 0. -1.
</event>
<event>
 5    1  0.1103865E-009  0.9118800E+02  0.7818608E-02  0.1130116E+00
         25   -1    0    0    0    0  0.00000000000E+00  0.00000000000E+00  0.99999998245E-14  0.12500000000E+03  0.12500000000E+03 0.  0.
        -11    1    3    3    0    0 -0.16007588923E+02 -0.43775996910E+02 -0.28008906619E+02  0.54379036943E+02  0.51100000000E-03 0.  1.
         23    2    1    0    0    0  0.74261392303E+01 -0.28948022342E+02  0.17596290201E+01  0.95062868613E+02  0.90225922845E+02 0.  0.
         11    1    3    3    0    0  0.23433728153E+02  0.14827974568E+02  0.29768535640E+02  0.40683831670E+02  0.51100000000E-03 0. -1.
         22    1    1    0    0    0 -0.74261392303E+01  0.28948022342E+02 -0.17596290201E+01  0.29937131387E+02  0.00000000000E+00 0.  1.
</event>
<event>
 5    1  0.1103865E-009  0.9118800E+02  0.7818608E-02  0.1130116E+00
         25   -1    0    0    0    0  0.00000000000E+00  0.00000000000E+00  0.99999998245E-14  0.12500000000E+03  0.12500000000E+03 0.  0.
        -11    1    3    3    0    0  0.26591531744E+02  0.16236509720E+02 -0.81556369427E+01  0.32206338237E+02  0.51100000000E-03 0.  1.
         23    2    1    0    0    0 -0.17827928654E+02 -0.20572388139E+02  0.14467027539E+02  0.94172202809E+02  0.88983429369E+02 0.  0.
         11    1    3    3    0    0 -0.44419460399E+02 -0.36808897859E+02  0.22622664481E+02  0.61965864572E+02  0.51100000000E-03 0. -1.
         22    1    1    0    0    0  0.17827928654E+02  0.20572388139E+02 -0.14467027539E+02  0.30827797191E+02  0.00000000000E+00 0. -1.
</event>
<event>
 5    1  0.1103865E-009  0.9118800E+02  0.7818608E-02  0.1130116E+00
         25   -1    0    0    0    0  0.00000000000E+00  0.00000000000E+00  0.99999998245E-14  0.12500000000E+03  0.12500000000E+03 0.  0.
        -11    1    3    3    0    0 -0.36225205287E+02 -0.72931786212E+01  0.15065154967E+02  0.39905072948E+02  0.51100000000E-03 0.  1.
         23    2    1    0    0    0  0.86582426607E+01 -0.23372538796E+02 -0.14654638727E+02  0.96086349729E+02  0.91632894925E+02 0.  0.
         11    1    3    3    0    0  0.44883447948E+02 -0.16079360175E+02 -0.29719793694E+02  0.56181276782E+02  0.51100000000E-03 0. -1.
         22    1    1    0    0    0 -0.86582426607E+01  0.23372538796E+02  0.14654638727E+02  0.28913650271E+02  0.00000000000E+00 0. -1.
</event>
<event>
 5    1  0.1103865E-009  0.9118800E+02  0.7818608E-02  0.1130116E+00
         25   -1    0    0    0    0  0.00000000000E+00  0.00000000000E+00  0.99999998245E-14  0.12500000000E+03  0.12500000000E+03 0.  0.
        -11    1    3    3    0    0 -0.36688074958E+02  0.15038049562E+02 -0.47911413231E+02  0.62190524172E+02  0.51100000000E-03 0.  1.
         23    2    1    0    0    0 -0.14950315176E+02  0.37605039415E+01 -0.24393575131E+02  0.96143461375E+02  0.91710770053E+02 0.  0.
         11    1    3    3    0    0  0.21737759782E+02 -0.11277545620E+02  0.23517838100E+02  0.33952937203E+02  0.51100000000E-03 0. -1.
         22    1    1    0    0    0  0.14950315176E+02 -0.37605039415E+01  0.24393575131E+02  0.28856538625E+02  0.00000000000E+00 0.  1.
</event>
<event>
 5    1  0.1103865E-009  0.9118800E+02  0.7818608E-02  0.1130116E+00
         25   -1    0    0    0    0  0.00000000000E+00  0.00000000000E+00  0.99999998245E-14  0.12500000000E+03  0.12500000000E+03 0.  0.
        -11    1    3    3    0    0 -0.61665656547E+01 -0.47278714464E+02  0.14549080420E+02  0.49849564839E+02  0.51100000000E-03 0.  1.
         23    2    1    0    0    0 -0.27953325906E+02 -0.97960925845E+01  0.66687073921E+00  0.95372368038E+02  0.90653692751E+02 0.  0.
         11    1    3    3    0    0 -0.21786760251E+02  0.37482621879E+02 -0.13882209681E+02  0.45522803199E+02  0.51100000000E-03 0. -1.
         22    1    1    0    0    0  0.27953325906E+02  0.97960925845E+01 -0.66687073921E+00  0.29627631962E+02  0.00000000000E+00 0.  1.
</event>
<event>
 5    1  0.1103865E-009  0.9118800E+02  0.7818608E-02  0.1130116E+00
         25   -1    0    0    0    0  0.00000000000E+00  0.00000000000E+00  0.99999998245E-14  0.12500000000E+03  0.12500000000E+03 0.  0.
        -11    1    3    3    0    0  0.18713714022E+02 -0.37922367455E+02 -0.11053446441E+02  0.43709126329E+02  0.51100000000E-03 0.  1.
         23    2    1    0    0    0 -0.25993575909E+02 -0.13726378392E+02 -0.74716646209E+01  0.94670060592E+02  0.89680071075E+02 0.  0.
         11    1    3    3    0    0 -0.44707289931E+02  0.24195989063E+02  0.35817818196E+01  0.50960934263E+02  0.51100000000E-03 0. -1.
         22    1    1    0    0    0  0.25993575909E+02  0.13726378392E+02  0.74716646209E+01  0.30329939408E+02  0.00000000000E+00 0. -1.
</event>
<event>
 5    1  0.1103865E-009  0.9118800E+02  0.7818608E-02  0.1130116E+00
         25   -1    0    0    0    0  0.00000000000E+00  0.00000000000E+00  0.99999998245E-14  0.12500000000E+03  0.12500000000E+03 0.  0.
        -11    1    3    3    0    0  0.27010682788E+02 -0.31617020871E+02  0.37306369469E+02  0.55865715754E+02  0.51100000000E-03 0. -1.
         23    2    1    0    0    0  0.77783392593E+00 -0.47788646281E+01  0.30636687051E+02  0.93983082580E+02  0.88717363831E+02 0.  0.
         11    1    3    3    0    0 -0.26232848862E+02  0.26838156243E+02 -0.66696824180E+01  0.38117366826E+02  0.51100000000E-03 0.  1.
         22    1    1    0    0    0 -0.77783392593E+00  0.47788646281E+01 -0.30636687051E+02  0.31016917420E+02  0.00000000000E+00 0. -1.
</event>
<event>
 5    1  0.1103865E-009  0.9118800E+02  0.7818608E-02  0.1130116E+00
         25   -1    0    0    0    0  0.00000000000E+00  0.00000000000E+00  0.99999998245E-14  0.12500000000E+03  0.12500000000E+03 0.  0.
        -11    1    3    3    0    0  0.11233225699E+02 -0.38239306502E+02  0.86988025829E+01  0.40793370638E+02  0.51100000000E-03 0. -1.
         23    2    1    0    0    0 -0.24942473121E+02  0.30025968125E+01  0.14556717110E+02  0.95964839143E+02  0.91466987409E+02 0.  0.
         11    1    3    3    0    0 -0.36175698819E+02  0.41241903315E+02  0.58579145274E+01  0.55171468505E+02  0.51100000000E-03 0.  1.
         22    1    1    0    0    0  0.24942473121E+02 -0.30025968125E+01 -0.14556717110E+02  0.29035160857E+02  0.00000000000E+00 0.  1.
</event>
<event>
 5    1  0.1103865E-009  0.9118800E+02  0.7818608E-02  0.1130116E+00
         25   -1    0    0    0    0  0.00000000000E+00  0.00000000000E+00  0.99999998245E-14  0.12500000000E+03  0.12500000000E+03 0.  0.
        -11    1    3    3    0    0 -0.42491077613E+02  0.33881220480E+02  0.63995269583E+01  0.54720953240E+02  0.51100000000E-03 0.  1.
         23    2    1    0    0    0 -0.21208278645E+02  0.15904155519E+01  0.20087450584E+02  0.95745493070E+02  0.91166733338E+02 0.  0.
         11    1    3    3    0    0  0.21282798968E+02 -0.32290804928E+02  0.13687923626E+02  0.41024539830E+02  0.51100000000E-03 0. -1.
         22    1    1    0    0    0  0.21208278645E+02 -0.15904155519E+01 -0.20087450584E+02  0.29254506930E+02  0.00000000000E+00 0.  1.
</event>
<event>
 5    1  0.1103865E-009  0.9118800E+02  0.7818608E-02  0.1130116E+00
         25   -1    0    0    0    0  0.00000000000E+00  0.00000000000E+00  0.99999998245E-14  0.12500000000E+03  0.12500000000E+03 0.  0.
        -11    1    3    3    0    0 -0.11596778032E+02  0.50639882365E+02  0.32151475117E+02  0.61095010427E+02  0.51100000000E-03 0. -1.
         23    2    1    0    0    0 -0.11968069391E+02  0.22548787345E+02  0.77086149038E+01  0.98333443428E+02  0.94648617830E+02 0.  0.
         11    1    3    3    0    0 -0.37129135831E+00 -0.28091095020E+02 -0.24442860213E+02  0.37238433001E+02  0.51100000000E-03 0.  1.
         22    1    1    0    0    0  0.11968069391E+02 -0.22548787345E+02 -0.77086149038E+01  0.26666556572E+02  0.00000000000E+00 0. -1.
</event>
<event>
 5    1  0.1103865E-009  0.9118800E+02  0.7818608E-02  0.1130116E+00
         25   -1    0    0    0    0  0.00000000000E+00  0.00000000000E+00  0.99999998245E-14  0.12500000000E+03  0.12500000000E+03 0.  0.
        -11    1    3    3    0    0 -0.13899429351E+00 -0.41965991351E+02 -0.19695170489E+01  0.42012411823E+02  0.51100000000E-03 0. -1.
         23    2    1    0    0    0 -0.21971113409E+02  0.54698507701E+01 -0.17379066669E+02  0.96457381862E+02  0.92137644128E+02 0.  0.
         11    1    3    3    0    0 -0.21832119115E+02  0.47435842121E+02 -0.15409549620E+02  0.54444970039E+02  0.51100000000E-03 0.  1.
         22    1    1    0    0    0  0.21971113409E+02 -0.54698507701E+01  0.17379066669E+02  0.28542618138E+02  0.00000000000E+00 0.  1.
</event>
<event>
 5    1  0.1103865E-009  0.9118800E+02  0.7818608E-02  0.1130116E+00
         25   -1    0    0    0    0  0.00000000000E+00  0.00000000000E+00  0.99999998245E-14  0.12500000000E+03  0.12500000000E+03 0.  0.
        -11    1    3    3    0    0  0.27294173607E+01  0.19135420184E+02 -0.24331914027E+02  0.31075007084E+02  0.51100000000E-03 0. -1.
         23    2    1    0    0    0 -0.85941266426E+01 -0.11840249491E+02  0.28274304606E+02  0.93164692216E+02  0.87556684804E+02 0.  0.
         11    1    3    3    0    0 -0.11323544003E+02 -0.30975669675E+02  0.52606218634E+02  0.62089685132E+02  0.51100000000E-03 0.  1.
         22    1    1    0    0    0  0.85941266426E+01  0.11840249491E+02 -0.28274304606E+02  0.31835307784E+02  0.00000000000E+00 0.  1.
</event>
<event>
 5    1  0.1103865E-009  0.9118800E+02  0.7818608E-02  0.1130116E+00
         25   -1    0    0    0    0  0.00000000000E+00  0.00000000000E+00  0.99999998245E-14  0.12500000000E+03  0.12500000000E+03 0.  0.
        -11    1    3    3    0    0  0.82928803945E+01  0.17012562303E+02 -0.18202298724E+02  0.26258766545E+02  0.51100000000E-03 0. -1.
         23    2    1    0    0    0 -0.37863325639E+02 -0.89286139765E+01 -0.23631505846E+02  0.79482974124E+02  0.65159370247E+02 0.  0.
         11    1    3    3    0    0 -0.46156206034E+02 -0.25941176279E+02 -0.54292071221E+01  0.53224207579E+02  0.51100000000E-03 0.  1.
         22    1    1    0    0    0  0.37863325639E+02  0.89286139765E+01  0.23631505846E+02  0.45517025876E+02  0.00000000000E+00 0.  1.
</event>
<event>
 5    1  0.1103865E-009  0.9118800E+02  0.7818608E-02  0.1130116E+00
         25   -1    0    0    0    0  0.00000000000E+00  0.00000000000E+00  0.99999998245E-14  0.12500000000E+03  0.12500000000E+03 0.  0.
        -11    1    3    3    0    0 -0.20216401334E+02 -0.55024589574E+02  0.18844122030E+02  0.61575232651E+02  0.51100000000E-03 0.  1.
         23    2    1    0    0    0 -0.16047021612E+02 -0.23393158347E+02  0.57926112305E+01  0.96046570066E+02  0.91578613860E+02 0.  0.
         11    1    3    3    0    0  0.41693797219E+01  0.31631431227E+02 -0.13051510800E+02  0.34471337415E+02  0.51100000000E-03 0. -1.
         22    1    1    0    0    0  0.16047021612E+02  0.23393158347E+02 -0.57926112305E+01  0.28953429934E+02  0.00000000000E+00 0.  1.
</event>
<event>
 5    1  0.1103865E-009  0.9118800E+02  0.7818608E-02  0.1130116E+00
         25   -1    0    0    0    0  0.00000000000E+00  0.00000000000E+00  0.99999998245E-14  0.12500000000E+03  0.12500000000E+03 0.  0.
        -11    1    3    3    0    0  0.30290333848E+02  0.60245834938E+01 -0.21406418883E+01  0.30957749900E+02  0.51100000000E-03 0.  1.
         23    2    1    0    0    0  0.73041811465E+00 -0.35834358771E+02 -0.18388935437E+02  0.84716160490E+02  0.74525432723E+02 0.  0.
         11    1    3    3    0    0 -0.29559915733E+02 -0.41858942265E+02 -0.16248293548E+02  0.53758410590E+02  0.51100000000E-03 0. -1.
         22    1    1    0    0    0 -0.73041811465E+00  0.35834358771E+02  0.18388935437E+02  0.40283839510E+02  0.00000000000E+00 0. -1.
</event>
<event>
 5    1  0.1103865E-009  0.9118800E+02  0.7818608E-02  0.1130116E+00
         25   -1    0    0    0    0  0.00000000000E+00  0.00000000000E+00  0.99999998245E-14  0.12500000000E+03  0.12500000000E+03 0.  0.
        -11    1    3    3    0    0  0.27687618626E+02  0.46647799275E+02 -0.28887905179E+02  0.61458379968E+02  0.51100000000E-03 0.  1.
         23    2    1    0    0    0  0.19686040576E+02  0.17545380021E+02 -0.12238647497E+02  0.95928277550E+02  0.91417008196E+02 0.  0.
         11    1    3    3    0    0 -0.80015780498E+01 -0.29102419254E+02  0.16649257682E+02  0.34469897583E+02  0.51100000000E-03 0. -1.
         22    1    1    0    0    0 -0.19686040576E+02 -0.17545380021E+02  0.12238647497E+02  0.29071722450E+02  0.00000000000E+00 0.  1.
</event>
<event>
 5    1  0.1103865E-009  0.9118800E+02  0.7818608E-02  0.1130116E+00
         25   -1    0    0    0    0  0.00000000000E+00  0.00000000000E+00  0.99999998245E-14  0.12500000000E+03  0.12500000000E+03 0.  0.
        -11    1    3    3    0    0  0.38781257478E+01  0.25408263674E+02 -0.21004190209E+02  0.33193308495E+02  0.51100000000E-03 0.  1.
         23    2    1    0    0    0 -0.31948797169E+01 -0.18970776703E+02  0.22263518111E+02  0.95576168438E+02  0.90934273569E+02 0.  0.
         11    1    3    3    0    0 -0.70730054648E+01 -0.44379040378E+02  0.43267708320E+02  0.62382859943E+02  0.51100000000E-03 0. -1.
         22    1    1    0    0    0  0.31948797169E+01  0.18970776703E+02 -0.22263518111E+02  0.29423831562E+02  0.00000000000E+00 0. -1.
</event>
<event>
 5    1  0.1103865E-009  0.9118800E+02  0.7818608E-02  0.1130116E+00
         25   -1    0    0    0    0  0.00000000000E+00  0.00000000000E+00  0.99999998245E-14  0.12500000000E+03  0.12500000000E+03 0.  0.
        -11    1    3    3    0    0 -0.32676921359E+02 -0.16970559203E+02  0.56735342934E+01  0.37255470213E+02  0.51100000000E-03 0.  1.
         23    2    1    0    0    0  0.22539306264E+02 -0.92368958657E+01  0.18434248015E+02  0.94452298417E+02  0.89376029248E+02 0.  0.
         11    1    3    3    0    0  0.55216227623E+02  0.77336633377E+01  0.12760713722E+02  0.57196828204E+02  0.51100000000E-03 0. -1.
         22    1    1    0    0    0 -0.22539306264E+02  0.92368958657E+01 -0.18434248015E+02  0.30547701583E+02  0.00000000000E+00 0. -1.
</event>
<event>
 5    1  0.1103865E-009  0.9118800E+02  0.7818608E-02  0.1130116E+00
         25   -1    0    0    0    0  0.00000000000E+00  0.00000000000E+00  0.99999998245E-14  0.12500000000E+03  0.12500000000E+03 0.  0.
        -11    1    3    3    0    0  0.27792961538E+01  0.48004317217E+02  0.37430676287E+02  0.60935986790E+02  0.51100000000E-03 0.  1.
         23    2    1    0    0    0 -0.38624629071E+01  0.16715683886E+02  0.23694637229E+02  0.95746478145E+02  0.91168083978E+02 0.  0.
         11    1    3    3    0    0 -0.66417590609E+01 -0.31288633330E+02 -0.13736039058E+02  0.34810491355E+02  0.51100000000E-03 0. -1.
         22    1    1    0    0    0  0.38624629071E+01 -0.16715683886E+02 -0.23694637229E+02  0.29253521855E+02  0.00000000000E+00 0.  1.
</event>
<event>
 5    1  0.1103865E-009  0.9118800E+02  0.7818608E-02  0.1130116E+00
         25   -1    0    0    0    0  0.00000000000E+00  0.00000000000E+00  0.99999998245E-14  0.12500000000E+03  0.12500000000E+03 0.  0.
        -11    1    3    3    0    0  0.35837755023E+02 -0.35202779577E+02 -0.33532540906E+02  0.60398772131E+02  0.51100000000E-03 0. -1.
         23    2    1    0    0    0  0.16455146396E+02 -0.22869097888E+02 -0.61133829321E+01  0.96170485054E+02  0.91747595411E+02 0.  0.
         11    1    3    3    0    0 -0.19382608627E+02  0.12333681689E+02  0.27419157974E+02  0.35771712923E+02  0.51100000000E-03 0.  1.
         22    1    1    0    0    0 -0.16455146396E+02  0.22869097888E+02  0.61133829321E+01  0.28829514946E+02  0.00000000000E+00 0. -1.
</event>
<event>
 5    1  0.1103865E-009  0.9118800E+02  0.7818608E-02  0.1130116E+00
         25   -1    0    0    0    0  0.00000000000E+00  0.00000000000E+00  0.99999998245E-14  0.12500000000E+03  0.12500000000E+03 0.  0.
        -11    1    3    3    0    0  0.38151464971E+02  0.15294273244E+02 -0.27669407052E+01  0.41195934686E+02  0.51100000000E-03 0.  1.
         23    2    1    0    0    0  0.64373718367E+01 -0.43392633820E+01  0.31930822580E+02  0.92138983682E+02  0.86079881043E+02 0.  0.
         11    1    3    3    0    0 -0.31714093134E+02 -0.19633536626E+02  0.34697763285E+02  0.50943048996E+02  0.51100000000E-03 0. -1.
         22    1    1    0    0    0 -0.64373718367E+01  0.43392633820E+01 -0.31930822580E+02  0.32861016318E+02  0.00000000000E+00 0. -1.
</event>
<event>
 5    1  0.1103865E-009  0.9118800E+02  0.7818608E-02  0.1130116E+00
         25   -1    0    0    0    0  0.00000000000E+00  0.00000000000E+00  0.99999998245E-14  0.12500000000E+03  0.12500000000E+03 0.  0.
        -11    1    3    3    0    0 -0.32768039526E+02 -0.62662346218E+01  0.18524794308E+02  0.38159901928E+02  0.51100000000E-03 0.  1.
         23    2    1    0    0    0 -0.23377427055E+01  0.17165117052E+02 -0.23961444262E+02  0.95432161129E+02  0.90736102419E+02 0.  0.
         11    1    3    3    0    0  0.30430296821E+02  0.23431351674E+02 -0.42486238570E+02  0.57272259201E+02  0.51100000000E-03 0. -1.
         22    1    1    0    0    0  0.23377427055E+01 -0.17165117052E+02  0.23961444262E+02  0.29567838871E+02  0.00000000000E+00 0. -1.
</event>
<event>
 5    1  0.1103865E-009  0.9118800E+02  0.7818608E-02  0.1130116E+00
         25   -1    0    0    0    0  0.00000000000E+00  0.00000000000E+00  0.99999998245E-14  0.12500000000E+03  0.12500000000E+03 0.  0.
        -11    1    3    3    0    0 -0.42245866897E+02 -0.18893574360E+01  0.27427265434E+02  0.50403748182E+02  0.51100000000E-03 0.  1.
         23    2    1    0    0    0  0.11277458984E+01 -0.58340080283E+01  0.30368570696E+02  0.94055573255E+02  0.88819442205E+02 0.  0.
         11    1    3    3    0    0  0.43373612795E+02 -0.39446505923E+01  0.29413052622E+01  0.43651825072E+02  0.51100000000E-03 0. -1.
         22    1    1    0    0    0 -0.11277458984E+01  0.58340080283E+01 -0.30368570696E+02  0.30944426745E+02  0.00000000000E+00 0.  1.
</event>
<event>
 5    1  0.1103865E-009  0.9118800E+02  0.7818608E-02  0.1130116E+00
         25   -1    0    0    0    0  0.00000000000E+00  0.00000000000E+00  0.99999998245E-14  0.12500000000E+03  0.12500000000E+03 0.  0.
        -11    1    3    3    0    0  0.78007112262E+01 -0.22829723144E+02 -0.21704712880E+02  0.32452148095E+02  0.51100000000E-03 0.  1.
         23    2    1    0    0    0 -0.20892755061E+00  0.22038467284E+02  0.20742736705E+02  0.94734527643E+02  0.89769883095E+02 0.  0.
         11    1    3    3    0    0 -0.80096387768E+01  0.44868190429E+02  0.42447449585E+02  0.62282379549E+02  0.51100000000E-03 0. -1.
         22    1    1    0    0    0  0.20892755061E+00 -0.22038467284E+02 -0.20742736705E+02  0.30265472357E+02  0.00000000000E+00 0. -1.
</event>
<event>
 5    1  0.1103865E-009  0.9118800E+02  0.7818608E-02  0.1130116E+00
         25   -1    0    0    0    0  0.00000000000E+00  0.00000000000E+00  0.99999998245E-14  0.12500000000E+03  0.12500000000E+03 0.  0.
        -11    1    3    3    0    0 -0.51925024037E+02  0.14733354727E+02 -0.72234786090E+01  0.54456023600E+02  0.51100000000E-03 0. -1.
         23    2    1    0    0    0 -0.24246976853E+02  0.23436424622E+02  0.11938818123E+02  0.89226863938E+02  0.81741764016E+02 0.  0.
         11    1    3    3    0    0  0.27678047184E+02  0.87030698949E+01  0.19162296732E+02  0.34770840338E+02  0.51100000000E-03 0.  1.
         22    1    1    0    0    0  0.24246976853E+02 -0.23436424622E+02 -0.11938818123E+02  0.35773136062E+02  0.00000000000E+00 0. -1.
</event>
<event>
 5    1  0.1103865E-009  0.9118800E+02  0.7818608E-02  0.1130116E+00
         25   -1    0    0    0    0  0.00000000000E+00  0.00000000000E+00  0.99999998245E-14  0.12500000000E+03  0.12500000000E+03 0.  0.
        -11    1    3    3    0    0 -0.30783437100E+01  0.46251617071E+02  0.33406147885E+02  0.57137194528E+02  0.51100000000E-03 0.  1.
         23    2    1    0    0    0  0.16285044668E+02  0.21422128940E+02  0.10325568066E+02  0.96177653738E+02  0.91757361745E+02 0.  0.
         11    1    3    3    0    0  0.19363388378E+02 -0.24829488131E+02 -0.23080579819E+02  0.39040459210E+02  0.51100000000E-03 0. -1.
         22    1    1    0    0    0 -0.16285044668E+02 -0.21422128940E+02 -0.10325568066E+02  0.28822346262E+02  0.00000000000E+00 0.  1.
</event>
<event>
 5    1  0.1103865E-009  0.9118800E+02  0.7818608E-02  0.1130116E+00
         25   -1    0    0    0    0  0.00000000000E+00  0.00000000000E+00  0.99999998245E-14  0.12500000000E+03  0.12500000000E+03 0.  0.
        -11    1    3    3    0    0 -0.40402924741E+02  0.56085887149E+01 -0.43672421263E+01  0.41023473757E+02  0.51100000000E-03 0.  1.
         23    2    1    0    0    0  0.64742270216E+01  0.26073727118E+02  0.13149043786E+02  0.95089262567E+02  0.90262481916E+02 0.  0.
         11    1    3    3    0    0  0.46877151763E+02  0.20465138403E+02  0.17516285912E+02  0.54065788810E+02  0.51100000000E-03 0. -1.
         22    1    1    0    0    0 -0.64742270216E+01 -0.26073727118E+02 -0.13149043786E+02  0.29910737433E+02  0.00000000000E+00 0. -1.
</event>
<event>
 5    1  0.1103865E-009  0.9118800E+02  0.7818608E-02  0.1130116E+00
         25   -1    0    0    0    0  0.00000000000E+00  0.00000000000E+00  0.99999998245E-14  0.12500000000E+03  0.12500000000E+03 0.  0.
        -11    1    3    3    0    0  0.41981970129E+02  0.97449773806E+01  0.37429250410E+02  0.57082389461E+02  0.51100000000E-03 0. -1.
         23    2    1    0    0    0  0.29200106291E+02  0.83479296730E+01  0.22395823541E+01  0.94547580287E+02  0.89509189874E+02 0.  0.
         11    1    3    3    0    0 -0.12781863838E+02 -0.13970477077E+01 -0.35189668056E+02  0.37465190826E+02  0.51100000000E-03 0.  1.
         22    1    1    0    0    0 -0.29200106291E+02 -0.83479296730E+01 -0.22395823541E+01  0.30452419713E+02  0.00000000000E+00 0. -1.
</event>
<event>
 5    1  0.1103865E-009  0.9118800E+02  0.7818608E-02  0.1130116E+00
         25   -1    0    0    0    0  0.00000000000E+00  0.00000000000E+00  0.99999998245E-14  0.12500000000E+03  0.12500000000E+03 0.  0.
        -11    1    3    3    0    0 -0.65419294261E+01  0.33027976946E+02  0.20123496418E+02  0.39224981965E+02  0.51100000000E-03 0. -1.
         23    2    1    0    0    0 -0.21231250672E+02 -0.19464994860E+02  0.86077257310E+01  0.94937648591E+02  0.90052274528E+02 0.  0.
         11    1    3    3    0    0 -0.14689321246E+02 -0.52492971807E+02 -0.11515770687E+02  0.55712666626E+02  0.51100000000E-03 0.  1.
         22    1    1    0    0    0  0.21231250672E+02  0.19464994860E+02 -0.86077257310E+01  0.30062351409E+02  0.00000000000E+00 0.  1.
</event>
<event>
 5    1  0.1103865E-009  0.9118800E+02  0.7818608E-02  0.1130116E+00
         25   -1    0    0    0    0  0.00000000000E+00  0.00000000000E+00  0.99999998245E-14  0.12500000000E+03  0.12500000000E+03 0.  0.
        -11    1    3    3    0    0  0.26556253113E+02  0.29328339194E+02  0.35670572086E+02  0.53270777848E+02  0.51100000000E-03 0. -1.
         23    2    1    0    0    0  0.15878859689E+02 -0.97810186266E+01  0.22233797764E+02  0.95980208936E+02  0.91487989562E+02 0.  0.
         11    1    3    3    0    0 -0.10677393425E+02 -0.39109357820E+02 -0.13436774323E+02  0.42709431089E+02  0.51100000000E-03 0.  1.
         22    1    1    0    0    0 -0.15878859689E+02  0.97810186266E+01 -0.22233797764E+02  0.29019791064E+02  0.00000000000E+00 0. -1.
</event>
<event>
 5    1  0.1103865E-009  0.9118800E+02  0.7818608E-02  0.1130116E+00
         25   -1    0    0    0    0  0.00000000000E+00  0.00000000000E+00  0.99999998245E-14  0.12500000000E+03  0.12500000000E+03 0.  0.
        -11    1    3    3    0    0 -0.23362107241E+01  0.20389833157E+02 -0.42107508533E+02  0.46842773741E+02  0.51100000000E-03 0. -1.
         23    2    1    0    0    0  0.28209290950E+02  0.27969980176E+01 -0.88553318213E+01  0.95301444556E+02  0.90555845415E+02 0.  0.
         11    1    3    3    0    0  0.30545501674E+02 -0.17592835139E+02  0.33252176711E+02  0.48458670814E+02  0.51100000000E-03 0.  1.
         22    1    1    0    0    0 -0.28209290950E+02 -0.27969980176E+01  0.88553318213E+01  0.29698555444E+02  0.00000000000E+00 0. -1.
</event>
<event>
 5    1  0.1103865E-009  0.9118800E+02  0.7818608E-02  0.1130116E+00
         25   -1    0    0    0    0  0.00000000000E+00  0.00000000000E+00  0.99999998245E-14  0.12500000000E+03  0.12500000000E+03 0.  0.
        -11    1    3    3    0    0 -0.21592335630E+02  0.23667362356E+02 -0.44295865922E+02  0.54667144949E+02  0.51100000000E-03 0.  1.
         23    2    1    0    0    0 -0.31326543083E+02  0.85786011532E+01 -0.14555637718E+02  0.89407707455E+02  0.82017844788E+02 0.  0.
         11    1    3    3    0    0 -0.97342074523E+01 -0.15088761203E+02  0.29740228204E+02  0.34740562506E+02  0.51100000000E-03 0. -1.
         22    1    1    0    0    0  0.31326543083E+02 -0.85786011532E+01  0.14555637718E+02  0.35592292545E+02  0.00000000000E+00 0.  1.
</event>
<event>
 5    1  0.1103865E-009  0.9118800E+02  0.7818608E-02  0.1130116E+00
         25   -1    0    0    0    0  0.00000000000E+00  0.00000000000E+00  0.99999998245E-14  0.12500000000E+03  0.12500000000E+03 0.  0.
        -11    1    3    3    0    0  0.33942777373E+02 -0.26626449215E+02 -0.73191673708E+01  0.43756715426E+02  0.51100000000E-03 0.  1.
         23    2    1    0    0    0  0.16882067486E+02  0.21826908638E+02  0.58626913553E+01  0.96790262439E+02  0.92588150483E+02 0.  0.
         11    1    3    3    0    0 -0.17060709887E+02  0.48453357854E+02  0.13181858726E+02  0.53033547014E+02  0.51100000000E-03 0. -1.
         22    1    1    0    0    0 -0.16882067486E+02 -0.21826908638E+02 -0.58626913553E+01  0.28209737561E+02  0.00000000000E+00 0. -1.
</event>
<event>
 5    1  0.1103865E-009  0.9118800E+02  0.7818608E-02  0.1130116E+00
         25   -1    0    0    0    0  0.00000000000E+00  0.00000000000E+00  0.99999998245E-14  0.12500000000E+03  0.12500000000E+03 0.  0.
        -11    1    3    3    0    0 -0.45861562979E+02 -0.41337622620E+02 -0.58067067838E+01  0.62014513194E+02  0.51100000000E-03 0.  1.
         23    2    1    0    0    0 -0.20958520921E+02 -0.21193762476E+02  0.24530312041E+01  0.95092600763E+02  0.90267104698E+02 0.  0.
         11    1    3    3    0    0  0.24903042059E+02  0.20143860144E+02  0.82597379880E+01  0.33078087568E+02  0.51100000000E-03 0. -1.
         22    1    1    0    0    0  0.20958520921E+02  0.21193762476E+02 -0.24530312041E+01  0.29907399237E+02  0.00000000000E+00 0.  1.
</event>
<event>
 5    1  0.1103865E-009  0.9118800E+02  0.7818608E-02  0.1130116E+00
         25   -1    0    0    0    0  0.00000000000E+00  0.00000000000E+00  0.99999998245E-14  0.12500000000E+03  0.12500000000E+03 0.  0.
        -11    1    3    3    0    0  0.11473773083E+01  0.33348744017E+02 -0.11872467481E+01  0.33389590553E+02  0.51100000000E-03 0.  1.
         23    2    1    0    0    0  0.19813717999E+01 -0.27875982335E+02  0.93725416796E+01  0.95523895052E+02  0.90862389156E+02 0.  0.
         11    1    3    3    0    0  0.83399449162E+00 -0.61224726352E+02  0.10559788428E+02  0.62134304499E+02  0.51100000000E-03 0. -1.
         22    1    1    0    0    0 -0.19813717999E+01  0.27875982335E+02 -0.93725416796E+01  0.29476104948E+02  0.00000000000E+00 0. -1.
</event>
<event>
 5    1  0.1103865E-009  0.9118800E+02  0.7818608E-02  0.1130116E+00
         25   -1    0    0    0    0  0.00000000000E+00  0.00000000000E+00  0.99999998245E-14  0.12500000000E+03  0.12500000000E+03 0.  0.
        -11    1    3    3    0    0  0.46005628848E+00  0.14238797087E+02  0.35155850593E+02  0.37932688087E+02  0.51100000000E-03 0. -1.
         23    2    1    0    0    0 -0.26171088065E+02 -0.37466013367E+01 -0.12773442786E+02  0.95638056729E+02  0.91019306645E+02 0.  0.
         11    1    3    3    0    0 -0.26631144353E+02 -0.17985398424E+02 -0.47929293379E+02  0.57705368642E+02  0.51100000000E-03 0.  1.
         22    1    1    0    0    0  0.26171088065E+02  0.37466013367E+01  0.12773442786E+02  0.29361943271E+02  0.00000000000E+00 0.  1.
</event>
<event>
 5    1  0.1103865E-009  0.9118800E+02  0.7818608E-02  0.1130116E+00
         25   -1    0    0    0    0  0.00000000000E+00  0.00000000000E+00  0.99999998245E-14  0.12500000000E+03  0.12500000000E+03 0.  0.
        -11    1    3    3    0    0 -0.72143225809E+01  0.36600960391E+02 -0.33404440733E+02  0.50075277462E+02  0.51100000000E-03 0.  1.
         23    2    1    0    0    0 -0.13372716886E+02 -0.25224365310E+01 -0.32583441933E+02  0.89688912065E+02  0.82445303178E+02 0.  0.
         11    1    3    3    0    0 -0.61583943056E+01 -0.39123396922E+02  0.82099880040E+00  0.39613634603E+02  0.51100000000E-03 0. -1.
         22    1    1    0    0    0  0.13372716886E+02  0.25224365310E+01  0.32583441933E+02  0.35311087935E+02  0.00000000000E+00 0.  1.
</event>
<event>
 5    1  0.1103865E-009  0.9118800E+02  0.7818608E-02  0.1130116E+00
         25   -1    0    0    0    0  0.00000000000E+00  0.00000000000E+00  0.99999998245E-14  0.12500000000E+03  0.12500000000E+03 0.  0.
        -11    1    3    3    0    0  0.49463953244E+02  0.19596460851E+02 -0.61822396702E+01  0.53562337851E+02  0.51100000000E-03 0.  1.
         23    2    1    0    0    0  0.21608980201E+02 -0.11522796446E+02 -0.15046673287E+02  0.96257605523E+02  0.91866214577E+02 0.  0.
         11    1    3    3    0    0 -0.27854973043E+02 -0.31119257297E+02 -0.88644336172E+01  0.42695267672E+02  0.51100000000E-03 0. -1.
         22    1    1    0    0    0 -0.21608980201E+02  0.11522796446E+02  0.15046673287E+02  0.28742394477E+02  0.00000000000E+00 0. -1.
</event>
<event>
 5    1  0.1103865E-009  0.9118800E+02  0.7818608E-02  0.1130116E+00
         25   -1    0    0    0    0  0.00000000000E+00  0.00000000000E+00  0.99999998245E-14  0.12500000000E+03  0.12500000000E+03 0.  0.
        -11    1    3    3    0    0  0.46774941158E+02 -0.23631147927E+02  0.77778033703E+01  0.52979434672E+02  0.51100000000E-03 0.  1.
         23    2    1    0    0    0  0.20200716726E+02 -0.43335523880E+01 -0.20187255904E+02  0.96114468440E+02  0.91671244729E+02 0.  0.
         11    1    3    3    0    0 -0.26574224432E+02  0.19297595539E+02 -0.27965059274E+02  0.43135033768E+02  0.51100000000E-03 0. -1.
         22    1    1    0    0    0 -0.20200716726E+02  0.43335523880E+01  0.20187255904E+02  0.28885531560E+02  0.00000000000E+00 0.  1.
</event>
<event>
 5    1  0.1103865E-009  0.9118800E+02  0.7818608E-02  0.1130116E+00
         25   -1    0    0    0    0  0.00000000000E+00  0.00000000000E+00  0.99999998245E-14  0.12500000000E+03  0.12500000000E+03 0.  0.
        -11    1    3    3    0    0 -0.12958670368E+02 -0.64176914834E+01  0.29599029386E+02  0.32942623492E+02  0.51100000000E-03 0.  1.
         23    2    1    0    0    0 -0.33746125963E+01 -0.26578796709E+02 -0.22749608923E+02  0.89852238325E+02  0.82692560615E+02 0.  0.
         11    1    3    3    0    0  0.95840577720E+01 -0.20161105225E+02 -0.52348638309E+02  0.56909614832E+02  0.51100000000E-03 0. -1.
         22    1    1    0    0    0  0.33746125963E+01  0.26578796709E+02  0.22749608923E+02  0.35147761675E+02  0.00000000000E+00 0. -1.
</event>
<event>
 5    1  0.1103865E-009  0.9118800E+02  0.7818608E-02  0.1130116E+00
         25   -1    0    0    0    0  0.00000000000E+00  0.00000000000E+00  0.99999998245E-14  0.12500000000E+03  0.12500000000E+03 0.  0.
        -11    1    3    3    0    0 -0.13459207876E+02 -0.12150255411E+02 -0.32370665108E+02  0.37103085357E+02  0.51100000000E-03 0. -1.
         23    2    1    0    0    0  0.13560422176E+02  0.23630007901E+02  0.71086397205E+01  0.96843382986E+02  0.92659838909E+02 0.  0.
         11    1    3    3    0    0  0.27019630052E+02  0.35780263312E+02  0.39479304829E+02  0.59740297629E+02  0.51100000000E-03 0.  1.
         22    1    1    0    0    0 -0.13560422176E+02 -0.23630007901E+02 -0.71086397205E+01  0.28156617014E+02  0.00000000000E+00 0.  1.
</event>
<event>
 5    1  0.1103865E-009  0.9118800E+02  0.7818608E-02  0.1130116E+00
         25   -1    0    0    0    0  0.00000000000E+00  0.00000000000E+00  0.99999998245E-14  0.12500000000E+03  0.12500000000E+03 0.  0.
        -11    1    3    3    0    0 -0.15794883899E+02  0.38050585598E+02  0.30331663559E+02  0.51159898712E+02  0.51100000000E-03 0.  1.
         23    2    1    0    0    0  0.17393942639E+02  0.23055827847E+02  0.45933859136E+01  0.95755861572E+02  0.91180948630E+02 0.  0.
         11    1    3    3    0    0  0.33188826538E+02 -0.14994757751E+02 -0.25738277646E+02  0.44595962860E+02  0.51100000000E-03 0. -1.
         22    1    1    0    0    0 -0.17393942639E+02 -0.23055827847E+02 -0.45933859136E+01  0.29244138428E+02  0.00000000000E+00 0.  1.
</event>
<event>
 5    1  0.1103865E-009  0.9118800E+02  0.7818608E-02  0.1130116E+00
         25   -1    0    0    0    0  0.00000000000E+00  0.00000000000E+00  0.99999998245E-14  0.12500000000E+03  0.12500000000E+03 0.  0.
        -11    1    3    3    0    0 -0.26127764387E+02  0.29840651232E+02 -0.12661072881E+02  0.41634448532E+02  0.51100000000E-03 0. -1.
         23    2    1    0    0    0  0.15725588523E+02 -0.27263828085E+01  0.16407811161E+02  0.10211018644E+03  0.99511540087E+02 0.  0.
         11    1    3    3    0    0  0.41853352910E+02 -0.32567034040E+02  0.29068884042E+02  0.60475737910E+02  0.51100000000E-03 0.  1.
         22    1    1    0    0    0 -0.15725588523E+02  0.27263828085E+01 -0.16407811161E+02  0.22889813558E+02  0.00000000000E+00 0.  1.
</event>
<event>
 5    1  0.1103865E-009  0.9118800E+02  0.7818608E-02  0.1130116E+00
         25   -1    0    0    0    0  0.00000000000E+00  0.00000000000E+00  0.99999998245E-14  0.12500000000E+03  0.12500000000E+03 0.  0.
        -11    1    3    3    0    0  0.57531516461E+01 -0.17273023632E+02 -0.42040642282E+02  0.45813444565E+02  0.51100000000E-03 0.  1.
         23    2    1    0    0    0  0.26461396456E+02 -0.16773579732E+02  0.10801603967E+01  0.93651551459E+02  0.88249010560E+02 0.  0.
         11    1    3    3    0    0  0.20708244810E+02  0.49944390028E+00  0.43120802678E+02  0.47838106894E+02  0.51100000000E-03 0. -1.
         22    1    1    0    0    0 -0.26461396456E+02  0.16773579732E+02 -0.10801603967E+01  0.31348448541E+02  0.00000000000E+00 0. -1.
</event>
<event>
 5    1  0.1103865E-009  0.9118800E+02  0.7818608E-02  0.1130116E+00
         25   -1    0    0    0    0  0.00000000000E+00  0.00000000000E+00  0.99999998245E-14  0.12500000000E+03  0.12500000000E+03 0.  0.
        -11    1    3    3    0    0  0.56071982851E+02 -0.73871840326E+01 -0.18688784784E+02  0.59564321752E+02  0.51100000000E-03 0. -1.
         23    2    1    0    0    0  0.20206030371E+02 -0.16281298447E+01 -0.20805998625E+02  0.95951350308E+02  0.91448551530E+02 0.  0.
         11    1    3    3    0    0 -0.35865952480E+02  0.57590541879E+01 -0.21172138414E+01  0.36387028556E+02  0.51100000000E-03 0.  1.
         22    1    1    0    0    0 -0.20206030371E+02  0.16281298447E+01  0.20805998625E+02  0.29048649692E+02  0.00000000000E+00 0. -1.
</event>
<event>
 5    1  0.1103865E-009  0.9118800E+02  0.7818608E-02  0.1130116E+00
         25   -1    0    0    0    0  0.00000000000E+00  0.00000000000E+00  0.99999998245E-14  0.12500000000E+03  0.12500000000E+03 0.  0.
        -11    1    3    3    0    0  0.51572251527E+01 -0.40434892894E+01 -0.46123328217E+02  0.46586566551E+02  0.51100000000E-03 0.  1.
         23    2    1    0    0    0 -0.12007067693E+01  0.28049665819E+02 -0.10316941768E+02  0.95089053229E+02  0.90262192015E+02 0.  0.
         11    1    3    3    0    0 -0.63579319220E+01  0.32093155108E+02  0.35806386450E+02  0.48502486678E+02  0.51100000000E-03 0. -1.
         22    1    1    0    0    0  0.12007067693E+01 -0.28049665819E+02  0.10316941768E+02  0.29910946771E+02  0.00000000000E+00 0. -1.
</event>
<event>
 5    1  0.1103865E-009  0.9118800E+02  0.7818608E-02  0.1130116E+00
         25   -1    0    0    0    0  0.00000000000E+00  0.00000000000E+00  0.99999998245E-14  0.12500000000E+03  0.12500000000E+03 0.  0.
        -11    1    3    3    0    0 -0.36380427943E+02  0.28253062900E+02 -0.10751021842E+02  0.47300693139E+02  0.51100000000E-03 0. -1.
         23    2    1    0    0    0  0.64772192789E+01  0.18378114223E+02 -0.24790541396E+02  0.93467787983E+02  0.87988334430E+02 0.  0.
         11    1    3    3    0    0  0.42857647222E+02 -0.98749486774E+01 -0.14039519553E+02  0.46167094844E+02  0.51100000000E-03 0.  1.
         22    1    1    0    0    0 -0.64772192789E+01 -0.18378114223E+02  0.24790541396E+02  0.31532212017E+02  0.00000000000E+00 0.  1.
</event>
<event>
 5    1  0.1103865E-009  0.9118800E+02  0.7818608E-02  0.1130116E+00
         25   -1    0    0    0    0  0.00000000000E+00  0.00000000000E+00  0.99999998245E-14  0.12500000000E+03  0.12500000000E+03 0.  0.
        -11    1    3    3    0    0 -0.42227838708E+02  0.13755255423E+01 -0.11149193415E+02  0.43696532431E+02  0.51100000000E-03 0.  1.
         23    2    1    0    0    0 -0.87871636015E+01 -0.12606360641E+02  0.25490933005E+02  0.95235554125E+02  0.90464846936E+02 0.  0.
         11    1    3    3    0    0  0.33440675106E+02 -0.13981886183E+02  0.36640126420E+02  0.51539021694E+02  0.51100000000E-03 0. -1.
         22    1    1    0    0    0  0.87871636015E+01  0.12606360641E+02 -0.25490933005E+02  0.29764445875E+02  0.00000000000E+00 0. -1.
</event>
<event>
 5    1  0.1103865E-009  0.9118800E+02  0.7818608E-02  0.1130116E+00
         25   -1    0    0    0    0  0.00000000000E+00  0.00000000000E+00  0.99999998245E-14  0.12500000000E+03  0.12500000000E+03 0.  0.
        -11    1    3    3    0    0  0.39225281463E+02  0.25318404190E+00 -0.18491506553E+02  0.43366146046E+02  0.51100000000E-03 0.  1.
         23    2    1    0    0    0 -0.82275183833E+01 -0.22125790027E+02 -0.17102682238E+02  0.95849624654E+02  0.91309398002E+02 0.  0.
         11    1    3    3    0    0 -0.47452799846E+02 -0.22378974069E+02  0.13888243150E+01  0.52483478609E+02  0.51100000000E-03 0. -1.
         22    1    1    0    0    0  0.82275183833E+01  0.22125790027E+02  0.17102682238E+02  0.29150375346E+02  0.00000000000E+00 0. -1.
</event>
<event>
 5    1  0.1103865E-009  0.9118800E+02  0.7818608E-02  0.1130116E+00
         25   -1    0    0    0    0  0.00000000000E+00  0.00000000000E+00  0.99999998245E-14  0.12500000000E+03  0.12500000000E+03 0.  0.
        -11    1    3    3    0    0 -0.31760814435E+02 -0.46054923202E+01 -0.39289526636E+02  0.50730925446E+02  0.51100000000E-03 0.  1.
         23    2    1    0    0    0 -0.28062556646E+02  0.12066478750E+02  0.94392671368E+00  0.94438619262E+02  0.89356895736E+02 0.  0.
         11    1    3    3    0    0  0.36982577885E+01  0.16671971070E+02  0.40233453350E+02  0.43707693816E+02  0.51100000000E-03 0. -1.
         22    1    1    0    0    0  0.28062556646E+02 -0.12066478750E+02 -0.94392671368E+00  0.30561380738E+02  0.00000000000E+00 0. -1.
</event>
<event>
 5    1  0.1103865E-009  0.9118800E+02  0.7818608E-02  0.1130116E+00
         25   -1    0    0    0    0  0.00000000000E+00  0.00000000000E+00  0.99999998245E-14  0.12500000000E+03  0.12500000000E+03 0.  0.
        -11    1    3    3    0    0  0.29300936005E+02  0.16836126110E+02 -0.39095728899E+02  0.51676648610E+02  0.51100000000E-03 0.  1.
         23    2    1    0    0    0  0.18558484514E+02 -0.17718657570E+02 -0.13443274809E+02  0.96032953013E+02  0.91560025412E+02 0.  0.
         11    1    3    3    0    0 -0.10742451492E+02 -0.34554783680E+02  0.25652454090E+02  0.44356304403E+02  0.51100000000E-03 0. -1.
         22    1    1    0    0    0 -0.18558484514E+02  0.17718657570E+02  0.13443274809E+02  0.28967046987E+02  0.00000000000E+00 0.  1.
</event>
<event>
 5    1  0.1103865E-009  0.9118800E+02  0.7818608E-02  0.1130116E+00
         25   -1    0    0    0    0  0.00000000000E+00  0.00000000000E+00  0.99999998245E-14  0.12500000000E+03  0.12500000000E+03 0.  0.
        -11    1    3    3    0    0  0.24835483630E+02 -0.33882039027E+02  0.26503111074E+02  0.49671004748E+02  0.51100000000E-03 0. -1.
         23    2    1    0    0    0 -0.45525036169E+01  0.10623261532E+01  0.29217559090E+02  0.95410819795E+02  0.90706697375E+02 0.  0.
         11    1    3    3    0    0 -0.29387987247E+02  0.34944365180E+02  0.27144480158E+01  0.45739815047E+02  0.51100000000E-03 0.  1.
         22    1    1    0    0    0  0.45525036169E+01 -0.10623261532E+01 -0.29217559090E+02  0.29589180205E+02  0.00000000000E+00 0.  1.
</event>
<event>
 5    1  0.1103865E-009  0.9118800E+02  0.7818608E-02  0.1130116E+00
         25   -1    0    0    0    0  0.00000000000E+00  0.00000000000E+00  0.99999998245E-14  0.12500000000E+03  0.12500000000E+03 0.  0.
        -11    1    3    3    0    0 -0.50135281091E+01  0.59455939549E+02  0.12465518313E+02  0.60955174997E+02  0.51100000000E-03 0. -1.
         23    2    1    0    0    0 -0.44518880197E+00  0.25025809292E+02  0.15068463772E+02  0.95784457488E+02  0.91220142360E+02 0.  0.
         11    1    3    3    0    0  0.45683393071E+01 -0.34430130257E+02  0.26029454590E+01  0.34829282492E+02  0.51100000000E-03 0.  1.
         22    1    1    0    0    0  0.44518880197E+00 -0.25025809292E+02 -0.15068463772E+02  0.29215542512E+02  0.00000000000E+00 0. -1.
</event>
<event>
 5    1  0.1103865E-009  0.9118800E+02  0.7818608E-02  0.1130116E+00
         25   -1    0    0    0    0  0.00000000000E+00  0.00000000000E+00  0.99999998245E-14  0.12500000000E+03  0.12500000000E+03 0.  0.
        -11    1    3    3    0    0  0.12781808614E+02 -0.38442949305E+02  0.13529103170E+02  0.42711492781E+02  0.51100000000E-03 0.  1.
         23    2    1    0    0    0 -0.26597034186E+02 -0.75043198542E+01 -0.64386661265E+01  0.96624421319E+02  0.92363982860E+02 0.  0.
         11    1    3    3    0    0 -0.39378842800E+02  0.30938629451E+02 -0.19967769297E+02  0.53912928538E+02  0.51100000000E-03 0. -1.
         22    1    1    0    0    0  0.26597034186E+02  0.75043198542E+01  0.64386661265E+01  0.28375578681E+02  0.00000000000E+00 0. -1.
</event>
<event>
 5    1  0.1103865E-009  0.9118800E+02  0.7818608E-02  0.1130116E+00
         25   -1    0    0    0    0  0.00000000000E+00  0.00000000000E+00  0.99999998245E-14  0.12500000000E+03  0.12500000000E+03 0.  0.
        -11    1    3    3    0    0 -0.37197008901E+02  0.16501006225E+02  0.25060879840E+01  0.40769855959E+02  0.51100000000E-03 0.  1.
         23    2    1    0    0    0  0.12342383986E+02  0.11911709332E+02 -0.22704643146E+02  0.96544348856E+02  0.92255553838E+02 0.  0.
         11    1    3    3    0    0  0.49539392887E+02 -0.45892968937E+01 -0.25210731130E+02  0.55774492897E+02  0.51100000000E-03 0. -1.
         22    1    1    0    0    0 -0.12342383986E+02 -0.11911709332E+02  0.22704643146E+02  0.28455651144E+02  0.00000000000E+00 0. -1.
</event>
<event>
 5    1  0.1103865E-009  0.9118800E+02  0.7818608E-02  0.1130116E+00
         25   -1    0    0    0    0  0.00000000000E+00  0.00000000000E+00  0.99999998245E-14  0.12500000000E+03  0.12500000000E+03 0.  0.
        -11    1    3    3    0    0 -0.49322724132E+02  0.23068083244E+02  0.10205208893E+02  0.55398681113E+02  0.51100000000E-03 0. -1.
         23    2    1    0    0    0 -0.27386664971E+02 -0.67826821218E+01 -0.65184074050E+01  0.96042724056E+02  0.91573364108E+02 0.  0.
         11    1    3    3    0    0  0.21936059161E+02 -0.29850765365E+02 -0.16723616298E+02  0.40644042943E+02  0.51100000000E-03 0.  1.
         22    1    1    0    0    0  0.27386664971E+02  0.67826821218E+01  0.65184074050E+01  0.28957275944E+02  0.00000000000E+00 0. -1.
</event>
<event>
 5    1  0.1103865E-009  0.9118800E+02  0.7818608E-02  0.1130116E+00
         25   -1    0    0    0    0  0.00000000000E+00  0.00000000000E+00  0.99999998245E-14  0.12500000000E+03  0.12500000000E+03 0.  0.
        -11    1    3    3    0    0 -0.51023686388E+02 -0.44138091610E+01 -0.21806908575E+02  0.55663628572E+02  0.51100000000E-03 0.  1.
         23    2    1    0    0    0 -0.95525379791E+01  0.10133180755E+02 -0.21222970793E+02  0.99616012462E+02  0.96327582319E+02 0.  0.
         11    1    3    3    0    0  0.41471148409E+02  0.14546989916E+02  0.58393778166E+00  0.43952383890E+02  0.51100000000E-03 0. -1.
         22    1    1    0    0    0  0.95525379791E+01 -0.10133180755E+02  0.21222970793E+02  0.25383987538E+02  0.00000000000E+00 0.  1.
</event>
<event>
 5    1  0.1103865E-009  0.9118800E+02  0.7818608E-02  0.1130116E+00
         25   -1    0    0    0    0  0.00000000000E+00  0.00000000000E+00  0.99999998245E-14  0.12500000000E+03  0.12500000000E+03 0.  0.
        -11    1    3    3    0    0 -0.25482436487E+02 -0.27592734635E+02 -0.13836323429E+01  0.37584943963E+02  0.51100000000E-03 0.  1.
         23    2    1    0    0    0  0.25807719562E+02 -0.84019816397E+01 -0.14964988460E+02  0.94006733568E+02  0.88750681080E+02 0.  0.
         11    1    3    3    0    0  0.51290156049E+02  0.19190752995E+02 -0.13581356117E+02  0.56421789606E+02  0.51100000000E-03 0. -1.
         22    1    1    0    0    0 -0.25807719562E+02  0.84019816397E+01  0.14964988460E+02  0.30993266432E+02  0.00000000000E+00 0. -1.
</event>
<event>
 5    1  0.1103865E-009  0.9118800E+02  0.7818608E-02  0.1130116E+00
         25   -1    0    0    0    0  0.00000000000E+00  0.00000000000E+00  0.99999998245E-14  0.12500000000E+03  0.12500000000E+03 0.  0.
        -11    1    3    3    0    0 -0.24071587464E+02 -0.32795982005E+02 -0.12679425163E+02  0.42612035640E+02  0.51100000000E-03 0.  1.
         23    2    1    0    0    0 -0.21371048827E+02  0.19551659731E+02 -0.35584734938E+01  0.95816925113E+02  0.91264622271E+02 0.  0.
         11    1    3    3    0    0  0.27005386363E+01  0.52347641736E+02  0.91209516693E+01  0.53204889473E+02  0.51100000000E-03 0. -1.
         22    1    1    0    0    0  0.21371048827E+02 -0.19551659731E+02  0.35584734938E+01  0.29183074887E+02  0.00000000000E+00 0. -1.
</event>
<event>
 5    1  0.1103865E-009  0.9118800E+02  0.7818608E-02  0.1130116E+00
         25   -1    0    0    0    0  0.00000000000E+00  0.00000000000E+00  0.99999998245E-14  0.12500000000E+03  0.12500000000E+03 0.  0.
        -11    1    3    3    0    0  0.37207553134E+01 -0.16813131871E+02  0.29413904272E+02  0.34083767225E+02  0.51100000000E-03 0.  1.
         23    2    1    0    0    0  0.72604072981E+01  0.23688598611E+02 -0.16362813873E+02  0.95308167855E+02  0.90565125539E+02 0.  0.
         11    1    3    3    0    0  0.35396519847E+01  0.40501730482E+02 -0.45776718145E+02  0.61224400631E+02  0.51100000000E-03 0. -1.
         22    1    1    0    0    0 -0.72604072981E+01 -0.23688598611E+02  0.16362813873E+02  0.29691832145E+02  0.00000000000E+00 0. -1.
</event>
<event>
 5    1  0.1103865E-009  0.9118800E+02  0.7818608E-02  0.1130116E+00
         25   -1    0    0    0    0  0.00000000000E+00  0.00000000000E+00  0.99999998245E-14  0.12500000000E+03  0.12500000000E+03 0.  0.
        -11    1    3    3    0    0  0.34766098382E+02  0.26945409612E+02  0.12614023577E+02  0.45758608883E+02  0.51100000000E-03 0. -1.
         23    2    1    0    0    0 -0.17572267152E+02  0.17123724859E+02  0.79224833660E+01  0.99216821984E+02  0.95808170299E+02 0.  0.
         11    1    3    3    0    0 -0.52338365534E+02 -0.98216847522E+01 -0.46915402115E+01  0.53458213101E+02  0.51100000000E-03 0.  1.
         22    1    1    0    0    0  0.17572267152E+02 -0.17123724859E+02 -0.79224833660E+01  0.25783178016E+02  0.00000000000E+00 0.  1.
</event>
<event>
 5    1  0.1103865E-009  0.9118800E+02  0.7818608E-02  0.1130116E+00
         25   -1    0    0    0    0  0.00000000000E+00  0.00000000000E+00  0.99999998245E-14  0.12500000000E+03  0.12500000000E+03 0.  0.
        -11    1    3    3    0    0  0.24014842897E+02  0.36921348650E+02 -0.12712508706E+02  0.45842191738E+02  0.51100000000E-03 0.  1.
         23    2    1    0    0    0 -0.21264898110E+02  0.16185017586E+02 -0.12141415926E+02  0.95647578182E+02  0.91032381851E+02 0.  0.
         11    1    3    3    0    0 -0.45279741007E+02 -0.20736331064E+02  0.57109277987E+00  0.49805386444E+02  0.51100000000E-03 0. -1.
         22    1    1    0    0    0  0.21264898110E+02 -0.16185017586E+02  0.12141415926E+02  0.29352421818E+02  0.00000000000E+00 0. -1.
</event>
<event>
 5    1  0.1103865E-009  0.9118800E+02  0.7818608E-02  0.1130116E+00
         25   -1    0    0    0    0  0.00000000000E+00  0.00000000000E+00  0.99999998245E-14  0.12500000000E+03  0.12500000000E+03 0.  0.
        -11    1    3    3    0    0 -0.45675952881E+02  0.73830145822E+01  0.13463871080E+02  0.48187938331E+02  0.51100000000E-03 0.  1.
         23    2    1    0    0    0 -0.13476498910E+02  0.24392490489E+02 -0.14013378648E+02  0.93807302197E+02  0.88469348077E+02 0.  0.
         11    1    3    3    0    0  0.32199453971E+02  0.17009475907E+02 -0.27477249727E+02  0.45619363865E+02  0.51100000000E-03 0. -1.
         22    1    1    0    0    0  0.13476498910E+02 -0.24392490489E+02  0.14013378648E+02  0.31192697803E+02  0.00000000000E+00 0. -1.
</event>
<event>
 5    1  0.1103865E-009  0.9118800E+02  0.7818608E-02  0.1130116E+00
         25   -1    0    0    0    0  0.00000000000E+00  0.00000000000E+00  0.99999998245E-14  0.12500000000E+03  0.12500000000E+03 0.  0.
        -11    1    3    3    0    0  0.10396269589E+02  0.25073100847E+02  0.55129455176E+02  0.61449163019E+02  0.51100000000E-03 0. -1.
         23    2    1    0    0    0  0.88948628734E+01  0.53993006626E+01  0.28987780031E+02  0.94201259371E+02  0.89024237390E+02 0.  0.
         11    1    3    3    0    0 -0.15014067155E+01 -0.19673800184E+02 -0.26141675145E+02  0.32752096352E+02  0.51100000000E-03 0.  1.
         22    1    1    0    0    0 -0.88948628734E+01 -0.53993006626E+01 -0.28987780031E+02  0.30798740629E+02  0.00000000000E+00 0. -1.
</event>
<event>
 5    1  0.1103865E-009  0.9118800E+02  0.7818608E-02  0.1130116E+00
         25   -1    0    0    0    0  0.00000000000E+00  0.00000000000E+00  0.99999998245E-14  0.12500000000E+03  0.12500000000E+03 0.  0.
        -11    1    3    3    0    0  0.29490239695E+01  0.43840415435E+02 -0.36489630751E+01  0.44090743923E+02  0.51100000000E-03 0.  1.
         23    2    1    0    0    0 -0.24314879943E+02  0.10031275102E+01 -0.15387920571E+02  0.96207505302E+02  0.91798019180E+02 0.  0.
         11    1    3    3    0    0 -0.27263903913E+02 -0.42837287924E+02 -0.11738957496E+02  0.52116761379E+02  0.51100000000E-03 0. -1.
         22    1    1    0    0    0  0.24314879943E+02 -0.10031275102E+01  0.15387920571E+02  0.28792494698E+02  0.00000000000E+00 0. -1.
</event>
<event>
 5    1  0.1103865E-009  0.9118800E+02  0.7818608E-02  0.1130116E+00
         25   -1    0    0    0    0  0.00000000000E+00  0.00000000000E+00  0.99999998245E-14  0.12500000000E+03  0.12500000000E+03 0.  0.
        -11    1    3    3    0    0 -0.24246728316E+02  0.22109270607E+02 -0.24291284637E+02  0.40826341869E+02  0.51100000000E-03 0.  1.
         23    2    1    0    0    0 -0.19009665172E+02 -0.13628005983E+02  0.17296685680E+02  0.95909361428E+02  0.91391139379E+02 0.  0.
         11    1    3    3    0    0  0.52370631441E+01 -0.35737276589E+02  0.41587970317E+02  0.55083019559E+02  0.51100000000E-03 0. -1.
         22    1    1    0    0    0  0.19009665172E+02  0.13628005983E+02 -0.17296685680E+02  0.29090638572E+02  0.00000000000E+00 0. -1.
</event>
<event>
 5    1  0.1103865E-009  0.9118800E+02  0.7818608E-02  0.1130116E+00
         25   -1    0    0    0    0  0.00000000000E+00  0.00000000000E+00  0.99999998245E-14  0.12500000000E+03  0.12500000000E+03 0.  0.
        -11    1    3    3    0    0  0.20548742340E+02  0.48292042986E+02 -0.32513827467E+02  0.61737518611E+02  0.51100000000E-03 0.  1.
         23    2    1    0    0    0  0.32922105696E+01  0.22937437622E+02 -0.10113766120E+02  0.99716547700E+02  0.96457954182E+02 0.  0.
         11    1    3    3    0    0 -0.17256531770E+02 -0.25354605364E+02  0.22400061347E+02  0.37979029088E+02  0.51100000000E-03 0. -1.
         22    1    1    0    0    0 -0.32922105696E+01 -0.22937437622E+02  0.10113766120E+02  0.25283452300E+02  0.00000000000E+00 0.  1.
</event>
<event>
 5    1  0.1103865E-009  0.9118800E+02  0.7818608E-02  0.1130116E+00
         25   -1    0    0    0    0  0.00000000000E+00  0.00000000000E+00  0.99999998245E-14  0.12500000000E+03  0.12500000000E+03 0.  0.
        -11    1    3    3    0    0 -0.81945673071E+01  0.19075405955E+02  0.36326205602E+02  0.41840354437E+02  0.51100000000E-03 0.  1.
         23    2    1    0    0    0  0.15257370136E+02  0.20944020128E+02 -0.12643163852E+02  0.96167918654E+02  0.91744098794E+02 0.  0.
         11    1    3    3    0    0  0.23451937443E+02  0.18686141725E+01 -0.48969369454E+02  0.54327564217E+02  0.51100000000E-03 0. -1.
         22    1    1    0    0    0 -0.15257370136E+02 -0.20944020128E+02  0.12643163852E+02  0.28832081346E+02  0.00000000000E+00 0. -1.
</event>
<event>
 5    1  0.1103865E-009  0.9118800E+02  0.7818608E-02  0.1130116E+00
         25   -1    0    0    0    0  0.00000000000E+00  0.00000000000E+00  0.99999998245E-14  0.12500000000E+03  0.12500000000E+03 0.  0.
        -11    1    3    3    0    0  0.43880737705E+02  0.35618691307E+02  0.21407980818E+02  0.60436015379E+02  0.51100000000E-03 0.  1.
         23    2    1    0    0    0  0.15840737615E+02  0.26436603026E+02  0.64622775048E+01  0.93510573548E+02  0.88049096458E+02 0.  0.
         11    1    3    3    0    0 -0.28040000090E+02 -0.91820882814E+01 -0.14945703314E+02  0.33074558169E+02  0.51100000000E-03 0. -1.
         22    1    1    0    0    0 -0.15840737615E+02 -0.26436603026E+02 -0.64622775048E+01  0.31489426452E+02  0.00000000000E+00 0.  1.
</event>
<event>
 5    1  0.1103865E-009  0.9118800E+02  0.7818608E-02  0.1130116E+00
         25   -1    0    0    0    0  0.00000000000E+00  0.00000000000E+00  0.99999998245E-14  0.12500000000E+03  0.12500000000E+03 0.  0.
        -11    1    3    3    0    0  0.33196786030E+02  0.14555593444E+02  0.40950664429E+02  0.54688653491E+02  0.51100000000E-03 0. -1.
         23    2    1    0    0    0  0.27908685459E+02  0.10740126429E+02  0.10931203211E+01  0.95076097317E+02  0.90244248178E+02 0.  0.
         11    1    3    3    0    0 -0.52881005714E+01 -0.38154670150E+01 -0.39857544108E+02  0.40387443826E+02  0.51100000000E-03 0.  1.
         22    1    1    0    0    0 -0.27908685459E+02 -0.10740126429E+02 -0.10931203211E+01  0.29923902683E+02  0.00000000000E+00 0. -1.
</event>
<event>
 5    1  0.1103865E-009  0.9118800E+02  0.7818608E-02  0.1130116E+00
         25   -1    0    0    0    0  0.00000000000E+00  0.00000000000E+00  0.99999998245E-14  0.12500000000E+03  0.12500000000E+03 0.  0.
        -11    1    3    3    0    0 -0.16911112414E+02  0.15197800552E+02 -0.27933403136E+02  0.36017133085E+02  0.51100000000E-03 0.  1.
         23    2    1    0    0    0  0.92207224200E+01  0.15440261910E+02  0.24503495792E+02  0.94605186037E+02  0.89589600453E+02 0.  0.
         11    1    3    3    0    0  0.26131834834E+02  0.24246135846E+00  0.52436898928E+02  0.58588052952E+02  0.51100000000E-03 0. -1.
         22    1    1    0    0    0 -0.92207224200E+01 -0.15440261910E+02 -0.24503495792E+02  0.30394813963E+02  0.00000000000E+00 0. -1.
</event>
<event>
 5    1  0.1103865E-009  0.9118800E+02  0.7818608E-02  0.1130116E+00
         25   -1    0    0    0    0  0.00000000000E+00  0.00000000000E+00  0.99999998245E-14  0.12500000000E+03  0.12500000000E+03 0.  0.
        -11    1    3    3    0    0  0.23642014437E+02  0.34994892468E+02 -0.89175578221E+01  0.43163760069E+02  0.51100000000E-03 0. -1.
         23    2    1    0    0    0  0.23896545164E+02 -0.16694572160E+02  0.11571415519E+01  0.95826508832E+02  0.91277747605E+02 0.  0.
         11    1    3    3    0    0  0.25453072641E+00 -0.51689464629E+02  0.10074699374E+02  0.52662748763E+02  0.51100000000E-03 0.  1.
         22    1    1    0    0    0 -0.23896545164E+02  0.16694572160E+02 -0.11571415519E+01  0.29173491168E+02  0.00000000000E+00 0.  1.
</event>
<event>
 5    1  0.1103865E-009  0.9118800E+02  0.7818608E-02  0.1130116E+00
         25   -1    0    0    0    0  0.00000000000E+00  0.00000000000E+00  0.99999998245E-14  0.12500000000E+03  0.12500000000E+03 0.  0.
        -11    1    3    3    0    0 -0.37087545802E+02 -0.30503012549E+01 -0.14031337630E+02  0.39770200242E+02  0.51100000000E-03 0. -1.
         23    2    1    0    0    0  0.13602417944E+02  0.22266859424E+02 -0.11494159097E+02  0.96487643102E+02  0.92178689379E+02 0.  0.
         11    1    3    3    0    0  0.50689963746E+02  0.25317160679E+02  0.25371785331E+01  0.56717442860E+02  0.51100000000E-03 0.  1.
         22    1    1    0    0    0 -0.13602417944E+02 -0.22266859424E+02  0.11494159097E+02  0.28512356898E+02  0.00000000000E+00 0.  1.
</event>
<event>
 5    1  0.1103865E-009  0.9118800E+02  0.7818608E-02  0.1130116E+00
         25   -1    0    0    0    0  0.00000000000E+00  0.00000000000E+00  0.99999998245E-14  0.12500000000E+03  0.12500000000E+03 0.  0.
        -11    1    3    3    0    0 -0.23465107468E+02 -0.25821949114E+02 -0.50262780322E+02  0.61186039343E+02  0.51100000000E-03 0. -1.
         23    2    1    0    0    0 -0.94167874481E+01 -0.19235992779E+02 -0.17855542553E+02  0.97115959692E+02  0.93026823675E+02 0.  0.
         11    1    3    3    0    0  0.14048320020E+02  0.65859563348E+01  0.32407237769E+02  0.35929920349E+02  0.51100000000E-03 0.  1.
         22    1    1    0    0    0  0.94167874481E+01  0.19235992779E+02  0.17855542553E+02  0.27884040308E+02  0.00000000000E+00 0. -1.
</event>
<event>
 5    1  0.1103865E-009  0.9118800E+02  0.7818608E-02  0.1130116E+00
         25   -1    0    0    0    0  0.00000000000E+00  0.00000000000E+00  0.99999998245E-14  0.12500000000E+03  0.12500000000E+03 0.  0.
        -11    1    3    3    0    0 -0.19846307331E+01  0.42101555640E+02  0.11588257244E+02  0.43712326096E+02  0.51100000000E-03 0.  1.
         23    2    1    0    0    0 -0.71560285863E+01 -0.49338778080E+01  0.29452976887E+02  0.94291210658E+02  0.89150449604E+02 0.  0.
         11    1    3    3    0    0 -0.51713978533E+01 -0.47035433448E+02  0.17864719643E+02  0.50578884563E+02  0.51100000000E-03 0. -1.
         22    1    1    0    0    0  0.71560285863E+01  0.49338778080E+01 -0.29452976887E+02  0.30708789342E+02  0.00000000000E+00 0. -1.
</event>
<event>
 5    1  0.1103865E-009  0.9118800E+02  0.7818608E-02  0.1130116E+00
         25   -1    0    0    0    0  0.00000000000E+00  0.00000000000E+00  0.99999998245E-14  0.12500000000E+03  0.12500000000E+03 0.  0.
        -11    1    3    3    0    0 -0.38431132021E+02  0.10969590971E+02  0.17100684252E+02  0.43470878030E+02  0.51100000000E-03 0.  1.
         23    2    1    0    0    0 -0.10819219696E+02 -0.18980790523E+02 -0.17569918516E+02  0.96963809810E+02  0.92822154966E+02 0.  0.
         11    1    3    3    0    0  0.27611912325E+02 -0.29950381494E+02 -0.34670602768E+02  0.53492931780E+02  0.51100000000E-03 0. -1.
         22    1    1    0    0    0  0.10819219696E+02  0.18980790523E+02  0.17569918516E+02  0.28036190190E+02  0.00000000000E+00 0. -1.
</event>
<event>
 5    1  0.1103865E-009  0.9118800E+02  0.7818608E-02  0.1130116E+00
         25   -1    0    0    0    0  0.00000000000E+00  0.00000000000E+00  0.99999998245E-14  0.12500000000E+03  0.12500000000E+03 0.  0.
        -11    1    3    3    0    0  0.17416230874E+02  0.29206712199E+02  0.41208653413E+02  0.53427616938E+02  0.51100000000E-03 0.  1.
         23    2    1    0    0    0 -0.14935731105E+02  0.43110521752E+01  0.20702511963E+02  0.99110711944E+02  0.95669629381E+02 0.  0.
         11    1    3    3    0    0 -0.32351961978E+02 -0.24895660024E+02 -0.20506141450E+02  0.45683095006E+02  0.51100000000E-03 0. -1.
         22    1    1    0    0    0  0.14935731105E+02 -0.43110521752E+01 -0.20702511963E+02  0.25889288056E+02  0.00000000000E+00 0.  1.
</event>
<event>
 5    1  0.1103865E-009  0.9118800E+02  0.7818608E-02  0.1130116E+00
         25   -1    0    0    0    0  0.00000000000E+00  0.00000000000E+00  0.99999998245E-14  0.12500000000E+03  0.12500000000E+03 0.  0.
        -11    1    3    3    0    0  0.14628363031E+02  0.47650621563E+02 -0.32962174870E+01  0.49954337052E+02  0.51100000000E-03 0.  1.
         23    2    1    0    0    0 -0.21409868716E+02  0.20282724278E+02 -0.41690847628E+01  0.95214892138E+02  0.90436292685E+02 0.  0.
         11    1    3    3    0    0 -0.36038231747E+02 -0.27367897285E+02 -0.87286727583E+00  0.45260555087E+02  0.51100000000E-03 0. -1.
         22    1    1    0    0    0  0.21409868716E+02 -0.20282724278E+02  0.41690847628E+01  0.29785107862E+02  0.00000000000E+00 0. -1.
</event>
<event>
 5    1  0.1103865E-009  0.9118800E+02  0.7818608E-02  0.1130116E+00
         25   -1    0    0    0    0  0.00000000000E+00  0.00000000000E+00  0.99999998245E-14  0.12500000000E+03  0.12500000000E+03 0.  0.
        -11    1    3    3    0    0  0.70755845075E+01  0.20089060555E+02 -0.41107743832E+02  0.46297741342E+02  0.51100000000E-03 0. -1.
         23    2    1    0    0    0 -0.21802552776E+00 -0.23116627140E+02 -0.16961190326E+02  0.96327574872E+02  0.91961370792E+02 0.  0.
         11    1    3    3    0    0 -0.72936100353E+01 -0.43205687695E+02  0.24146553506E+02  0.50029833530E+02  0.51100000000E-03 0.  1.
         22    1    1    0    0    0  0.21802552776E+00  0.23116627140E+02  0.16961190326E+02  0.28672425128E+02  0.00000000000E+00 0.  1.
</event>
<event>
 5    1  0.1103865E-009  0.9118800E+02  0.7818608E-02  0.1130116E+00
         25   -1    0    0    0    0  0.00000000000E+00  0.00000000000E+00  0.99999998245E-14  0.12500000000E+03  0.12500000000E+03 0.  0.
        -11    1    3    3    0    0 -0.30076239347E+02 -0.37590365888E+02  0.75233147772E+01  0.48725927865E+02  0.51100000000E-03 0.  1.
         23    2    1    0    0    0 -0.28059061057E+02  0.69951778529E+01 -0.62112601767E+01  0.95422590148E+02  0.90722916272E+02 0.  0.
         11    1    3    3    0    0  0.20171782903E+01  0.44585543741E+02 -0.13734574954E+02  0.46696662283E+02  0.51100000000E-03 0. -1.
         22    1    1    0    0    0  0.28059061057E+02 -0.69951778529E+01  0.62112601767E+01  0.29577409852E+02  0.00000000000E+00 0. -1.
</event>
<event>
 5    1  0.1103865E-009  0.9118800E+02  0.7818608E-02  0.1130116E+00
         25   -1    0    0    0    0  0.00000000000E+00  0.00000000000E+00  0.99999998245E-14  0.12500000000E+03  0.12500000000E+03 0.  0.
        -11    1    3    3    0    0  0.37837822767E+02  0.51492364924E+01 -0.21319553653E+02  0.43734869800E+02  0.51100000000E-03 0.  1.
         23    2    1    0    0    0 -0.14765440057E+02 -0.15668788092E+02 -0.91759196261E+01  0.10159643956E+03  0.98864098082E+02 0.  0.
         11    1    3    3    0    0 -0.52603262824E+02 -0.20818024584E+02  0.12143634026E+02  0.57861569759E+02  0.51100000000E-03 0. -1.
         22    1    1    0    0    0  0.14765440057E+02  0.15668788092E+02  0.91759196261E+01  0.23403560442E+02  0.00000000000E+00 0. -1.
</event>
<event>
 5    1  0.1103865E-009  0.9118800E+02  0.7818608E-02  0.1130116E+00
         25   -1    0    0    0    0  0.00000000000E+00  0.00000000000E+00  0.99999998245E-14  0.12500000000E+03  0.12500000000E+03 0.  0.
        -11    1    3    3    0    0 -0.30463038331E+02  0.17156266056E+02 -0.48016511727E+02  0.59396292544E+02  0.51100000000E-03 0. -1.
         23    2    1    0    0    0 -0.21771405774E+02 -0.31510001262E+01 -0.18539783811E+02  0.96231154091E+02  0.91830215740E+02 0.  0.
         11    1    3    3    0    0  0.86916325576E+01 -0.20307266182E+02  0.29476727915E+02  0.36834861547E+02  0.51100000000E-03 0.  1.
         22    1    1    0    0    0  0.21771405774E+02  0.31510001262E+01  0.18539783811E+02  0.28768845909E+02  0.00000000000E+00 0. -1.
</event>
<event>
 5    1  0.1103865E-009  0.9118800E+02  0.7818608E-02  0.1130116E+00
         25   -1    0    0    0    0  0.00000000000E+00  0.00000000000E+00  0.99999998245E-14  0.12500000000E+03  0.12500000000E+03 0.  0.
        -11    1    3    3    0    0  0.58838834681E+02 -0.73095616857E+01 -0.17852447204E+02  0.61920497657E+02  0.51100000000E-03 0. -1.
         23    2    1    0    0    0  0.27903890919E+02  0.25784276766E+01 -0.84455787205E+01  0.95732215362E+02  0.91148526266E+02 0.  0.
         11    1    3    3    0    0 -0.30934943762E+02  0.98879893623E+01  0.94068684837E+01  0.33811717705E+02  0.51100000000E-03 0.  1.
         22    1    1    0    0    0 -0.27903890919E+02 -0.25784276766E+01  0.84455787205E+01  0.29267784638E+02  0.00000000000E+00 0. -1.
</event>
<event>
 5    1  0.1103865E-009  0.9118800E+02  0.7818608E-02  0.1130116E+00
         25   -1    0    0    0    0  0.00000000000E+00  0.00000000000E+00  0.99999998245E-14  0.12500000000E+03  0.12500000000E+03 0.  0.
        -11    1    3    3    0    0 -0.73548554438E+01 -0.31339943433E+02 -0.52271690464E+02  0.61389050955E+02  0.51100000000E-03 0. -1.
         23    2    1    0    0    0 -0.11715222883E+02 -0.14297527219E+02 -0.23665989037E+02  0.94970934599E+02  0.90098466412E+02 0.  0.
         11    1    3    3    0    0 -0.43603674396E+01  0.17042416215E+02  0.28605701427E+02  0.33581883643E+02  0.51100000000E-03 0.  1.
         22    1    1    0    0    0  0.11715222883E+02  0.14297527219E+02  0.23665989037E+02  0.30029065401E+02  0.00000000000E+00 0. -1.
</event>
<event>
 5    1  0.1103865E-009  0.9118800E+02  0.7818608E-02  0.1130116E+00
         25   -1    0    0    0    0  0.00000000000E+00  0.00000000000E+00  0.99999998245E-14  0.12500000000E+03  0.12500000000E+03 0.  0.
        -11    1    3    3    0    0  0.11360756655E+02  0.27592554713E+02  0.27595780795E+02  0.40644101482E+02  0.51100000000E-03 0.  1.
         23    2    1    0    0    0 -0.10282123326E+02  0.18191578121E+02 -0.21439573154E+02  0.95061548610E+02  0.90224094080E+02 0.  0.
         11    1    3    3    0    0 -0.21642879982E+02 -0.94009765924E+01 -0.49035353948E+02  0.54417447128E+02  0.51100000000E-03 0. -1.
         22    1    1    0    0    0  0.10282123326E+02 -0.18191578121E+02  0.21439573154E+02  0.29938451390E+02  0.00000000000E+00 0. -1.
</event>
<event>
 5    1  0.1103865E-009  0.9118800E+02  0.7818608E-02  0.1130116E+00
         25   -1    0    0    0    0  0.00000000000E+00  0.00000000000E+00  0.99999998245E-14  0.12500000000E+03  0.12500000000E+03 0.  0.
        -11    1    3    3    0    0 -0.12428131936E+02 -0.36765689817E+02  0.10154243230E+02  0.40115870512E+02  0.51100000000E-03 0. -1.
         23    2    1    0    0    0 -0.15788741019E+02  0.91584690287E+01 -0.22100983061E+02  0.96336166513E+02  0.91973048380E+02 0.  0.
         11    1    3    3    0    0 -0.33606090834E+01  0.45924158846E+02 -0.32255226291E+02  0.56220296001E+02  0.51100000000E-03 0.  1.
         22    1    1    0    0    0  0.15788741019E+02 -0.91584690287E+01  0.22100983061E+02  0.28663833487E+02  0.00000000000E+00 0.  1.
</event>
<event>
 5    1  0.1103865E-009  0.9118800E+02  0.7818608E-02  0.1130116E+00
         25   -1    0    0    0    0  0.00000000000E+00  0.00000000000E+00  0.99999998245E-14  0.12500000000E+03  0.12500000000E+03 0.  0.
        -11    1    3    3    0    0 -0.22329848045E+02 -0.17987542520E+02 -0.17035126219E+02  0.33352201204E+02  0.51100000000E-03 0. -1.
         23    2    1    0    0    0  0.29105799142E+02  0.75111550667E+01  0.43753618887E+01  0.94623878033E+02  0.89615676687E+02 0.  0.
         11    1    3    3    0    0  0.51435647187E+02  0.25498697586E+02  0.21410488107E+02  0.61271676829E+02  0.51100000000E-03 0.  1.
         22    1    1    0    0    0 -0.29105799142E+02 -0.75111550667E+01 -0.43753618887E+01  0.30376121967E+02  0.00000000000E+00 0.  1.
</event>
<event>
 5    1  0.1103865E-009  0.9118800E+02  0.7818608E-02  0.1130116E+00
         25   -1    0    0    0    0  0.00000000000E+00  0.00000000000E+00  0.99999998245E-14  0.12500000000E+03  0.12500000000E+03 0.  0.
        -11    1    3    3    0    0 -0.35885477380E+02  0.79819897812E+01 -0.11359963997E+02  0.38477635452E+02  0.51100000000E-03 0.  1.
         23    2    1    0    0    0 -0.59333219366E+01 -0.29909331063E+02  0.12126302973E+02  0.92185070202E+02  0.86146779107E+02 0.  0.
         11    1    3    3    0    0  0.29952155444E+02 -0.37891320844E+02  0.23486266971E+02  0.53707434751E+02  0.51100000000E-03 0. -1.
         22    1    1    0    0    0  0.59333219366E+01  0.29909331063E+02 -0.12126302973E+02  0.32814929798E+02  0.00000000000E+00 0. -1.
</event>
<event>
 5    1  0.1103865E-009  0.9118800E+02  0.7818608E-02  0.1130116E+00
         25   -1    0    0    0    0  0.00000000000E+00  0.00000000000E+00  0.99999998245E-14  0.12500000000E+03  0.12500000000E+03 0.  0.
        -11    1    3    3    0    0 -0.22674572068E+02 -0.23943142709E+02 -0.21860033710E+02  0.39563510654E+02  0.51100000000E-03 0. -1.
         23    2    1    0    0    0  0.28097239245E+01  0.24575997714E+02 -0.17813289920E+02  0.94517422846E+02  0.89467064954E+02 0.  0.
         11    1    3    3    0    0  0.25484295993E+02  0.48519140423E+02  0.40467437896E+01  0.54953912192E+02  0.51100000000E-03 0.  1.
         22    1    1    0    0    0 -0.28097239245E+01 -0.24575997714E+02  0.17813289920E+02  0.30482577154E+02  0.00000000000E+00 0.  1.
</event>
<event>
 5    1  0.1103865E-009  0.9118800E+02  0.7818608E-02  0.1130116E+00
         25   -1    0    0    0    0  0.00000000000E+00  0.00000000000E+00  0.99999998245E-14  0.12500000000E+03  0.12500000000E+03 0.  0.
        -11    1    3    3    0    0  0.60711160192E-01 -0.50232859534E+02 -0.28693528231E+02  0.57850345076E+02  0.51100000000E-03 0. -1.
         23    2    1    0    0    0 -0.14325898573E+02 -0.18845345818E+02 -0.21289001046E+02  0.93162914793E+02  0.87554147237E+02 0.  0.
         11    1    3    3    0    0 -0.14386609733E+02  0.31387513716E+02  0.74045271851E+01  0.35312569717E+02  0.51100000000E-03 0.  1.
         22    1    1    0    0    0  0.14325898573E+02  0.18845345818E+02  0.21289001046E+02  0.31837085207E+02  0.00000000000E+00 0. -1.
</event>
<event>
 5    1  0.1103865E-009  0.9118800E+02  0.7818608E-02  0.1130116E+00
         25   -1    0    0    0    0  0.00000000000E+00  0.00000000000E+00  0.99999998245E-14  0.12500000000E+03  0.12500000000E+03 0.  0.
        -11    1    3    3    0    0  0.18141003283E+02  0.27212568878E+02  0.16214025635E+01  0.32745211125E+02  0.51100000000E-03 0.  1.
         23    2    1    0    0    0 -0.58518857296E+01 -0.28816264587E+02  0.92601144232E+01  0.94171905825E+02  0.88983012177E+02 0.  0.
         11    1    3    3    0    0 -0.23992889013E+02 -0.56028833465E+02  0.76387118597E+01  0.61426694700E+02  0.51100000000E-03 0. -1.
         22    1    1    0    0    0  0.58518857296E+01  0.28816264587E+02 -0.92601144232E+01  0.30828094175E+02  0.00000000000E+00 0. -1.
</event>
<event>
 5    1  0.1103865E-009  0.9118800E+02  0.7818608E-02  0.1130116E+00
         25   -1    0    0    0    0  0.00000000000E+00  0.00000000000E+00  0.99999998245E-14  0.12500000000E+03  0.12500000000E+03 0.  0.
        -11    1    3    3    0    0  0.23286806837E+02 -0.39208960425E+02  0.95039941969E+01  0.46582656174E+02  0.51100000000E-03 0. -1.
         23    2    1    0    0    0  0.14210885016E+02 -0.42164699077E+01 -0.24598768806E+02  0.96280193277E+02  0.91896944015E+02 0.  0.
         11    1    3    3    0    0 -0.90759218202E+01  0.34992490517E+02 -0.34102763003E+02  0.49697537104E+02  0.51100000000E-03 0.  1.
         22    1    1    0    0    0 -0.14210885016E+02  0.42164699077E+01  0.24598768806E+02  0.28719806723E+02  0.00000000000E+00 0.  1.
</event>
<event>
 5    1  0.1103865E-009  0.9118800E+02  0.7818608E-02  0.1130116E+00
         25   -1    0    0    0    0  0.00000000000E+00  0.00000000000E+00  0.99999998245E-14  0.12500000000E+03  0.12500000000E+03 0.  0.
        -11    1    3    3    0    0  0.79768162316E+01 -0.49172077203E+02 -0.14195795331E+02  0.51798102079E+02  0.51100000000E-03 0. -1.
         23    2    1    0    0    0  0.23658663965E+02 -0.82543075200E+01 -0.15316451751E+02  0.95632336363E+02  0.91011450328E+02 0.  0.
         11    1    3    3    0    0  0.15681847733E+02  0.40917769683E+02 -0.11206564195E+01  0.43834234284E+02  0.51100000000E-03 0.  1.
         22    1    1    0    0    0 -0.23658663965E+02  0.82543075200E+01  0.15316451751E+02  0.29367663637E+02  0.00000000000E+00 0.  1.
</event>
<event>
 5    1  0.1103865E-009  0.9118800E+02  0.7818608E-02  0.1130116E+00
         25   -1    0    0    0    0  0.00000000000E+00  0.00000000000E+00  0.99999998245E-14  0.12500000000E+03  0.12500000000E+03 0.  0.
        -11    1    3    3    0    0  0.21766886059E+02  0.27427424590E+02 -0.51646709596E+02  0.62397464377E+02  0.51100000000E-03 0. -1.
         23    2    1    0    0    0  0.10074642097E+02  0.14130404292E+02 -0.29760008354E+02  0.90549675821E+02  0.83740187218E+02 0.  0.
         11    1    3    3    0    0 -0.11692243962E+02 -0.13297020298E+02  0.21886701242E+02  0.28152211444E+02  0.51100000000E-03 0.  1.
         22    1    1    0    0    0 -0.10074642097E+02 -0.14130404292E+02  0.29760008354E+02  0.34450324179E+02  0.00000000000E+00 0. -1.
</event>
<event>
 5    1  0.1103865E-009  0.9118800E+02  0.7818608E-02  0.1130116E+00
         25   -1    0    0    0    0  0.00000000000E+00  0.00000000000E+00  0.99999998245E-14  0.12500000000E+03  0.12500000000E+03 0.  0.
        -11    1    3    3    0    0 -0.15920553222E+02  0.24812238383E+02 -0.18055828485E+02  0.34570567409E+02  0.51100000000E-03 0.  1.
         23    2    1    0    0    0  0.66950206444E+01 -0.52236778959E+01  0.28988457942E+02  0.94793364867E+02  0.89851773588E+02 0.  0.
         11    1    3    3    0    0  0.22615573867E+02 -0.30035916279E+02  0.47044286427E+02  0.60222797458E+02  0.51100000000E-03 0. -1.
         22    1    1    0    0    0 -0.66950206444E+01  0.52236778959E+01 -0.28988457942E+02  0.30206635133E+02  0.00000000000E+00 0. -1.
</event>
<event>
 5    1  0.1103865E-009  0.9118800E+02  0.7818608E-02  0.1130116E+00
         25   -1    0    0    0    0  0.00000000000E+00  0.00000000000E+00  0.99999998245E-14  0.12500000000E+03  0.12500000000E+03 0.  0.
        -11    1    3    3    0    0 -0.35844149980E+02 -0.26719108295E+02  0.12420341251E+02  0.46400201648E+02  0.51100000000E-03 0.  1.
         23    2    1    0    0    0  0.10041469596E+01 -0.23238374955E+01  0.30679878089E+02  0.94215857144E+02  0.89044731938E+02 0.  0.
         11    1    3    3    0    0  0.36848296940E+02  0.24395270800E+02  0.18259536838E+02  0.47815655496E+02  0.51100000000E-03 0. -1.
         22    1    1    0    0    0 -0.10041469596E+01  0.23238374955E+01 -0.30679878089E+02  0.30784142856E+02  0.00000000000E+00 0. -1.
</event>
<event>
 5    1  0.1103865E-009  0.9118800E+02  0.7818608E-02  0.1130116E+00
         25   -1    0    0    0    0  0.00000000000E+00  0.00000000000E+00  0.99999998245E-14  0.12500000000E+03  0.12500000000E+03 0.  0.
        -11    1    3    3    0    0  0.27693108129E+02 -0.47690011287E+01 -0.30007202627E+02  0.41110629032E+02  0.51100000000E-03 0. -1.
         23    2    1    0    0    0  0.11689899605E+02  0.21726254079E+02  0.15290866715E+02  0.95974244644E+02  0.91479840189E+02 0.  0.
         11    1    3    3    0    0 -0.16003208524E+02  0.26495255208E+02  0.45298069343E+02  0.54863615612E+02  0.51100000000E-03 0.  1.
         22    1    1    0    0    0 -0.11689899605E+02 -0.21726254079E+02 -0.15290866715E+02  0.29025755356E+02  0.00000000000E+00 0.  1.
</event>
<event>
 5    1  0.1103865E-009  0.9118800E+02  0.7818608E-02  0.1130116E+00
         25   -1    0    0    0    0  0.00000000000E+00  0.00000000000E+00  0.99999998245E-14  0.12500000000E+03  0.12500000000E+03 0.  0.
        -11    1    3    3    0    0  0.19539806483E+01  0.44959031255E+02  0.55908183382E+01  0.45347434125E+02  0.51100000000E-03 0. -1.
         23    2    1    0    0    0 -0.14220384204E+02  0.83239190949E+01 -0.24524553636E+02  0.95454091873E+02  0.90766309655E+02 0.  0.
         11    1    3    3    0    0 -0.16174364852E+02 -0.36635112160E+02 -0.30115371974E+02  0.50106657749E+02  0.51100000000E-03 0.  1.
         22    1    1    0    0    0  0.14220384204E+02 -0.83239190949E+01  0.24524553636E+02  0.29545908127E+02  0.00000000000E+00 0.  1.
</event>
<event>
 5    1  0.1103865E-009  0.9118800E+02  0.7818608E-02  0.1130116E+00
         25   -1    0    0    0    0  0.00000000000E+00  0.00000000000E+00  0.99999998245E-14  0.12500000000E+03  0.12500000000E+03 0.  0.
        -11    1    3    3    0    0 -0.54636272842E+02  0.15803354011E+02  0.22693104987E+02  0.61235980618E+02  0.51100000000E-03 0. -1.
         23    2    1    0    0    0 -0.26398112109E+02  0.13191334269E+02  0.39563112784E+01  0.95225446743E+02  0.90450879961E+02 0.  0.
         11    1    3    3    0    0  0.28238160733E+02 -0.26120197413E+01 -0.18736793709E+02  0.33989466124E+02  0.51100000000E-03 0.  1.
         22    1    1    0    0    0  0.26398112109E+02 -0.13191334269E+02 -0.39563112784E+01  0.29774553257E+02  0.00000000000E+00 0. -1.
</event>
<event>
 5    1  0.1103865E-009  0.9118800E+02  0.7818608E-02  0.1130116E+00
         25   -1    0    0    0    0  0.00000000000E+00  0.00000000000E+00  0.99999998245E-14  0.12500000000E+03  0.12500000000E+03 0.  0.
        -11    1    3    3    0    0  0.35007174172E+02 -0.49569095608E+01 -0.15708836063E+02  0.38689025920E+02  0.51100000000E-03 0.  1.
         23    2    1    0    0    0 -0.14005835735E+02 -0.26664893682E+02  0.10783521173E+01  0.94861273534E+02  0.89946197160E+02 0.  0.
         11    1    3    3    0    0 -0.49013009907E+02 -0.21707984121E+02  0.16787188180E+02  0.56172247614E+02  0.51100000000E-03 0. -1.
         22    1    1    0    0    0  0.14005835735E+02  0.26664893682E+02 -0.10783521173E+01  0.30138726466E+02  0.00000000000E+00 0. -1.
</event>
<event>
 5    1  0.1103865E-009  0.9118800E+02  0.7818608E-02  0.1130116E+00
         25   -1    0    0    0    0  0.00000000000E+00  0.00000000000E+00  0.99999998245E-14  0.12500000000E+03  0.12500000000E+03 0.  0.
        -11    1    3    3    0    0 -0.32607721903E+02 -0.67379556917E+01 -0.14863021954E+02  0.36463310279E+02  0.51100000000E-03 0. -1.
         23    2    1    0    0    0  0.24929916296E+02  0.31165412685E+01 -0.16639088829E+02  0.94865753153E+02  0.89952422359E+02 0.  0.
         11    1    3    3    0    0  0.57537638199E+02  0.98544969603E+01 -0.17760668746E+01  0.58402442874E+02  0.51100000000E-03 0.  1.
         22    1    1    0    0    0 -0.24929916296E+02 -0.31165412685E+01  0.16639088829E+02  0.30134246847E+02  0.00000000000E+00 0.  1.
</event>
<event>
 5    1  0.1103865E-009  0.9118800E+02  0.7818608E-02  0.1130116E+00
         25   -1    0    0    0    0  0.00000000000E+00  0.00000000000E+00  0.99999998245E-14  0.12500000000E+03  0.12500000000E+03 0.  0.
        -11    1    3    3    0    0 -0.81423110037E+01 -0.18588617414E+02  0.40023122600E+02  0.44874093515E+02  0.51100000000E-03 0.  1.
         23    2    1    0    0    0  0.24041665208E+02 -0.13123580391E+02 -0.13514259342E+01  0.97576353629E+02  0.93643410912E+02 0.  0.
         11    1    3    3    0    0  0.32183976211E+02  0.54650370232E+01 -0.41374548534E+02  0.52702260114E+02  0.51100000000E-03 0. -1.
         22    1    1    0    0    0 -0.24041665208E+02  0.13123580391E+02  0.13514259342E+01  0.27423646371E+02  0.00000000000E+00 0. -1.
</event>
<event>
 5    1  0.1103865E-009  0.9118800E+02  0.7818608E-02  0.1130116E+00
         25   -1    0    0    0    0  0.00000000000E+00  0.00000000000E+00  0.99999998245E-14  0.12500000000E+03  0.12500000000E+03 0.  0.
        -11    1    3    3    0    0 -0.26798683553E+02  0.13525204528E+02 -0.37874449474E+02  0.48327782082E+02  0.51100000000E-03 0. -1.
         23    2    1    0    0    0  0.80336144488E+01 -0.15394778494E+02 -0.23404541163E+02  0.95857064097E+02  0.91319581822E+02 0.  0.
         11    1    3    3    0    0  0.34832298002E+02 -0.28919983021E+02  0.14469908311E+02  0.47529282015E+02  0.51100000000E-03 0.  1.
         22    1    1    0    0    0 -0.80336144488E+01  0.15394778494E+02  0.23404541163E+02  0.29142935903E+02  0.00000000000E+00 0.  1.
</event>
<event>
 5    1  0.1103865E-009  0.9118800E+02  0.7818608E-02  0.1130116E+00
         25   -1    0    0    0    0  0.00000000000E+00  0.00000000000E+00  0.99999998245E-14  0.12500000000E+03  0.12500000000E+03 0.  0.
        -11    1    3    3    0    0  0.27085894676E+02 -0.38051153551E+02 -0.35179515705E+02  0.58473364043E+02  0.51100000000E-03 0. -1.
         23    2    1    0    0    0  0.21170412639E+02 -0.22715903230E+02 -0.40371878697E+01  0.93687103029E+02  0.88299353096E+02 0.  0.
         11    1    3    3    0    0 -0.59154820378E+01  0.15335250321E+02  0.31142327835E+02  0.35213738986E+02  0.51100000000E-03 0.  1.
         22    1    1    0    0    0 -0.21170412639E+02  0.22715903230E+02  0.40371878697E+01  0.31312896971E+02  0.00000000000E+00 0. -1.
</event>
<event>
 5    1  0.1103865E-009  0.9118800E+02  0.7818608E-02  0.1130116E+00
         25   -1    0    0    0    0  0.00000000000E+00  0.00000000000E+00  0.99999998245E-14  0.12500000000E+03  0.12500000000E+03 0.  0.
        -11    1    3    3    0    0 -0.44738155122E+02  0.42511888132E+02  0.15688200653E+01  0.61735114424E+02  0.51100000000E-03 0.  1.
         23    2    1    0    0    0 -0.25513914151E+02  0.16992866204E+02  0.52590274868E+01  0.93897352408E+02  0.88596490348E+02 0.  0.
         11    1    3    3    0    0  0.19224240971E+02 -0.25519021928E+02  0.36902074215E+01  0.32162237984E+02  0.51100000000E-03 0. -1.
         22    1    1    0    0    0  0.25513914151E+02 -0.16992866204E+02 -0.52590274868E+01  0.31102647592E+02  0.00000000000E+00 0.  1.
</event>
<event>
 5    1  0.1103865E-009  0.9118800E+02  0.7818608E-02  0.1130116E+00
         25   -1    0    0    0    0  0.00000000000E+00  0.00000000000E+00  0.99999998245E-14  0.12500000000E+03  0.12500000000E+03 0.  0.
        -11    1    3    3    0    0 -0.39878954297E+02 -0.35016152175E+02  0.11140423694E+02  0.54227031537E+02  0.51100000000E-03 0. -1.
         23    2    1    0    0    0 -0.21465842517E+01 -0.28459992130E+02 -0.54152244970E+01  0.95949980511E+02  0.91446679151E+02 0.  0.
         11    1    3    3    0    0  0.37732370045E+02  0.65561600456E+01 -0.16555648191E+02  0.41722948974E+02  0.51100000000E-03 0.  1.
         22    1    1    0    0    0  0.21465842517E+01  0.28459992130E+02  0.54152244970E+01  0.29050019489E+02  0.00000000000E+00 0. -1.
</event>
<event>
 5    1  0.1103865E-009  0.9118800E+02  0.7818608E-02  0.1130116E+00
         25   -1    0    0    0    0  0.00000000000E+00  0.00000000000E+00  0.99999998245E-14  0.12500000000E+03  0.12500000000E+03 0.  0.
        -11    1    3    3    0    0 -0.25595586685E+02  0.38593894352E+02 -0.23201648921E+02  0.51797096945E+02  0.51100000000E-03 0.  1.
         23    2    1    0    0    0 -0.26294240435E+01  0.25034530530E+02  0.12926243688E+02  0.96702838207E+02  0.92470046782E+02 0.  0.
         11    1    3    3    0    0  0.22966162642E+02 -0.13559363822E+02  0.36127892609E+02  0.44905741263E+02  0.51100000000E-03 0. -1.
         22    1    1    0    0    0  0.26294240435E+01 -0.25034530530E+02 -0.12926243688E+02  0.28297161793E+02  0.00000000000E+00 0.  1.
</event>
<event>
 5    1  0.1103865E-009  0.9118800E+02  0.7818608E-02  0.1130116E+00
         25   -1    0    0    0    0  0.00000000000E+00  0.00000000000E+00  0.99999998245E-14  0.12500000000E+03  0.12500000000E+03 0.  0.
        -11    1    3    3    0    0  0.72174408556E+01 -0.33147166585E+02  0.45055557039E+02  0.56398841526E+02  0.51100000000E-03 0.  1.
         23    2    1    0    0    0  0.18253268180E+02 -0.32091049112E+02  0.21893161809E+02  0.82077654231E+02  0.69960085460E+02 0.  0.
         11    1    3    3    0    0  0.11035827325E+02  0.10561174732E+01 -0.23162395230E+02  0.25678812704E+02  0.51100000000E-03 0. -1.
         22    1    1    0    0    0 -0.18253268180E+02  0.32091049112E+02 -0.21893161809E+02  0.42922345769E+02  0.00000000000E+00 0.  1.
</event>
<event>
 5    1  0.1103865E-009  0.9118800E+02  0.7818608E-02  0.1130116E+00
         25   -1    0    0    0    0  0.00000000000E+00  0.00000000000E+00  0.99999998245E-14  0.12500000000E+03  0.12500000000E+03 0.  0.
        -11    1    3    3    0    0  0.26895271883E+02  0.42935902474E+02 -0.10313024942E+02  0.51703054597E+02  0.51100000000E-03 0. -1.
         23    2    1    0    0    0  0.12509919607E+02  0.33051733813E+01 -0.25409947959E+02  0.96485307035E+02  0.92175521472E+02 0.  0.
         11    1    3    3    0    0 -0.14385352276E+02 -0.39630729093E+02 -0.15096923017E+02  0.44782252438E+02  0.51100000000E-03 0.  1.
         22    1    1    0    0    0 -0.12509919607E+02 -0.33051733813E+01  0.25409947959E+02  0.28514692965E+02  0.00000000000E+00 0.  1.
</event>
<event>
 5    1  0.1103865E-009  0.9118800E+02  0.7818608E-02  0.1130116E+00
         25   -1    0    0    0    0  0.00000000000E+00  0.00000000000E+00  0.99999998245E-14  0.12500000000E+03  0.12500000000E+03 0.  0.
        -11    1    3    3    0    0 -0.25596318133E+02 -0.10561355970E+02 -0.25226983684E+02  0.37458169309E+02  0.51100000000E-03 0. -1.
         23    2    1    0    0    0  0.26565372358E+02  0.90166528534E+01 -0.68971377408E+01  0.96110736489E+02  0.91666155817E+02 0.  0.
         11    1    3    3    0    0  0.52161690490E+02  0.19578008824E+02  0.18329845943E+02  0.58652567181E+02  0.51100000000E-03 0.  1.
         22    1    1    0    0    0 -0.26565372358E+02 -0.90166528534E+01  0.68971377408E+01  0.28889263511E+02  0.00000000000E+00 0.  1.
</event>
<event>
 5    1  0.1103865E-009  0.9118800E+02  0.7818608E-02  0.1130116E+00
         25   -1    0    0    0    0  0.00000000000E+00  0.00000000000E+00  0.99999998245E-14  0.12500000000E+03  0.12500000000E+03 0.  0.
        -11    1    3    3    0    0 -0.48332270807E+02 -0.34004031723E+02  0.18047115725E+02  0.61789812762E+02  0.51100000000E-03 0. -1.
         23    2    1    0    0    0 -0.24421283985E+02 -0.15307936811E+02  0.20378807665E+01  0.96105623404E+02  0.91659183124E+02 0.  0.
         11    1    3    3    0    0  0.23910986823E+02  0.18696094912E+02 -0.16009234959E+02  0.34315810642E+02  0.51100000000E-03 0.  1.
         22    1    1    0    0    0  0.24421283985E+02  0.15307936811E+02 -0.20378807665E+01  0.28894376596E+02  0.00000000000E+00 0. -1.
</event>
<event>
 5    1  0.1103865E-009  0.9118800E+02  0.7818608E-02  0.1130116E+00
         25   -1    0    0    0    0  0.00000000000E+00  0.00000000000E+00  0.99999998245E-14  0.12500000000E+03  0.12500000000E+03 0.  0.
        -11    1    3    3    0    0 -0.18271282019E+02 -0.31141558821E+02  0.20157921698E+02  0.41351883147E+02  0.51100000000E-03 0. -1.
         23    2    1    0    0    0 -0.12193880348E+02  0.22333340898E+02  0.15108003994E+02  0.95407422919E+02  0.90702016129E+02 0.  0.
         11    1    3    3    0    0  0.60774016705E+01  0.53474899718E+02 -0.50499177040E+01  0.54055539772E+02  0.51100000000E-03 0.  1.
         22    1    1    0    0    0  0.12193880348E+02 -0.22333340898E+02 -0.15108003994E+02  0.29592577081E+02  0.00000000000E+00 0.  1.
</event>
<event>
 5    1  0.1103865E-009  0.9118800E+02  0.7818608E-02  0.1130116E+00
         25   -1    0    0    0    0  0.00000000000E+00  0.00000000000E+00  0.99999998245E-14  0.12500000000E+03  0.12500000000E+03 0.  0.
        -11    1    3    3    0    0 -0.32282172188E+02 -0.13341935677E+02 -0.13443121926E+02  0.37428109974E+02  0.51100000000E-03 0.  1.
         23    2    1    0    0    0  0.39079493487E+01  0.28048565600E+02  0.65528094524E+01  0.95932261663E+02  0.91422455752E+02 0.  0.
         11    1    3    3    0    0  0.36190121537E+02  0.41390501277E+02  0.19995931379E+02  0.58504151689E+02  0.51100000000E-03 0. -1.
         22    1    1    0    0    0 -0.39079493487E+01 -0.28048565600E+02 -0.65528094524E+01  0.29067738337E+02  0.00000000000E+00 0. -1.
</event>
<event>
 5    1  0.1103865E-009  0.9118800E+02  0.7818608E-02  0.1130116E+00
         25   -1    0    0    0    0  0.00000000000E+00  0.00000000000E+00  0.99999998245E-14  0.12500000000E+03  0.12500000000E+03 0.  0.
        -11    1    3    3    0    0  0.40850900532E+02 -0.40807501505E+02 -0.75606659047E+00  0.57746167755E+02  0.51100000000E-03 0. -1.
         23    2    1    0    0    0  0.30302985017E+02 -0.89531068081E+01 -0.86944024776E+01  0.92227730367E+02  0.86208657290E+02 0.  0.
         11    1    3    3    0    0 -0.10547915515E+02  0.31854394697E+02 -0.79383358872E+01  0.34481562612E+02  0.51100000000E-03 0.  1.
         22    1    1    0    0    0 -0.30302985017E+02  0.89531068081E+01  0.86944024776E+01  0.32772269633E+02  0.00000000000E+00 0. -1.
</event>
<event>
 5    1  0.1103865E-009  0.9118800E+02  0.7818608E-02  0.1130116E+00
         25   -1    0    0    0    0  0.00000000000E+00  0.00000000000E+00  0.99999998245E-14  0.12500000000E+03  0.12500000000E+03 0.  0.
        -11    1    3    3    0    0  0.11076020166E+02 -0.69016758182E+01 -0.60354854864E+02  0.61749654718E+02  0.51100000000E-03 0.  1.
         23    2    1    0    0    0  0.33680278859E+00 -0.19792197480E+01 -0.37216792793E+02  0.87729094287E+02  0.79418345309E+02 0.  0.
         11    1    3    3    0    0 -0.10739217377E+02  0.49224560702E+01  0.23138062072E+02  0.25979439569E+02  0.51100000000E-03 0. -1.
         22    1    1    0    0    0 -0.33680278859E+00  0.19792197480E+01  0.37216792793E+02  0.37270905713E+02  0.00000000000E+00 0.  1.
</event>
<event>
 5    1  0.1103865E-009  0.9118800E+02  0.7818608E-02  0.1130116E+00
         25   -1    0    0    0    0  0.00000000000E+00  0.00000000000E+00  0.99999998245E-14  0.12500000000E+03  0.12500000000E+03 0.  0.
        -11    1    3    3    0    0  0.34397964777E+02  0.37734766024E+02  0.31935939333E+02  0.60224884965E+02  0.51100000000E-03 0. -1.
         23    2    1    0    0    0  0.11035825740E+02  0.12100895783E+02  0.24231593840E+02  0.95752927180E+02  0.91176925782E+02 0.  0.
         11    1    3    3    0    0 -0.23362139037E+02 -0.25633870241E+02 -0.77043454938E+01  0.35528042216E+02  0.51100000000E-03 0.  1.
         22    1    1    0    0    0 -0.11035825740E+02 -0.12100895783E+02 -0.24231593840E+02  0.29247072820E+02  0.00000000000E+00 0. -1.
</event>
<event>
 5    1  0.1103865E-009  0.9118800E+02  0.7818608E-02  0.1130116E+00
         25   -1    0    0    0    0  0.00000000000E+00  0.00000000000E+00  0.99999998245E-14  0.12500000000E+03  0.12500000000E+03 0.  0.
        -11    1    3    3    0    0 -0.10249665461E+02  0.22682068427E+02  0.56804300978E+02  0.62018226998E+02  0.51100000000E-03 0. -1.
         23    2    1    0    0    0 -0.28618137976E+00  0.88285279613E+01  0.29405147208E+02  0.94296783751E+02  0.89158263429E+02 0.  0.
         11    1    3    3    0    0  0.99634840809E+01 -0.13853540466E+02 -0.27399153770E+02  0.32278556753E+02  0.51100000000E-03 0.  1.
         22    1    1    0    0    0  0.28618137976E+00 -0.88285279613E+01 -0.29405147208E+02  0.30703216249E+02  0.00000000000E+00 0. -1.
</event>
<event>
 5    1  0.1103865E-009  0.9118800E+02  0.7818608E-02  0.1130116E+00
         25   -1    0    0    0    0  0.00000000000E+00  0.00000000000E+00  0.99999998245E-14  0.12500000000E+03  0.12500000000E+03 0.  0.
        -11    1    3    3    0    0 -0.71037498416E+01 -0.54661391047E+02  0.28789007648E+02  0.62186315975E+02  0.51100000000E-03 0.  1.
         23    2    1    0    0    0 -0.10279999997E+01 -0.28616641195E+02  0.10906383400E+02  0.94358228900E+02  0.89244368030E+02 0.  0.
         11    1    3    3    0    0  0.60757498419E+01  0.26044749852E+02 -0.17882624248E+02  0.32171912925E+02  0.51100000000E-03 0. -1.
         22    1    1    0    0    0  0.10279999997E+01  0.28616641195E+02 -0.10906383400E+02  0.30641771100E+02  0.00000000000E+00 0.  1.
</event>
<event>
 5    1  0.1103865E-009  0.9118800E+02  0.7818608E-02  0.1130116E+00
         25   -1    0    0    0    0  0.00000000000E+00  0.00000000000E+00  0.99999998245E-14  0.12500000000E+03  0.12500000000E+03 0.  0.
        -11    1    3    3    0    0 -0.16862831742E+02  0.33279138931E+02  0.42989770322E+02  0.56920791763E+02  0.51100000000E-03 0.  1.
         23    2    1    0    0    0 -0.85926716250E+01  0.26124716462E+02  0.42529298541E+01  0.97171557208E+02  0.93101499998E+02 0.  0.
         11    1    3    3    0    0  0.82701601169E+01 -0.71544224690E+01 -0.38736840467E+02  0.40250765445E+02  0.51100000000E-03 0. -1.
         22    1    1    0    0    0  0.85926716250E+01 -0.26124716462E+02 -0.42529298541E+01  0.27828442792E+02  0.00000000000E+00 0.  1.
</event>
<event>
 5    1  0.1103865E-009  0.9118800E+02  0.7818608E-02  0.1130116E+00
         25   -1    0    0    0    0  0.00000000000E+00  0.00000000000E+00  0.99999998245E-14  0.12500000000E+03  0.12500000000E+03 0.  0.
        -11    1    3    3    0    0  0.36289770054E+02  0.14605856215E+02  0.20333396336E+01  0.39171583025E+02  0.51100000000E-03 0.  1.
         23    2    1    0    0    0  0.60365358185E+00 -0.29041247316E+02  0.45084604046E+01  0.95604683051E+02  0.90973461860E+02 0.  0.
         11    1    3    3    0    0 -0.35686116472E+02 -0.43647103531E+02  0.24751207710E+01  0.56433100026E+02  0.51100000000E-03 0. -1.
         22    1    1    0    0    0 -0.60365358185E+00  0.29041247316E+02 -0.45084604046E+01  0.29395316949E+02  0.00000000000E+00 0. -1.
</event>
<event>
 5    1  0.1103865E-009  0.9118800E+02  0.7818608E-02  0.1130116E+00
         25   -1    0    0    0    0  0.00000000000E+00  0.00000000000E+00  0.99999998245E-14  0.12500000000E+03  0.12500000000E+03 0.  0.
        -11    1    3    3    0    0 -0.30663983434E+02  0.13409873313E+02 -0.47960646973E+02  0.58483572400E+02  0.51100000000E-03 0. -1.
         23    2    1    0    0    0 -0.11661071255E+02 -0.90016496144E+01 -0.25813954989E+02  0.95278449725E+02  0.90524098622E+02 0.  0.
         11    1    3    3    0    0  0.19002912179E+02 -0.22411522927E+02  0.22146691985E+02  0.36794877325E+02  0.51100000000E-03 0.  1.
         22    1    1    0    0    0  0.11661071255E+02  0.90016496144E+01  0.25813954989E+02  0.29721550275E+02  0.00000000000E+00 0. -1.
</event>
<event>
 5    1  0.1103865E-009  0.9118800E+02  0.7818608E-02  0.1130116E+00
         25   -1    0    0    0    0  0.00000000000E+00  0.00000000000E+00  0.99999998245E-14  0.12500000000E+03  0.12500000000E+03 0.  0.
        -11    1    3    3    0    0 -0.34858247677E+02  0.28407402185E+02 -0.12886911602E+01  0.44985982874E+02  0.51100000000E-03 0. -1.
         23    2    1    0    0    0  0.14421495881E+02  0.26435452965E+02 -0.51230627517E+01  0.94453993897E+02  0.89378400490E+02 0.  0.
         11    1    3    3    0    0  0.49279743557E+02 -0.19719492197E+01 -0.38343715915E+01  0.49468011023E+02  0.51100000000E-03 0.  1.
         22    1    1    0    0    0 -0.14421495881E+02 -0.26435452965E+02  0.51230627517E+01  0.30546006103E+02  0.00000000000E+00 0. -1.
</event>
<event>
 5    1  0.1103865E-009  0.9118800E+02  0.7818608E-02  0.1130116E+00
         25   -1    0    0    0    0  0.00000000000E+00  0.00000000000E+00  0.99999998245E-14  0.12500000000E+03  0.12500000000E+03 0.  0.
        -11    1    3    3    0    0 -0.27176058679E+02  0.29763571658E+02 -0.17527295401E+02  0.43950135921E+02  0.51100000000E-03 0.  1.
         23    2    1    0    0    0 -0.18562432197E+02 -0.15844704437E+01  0.22675599463E+02  0.95652815354E+02  0.91039572926E+02 0.  0.
         11    1    3    3    0    0  0.86136264830E+01 -0.31348042102E+02  0.40202894864E+02  0.51702679432E+02  0.51100000000E-03 0. -1.
         22    1    1    0    0    0  0.18562432197E+02  0.15844704437E+01 -0.22675599463E+02  0.29347184646E+02  0.00000000000E+00 0. -1.
</event>
<event>
 5    1  0.1103865E-009  0.9118800E+02  0.7818608E-02  0.1130116E+00
         25   -1    0    0    0    0  0.00000000000E+00  0.00000000000E+00  0.99999998245E-14  0.12500000000E+03  0.12500000000E+03 0.  0.
        -11    1    3    3    0    0 -0.23702560656E+02  0.19439723800E+02  0.32902963299E+02  0.44970203882E+02  0.51100000000E-03 0. -1.
         23    2    1    0    0    0  0.79054573267E+00 -0.12786118304E+01 -0.18974764838E+02  0.10596578051E+03  0.10424224253E+03 0.  0.
         11    1    3    3    0    0  0.24493106389E+02 -0.20718335631E+02 -0.51877728137E+02  0.60995576633E+02  0.51100000000E-03 0.  1.
         22    1    1    0    0    0 -0.79054573267E+00  0.12786118304E+01  0.18974764838E+02  0.19034219485E+02  0.00000000000E+00 0.  1.
</event>
<event>
 5    1  0.1103865E-009  0.9118800E+02  0.7818608E-02  0.1130116E+00
         25   -1    0    0    0    0  0.00000000000E+00  0.00000000000E+00  0.99999998245E-14  0.12500000000E+03  0.12500000000E+03 0.  0.
        -11    1    3    3    0    0 -0.33105762456E+02 -0.24509820520E+01  0.57916181490E+01  0.33697799065E+02  0.51100000000E-03 0.  1.
         23    2    1    0    0    0  0.23441286974E+02  0.15034833764E+02 -0.10740432772E+02  0.95152101289E+02  0.90349462214E+02 0.  0.
         11    1    3    3    0    0  0.56547049429E+02  0.17485815816E+02 -0.16532050921E+02  0.61454302224E+02  0.51100000000E-03 0. -1.
         22    1    1    0    0    0 -0.23441286974E+02 -0.15034833764E+02  0.10740432772E+02  0.29847898711E+02  0.00000000000E+00 0. -1.
</event>
<event>
 5    1  0.1103865E-009  0.9118800E+02  0.7818608E-02  0.1130116E+00
         25   -1    0    0    0    0  0.00000000000E+00  0.00000000000E+00  0.99999998245E-14  0.12500000000E+03  0.12500000000E+03 0.  0.
        -11    1    3    3    0    0  0.27065518294E+02  0.11596279677E+02 -0.51674213489E+02  0.59474703218E+02  0.51100000000E-03 0. -1.
         23    2    1    0    0    0  0.32624546513E+01 -0.23061477848E+01 -0.30514154983E+02  0.94225406870E+02  0.89058136729E+02 0.  0.
         11    1    3    3    0    0 -0.23803063643E+02 -0.13902427462E+02  0.21160058506E+02  0.34750703653E+02  0.51100000000E-03 0.  1.
         22    1    1    0    0    0 -0.32624546513E+01  0.23061477848E+01  0.30514154983E+02  0.30774593130E+02  0.00000000000E+00 0. -1.
</event>
<event>
 5    1  0.1103865E-009  0.9118800E+02  0.7818608E-02  0.1130116E+00
         25   -1    0    0    0    0  0.00000000000E+00  0.00000000000E+00  0.99999998245E-14  0.12500000000E+03  0.12500000000E+03 0.  0.
        -11    1    3    3    0    0 -0.33447538514E+02  0.21170057201E+02 -0.64965389558E+01  0.40113765383E+02  0.51100000000E-03 0. -1.
         23    2    1    0    0    0  0.89227034183E+01  0.19931345104E+02  0.24165444471E+02  0.92429432605E+02  0.86500625150E+02 0.  0.
         11    1    3    3    0    0  0.42370241932E+02 -0.12387120975E+01  0.30661983426E+02  0.52315667222E+02  0.51100000000E-03 0.  1.
         22    1    1    0    0    0 -0.89227034183E+01 -0.19931345104E+02 -0.24165444471E+02  0.32570567395E+02  0.00000000000E+00 0.  1.
</event>
<event>
 5    1  0.1103865E-009  0.9118800E+02  0.7818608E-02  0.1130116E+00
         25   -1    0    0    0    0  0.00000000000E+00  0.00000000000E+00  0.99999998245E-14  0.12500000000E+03  0.12500000000E+03 0.  0.
        -11    1    3    3    0    0  0.13162786954E+01  0.26278948390E+02 -0.22530032517E+02  0.34639833769E+02  0.51100000000E-03 0. -1.
         23    2    1    0    0    0  0.22921333849E+02 -0.23066584498E+02 -0.15647368912E+01  0.92443844401E+02  0.86521448788E+02 0.  0.
         11    1    3    3    0    0  0.21605055153E+02 -0.49345532888E+02  0.20965295626E+02  0.57804010632E+02  0.51100000000E-03 0.  1.
         22    1    1    0    0    0 -0.22921333849E+02  0.23066584498E+02  0.15647368912E+01  0.32556155599E+02  0.00000000000E+00 0.  1.
</event>
<event>
 5    1  0.1103865E-009  0.9118800E+02  0.7818608E-02  0.1130116E+00
         25   -1    0    0    0    0  0.00000000000E+00  0.00000000000E+00  0.99999998245E-14  0.12500000000E+03  0.12500000000E+03 0.  0.
        -11    1    3    3    0    0  0.34077428856E+02  0.34539460218E+02 -0.24124830541E+02  0.54187202534E+02  0.51100000000E-03 0.  1.
         23    2    1    0    0    0  0.54108072153E+01  0.37187229434E+02 -0.16429823499E+02  0.83986514804E+02  0.73291395818E+02 0.  0.
         11    1    3    3    0    0 -0.28666621641E+02  0.26477692164E+01  0.76950070424E+01  0.29799312270E+02  0.51100000000E-03 0. -1.
         22    1    1    0    0    0 -0.54108072153E+01 -0.37187229434E+02  0.16429823499E+02  0.41013485196E+02  0.00000000000E+00 0.  1.
</event>
<event>
 5    1  0.1103865E-009  0.9118800E+02  0.7818608E-02  0.1130116E+00
         25   -1    0    0    0    0  0.00000000000E+00  0.00000000000E+00  0.99999998245E-14  0.12500000000E+03  0.12500000000E+03 0.  0.
        -11    1    3    3    0    0  0.18119573479E+01 -0.36076347576E+02 -0.32827538465E+01  0.36270683988E+02  0.51100000000E-03 0.  1.
         23    2    1    0    0    0 -0.65369254230E+01  0.21191902991E+02 -0.18509059138E+02  0.96113785008E+02  0.91670312817E+02 0.  0.
         11    1    3    3    0    0 -0.83488827709E+01  0.57268250568E+02 -0.15226305292E+02  0.59843101020E+02  0.51100000000E-03 0. -1.
         22    1    1    0    0    0  0.65369254230E+01 -0.21191902991E+02  0.18509059138E+02  0.28886214992E+02  0.00000000000E+00 0. -1.
</event>
<event>
 5    1  0.1103865E-009  0.9118800E+02  0.7818608E-02  0.1130116E+00
         25   -1    0    0    0    0  0.00000000000E+00  0.00000000000E+00  0.99999998245E-14  0.12500000000E+03  0.12500000000E+03 0.  0.
        -11    1    3    3    0    0  0.13739694752E+02 -0.30531969403E+02 -0.49477258199E+01  0.33844650368E+02  0.51100000000E-03 0.  1.
         23    2    1    0    0    0 -0.22905413111E+02  0.17563618396E+02  0.65710936723E+01  0.95397332671E+02  0.90688109296E+02 0.  0.
         11    1    3    3    0    0 -0.36645107863E+02  0.48095587798E+02  0.11518819492E+02  0.61552682303E+02  0.51100000000E-03 0. -1.
         22    1    1    0    0    0  0.22905413111E+02 -0.17563618396E+02 -0.65710936723E+01  0.29602667329E+02  0.00000000000E+00 0. -1.
</event>
<event>
 5    1  0.1103865E-009  0.9118800E+02  0.7818608E-02  0.1130116E+00
         25   -1    0    0    0    0  0.00000000000E+00  0.00000000000E+00  0.99999998245E-14  0.12500000000E+03  0.12500000000E+03 0.  0.
        -11    1    3    3    0    0 -0.19627519852E+02  0.29181035105E+02  0.21848443714E+02  0.41402014906E+02  0.51100000000E-03 0. -1.
         23    2    1    0    0    0 -0.24225121235E+02 -0.13604323347E+02 -0.10564832690E+02  0.95275434362E+02  0.90519934768E+02 0.  0.
         11    1    3    3    0    0 -0.45976013832E+01 -0.42785358452E+02 -0.32413276403E+02  0.53873419455E+02  0.51100000000E-03 0.  1.
         22    1    1    0    0    0  0.24225121235E+02  0.13604323347E+02  0.10564832690E+02  0.29724565638E+02  0.00000000000E+00 0. -1.
</event>
<event>
 5    1  0.1103865E-009  0.9118800E+02  0.7818608E-02  0.1130116E+00
         25   -1    0    0    0    0  0.00000000000E+00  0.00000000000E+00  0.99999998245E-14  0.12500000000E+03  0.12500000000E+03 0.  0.
        -11    1    3    3    0    0  0.36741092671E+01  0.96375524499E+01 -0.48450102758E+02  0.49535784576E+02  0.51100000000E-03 0.  1.
         23    2    1    0    0    0  0.24501272405E+02 -0.10203756068E+02 -0.12263352355E+02  0.95762715613E+02  0.91190344353E+02 0.  0.
         11    1    3    3    0    0  0.20827163138E+02 -0.19841308518E+02  0.36186750402E+02  0.46226931036E+02  0.51100000000E-03 0. -1.
         22    1    1    0    0    0 -0.24501272405E+02  0.10203756068E+02  0.12263352355E+02  0.29237284387E+02  0.00000000000E+00 0. -1.
</event>
<event>
 5    1  0.1103865E-009  0.9118800E+02  0.7818608E-02  0.1130116E+00
         25   -1    0    0    0    0  0.00000000000E+00  0.00000000000E+00  0.99999998245E-14  0.12500000000E+03  0.12500000000E+03 0.  0.
        -11    1    3    3    0    0 -0.29060322444E+02 -0.18054464041E+02  0.62040199763E+01  0.34770042802E+02  0.51100000000E-03 0.  1.
         23    2    1    0    0    0  0.24642496077E+02  0.12323524894E+02  0.73653143385E+01  0.96480362309E+02  0.92168815645E+02 0.  0.
         11    1    3    3    0    0  0.53702818521E+02  0.30377988935E+02  0.11612943622E+01  0.61710319507E+02  0.51100000000E-03 0. -1.
         22    1    1    0    0    0 -0.24642496077E+02 -0.12323524894E+02 -0.73653143385E+01  0.28519637691E+02  0.00000000000E+00 0. -1.
</event>
<event>
 5    1  0.1103865E-009  0.9118800E+02  0.7818608E-02  0.1130116E+00
         25   -1    0    0    0    0  0.00000000000E+00  0.00000000000E+00  0.99999998245E-14  0.12500000000E+03  0.12500000000E+03 0.  0.
        -11    1    3    3    0    0 -0.16437897568E+02 -0.25034885203E+02 -0.18423324621E+02  0.35162036971E+02  0.51100000000E-03 0.  1.
         23    2    1    0    0    0  0.45982702860E+01  0.29256097578E+02 -0.43028898043E+01  0.95073787480E+02  0.90241048697E+02 0.  0.
         11    1    3    3    0    0  0.21036167854E+02  0.54290982782E+02  0.14120434816E+02  0.59911750509E+02  0.51100000000E-03 0. -1.
         22    1    1    0    0    0 -0.45982702860E+01 -0.29256097578E+02  0.43028898043E+01  0.29926212520E+02  0.00000000000E+00 0. -1.
</event>
<event>
 5    1  0.1103865E-009  0.9118800E+02  0.7818608E-02  0.1130116E+00
         25   -1    0    0    0    0  0.00000000000E+00  0.00000000000E+00  0.99999998245E-14  0.12500000000E+03  0.12500000000E+03 0.  0.
        -11    1    3    3    0    0 -0.29678998908E+02  0.32610472103E+02  0.34487388937E+02  0.55979155611E+02  0.51100000000E-03 0. -1.
         23    2    1    0    0    0 -0.14026689863E+02  0.28852644959E+02  0.12676725375E+01  0.92893456379E+02  0.87168595806E+02 0.  0.
         11    1    3    3    0    0  0.15652309045E+02 -0.37578271439E+01 -0.33219716399E+02  0.36914300768E+02  0.51100000000E-03 0.  1.
         22    1    1    0    0    0  0.14026689863E+02 -0.28852644959E+02 -0.12676725375E+01  0.32106543621E+02  0.00000000000E+00 0. -1.
</event>
<event>
 5    1  0.1103865E-009  0.9118800E+02  0.7818608E-02  0.1130116E+00
         25   -1    0    0    0    0  0.00000000000E+00  0.00000000000E+00  0.99999998245E-14  0.12500000000E+03  0.12500000000E+03 0.  0.
        -11    1    3    3    0    0  0.29178551747E+02  0.13883887060E+02 -0.32272381753E+02  0.45668991955E+02  0.51100000000E-03 0.  1.
         23    2    1    0    0    0  0.15671018368E+02  0.71650951606E+00  0.19034741425E+02  0.10033391836E+03  0.97254714995E+02 0.  0.
         11    1    3    3    0    0 -0.13507533378E+02 -0.13167377544E+02  0.51307123178E+02  0.54664926400E+02  0.51100000000E-03 0. -1.
         22    1    1    0    0    0 -0.15671018368E+02 -0.71650951606E+00 -0.19034741425E+02  0.24666081645E+02  0.00000000000E+00 0.  1.
</event>
<event>
 5    1  0.1103865E-009  0.9118800E+02  0.7818608E-02  0.1130116E+00
         25   -1    0    0    0    0  0.00000000000E+00  0.00000000000E+00  0.99999998245E-14  0.12500000000E+03  0.12500000000E+03 0.  0.
        -11    1    3    3    0    0 -0.11923511382E+02  0.52153591652E+01  0.42439437483E+02  0.44390043355E+02  0.51100000000E-03 0.  1.
         23    2    1    0    0    0 -0.17580013759E+01 -0.29330887656E+02  0.72594234741E+01  0.94733008595E+02  0.89767767872E+02 0.  0.
         11    1    3    3    0    0  0.10165510006E+02 -0.34546246822E+02 -0.35180014009E+02  0.50342965240E+02  0.51100000000E-03 0. -1.
         22    1    1    0    0    0  0.17580013759E+01  0.29330887656E+02 -0.72594234741E+01  0.30266991405E+02  0.00000000000E+00 0. -1.
</event>
<event>
 5    1  0.1103865E-009  0.9118800E+02  0.7818608E-02  0.1130116E+00
         25   -1    0    0    0    0  0.00000000000E+00  0.00000000000E+00  0.99999998245E-14  0.12500000000E+03  0.12500000000E+03 0.  0.
        -11    1    3    3    0    0 -0.57260867896E+01 -0.28676399309E+02  0.24744040139E+02  0.38306546045E+02  0.51100000000E-03 0.  1.
         23    2    1    0    0    0  0.21701457867E+02 -0.24111167642E+02 -0.16932960979E+02  0.88407284248E+02  0.80478699430E+02 0.  0.
         11    1    3    3    0    0  0.27427544656E+02  0.45652316671E+01 -0.41677001118E+02  0.50100738203E+02  0.51100000000E-03 0. -1.
         22    1    1    0    0    0 -0.21701457867E+02  0.24111167642E+02  0.16932960979E+02  0.36592715752E+02  0.00000000000E+00 0. -1.
</event>
<event>
 5    1  0.1103865E-009  0.9118800E+02  0.7818608E-02  0.1130116E+00
         25   -1    0    0    0    0  0.00000000000E+00  0.00000000000E+00  0.99999998245E-14  0.12500000000E+03  0.12500000000E+03 0.  0.
        -11    1    3    3    0    0  0.27751138258E+02 -0.32203490382E+02 -0.31999797472E+00  0.42512267245E+02  0.51100000000E-03 0. -1.
         23    2    1    0    0    0 -0.53593331174E+01  0.28809253206E+01  0.26570341360E+02  0.97741877869E+02  0.93864101057E+02 0.  0.
         11    1    3    3    0    0 -0.33110471375E+02  0.35084415702E+02  0.26890339334E+02  0.55229610623E+02  0.51100000000E-03 0.  1.
         22    1    1    0    0    0  0.53593331174E+01 -0.28809253206E+01 -0.26570341360E+02  0.27258122131E+02  0.00000000000E+00 0.  1.
</event>
<event>
 5    1  0.1103865E-009  0.9118800E+02  0.7818608E-02  0.1130116E+00
         25   -1    0    0    0    0  0.00000000000E+00  0.00000000000E+00  0.99999998245E-14  0.12500000000E+03  0.12500000000E+03 0.  0.
        -11    1    3    3    0    0 -0.45490002130E+02  0.14487226651E+02 -0.15130298254E+02  0.50081393304E+02  0.51100000000E-03 0. -1.
         23    2    1    0    0    0  0.39119627214E+00  0.15156600301E+02 -0.23801572527E+02  0.96779609819E+02  0.92573767638E+02 0.  0.
         11    1    3    3    0    0  0.45881198402E+02  0.66937364947E+00 -0.86712742729E+01  0.46698216514E+02  0.51100000000E-03 0.  1.
         22    1    1    0    0    0 -0.39119627214E+00 -0.15156600301E+02  0.23801572527E+02  0.28220390181E+02  0.00000000000E+00 0.  1.
</event>
<event>
 5    1  0.1103865E-009  0.9118800E+02  0.7818608E-02  0.1130116E+00
         25   -1    0    0    0    0  0.00000000000E+00  0.00000000000E+00  0.99999998245E-14  0.12500000000E+03  0.12500000000E+03 0.  0.
        -11    1    3    3    0    0 -0.79469361248E+01  0.27315914613E+02 -0.17776617905E+02  0.33545806435E+02  0.51100000000E-03 0. -1.
         23    2    1    0    0    0 -0.27572296174E+00 -0.20724168994E+02  0.20802533861E+02  0.95634840053E+02  0.91014888965E+02 0.  0.
         11    1    3    3    0    0  0.76712131630E+01 -0.48040083607E+02  0.38579151767E+02  0.62089033619E+02  0.51100000000E-03 0.  1.
         22    1    1    0    0    0  0.27572296174E+00  0.20724168994E+02 -0.20802533861E+02  0.29365159947E+02  0.00000000000E+00 0.  1.
</event>
<event>
 5    1  0.1103865E-009  0.9118800E+02  0.7818608E-02  0.1130116E+00
         25   -1    0    0    0    0  0.00000000000E+00  0.00000000000E+00  0.99999998245E-14  0.12500000000E+03  0.12500000000E+03 0.  0.
        -11    1    3    3    0    0 -0.17693036631E+02  0.38229319452E+02  0.23183536629E+02  0.48083269251E+02  0.51100000000E-03 0.  1.
         23    2    1    0    0    0  0.10647387635E+02  0.24635151815E+02 -0.12292752549E+02  0.95481034340E+02  0.90803406241E+02 0.  0.
         11    1    3    3    0    0  0.28340424266E+02 -0.13594167637E+02 -0.35476289178E+02  0.47397765089E+02  0.51100000000E-03 0. -1.
         22    1    1    0    0    0 -0.10647387635E+02 -0.24635151815E+02  0.12292752549E+02  0.29518965660E+02  0.00000000000E+00 0.  1.
</event>
<event>
 5    1  0.1103865E-009  0.9118800E+02  0.7818608E-02  0.1130116E+00
         25   -1    0    0    0    0  0.00000000000E+00  0.00000000000E+00  0.99999998245E-14  0.12500000000E+03  0.12500000000E+03 0.  0.
        -11    1    3    3    0    0  0.27728291452E+02 -0.53350851826E+02 -0.12971040911E+02  0.61509506908E+02  0.51100000000E-03 0. -1.
         23    2    1    0    0    0  0.16135445486E+02 -0.23998694884E+02  0.10943885544E+01  0.96060621232E+02  0.91597790956E+02 0.  0.
         11    1    3    3    0    0 -0.11592845965E+02  0.29352156942E+02  0.14065429465E+02  0.34551114324E+02  0.51100000000E-03 0.  1.
         22    1    1    0    0    0 -0.16135445486E+02  0.23998694884E+02 -0.10943885544E+01  0.28939378768E+02  0.00000000000E+00 0. -1.
</event>
<event>
 5    1  0.1103865E-009  0.9118800E+02  0.7818608E-02  0.1130116E+00
         25   -1    0    0    0    0  0.00000000000E+00  0.00000000000E+00  0.99999998245E-14  0.12500000000E+03  0.12500000000E+03 0.  0.
        -11    1    3    3    0    0 -0.36857923638E+00 -0.29290065118E+02 -0.23509328877E+02  0.37559716582E+02  0.51100000000E-03 0.  1.
         23    2    1    0    0    0 -0.21306050609E+02  0.64009453329E+01  0.18158632869E+02  0.96283178425E+02  0.91901004381E+02 0.  0.
         11    1    3    3    0    0 -0.20937471373E+02  0.35691010450E+02  0.41667961746E+02  0.58723461843E+02  0.51100000000E-03 0. -1.
         22    1    1    0    0    0  0.21306050609E+02 -0.64009453329E+01 -0.18158632869E+02  0.28716821575E+02  0.00000000000E+00 0. -1.
</event>
<event>
 5    1  0.1103865E-009  0.9118800E+02  0.7818608E-02  0.1130116E+00
         25   -1    0    0    0    0  0.00000000000E+00  0.00000000000E+00  0.99999998245E-14  0.12500000000E+03  0.12500000000E+03 0.  0.
        -11    1    3    3    0    0 -0.31325076187E+01  0.36056551975E+02 -0.32255430344E+02  0.48479896155E+02  0.51100000000E-03 0.  1.
         23    2    1    0    0    0  0.27798297501E+02  0.12687435669E+02 -0.12559205060E+02  0.91962899650E+02  0.85823801550E+02 0.  0.
         11    1    3    3    0    0  0.30930805120E+02 -0.23369116306E+02  0.19696225284E+02  0.43483003495E+02  0.51100000000E-03 0. -1.
         22    1    1    0    0    0 -0.27798297501E+02 -0.12687435669E+02  0.12559205060E+02  0.33037100350E+02  0.00000000000E+00 0.  1.
</event>
<event>
 5    1  0.1103865E-009  0.9118800E+02  0.7818608E-02  0.1130116E+00
         25   -1    0    0    0    0  0.00000000000E+00  0.00000000000E+00  0.99999998245E-14  0.12500000000E+03  0.12500000000E+03 0.  0.
        -11    1    3    3    0    0  0.15586798500E+01 -0.17929004726E+02 -0.31036880556E+02  0.35877104792E+02  0.51100000000E-03 0.  1.
         23    2    1    0    0    0  0.26844391785E+02  0.69831029909E+01  0.14569064303E+02  0.93668821721E+02  0.88273469572E+02 0.  0.
         11    1    3    3    0    0  0.25285711935E+02  0.24912107717E+02  0.45605944859E+02  0.57791716929E+02  0.51100000000E-03 0. -1.
         22    1    1    0    0    0 -0.26844391785E+02 -0.69831029909E+01 -0.14569064303E+02  0.31331178279E+02  0.00000000000E+00 0. -1.
</event>
<event>
 5    1  0.1103865E-009  0.9118800E+02  0.7818608E-02  0.1130116E+00
         25   -1    0    0    0    0  0.00000000000E+00  0.00000000000E+00  0.99999998245E-14  0.12500000000E+03  0.12500000000E+03 0.  0.
        -11    1    3    3    0    0 -0.15176815029E+02  0.19894777419E+02 -0.29632958913E+02  0.38784663685E+02  0.51100000000E-03 0.  1.
         23    2    1    0    0    0  0.62023888290E+01  0.15470044605E+02  0.23477794303E+02  0.96207661912E+02  0.91798232434E+02 0.  0.
         11    1    3    3    0    0  0.21379203858E+02 -0.44247328144E+01  0.53110753215E+02  0.57422998227E+02  0.51100000000E-03 0. -1.
         22    1    1    0    0    0 -0.62023888290E+01 -0.15470044605E+02 -0.23477794303E+02  0.28792338088E+02  0.00000000000E+00 0. -1.
</event>
<event>
 5    1  0.1103865E-009  0.9118800E+02  0.7818608E-02  0.1130116E+00
         25   -1    0    0    0    0  0.00000000000E+00  0.00000000000E+00  0.99999998245E-14  0.12500000000E+03  0.12500000000E+03 0.  0.
        -11    1    3    3    0    0 -0.24486057854E+02  0.28117472542E+02 -0.44211562511E+02  0.57834432230E+02  0.51100000000E-03 0. -1.
         23    2    1    0    0    0 -0.95043716376E+01 -0.24367801697E+01 -0.27611462028E+02  0.95697034056E+02  0.91100266267E+02 0.  0.
         11    1    3    3    0    0  0.14981686217E+02 -0.30554252712E+02  0.16600100484E+02  0.37862601826E+02  0.51100000000E-03 0.  1.
         22    1    1    0    0    0  0.95043716376E+01  0.24367801697E+01  0.27611462028E+02  0.29302965944E+02  0.00000000000E+00 0. -1.
</event>
<event>
 5    1  0.1103865E-009  0.9118800E+02  0.7818608E-02  0.1130116E+00
         25   -1    0    0    0    0  0.00000000000E+00  0.00000000000E+00  0.99999998245E-14  0.12500000000E+03  0.12500000000E+03 0.  0.
        -11    1    3    3    0    0 -0.32403212355E+02  0.36838630397E+01 -0.18210574625E+02  0.37351894815E+02  0.51100000000E-03 0.  1.
         23    2    1    0    0    0  0.72211319609E+01 -0.30386100886E+01  0.26438383571E+02  0.97425264753E+02  0.93441512125E+02 0.  0.
         11    1    3    3    0    0  0.39624344316E+02 -0.67224731283E+01  0.44648958197E+02  0.60073369938E+02  0.51100000000E-03 0. -1.
         22    1    1    0    0    0 -0.72211319609E+01  0.30386100886E+01 -0.26438383571E+02  0.27574735247E+02  0.00000000000E+00 0. -1.
</event>
<event>
 5    1  0.1103865E-009  0.9118800E+02  0.7818608E-02  0.1130116E+00
         25   -1    0    0    0    0  0.00000000000E+00  0.00000000000E+00  0.99999998245E-14  0.12500000000E+03  0.12500000000E+03 0.  0.
        -11    1    3    3    0    0 -0.15336825600E+02 -0.36837996102E+02  0.35254982805E+01  0.40058523621E+02  0.51100000000E-03 0.  1.
         23    2    1    0    0    0  0.17468240454E+02  0.31160292761E+01  0.23563846095E+02  0.95502476277E+02  0.90832918423E+02 0.  0.
         11    1    3    3    0    0  0.32805066054E+02  0.39954025378E+02  0.20038347814E+02  0.55443952656E+02  0.51100000000E-03 0. -1.
         22    1    1    0    0    0 -0.17468240454E+02 -0.31160292761E+01 -0.23563846095E+02  0.29497523723E+02  0.00000000000E+00 0. -1.
</event>
<event>
 5    1  0.1103865E-009  0.9118800E+02  0.7818608E-02  0.1130116E+00
         25   -1    0    0    0    0  0.00000000000E+00  0.00000000000E+00  0.99999998245E-14  0.12500000000E+03  0.12500000000E+03 0.  0.
        -11    1    3    3    0    0 -0.16707453727E+02  0.31081515775E+02 -0.34918141229E+02  0.49643491215E+02  0.51100000000E-03 0.  1.
         23    2    1    0    0    0  0.32084700852E+01  0.27095924840E+02  0.75250148956E+01  0.96696126194E+02  0.92460973111E+02 0.  0.
         11    1    3    3    0    0  0.19915923812E+02 -0.39855909348E+01  0.42443156124E+02  0.47052634979E+02  0.51100000000E-03 0. -1.
         22    1    1    0    0    0 -0.32084700852E+01 -0.27095924840E+02 -0.75250148956E+01  0.28303873806E+02  0.00000000000E+00 0. -1.
</event>
<event>
 5    1  0.1103865E-009  0.9118800E+02  0.7818608E-02  0.1130116E+00
         25   -1    0    0    0    0  0.00000000000E+00  0.00000000000E+00  0.99999998245E-14  0.12500000000E+03  0.12500000000E+03 0.  0.
        -11    1    3    3    0    0 -0.98822793076E+01  0.49561594879E+02 -0.10404102064E+02  0.51597058747E+02  0.51100000000E-03 0.  1.
         23    2    1    0    0    0  0.11771597492E+02  0.20703529817E+02  0.16002445361E+02  0.96307058151E+02  0.91933478873E+02 0.  0.
         11    1    3    3    0    0  0.21653876800E+02 -0.28858065062E+02  0.26406547425E+02  0.44709999404E+02  0.51100000000E-03 0. -1.
         22    1    1    0    0    0 -0.11771597492E+02 -0.20703529817E+02 -0.16002445361E+02  0.28692941849E+02  0.00000000000E+00 0.  1.
</event>
<event>
 5    1  0.1103865E-009  0.9118800E+02  0.7818608E-02  0.1130116E+00
         25   -1    0    0    0    0  0.00000000000E+00  0.00000000000E+00  0.99999998245E-14  0.12500000000E+03  0.12500000000E+03 0.  0.
        -11    1    3    3    0    0 -0.84569357818E+01  0.32281695175E+02  0.28329669218E+02  0.43774396220E+02  0.51100000000E-03 0. -1.
         23    2    1    0    0    0 -0.23645262189E+02 -0.13656801748E+02  0.14431508978E+02  0.94115131385E+02  0.88903221799E+02 0.  0.
         11    1    3    3    0    0 -0.15188326407E+02 -0.45938496923E+02 -0.13898160240E+02  0.50340735165E+02  0.51100000000E-03 0.  1.
         22    1    1    0    0    0  0.23645262189E+02  0.13656801748E+02 -0.14431508978E+02  0.30884868615E+02  0.00000000000E+00 0.  1.
</event>
<event>
 5    1  0.1103865E-009  0.9118800E+02  0.7818608E-02  0.1130116E+00
         25   -1    0    0    0    0  0.00000000000E+00  0.00000000000E+00  0.99999998245E-14  0.12500000000E+03  0.12500000000E+03 0.  0.
        -11    1    3    3    0    0 -0.13038815435E+02  0.26454887608E+02  0.50096158934E+02  0.58133440690E+02  0.51100000000E-03 0.  1.
         23    2    1    0    0    0  0.89338418736E+01  0.74430057774E+01  0.28140011831E+02  0.94552140774E+02  0.89515558388E+02 0.  0.
         11    1    3    3    0    0  0.21972657308E+02 -0.19011881830E+02 -0.21956147103E+02  0.36418700084E+02  0.51100000000E-03 0. -1.
         22    1    1    0    0    0 -0.89338418736E+01 -0.74430057774E+01 -0.28140011831E+02  0.30447859226E+02  0.00000000000E+00 0.  1.
</event>
<event>
 5    1  0.1103865E-009  0.9118800E+02  0.7818608E-02  0.1130116E+00
         25   -1    0    0    0    0  0.00000000000E+00  0.00000000000E+00  0.99999998245E-14  0.12500000000E+03  0.12500000000E+03 0.  0.
        -11    1    3    3    0    0  0.11258066274E+02  0.50677641808E+01  0.32217473226E+02  0.34502056046E+02  0.51100000000E-03 0. -1.
         23    2    1    0    0    0 -0.95077740238E+01  0.14867618690E+02 -0.23989504417E+02  0.95218459164E+02  0.90441222853E+02 0.  0.
         11    1    3    3    0    0 -0.20765840298E+02  0.97998545088E+01 -0.56206977643E+02  0.60716403119E+02  0.51100000000E-03 0.  1.
         22    1    1    0    0    0  0.95077740238E+01 -0.14867618690E+02  0.23989504417E+02  0.29781540836E+02  0.00000000000E+00 0.  1.
</event>
<event>
 5    1  0.1103865E-009  0.9118800E+02  0.7818608E-02  0.1130116E+00
         25   -1    0    0    0    0  0.00000000000E+00  0.00000000000E+00  0.99999998245E-14  0.12500000000E+03  0.12500000000E+03 0.  0.
        -11    1    3    3    0    0  0.11408860352E+02 -0.26314383054E+02 -0.51199098622E+02  0.58685232810E+02  0.51100000000E-03 0.  1.
         23    2    1    0    0    0  0.19193136029E+02 -0.56449034235E+01 -0.22670067460E+02  0.94764700036E+02  0.89811886791E+02 0.  0.
         11    1    3    3    0    0  0.77842756766E+01  0.20669479631E+02  0.28529031162E+02  0.36079467226E+02  0.51100000000E-03 0. -1.
         22    1    1    0    0    0 -0.19193136029E+02  0.56449034235E+01  0.22670067460E+02  0.30235299964E+02  0.00000000000E+00 0.  1.
</event>
<event>
 5    1  0.1103865E-009  0.9118800E+02  0.7818608E-02  0.1130116E+00
         25   -1    0    0    0    0  0.00000000000E+00  0.00000000000E+00  0.99999998245E-14  0.12500000000E+03  0.12500000000E+03 0.  0.
        -11    1    3    3    0    0  0.97652393371E+01 -0.40285679277E+02  0.46707472445E+02  0.62449049926E+02  0.51100000000E-03 0.  1.
         23    2    1    0    0    0  0.28998757761E+01 -0.16530565822E+02  0.20982647676E+02  0.98131051576E+02  0.94380945609E+02 0.  0.
         11    1    3    3    0    0 -0.68653635610E+01  0.23755113456E+02 -0.25724824769E+02  0.35682001650E+02  0.51100000000E-03 0. -1.
         22    1    1    0    0    0 -0.28998757761E+01  0.16530565822E+02 -0.20982647676E+02  0.26868948424E+02  0.00000000000E+00 0.  1.
</event>
<event>
 5    1  0.1103865E-009  0.9118800E+02  0.7818608E-02  0.1130116E+00
         25   -1    0    0    0    0  0.00000000000E+00  0.00000000000E+00  0.99999998245E-14  0.12500000000E+03  0.12500000000E+03 0.  0.
        -11    1    3    3    0    0 -0.35809165148E+02  0.17708956932E+02 -0.26907476562E+02  0.48165503832E+02  0.51100000000E-03 0. -1.
         23    2    1    0    0    0 -0.56614474202E+01 -0.16484697046E+02 -0.25923001420E+02  0.93762214767E+02  0.88405620250E+02 0.  0.
         11    1    3    3    0    0  0.30147717727E+02 -0.34193653979E+02  0.98447514167E+00  0.45596710936E+02  0.51100000000E-03 0.  1.
         22    1    1    0    0    0  0.56614474202E+01  0.16484697046E+02  0.25923001420E+02  0.31237785233E+02  0.00000000000E+00 0. -1.
</event>
<event>
 5    1  0.1103865E-009  0.9118800E+02  0.7818608E-02  0.1130116E+00
         25   -1    0    0    0    0  0.00000000000E+00  0.00000000000E+00  0.99999998245E-14  0.12500000000E+03  0.12500000000E+03 0.  0.
        -11    1    3    3    0    0 -0.29939020577E+02 -0.42048063032E+02 -0.40211289669E+01  0.51774067218E+02  0.51100000000E-03 0.  1.
         23    2    1    0    0    0 -0.20727327374E+02  0.68111722129E+01  0.57324605306E+01  0.10244173609E+03  0.99927143569E+02 0.  0.
         11    1    3    3    0    0  0.92116932026E+01  0.48859235245E+02  0.97535894975E+01  0.50667668870E+02  0.51100000000E-03 0. -1.
         22    1    1    0    0    0  0.20727327374E+02 -0.68111722129E+01 -0.57324605306E+01  0.22558263912E+02  0.00000000000E+00 0. -1.
</event>
<event>
 5    1  0.1103865E-009  0.9118800E+02  0.7818608E-02  0.1130116E+00
         25   -1    0    0    0    0  0.00000000000E+00  0.00000000000E+00  0.99999998245E-14  0.12500000000E+03  0.12500000000E+03 0.  0.
        -11    1    3    3    0    0  0.33293105998E+02 -0.25064287026E+01 -0.24011257316E+02  0.41124853434E+02  0.51100000000E-03 0. -1.
         23    2    1    0    0    0  0.72754842099E+01 -0.15645522382E+02  0.22884004413E+02  0.96340050609E+02  0.91978327080E+02 0.  0.
         11    1    3    3    0    0 -0.26017621788E+02 -0.13139093680E+02  0.46895261729E+02  0.55215197175E+02  0.51100000000E-03 0.  1.
         22    1    1    0    0    0 -0.72754842099E+01  0.15645522382E+02 -0.22884004413E+02  0.28659949391E+02  0.00000000000E+00 0.  1.
</event>
<event>
 5    1  0.1103865E-009  0.9118800E+02  0.7818608E-02  0.1130116E+00
         25   -1    0    0    0    0  0.00000000000E+00  0.00000000000E+00  0.99999998245E-14  0.12500000000E+03  0.12500000000E+03 0.  0.
        -11    1    3    3    0    0  0.18524500293E+02 -0.40429960052E+02  0.94291039025E+01  0.45460386949E+02  0.51100000000E-03 0. -1.
         23    2    1    0    0    0  0.24046393033E+02  0.72472743257E+01  0.17848178097E+02  0.94189133987E+02  0.89007210364E+02 0.  0.
         11    1    3    3    0    0  0.55218927402E+01  0.47677234378E+02  0.84190741944E+01  0.48728747038E+02  0.51100000000E-03 0.  1.
         22    1    1    0    0    0 -0.24046393033E+02 -0.72472743257E+01 -0.17848178097E+02  0.30810866013E+02  0.00000000000E+00 0.  1.
</event>
<event>
 5    1  0.1103865E-009  0.9118800E+02  0.7818608E-02  0.1130116E+00
         25   -1    0    0    0    0  0.00000000000E+00  0.00000000000E+00  0.99999998245E-14  0.12500000000E+03  0.12500000000E+03 0.  0.
        -11    1    3    3    0    0  0.22586553219E+02  0.43371565091E+02  0.13266304366E+02  0.50667937362E+02  0.51100000000E-03 0.  1.
         23    2    1    0    0    0 -0.14536006670E+02  0.25018239889E+02 -0.44777647376E+01  0.95721028124E+02  0.91133182931E+02 0.  0.
         11    1    3    3    0    0 -0.37122559889E+02 -0.18353325202E+02 -0.17744069103E+02  0.45053090762E+02  0.51100000000E-03 0. -1.
         22    1    1    0    0    0  0.14536006670E+02 -0.25018239889E+02  0.44777647376E+01  0.29278971876E+02  0.00000000000E+00 0. -1.
</event>
<event>
 5    1  0.1103865E-009  0.9118800E+02  0.7818608E-02  0.1130116E+00
         25   -1    0    0    0    0  0.00000000000E+00  0.00000000000E+00  0.99999998245E-14  0.12500000000E+03  0.12500000000E+03 0.  0.
        -11    1    3    3    0    0  0.22922400257E+02  0.72930516776E+01 -0.32145320270E+02  0.40149055430E+02  0.51100000000E-03 0.  1.
         23    2    1    0    0    0 -0.26245960114E+02 -0.37457447923E+01 -0.31137373884E+01  0.98305873551E+02  0.94612199994E+02 0.  0.
         11    1    3    3    0    0 -0.49168360371E+02 -0.11038796470E+02  0.29031582882E+02  0.58156818121E+02  0.51100000000E-03 0. -1.
         22    1    1    0    0    0  0.26245960114E+02  0.37457447923E+01  0.31137373884E+01  0.26694126449E+02  0.00000000000E+00 0. -1.
</event>
<event>
 5    1  0.1103865E-009  0.9118800E+02  0.7818608E-02  0.1130116E+00
         25   -1    0    0    0    0  0.00000000000E+00  0.00000000000E+00  0.99999998245E-14  0.12500000000E+03  0.12500000000E+03 0.  0.
        -11    1    3    3    0    0  0.21030419487E+02  0.10134289957E+02  0.22580142558E+02  0.32478380731E+02  0.51100000000E-03 0.  1.
         23    2    1    0    0    0 -0.17812077341E+02 -0.17539862350E+02 -0.17259939756E+02  0.94622008117E+02  0.89613068407E+02 0.  0.
         11    1    3    3    0    0 -0.38842496829E+02 -0.27674152306E+02 -0.39840082313E+02  0.62143627386E+02  0.51100000000E-03 0. -1.
         22    1    1    0    0    0  0.17812077341E+02  0.17539862350E+02  0.17259939756E+02  0.30377991883E+02  0.00000000000E+00 0. -1.
</event>
<event>
 5    1  0.1103865E-009  0.9118800E+02  0.7818608E-02  0.1130116E+00
         25   -1    0    0    0    0  0.00000000000E+00  0.00000000000E+00  0.99999998245E-14  0.12500000000E+03  0.12500000000E+03 0.  0.
        -11    1    3    3    0    0 -0.64685148630E+01  0.14943134466E+02  0.30773540106E+02  0.34815940647E+02  0.51100000000E-03 0.  1.
         23    2    1    0    0    0  0.12935124853E+02 -0.50973951936E+01 -0.24556993583E+02  0.96780382239E+02  0.92574810612E+02 0.  0.
         11    1    3    3    0    0  0.19403639716E+02 -0.20040529659E+02 -0.55330533689E+02  0.61964441592E+02  0.51100000000E-03 0. -1.
         22    1    1    0    0    0 -0.12935124853E+02  0.50973951936E+01  0.24556993583E+02  0.28219617761E+02  0.00000000000E+00 0. -1.
</event>
<event>
 5    1  0.1103865E-009  0.9118800E+02  0.7818608E-02  0.1130116E+00
         25   -1    0    0    0    0  0.00000000000E+00  0.00000000000E+00  0.99999998245E-14  0.12500000000E+03  0.12500000000E+03 0.  0.
        -11    1    3    3    0    0 -0.24913577408E+02  0.31974926543E+02 -0.15529457347E+02  0.43407906105E+02  0.51100000000E-03 0.  1.
         23    2    1    0    0    0 -0.15791007979E+02  0.56376641297E+00  0.24960175872E+02  0.95458772113E+02  0.90772754878E+02 0.  0.
         11    1    3    3    0    0  0.91225694288E+01 -0.31411160130E+02  0.40489633218E+02  0.52050866008E+02  0.51100000000E-03 0. -1.
         22    1    1    0    0    0  0.15791007979E+02 -0.56376641297E+00 -0.24960175872E+02  0.29541227887E+02  0.00000000000E+00 0. -1.
</event>
<event>
 5    1  0.1103865E-009  0.9118800E+02  0.7818608E-02  0.1130116E+00
         25   -1    0    0    0    0  0.00000000000E+00  0.00000000000E+00  0.99999998245E-14  0.12500000000E+03  0.12500000000E+03 0.  0.
        -11    1    3    3    0    0 -0.12347780759E+02 -0.30376437385E+02  0.24854982816E+02  0.41145665737E+02  0.51100000000E-03 0. -1.
         23    2    1    0    0    0  0.47161497116E+01 -0.18374218631E+02 -0.24081958420E+02  0.94343928828E+02  0.89224336405E+02 0.  0.
         11    1    3    3    0    0  0.17063930471E+02  0.12002218754E+02 -0.48936941235E+02  0.53198263091E+02  0.51100000000E-03 0.  1.
         22    1    1    0    0    0 -0.47161497116E+01  0.18374218631E+02  0.24081958420E+02  0.30656071172E+02  0.00000000000E+00 0.  1.
</event>
<event>
 5    1  0.1103865E-009  0.9118800E+02  0.7818608E-02  0.1130116E+00
         25   -1    0    0    0    0  0.00000000000E+00  0.00000000000E+00  0.99999998245E-14  0.12500000000E+03  0.12500000000E+03 0.  0.
        -11    1    3    3    0    0  0.90674165445E+01 -0.29031563890E+01  0.55369646173E+02  0.56182239875E+02  0.51100000000E-03 0.  1.
         23    2    1    0    0    0  0.63166115722E+01 -0.20566198728E+02  0.20931856897E+02  0.94983158976E+02  0.90115424562E+02 0.  0.
         11    1    3    3    0    0 -0.27508049723E+01 -0.17663042339E+02 -0.34437789275E+02  0.38800919101E+02  0.51100000000E-03 0. -1.
         22    1    1    0    0    0 -0.63166115722E+01  0.20566198728E+02 -0.20931856897E+02  0.30016841024E+02  0.00000000000E+00 0.  1.
</event>
<event>
 5    1  0.1103865E-009  0.9118800E+02  0.7818608E-02  0.1130116E+00
         25   -1    0    0    0    0  0.00000000000E+00  0.00000000000E+00  0.99999998245E-14  0.12500000000E+03  0.12500000000E+03 0.  0.
        -11    1    3    3    0    0  0.28729822782E+02  0.53326219117E+02  0.33943072408E+01  0.60668028519E+02  0.51100000000E-03 0. -1.
         23    2    1    0    0    0  0.80489593085E+01  0.21803203036E+02 -0.85800262002E+01  0.10022537068E+03  0.97115100108E+02 0.  0.
         11    1    3    3    0    0 -0.20680863474E+02 -0.31523016082E+02 -0.11974333441E+02  0.39557342157E+02  0.51100000000E-03 0.  1.
         22    1    1    0    0    0 -0.80489593085E+01 -0.21803203036E+02  0.85800262002E+01  0.24774629324E+02  0.00000000000E+00 0. -1.
</event>
<event>
 5    1  0.1103865E-009  0.9118800E+02  0.7818608E-02  0.1130116E+00
         25   -1    0    0    0    0  0.00000000000E+00  0.00000000000E+00  0.99999998245E-14  0.12500000000E+03  0.12500000000E+03 0.  0.
        -11    1    3    3    0    0 -0.12689484274E+02  0.39607783840E+02  0.40098351011E+02  0.57772634576E+02  0.51100000000E-03 0. -1.
         23    2    1    0    0    0 -0.13827201610E+02  0.31729404690E+01  0.22860020505E+02  0.98095732809E+02  0.94334157135E+02 0.  0.
         11    1    3    3    0    0 -0.11377173357E+01 -0.36434843371E+02 -0.17238330506E+02  0.40323098233E+02  0.51100000000E-03 0.  1.
         22    1    1    0    0    0  0.13827201610E+02 -0.31729404690E+01 -0.22860020505E+02  0.26904267191E+02  0.00000000000E+00 0. -1.
</event>
<event>
 5    1  0.1103865E-009  0.9118800E+02  0.7818608E-02  0.1130116E+00
         25   -1    0    0    0    0  0.00000000000E+00  0.00000000000E+00  0.99999998245E-14  0.12500000000E+03  0.12500000000E+03 0.  0.
        -11    1    3    3    0    0 -0.36687589775E+02 -0.30859428488E+02  0.76666357177E+01  0.48549571302E+02  0.51100000000E-03 0.  1.
         23    2    1    0    0    0 -0.17193585101E+02  0.16254842622E+02 -0.43697952846E+01  0.10093894458E+03  0.98029261672E+02 0.  0.
         11    1    3    3    0    0  0.19494004674E+02  0.47114271110E+02 -0.12036431002E+02  0.52389373274E+02  0.51100000000E-03 0. -1.
         22    1    1    0    0    0  0.17193585101E+02 -0.16254842622E+02  0.43697952846E+01  0.24061055424E+02  0.00000000000E+00 0. -1.
</event>
<event>
 5    1  0.1103865E-009  0.9118800E+02  0.7818608E-02  0.1130116E+00
         25   -1    0    0    0    0  0.00000000000E+00  0.00000000000E+00  0.99999998245E-14  0.12500000000E+03  0.12500000000E+03 0.  0.
        -11    1    3    3    0    0 -0.79904054616E+01 -0.99681611552E+01 -0.52104770116E+02  0.53648093026E+02  0.51100000000E-03 0.  1.
         23    2    1    0    0    0  0.19850142645E+02 -0.34197596174E+01 -0.21940047805E+02  0.95215967087E+02  0.90437778455E+02 0.  0.
         11    1    3    3    0    0  0.27840548107E+02  0.65484015378E+01  0.30164722311E+02  0.41567874061E+02  0.51100000000E-03 0. -1.
         22    1    1    0    0    0 -0.19850142645E+02  0.34197596174E+01  0.21940047805E+02  0.29784032913E+02  0.00000000000E+00 0.  1.
</event>
<event>
 5    1  0.1103865E-009  0.9118800E+02  0.7818608E-02  0.1130116E+00
         25   -1    0    0    0    0  0.00000000000E+00  0.00000000000E+00  0.99999998245E-14  0.12500000000E+03  0.12500000000E+03 0.  0.
        -11    1    3    3    0    0 -0.40574737047E+02  0.25146512963E+01 -0.12876838182E+02  0.42643237675E+02  0.51100000000E-03 0.  1.
         23    2    1    0    0    0  0.58525548516E+01 -0.22629812271E+02  0.92110750410E+01  0.99876212365E+02  0.96664642405E+02 0.  0.
         11    1    3    3    0    0  0.46427291899E+02 -0.25144463567E+02  0.22087913223E+02  0.57232974690E+02  0.51100000000E-03 0. -1.
         22    1    1    0    0    0 -0.58525548516E+01  0.22629812271E+02 -0.92110750410E+01  0.25123787635E+02  0.00000000000E+00 0. -1.
</event>
<event>
 5    1  0.1103865E-009  0.9118800E+02  0.7818608E-02  0.1130116E+00
         25   -1    0    0    0    0  0.00000000000E+00  0.00000000000E+00  0.99999998245E-14  0.12500000000E+03  0.12500000000E+03 0.  0.
        -11    1    3    3    0    0  0.24288600006E+02 -0.14249666718E+02 -0.32566649843E+02  0.43053173798E+02  0.51100000000E-03 0.  1.
         23    2    1    0    0    0 -0.11117167945E+02 -0.30055181142E+02 -0.11887267931E+01  0.92932595864E+02  0.87224703875E+02 0.  0.
         11    1    3    3    0    0 -0.35405767951E+02 -0.15805514424E+02  0.31377923050E+02  0.49879422066E+02  0.51100000000E-03 0. -1.
         22    1    1    0    0    0  0.11117167945E+02  0.30055181142E+02  0.11887267931E+01  0.32067404136E+02  0.00000000000E+00 0.  1.
</event>
<event>
 5    1  0.1103865E-009  0.9118800E+02  0.7818608E-02  0.1130116E+00
         25   -1    0    0    0    0  0.00000000000E+00  0.00000000000E+00  0.99999998245E-14  0.12500000000E+03  0.12500000000E+03 0.  0.
        -11    1    3    3    0    0 -0.30963725477E+02 -0.48123293806E+00  0.48892321659E+02  0.57874372550E+02  0.51100000000E-03 0. -1.
         23    2    1    0    0    0 -0.19772477000E+02  0.12810593190E+02  0.12209211018E+02  0.98464608949E+02  0.94821686534E+02 0.  0.
         11    1    3    3    0    0  0.11191248477E+02  0.13291826128E+02 -0.36683110642E+02  0.40590236399E+02  0.51100000000E-03 0.  1.
         22    1    1    0    0    0  0.19772477000E+02 -0.12810593190E+02 -0.12209211018E+02  0.26535391051E+02  0.00000000000E+00 0. -1.
</event>
<event>
 5    1  0.1103865E-009  0.9118800E+02  0.7818608E-02  0.1130116E+00
         25   -1    0    0    0    0  0.00000000000E+00  0.00000000000E+00  0.99999998245E-14  0.12500000000E+03  0.12500000000E+03 0.  0.
        -11    1    3    3    0    0  0.44409208679E+02  0.22340036921E+02  0.12575700663E+01  0.49727623590E+02  0.51100000000E-03 0. -1.
         23    2    1    0    0    0  0.62739236023E+01  0.99956552060E+01  0.25730943293E+02  0.96691755916E+02  0.92455064648E+02 0.  0.
         11    1    3    3    0    0 -0.38135285077E+02 -0.12344381715E+02  0.24473373227E+02  0.46964132327E+02  0.51100000000E-03 0.  1.
         22    1    1    0    0    0 -0.62739236023E+01 -0.99956552060E+01 -0.25730943293E+02  0.28308244084E+02  0.00000000000E+00 0. -1.
</event>
<event>
 5    1  0.1103865E-009  0.9118800E+02  0.7818608E-02  0.1130116E+00
         25   -1    0    0    0    0  0.00000000000E+00  0.00000000000E+00  0.99999998245E-14  0.12500000000E+03  0.12500000000E+03 0.  0.
        -11    1    3    3    0    0 -0.20846339818E+02  0.25593623616E+02 -0.45034792460E+01  0.33314933276E+02  0.51100000000E-03 0.  1.
         23    2    1    0    0    0  0.24476187909E+02 -0.16658721842E+02 -0.18664339148E+01  0.95333851555E+02  0.90600567817E+02 0.  0.
         11    1    3    3    0    0  0.45322527727E+02 -0.42252345457E+02  0.26370453312E+01  0.62018918280E+02  0.51100000000E-03 0. -1.
         22    1    1    0    0    0 -0.24476187909E+02  0.16658721842E+02  0.18664339148E+01  0.29666148445E+02  0.00000000000E+00 0. -1.
</event>
<event>
 5    1  0.1103865E-009  0.9118800E+02  0.7818608E-02  0.1130116E+00
         25   -1    0    0    0    0  0.00000000000E+00  0.00000000000E+00  0.99999998245E-14  0.12500000000E+03  0.12500000000E+03 0.  0.
        -11    1    3    3    0    0  0.22182731262E+02  0.19634512603E+02  0.67838943067E+01  0.30390934069E+02  0.51100000000E-03 0. -1.
         23    2    1    0    0    0 -0.32444968253E+02 -0.64895360344E+01 -0.31870259729E+01  0.91759254259E+02  0.85526683349E+02 0.  0.
         11    1    3    3    0    0 -0.54627699514E+02 -0.26124048637E+02 -0.99709202797E+01  0.61368320190E+02  0.51100000000E-03 0.  1.
         22    1    1    0    0    0  0.32444968253E+02  0.64895360344E+01  0.31870259729E+01  0.33240745741E+02  0.00000000000E+00 0.  1.
</event>
<event>
 5    1  0.1103865E-009  0.9118800E+02  0.7818608E-02  0.1130116E+00
         25   -1    0    0    0    0  0.00000000000E+00  0.00000000000E+00  0.99999998245E-14  0.12500000000E+03  0.12500000000E+03 0.  0.
        -11    1    3    3    0    0 -0.47544290715E+02 -0.27399943246E+02  0.15816764492E+02  0.57108550224E+02  0.51100000000E-03 0. -1.
         23    2    1    0    0    0 -0.27470736038E+02  0.42024727950E+01  0.15734358415E+01  0.97165169007E+02  0.93092922673E+02 0.  0.
         11    1    3    3    0    0  0.20073554678E+02  0.31602416041E+02 -0.14243328650E+02  0.40056618783E+02  0.51100000000E-03 0.  1.
         22    1    1    0    0    0  0.27470736038E+02 -0.42024727950E+01 -0.15734358415E+01  0.27834830993E+02  0.00000000000E+00 0. -1.
</event>
<event>
 5    1  0.1103865E-009  0.9118800E+02  0.7818608E-02  0.1130116E+00
         25   -1    0    0    0    0  0.00000000000E+00  0.00000000000E+00  0.99999998245E-14  0.12500000000E+03  0.12500000000E+03 0.  0.
        -11    1    3    3    0    0 -0.41530742441E+02  0.39274782748E+00  0.27112639838E+02  0.49598911861E+02  0.51100000000E-03 0. -1.
         23    2    1    0    0    0  0.21626085052E+01  0.14410862968E+02  0.25638546024E+02  0.95509579704E+02  0.90842693300E+02 0.  0.
         11    1    3    3    0    0  0.43693350946E+02  0.14018115140E+02 -0.14740938141E+01  0.45910667843E+02  0.51100000000E-03 0.  1.
         22    1    1    0    0    0 -0.21626085052E+01 -0.14410862968E+02 -0.25638546024E+02  0.29490420296E+02  0.00000000000E+00 0. -1.
</event>
<event>
 5    1  0.1103865E-009  0.9118800E+02  0.7818608E-02  0.1130116E+00
         25   -1    0    0    0    0  0.00000000000E+00  0.00000000000E+00  0.99999998245E-14  0.12500000000E+03  0.12500000000E+03 0.  0.
        -11    1    3    3    0    0 -0.33060887366E+02  0.26968941150E+02 -0.21285972157E+02  0.47680590087E+02  0.51100000000E-03 0. -1.
         23    2    1    0    0    0 -0.94838683044E+01 -0.59014063284E+01 -0.33298291529E+02  0.89878118310E+02  0.82731672155E+02 0.  0.
         11    1    3    3    0    0  0.23577019061E+02 -0.32870347478E+02 -0.12012319372E+02  0.42197528223E+02  0.51100000000E-03 0.  1.
         22    1    1    0    0    0  0.94838683044E+01  0.59014063284E+01  0.33298291529E+02  0.35121881690E+02  0.00000000000E+00 0. -1.
</event>
<event>
 5    1  0.1103865E-009  0.9118800E+02  0.7818608E-02  0.1130116E+00
         25   -1    0    0    0    0  0.00000000000E+00  0.00000000000E+00  0.99999998245E-14  0.12500000000E+03  0.12500000000E+03 0.  0.
        -11    1    3    3    0    0 -0.58902311228E+01 -0.16024064251E+02 -0.27156323002E+02  0.32076959598E+02  0.51100000000E-03 0. -1.
         23    2    1    0    0    0 -0.89885480355E+01  0.28822705369E+02  0.12786429372E+02  0.92212271858E+02  0.86186239996E+02 0.  0.
         11    1    3    3    0    0 -0.30983169127E+01  0.44846769621E+02  0.39942752375E+02  0.60135312260E+02  0.51100000000E-03 0.  1.
         22    1    1    0    0    0  0.89885480355E+01 -0.28822705369E+02 -0.12786429372E+02  0.32787728142E+02  0.00000000000E+00 0.  1.
</event>
<event>
 5    1  0.1103865E-009  0.9118800E+02  0.7818608E-02  0.1130116E+00
         25   -1    0    0    0    0  0.00000000000E+00  0.00000000000E+00  0.99999998245E-14  0.12500000000E+03  0.12500000000E+03 0.  0.
        -11    1    3    3    0    0 -0.15983491727E+02  0.56203169426E+02  0.18725108828E+02  0.61358764347E+02  0.51100000000E-03 0.  1.
         23    2    1    0    0    0 -0.14918778757E+02  0.22711565294E+02  0.10553826275E+02  0.95849212588E+02  0.91308833894E+02 0.  0.
         11    1    3    3    0    0  0.10647129694E+01 -0.33491604132E+02 -0.81712825533E+01  0.34490448241E+02  0.51100000000E-03 0. -1.
         22    1    1    0    0    0  0.14918778757E+02 -0.22711565294E+02 -0.10553826275E+02  0.29150787412E+02  0.00000000000E+00 0.  1.
</event>
<event>
 5    1  0.1103865E-009  0.9118800E+02  0.7818608E-02  0.1130116E+00
         25   -1    0    0    0    0  0.00000000000E+00  0.00000000000E+00  0.99999998245E-14  0.12500000000E+03  0.12500000000E+03 0.  0.
        -11    1    3    3    0    0 -0.20450094772E+02 -0.32538588551E+02 -0.12157926857E+02  0.40308576095E+02  0.51100000000E-03 0.  1.
         23    2    1    0    0    0 -0.83977701788E+01  0.17890277769E+02 -0.24416814149E+02  0.93587177844E+02  0.88157781624E+02 0.  0.
         11    1    3    3    0    0  0.12052324593E+02  0.50428866320E+02 -0.12258887292E+02  0.53278601749E+02  0.51100000000E-03 0. -1.
         22    1    1    0    0    0  0.83977701788E+01 -0.17890277769E+02  0.24416814149E+02  0.31412822156E+02  0.00000000000E+00 0. -1.
</event>
<event>
 5    1  0.1103865E-009  0.9118800E+02  0.7818608E-02  0.1130116E+00
         25   -1    0    0    0    0  0.00000000000E+00  0.00000000000E+00  0.99999998245E-14  0.12500000000E+03  0.12500000000E+03 0.  0.
        -11    1    3    3    0    0 -0.78762644068E+01 -0.42669872868E+02  0.12356197440E+02  0.45115731259E+02  0.51100000000E-03 0. -1.
         23    2    1    0    0    0 -0.21415194525E+02 -0.85529347329E+00  0.26157500273E+02  0.91183481788E+02  0.84680992241E+02 0.  0.
         11    1    3    3    0    0 -0.13538930118E+02  0.41814579394E+02  0.13801302833E+02  0.46067750529E+02  0.51100000000E-03 0.  1.
         22    1    1    0    0    0  0.21415194525E+02  0.85529347329E+00 -0.26157500273E+02  0.33816518212E+02  0.00000000000E+00 0.  1.
</event>
<event>
 5    1  0.1103865E-009  0.9118800E+02  0.7818608E-02  0.1130116E+00
         25   -1    0    0    0    0  0.00000000000E+00  0.00000000000E+00  0.99999998245E-14  0.12500000000E+03  0.12500000000E+03 0.  0.
        -11    1    3    3    0    0  0.31518175792E+02  0.23790390929E+02  0.17351447271E+02  0.43132943657E+02  0.51100000000E-03 0. -1.
         23    2    1    0    0    0  0.12243408573E+02 -0.23514905026E+02 -0.34059769535E+01  0.98270755886E+02  0.94565791762E+02 0.  0.
         11    1    3    3    0    0 -0.19274767219E+02 -0.47305295955E+02 -0.20757424225E+02  0.55137812230E+02  0.51100000000E-03 0.  1.
         22    1    1    0    0    0 -0.12243408573E+02  0.23514905026E+02  0.34059769535E+01  0.26729244114E+02  0.00000000000E+00 0.  1.
</event>
<event>
 5    1  0.1103865E-009  0.9118800E+02  0.7818608E-02  0.1130116E+00
         25   -1    0    0    0    0  0.00000000000E+00  0.00000000000E+00  0.99999998245E-14  0.12500000000E+03  0.12500000000E+03 0.  0.
        -11    1    3    3    0    0 -0.62668928092E+01 -0.35482270177E+02  0.38149832777E+02  0.52475472209E+02  0.51100000000E-03 0. -1.
         23    2    1    0    0    0 -0.22473840440E+02 -0.13354739599E+01  0.21812554368E+02  0.93652838679E+02  0.88250833819E+02 0.  0.
         11    1    3    3    0    0 -0.16206947631E+02  0.34146796217E+02 -0.16337278409E+02  0.41177366470E+02  0.51100000000E-03 0.  1.
         22    1    1    0    0    0  0.22473840440E+02  0.13354739599E+01 -0.21812554368E+02  0.31347161321E+02  0.00000000000E+00 0. -1.
</event>
<event>
 5    1  0.1103865E-009  0.9118800E+02  0.7818608E-02  0.1130116E+00
         25   -1    0    0    0    0  0.00000000000E+00  0.00000000000E+00  0.99999998245E-14  0.12500000000E+03  0.12500000000E+03 0.  0.
        -11    1    3    3    0    0  0.34674233973E+02 -0.19546179183E+01  0.20064102457E+02  0.40108493371E+02  0.51100000000E-03 0.  1.
         23    2    1    0    0    0 -0.19101492158E+02  0.12709128013E+02  0.17918275861E+02  0.95888944586E+02  0.91363210027E+02 0.  0.
         11    1    3    3    0    0 -0.53775726131E+02  0.14663745931E+02 -0.21458265963E+01  0.55780451215E+02  0.51100000000E-03 0. -1.
         22    1    1    0    0    0  0.19101492158E+02 -0.12709128013E+02 -0.17918275861E+02  0.29111055414E+02  0.00000000000E+00 0. -1.
</event>
<event>
 5    1  0.1103865E-009  0.9118800E+02  0.7818608E-02  0.1130116E+00
         25   -1    0    0    0    0  0.00000000000E+00  0.00000000000E+00  0.99999998245E-14  0.12500000000E+03  0.12500000000E+03 0.  0.
        -11    1    3    3    0    0  0.47349043549E+01 -0.39300002124E+02 -0.69421297278E+01  0.40188339747E+02  0.51100000000E-03 0.  1.
         23    2    1    0    0    0 -0.30536247374E+02  0.88907480498E+00 -0.69958885026E+01  0.93660004569E+02  0.88260983125E+02 0.  0.
         11    1    3    3    0    0 -0.35271151728E+02  0.40189076929E+02 -0.53758774782E-01  0.53471664823E+02  0.51100000000E-03 0. -1.
         22    1    1    0    0    0  0.30536247374E+02 -0.88907480498E+00  0.69958885026E+01  0.31339995431E+02  0.00000000000E+00 0. -1.
</event>
<event>
 5    1  0.1103865E-009  0.9118800E+02  0.7818608E-02  0.1130116E+00
         25   -1    0    0    0    0  0.00000000000E+00  0.00000000000E+00  0.99999998245E-14  0.12500000000E+03  0.12500000000E+03 0.  0.
        -11    1    3    3    0    0 -0.13414998435E+02  0.18552158134E+02  0.38850159410E+02  0.45094119804E+02  0.51100000000E-03 0.  1.
         23    2    1    0    0    0  0.13536501372E+02  0.25444898350E+02 -0.37111493163E+01  0.95940537674E+02  0.91433770668E+02 0.  0.
         11    1    3    3    0    0  0.26951499807E+02  0.68927402151E+01 -0.42561308726E+02  0.50846417870E+02  0.51100000000E-03 0. -1.
         22    1    1    0    0    0 -0.13536501372E+02 -0.25444898350E+02  0.37111493163E+01  0.29059462326E+02  0.00000000000E+00 0. -1.
</event>
<event>
 5    1  0.1103865E-009  0.9118800E+02  0.7818608E-02  0.1130116E+00
         25   -1    0    0    0    0  0.00000000000E+00  0.00000000000E+00  0.99999998245E-14  0.12500000000E+03  0.12500000000E+03 0.  0.
        -11    1    3    3    0    0  0.31210930971E+02 -0.28730181790E+01 -0.48017873634E+02  0.57341892488E+02  0.51100000000E-03 0. -1.
         23    2    1    0    0    0  0.40872862551E+01 -0.15857267423E+02 -0.24563703633E+02  0.95478238954E+02  0.90799558031E+02 0.  0.
         11    1    3    3    0    0 -0.27123644715E+02 -0.12984249244E+02  0.23454170001E+02  0.38136346466E+02  0.51100000000E-03 0.  1.
         22    1    1    0    0    0 -0.40872862551E+01  0.15857267423E+02  0.24563703633E+02  0.29521761046E+02  0.00000000000E+00 0. -1.
</event>
<event>
 5    1  0.1103865E-009  0.9118800E+02  0.7818608E-02  0.1130116E+00
         25   -1    0    0    0    0  0.00000000000E+00  0.00000000000E+00  0.99999998245E-14  0.12500000000E+03  0.12500000000E+03 0.  0.
        -11    1    3    3    0    0  0.12034918637E+02  0.18219752036E+02 -0.28850884401E+02  0.36182484186E+02  0.51100000000E-03 0. -1.
         23    2    1    0    0    0 -0.13804080603E+02 -0.25313262378E+02  0.30301244339E+01  0.96008698760E+02  0.91526906918E+02 0.  0.
         11    1    3    3    0    0 -0.25838999240E+02 -0.43533014414E+02  0.31881008835E+02  0.59826214574E+02  0.51100000000E-03 0.  1.
         22    1    1    0    0    0  0.13804080603E+02  0.25313262378E+02 -0.30301244339E+01  0.28991301240E+02  0.00000000000E+00 0.  1.
</event>
<event>
 5    1  0.1103865E-009  0.9118800E+02  0.7818608E-02  0.1130116E+00
         25   -1    0    0    0    0  0.00000000000E+00  0.00000000000E+00  0.99999998245E-14  0.12500000000E+03  0.12500000000E+03 0.  0.
        -11    1    3    3    0    0  0.39443256993E+02  0.46753753485E+02  0.97652328065E+01  0.61943875882E+02  0.51100000000E-03 0. -1.
         23    2    1    0    0    0  0.24151098623E+02  0.19608717462E+02  0.58598300968E+01  0.93343800387E+02  0.87812015674E+02 0.  0.
         11    1    3    3    0    0 -0.15292158371E+02 -0.27145036024E+02 -0.39054027097E+01  0.31399924506E+02  0.51100000000E-03 0.  1.
         22    1    1    0    0    0 -0.24151098623E+02 -0.19608717462E+02 -0.58598300968E+01  0.31656199613E+02  0.00000000000E+00 0. -1.
</event>
<event>
 5    1  0.1103865E-009  0.9118800E+02  0.7818608E-02  0.1130116E+00
         25   -1    0    0    0    0  0.00000000000E+00  0.00000000000E+00  0.99999998245E-14  0.12500000000E+03  0.12500000000E+03 0.  0.
        -11    1    3    3    0    0  0.13405911755E+02 -0.50570541564E+02 -0.30539209703E+02  0.60578391144E+02  0.51100000000E-03 0.  1.
         23    2    1    0    0    0  0.17021291793E+02 -0.23171368087E+02 -0.12072726000E+02  0.93816873370E+02  0.88482870334E+02 0.  0.
         11    1    3    3    0    0  0.36153800382E+01  0.27399173477E+02  0.18466483704E+02  0.33238482226E+02  0.51100000000E-03 0. -1.
         22    1    1    0    0    0 -0.17021291793E+02  0.23171368087E+02  0.12072726000E+02  0.31183126630E+02  0.00000000000E+00 0.  1.
</event>
<event>
 5    1  0.1103865E-009  0.9118800E+02  0.7818608E-02  0.1130116E+00
         25   -1    0    0    0    0  0.00000000000E+00  0.00000000000E+00  0.99999998245E-14  0.12500000000E+03  0.12500000000E+03 0.  0.
        -11    1    3    3    0    0 -0.29148361279E+02  0.11386932582E+02 -0.24558775010E+02  0.39779676081E+02  0.51100000000E-03 0.  1.
         23    2    1    0    0    0  0.29563314784E+01  0.16753527547E+02  0.22372421606E+02  0.96894025020E+02  0.92728130872E+02 0.  0.
         11    1    3    3    0    0  0.32104692757E+02  0.53665949646E+01  0.46931196616E+02  0.57114348938E+02  0.51100000000E-03 0. -1.
         22    1    1    0    0    0 -0.29563314784E+01 -0.16753527547E+02 -0.22372421606E+02  0.28105974980E+02  0.00000000000E+00 0. -1.
</event>
<event>
 5    1  0.1103865E-009  0.9118800E+02  0.7818608E-02  0.1130116E+00
         25   -1    0    0    0    0  0.00000000000E+00  0.00000000000E+00  0.99999998245E-14  0.12500000000E+03  0.12500000000E+03 0.  0.
        -11    1    3    3    0    0 -0.10699147742E+02  0.36194457071E+01  0.12696440893E+02  0.16993285770E+02  0.51100000000E-03 0. -1.
         23    2    1    0    0    0 -0.19897291412E+02  0.67872945850E+01 -0.44908694732E+02  0.75414110517E+02  0.56820134013E+02 0.  0.
         11    1    3    3    0    0 -0.91981436705E+01  0.31678488780E+01 -0.57605135625E+02  0.58420824747E+02  0.51100000000E-03 0.  1.
         22    1    1    0    0    0  0.19897291412E+02 -0.67872945850E+01  0.44908694732E+02  0.49585889483E+02  0.00000000000E+00 0.  1.
</event>
<event>
 5    1  0.1103865E-009  0.9118800E+02  0.7818608E-02  0.1130116E+00
         25   -1    0    0    0    0  0.00000000000E+00  0.00000000000E+00  0.99999998245E-14  0.12500000000E+03  0.12500000000E+03 0.  0.
        -11    1    3    3    0    0 -0.24688743840E+02  0.20257857237E+02  0.11623608311E+02  0.33985631121E+02  0.51100000000E-03 0.  1.
         23    2    1    0    0    0  0.17336376993E+02 -0.18258878813E+02  0.21561780199E+02  0.91851138962E+02  0.85660870534E+02 0.  0.
         11    1    3    3    0    0  0.42025120833E+02 -0.38516736050E+02  0.99381718884E+01  0.57865507841E+02  0.51100000000E-03 0. -1.
         22    1    1    0    0    0 -0.17336376993E+02  0.18258878813E+02 -0.21561780199E+02  0.33148861038E+02  0.00000000000E+00 0. -1.
</event>
<event>
 5    1  0.1103865E-009  0.9118800E+02  0.7818608E-02  0.1130116E+00
         25   -1    0    0    0    0  0.00000000000E+00  0.00000000000E+00  0.99999998245E-14  0.12500000000E+03  0.12500000000E+03 0.  0.
        -11    1    3    3    0    0  0.76996748371E+01 -0.37171932465E+02  0.41264085927E+02  0.56069263803E+02  0.51100000000E-03 0.  1.
         23    2    1    0    0    0 -0.16518678540E+02 -0.16312362362E+02  0.18601851349E+02  0.95251239015E+02  0.90486516972E+02 0.  0.
         11    1    3    3    0    0 -0.24218353377E+02  0.20859570102E+02 -0.22662234578E+02  0.39181975212E+02  0.51100000000E-03 0. -1.
         22    1    1    0    0    0  0.16518678540E+02  0.16312362362E+02 -0.18601851349E+02  0.29748760985E+02  0.00000000000E+00 0.  1.
</event>
<event>
 5    1  0.1103865E-009  0.9118800E+02  0.7818608E-02  0.1130116E+00
         25   -1    0    0    0    0  0.00000000000E+00  0.00000000000E+00  0.99999998245E-14  0.12500000000E+03  0.12500000000E+03 0.  0.
        -11    1    3    3    0    0  0.27616538435E+02 -0.28748615428E+02 -0.28217227197E+02  0.48840229269E+02  0.51100000000E-03 0. -1.
         23    2    1    0    0    0  0.16139781912E+02  0.15250521563E+02 -0.20136923651E+02  0.95023898482E+02  0.90171917028E+02 0.  0.
         11    1    3    3    0    0 -0.11476756523E+02  0.43999136991E+02  0.80803035462E+01  0.46183669212E+02  0.51100000000E-03 0.  1.
         22    1    1    0    0    0 -0.16139781912E+02 -0.15250521563E+02  0.20136923651E+02  0.29976101518E+02  0.00000000000E+00 0. -1.
</event>
<event>
 5    1  0.1103865E-009  0.9118800E+02  0.7818608E-02  0.1130116E+00
         25   -1    0    0    0    0  0.00000000000E+00  0.00000000000E+00  0.99999998245E-14  0.12500000000E+03  0.12500000000E+03 0.  0.
        -11    1    3    3    0    0  0.14951008184E+02 -0.47569082127E+02  0.58822187979E+01  0.50209070080E+02  0.51100000000E-03 0. -1.
         23    2    1    0    0    0  0.13100545217E+02 -0.77938003310E+01  0.26030352728E+02  0.94834674348E+02  0.89909224148E+02 0.  0.
         11    1    3    3    0    0 -0.18504629674E+01  0.39775281796E+02  0.20148133930E+02  0.44625604267E+02  0.51100000000E-03 0.  1.
         22    1    1    0    0    0 -0.13100545217E+02  0.77938003310E+01 -0.26030352728E+02  0.30165325652E+02  0.00000000000E+00 0. -1.
</event>
<event>
 5    1  0.1103865E-009  0.9118800E+02  0.7818608E-02  0.1130116E+00
         25   -1    0    0    0    0  0.00000000000E+00  0.00000000000E+00  0.99999998245E-14  0.12500000000E+03  0.12500000000E+03 0.  0.
        -11    1    3    3    0    0  0.35850805000E+02  0.26987284153E+02  0.32706266533E+01  0.44992118466E+02  0.51100000000E-03 0.  1.
         23    2    1    0    0    0 -0.91099100093E+01  0.26113777706E+02 -0.15006779435E+02  0.93533775640E+02  0.88082029438E+02 0.  0.
         11    1    3    3    0    0 -0.44960715009E+02 -0.87350644636E+00 -0.18277406089E+02  0.48541657174E+02  0.51100000000E-03 0. -1.
         22    1    1    0    0    0  0.91099100093E+01 -0.26113777706E+02  0.15006779435E+02  0.31466224360E+02  0.00000000000E+00 0. -1.
</event>
<event>
 5    1  0.1103865E-009  0.9118800E+02  0.7818608E-02  0.1130116E+00
         25   -1    0    0    0    0  0.00000000000E+00  0.00000000000E+00  0.99999998245E-14  0.12500000000E+03  0.12500000000E+03 0.  0.
        -11    1    3    3    0    0 -0.22627505113E+02  0.24416669086E+02  0.24337786831E+02  0.41237186919E+02  0.51100000000E-03 0.  1.
         23    2    1    0    0    0 -0.33646503632E+01  0.11939992548E+02 -0.25796986154E+02  0.96375381422E+02  0.92026329686E+02 0.  0.
         11    1    3    3    0    0  0.19262854750E+02 -0.12476676537E+02 -0.50134772985E+02  0.55138194503E+02  0.51100000000E-03 0. -1.
         22    1    1    0    0    0  0.33646503632E+01 -0.11939992548E+02  0.25796986154E+02  0.28624618578E+02  0.00000000000E+00 0. -1.
</event>
<event>
 5    1  0.1103865E-009  0.9118800E+02  0.7818608E-02  0.1130116E+00
         25   -1    0    0    0    0  0.00000000000E+00  0.00000000000E+00  0.99999998245E-14  0.12500000000E+03  0.12500000000E+03 0.  0.
        -11    1    3    3    0    0 -0.67553672622E+01  0.41353182287E+02  0.25742406275E+02  0.49177150723E+02  0.51100000000E-03 0. -1.
         23    2    1    0    0    0  0.25141020060E+02  0.13393484299E+02  0.63567111760E+01  0.95813289184E+02  0.91259642208E+02 0.  0.
         11    1    3    3    0    0  0.31896387322E+02 -0.27959697988E+02 -0.19385695099E+02  0.46636138461E+02  0.51100000000E-03 0.  1.
         22    1    1    0    0    0 -0.25141020060E+02 -0.13393484299E+02 -0.63567111760E+01  0.29186710816E+02  0.00000000000E+00 0.  1.
</event>
<event>
 5    1  0.1103865E-009  0.9118800E+02  0.7818608E-02  0.1130116E+00
         25   -1    0    0    0    0  0.00000000000E+00  0.00000000000E+00  0.99999998245E-14  0.12500000000E+03  0.12500000000E+03 0.  0.
        -11    1    3    3    0    0  0.33767921735E+02 -0.66034307535E+01 -0.35056954863E+02  0.49120951950E+02  0.51100000000E-03 0. -1.
         23    2    1    0    0    0 -0.12008644822E+01  0.19536883940E+02 -0.23755497938E+02  0.94219233410E+02  0.89049471377E+02 0.  0.
         11    1    3    3    0    0 -0.34968786217E+02  0.26140314693E+02  0.11301456925E+02  0.45098281460E+02  0.51100000000E-03 0.  1.
         22    1    1    0    0    0  0.12008644822E+01 -0.19536883940E+02  0.23755497938E+02  0.30780766590E+02  0.00000000000E+00 0. -1.
</event>
<event>
 5    1  0.1103865E-009  0.9118800E+02  0.7818608E-02  0.1130116E+00
         25   -1    0    0    0    0  0.00000000000E+00  0.00000000000E+00  0.99999998245E-14  0.12500000000E+03  0.12500000000E+03 0.  0.
        -11    1    3    3    0    0 -0.25515240328E+02  0.82995316709E+01 -0.20467747477E+02  0.33746679866E+02  0.51100000000E-03 0.  1.
         23    2    1    0    0    0  0.27904350514E+02 -0.99664172730E+01  0.36630177545E+01  0.95143678225E+02  0.90337808011E+02 0.  0.
         11    1    3    3    0    0  0.53419590842E+02 -0.18265948944E+02  0.24130765232E+02  0.61396998359E+02  0.51100000000E-03 0. -1.
         22    1    1    0    0    0 -0.27904350514E+02  0.99664172730E+01 -0.36630177545E+01  0.29856321775E+02  0.00000000000E+00 0. -1.
</event>
<event>
 5    1  0.1103865E-009  0.9118800E+02  0.7818608E-02  0.1130116E+00
         25   -1    0    0    0    0  0.00000000000E+00  0.00000000000E+00  0.99999998245E-14  0.12500000000E+03  0.12500000000E+03 0.  0.
        -11    1    3    3    0    0  0.32571244413E+02  0.26519780281E+02 -0.73400969911E+01  0.42638735123E+02  0.51100000000E-03 0. -1.
         23    2    1    0    0    0 -0.73263886444E+01 -0.18323430881E+02 -0.10310537411E+02  0.10273497650E+03  0.10029329053E+03 0.  0.
         11    1    3    3    0    0 -0.39897633058E+02 -0.44843211162E+02 -0.29704404203E+01  0.60096241375E+02  0.51100000000E-03 0.  1.
         22    1    1    0    0    0  0.73263886444E+01  0.18323430881E+02  0.10310537411E+02  0.22265023502E+02  0.00000000000E+00 0. -1.
</event>
<event>
 5    1  0.1103865E-009  0.9118800E+02  0.7818608E-02  0.1130116E+00
         25   -1    0    0    0    0  0.00000000000E+00  0.00000000000E+00  0.99999998245E-14  0.12500000000E+03  0.12500000000E+03 0.  0.
        -11    1    3    3    0    0 -0.17277149649E+02 -0.24854756871E+02 -0.24672882562E+02  0.39051376074E+02  0.51100000000E-03 0. -1.
         23    2    1    0    0    0  0.23671498522E+01 -0.18170588395E+02  0.25645693747E+02  0.93480556972E+02  0.88006472733E+02 0.  0.
         11    1    3    3    0    0  0.19644299501E+02  0.66841684767E+01  0.50318576309E+02  0.54429180897E+02  0.51100000000E-03 0.  1.
         22    1    1    0    0    0 -0.23671498522E+01  0.18170588395E+02 -0.25645693747E+02  0.31519443028E+02  0.00000000000E+00 0.  1.
</event>
<event>
 5    1  0.1103865E-009  0.9118800E+02  0.7818608E-02  0.1130116E+00
         25   -1    0    0    0    0  0.00000000000E+00  0.00000000000E+00  0.99999998245E-14  0.12500000000E+03  0.12500000000E+03 0.  0.
        -11    1    3    3    0    0 -0.95778711061E+01 -0.15320732221E+02  0.55411098384E+02  0.58282504023E+02  0.51100000000E-03 0.  1.
         23    2    1    0    0    0 -0.15867701320E+02  0.41066759317E+01  0.20196015050E+02  0.98989852821E+02  0.95511586759E+02 0.  0.
         11    1    3    3    0    0 -0.62898302140E+01  0.19427408153E+02 -0.35215083334E+02  0.40707348798E+02  0.51100000000E-03 0. -1.
         22    1    1    0    0    0  0.15867701320E+02 -0.41066759317E+01 -0.20196015050E+02  0.26010147179E+02  0.00000000000E+00 0.  1.
</event>
<event>
 5    1  0.1103865E-009  0.9118800E+02  0.7818608E-02  0.1130116E+00
         25   -1    0    0    0    0  0.00000000000E+00  0.00000000000E+00  0.99999998245E-14  0.12500000000E+03  0.12500000000E+03 0.  0.
        -11    1    3    3    0    0  0.16098631816E+02 -0.34155338757E+02 -0.44562336516E+02  0.58408517769E+02  0.51100000000E-03 0.  1.
         23    2    1    0    0    0  0.17276718062E+02 -0.22120667958E+02 -0.97084394541E+01  0.95300459018E+02  0.90554485005E+02 0.  0.
         11    1    3    3    0    0  0.11780862463E+01  0.12034670799E+02  0.34853897062E+02  0.36891941249E+02  0.51100000000E-03 0. -1.
         22    1    1    0    0    0 -0.17276718062E+02  0.22120667958E+02  0.97084394541E+01  0.29699540982E+02  0.00000000000E+00 0.  1.
</event>
<event>
 5    1  0.1103865E-009  0.9118800E+02  0.7818608E-02  0.1130116E+00
         25   -1    0    0    0    0  0.00000000000E+00  0.00000000000E+00  0.99999998245E-14  0.12500000000E+03  0.12500000000E+03 0.  0.
        -11    1    3    3    0    0 -0.14013081695E+02  0.27182471721E+02  0.20159165810E+02  0.36628475178E+02  0.51100000000E-03 0. -1.
         23    2    1    0    0    0  0.17340161088E+01 -0.22488557890E+01 -0.28896997778E+02  0.95963804574E+02  0.91465573542E+02 0.  0.
         11    1    3    3    0    0  0.15747097804E+02 -0.29431327510E+02 -0.49056163589E+02  0.59335329396E+02  0.51100000000E-03 0.  1.
         22    1    1    0    0    0 -0.17340161088E+01  0.22488557890E+01  0.28896997778E+02  0.29036195426E+02  0.00000000000E+00 0.  1.
</event>
<event>
 5    1  0.1103865E-009  0.9118800E+02  0.7818608E-02  0.1130116E+00
         25   -1    0    0    0    0  0.00000000000E+00  0.00000000000E+00  0.99999998245E-14  0.12500000000E+03  0.12500000000E+03 0.  0.
        -11    1    3    3    0    0  0.35136925149E+02 -0.11595418939E+02  0.13288585894E+02  0.39314676199E+02  0.51100000000E-03 0.  1.
         23    2    1    0    0    0 -0.22516912830E+02 -0.95134883752E+01  0.13641141597E+02  0.97007169337E+02  0.92880527207E+02 0.  0.
         11    1    3    3    0    0 -0.57653837980E+02  0.20819305637E+01  0.35255570328E+00  0.57692493138E+02  0.51100000000E-03 0. -1.
         22    1    1    0    0    0  0.22516912830E+02  0.95134883752E+01 -0.13641141597E+02  0.27992830663E+02  0.00000000000E+00 0. -1.
</event>
<event>
 5    1  0.1103865E-009  0.9118800E+02  0.7818608E-02  0.1130116E+00
         25   -1    0    0    0    0  0.00000000000E+00  0.00000000000E+00  0.99999998245E-14  0.12500000000E+03  0.12500000000E+03 0.  0.
        -11    1    3    3    0    0  0.47918002438E+02 -0.17564744169E+02 -0.25424073105E+02  0.57017880431E+02  0.51100000000E-03 0. -1.
         23    2    1    0    0    0  0.12739403165E+02 -0.23783092522E+02 -0.74421980833E+01  0.97012249193E+02  0.92887363501E+02 0.  0.
         11    1    3    3    0    0 -0.35178599273E+02 -0.62183483534E+01  0.17981875022E+02  0.39994368762E+02  0.51100000000E-03 0.  1.
         22    1    1    0    0    0 -0.12739403165E+02  0.23783092522E+02  0.74421980833E+01  0.27987750807E+02  0.00000000000E+00 0. -1.
</event>
<event>
 5    1  0.1103865E-009  0.9118800E+02  0.7818608E-02  0.1130116E+00
         25   -1    0    0    0    0  0.00000000000E+00  0.00000000000E+00  0.99999998245E-14  0.12500000000E+03  0.12500000000E+03 0.  0.
        -11    1    3    3    0    0  0.29004246528E+02  0.11982569801E+02 -0.20979077655E+02  0.37748509841E+02  0.51100000000E-03 0.  1.
         23    2    1    0    0    0 -0.11769596178E+01 -0.37315787674E+01  0.27635790454E+02  0.97088589645E+02  0.92990039311E+02 0.  0.
         11    1    3    3    0    0 -0.30181206146E+02 -0.15714148568E+02  0.48614868108E+02  0.59340079804E+02  0.51100000000E-03 0. -1.
         22    1    1    0    0    0  0.11769596178E+01  0.37315787674E+01 -0.27635790454E+02  0.27911410355E+02  0.00000000000E+00 0. -1.
</event>
<event>
 5    1  0.1103865E-009  0.9118800E+02  0.7818608E-02  0.1130116E+00
         25   -1    0    0    0    0  0.00000000000E+00  0.00000000000E+00  0.99999998245E-14  0.12500000000E+03  0.12500000000E+03 0.  0.
        -11    1    3    3    0    0  0.25039113634E+02  0.48400097354E+02 -0.14204407291E+02  0.56314223978E+02  0.51100000000E-03 0.  1.
         23    2    1    0    0    0  0.37624261428E+01  0.15431456659E+02 -0.23497442346E+02  0.96637780377E+02  0.92382060457E+02 0.  0.
         11    1    3    3    0    0 -0.21276687492E+02 -0.32968640695E+02 -0.92930350553E+01  0.40323556399E+02  0.51100000000E-03 0. -1.
         22    1    1    0    0    0 -0.37624261428E+01 -0.15431456659E+02  0.23497442346E+02  0.28362219623E+02  0.00000000000E+00 0.  1.
</event>
<event>
 5    1  0.1103865E-009  0.9118800E+02  0.7818608E-02  0.1130116E+00
         25   -1    0    0    0    0  0.00000000000E+00  0.00000000000E+00  0.99999998245E-14  0.12500000000E+03  0.12500000000E+03 0.  0.
        -11    1    3    3    0    0 -0.17030161215E+02 -0.14679808087E+02 -0.36581782538E+02  0.42938909748E+02  0.51100000000E-03 0.  1.
         23    2    1    0    0    0 -0.25735589605E+02  0.29284561826E+01  0.12817660487E+02  0.96100365949E+02  0.91652013002E+02 0.  0.
         11    1    3    3    0    0 -0.87054283896E+01  0.17608264270E+02  0.49399443024E+02  0.53161456201E+02  0.51100000000E-03 0. -1.
         22    1    1    0    0    0  0.25735589605E+02 -0.29284561826E+01 -0.12817660487E+02  0.28899634051E+02  0.00000000000E+00 0. -1.
</event>
<event>
 5    1  0.1103865E-009  0.9118800E+02  0.7818608E-02  0.1130116E+00
         25   -1    0    0    0    0  0.00000000000E+00  0.00000000000E+00  0.99999998245E-14  0.12500000000E+03  0.12500000000E+03 0.  0.
        -11    1    3    3    0    0 -0.55988891756E+01 -0.43217816469E+02 -0.23993988938E+02  0.49747750962E+02  0.51100000000E-03 0. -1.
         23    2    1    0    0    0 -0.66298214137E+01  0.44118549183E+00 -0.30396497682E+02  0.93885754903E+02  0.88580126021E+02 0.  0.
         11    1    3    3    0    0 -0.10309322382E+01  0.43659001961E+02 -0.64025087443E+01  0.44138003942E+02  0.51100000000E-03 0.  1.
         22    1    1    0    0    0  0.66298214137E+01 -0.44118549183E+00  0.30396497682E+02  0.31114245097E+02  0.00000000000E+00 0. -1.
</event>
<event>
 5    1  0.1103865E-009  0.9118800E+02  0.7818608E-02  0.1130116E+00
         25   -1    0    0    0    0  0.00000000000E+00  0.00000000000E+00  0.99999998245E-14  0.12500000000E+03  0.12500000000E+03 0.  0.
        -11    1    3    3    0    0 -0.23796732257E+02 -0.37495975390E+00  0.25018882852E+02  0.34530704602E+02  0.51100000000E-03 0.  1.
         23    2    1    0    0    0  0.28139572158E+02 -0.71291710863E+01 -0.59394595878E+01  0.95369985119E+02  0.90650406948E+02 0.  0.
         11    1    3    3    0    0  0.51936304415E+02 -0.67542113324E+01 -0.30958342439E+02  0.60839280517E+02  0.51100000000E-03 0. -1.
         22    1    1    0    0    0 -0.28139572158E+02  0.71291710863E+01  0.59394595878E+01  0.29630014881E+02  0.00000000000E+00 0. -1.
</event>
<event>
 5    1  0.1103865E-009  0.9118800E+02  0.7818608E-02  0.1130116E+00
         25   -1    0    0    0    0  0.00000000000E+00  0.00000000000E+00  0.99999998245E-14  0.12500000000E+03  0.12500000000E+03 0.  0.
        -11    1    3    3    0    0 -0.43250395666E+02 -0.10389111444E+02 -0.15215495057E+02  0.47011080098E+02  0.51100000000E-03 0.  1.
         23    2    1    0    0    0 -0.48016688169E+01 -0.21435875978E+00 -0.33763793663E+02  0.90895810586E+02  0.84255282602E+02 0.  0.
         11    1    3    3    0    0  0.38448726849E+02  0.10174752685E+02 -0.18548298606E+02  0.43884730488E+02  0.51100000000E-03 0. -1.
         22    1    1    0    0    0  0.48016688169E+01  0.21435875978E+00  0.33763793663E+02  0.34104189414E+02  0.00000000000E+00 0. -1.
</event>
<event>
 5    1  0.1103865E-009  0.9118800E+02  0.7818608E-02  0.1130116E+00
         25   -1    0    0    0    0  0.00000000000E+00  0.00000000000E+00  0.99999998245E-14  0.12500000000E+03  0.12500000000E+03 0.  0.
        -11    1    3    3    0    0  0.32328996136E+02  0.16055900070E+02 -0.20593656101E+02  0.41557846312E+02  0.51100000000E-03 0.  1.
         23    2    1    0    0    0  0.10520822217E+02 -0.25578780348E+02  0.75369488106E+01  0.96333516058E+02  0.91969446092E+02 0.  0.
         11    1    3    3    0    0 -0.21808173919E+02 -0.41634680418E+02  0.28130604912E+02  0.54775669746E+02  0.51100000000E-03 0. -1.
         22    1    1    0    0    0 -0.10520822217E+02  0.25578780348E+02 -0.75369488106E+01  0.28666483942E+02  0.00000000000E+00 0.  1.
</event>
<event>
 5    1  0.1103865E-009  0.9118800E+02  0.7818608E-02  0.1130116E+00
         25   -1    0    0    0    0  0.00000000000E+00  0.00000000000E+00  0.99999998245E-14  0.12500000000E+03  0.12500000000E+03 0.  0.
        -11    1    3    3    0    0  0.48178509686E+02  0.21505865015E+02  0.27601425559E+01  0.52832654796E+02  0.51100000000E-03 0. -1.
         23    2    1    0    0    0  0.27430204133E+02 -0.14043082319E+02  0.33879757291E+01  0.93998344572E+02  0.88738864895E+02 0.  0.
         11    1    3    3    0    0 -0.20748305554E+02 -0.35548947334E+02  0.62783317321E+00  0.41165689775E+02  0.51100000000E-03 0.  1.
         22    1    1    0    0    0 -0.27430204133E+02  0.14043082319E+02 -0.33879757291E+01  0.31001655428E+02  0.00000000000E+00 0.  1.
</event>
<event>
 5    1  0.1103865E-009  0.9118800E+02  0.7818608E-02  0.1130116E+00
         25   -1    0    0    0    0  0.00000000000E+00  0.00000000000E+00  0.99999998245E-14  0.12500000000E+03  0.12500000000E+03 0.  0.
        -11    1    3    3    0    0  0.33201218958E+02 -0.20681382525E+02  0.42176447087E+02  0.57522979865E+02  0.51100000000E-03 0. -1.
         23    2    1    0    0    0  0.21831934756E+02  0.67895075495E+01  0.16527173899E+02  0.96788685513E+02  0.92586021506E+02 0.  0.
         11    1    3    3    0    0 -0.11369284202E+02  0.27470890075E+02 -0.25649273187E+02  0.39265705648E+02  0.51100000000E-03 0.  1.
         22    1    1    0    0    0 -0.21831934756E+02 -0.67895075495E+01 -0.16527173899E+02  0.28211314487E+02  0.00000000000E+00 0. -1.
</event>
<event>
 5    1  0.1103865E-009  0.9118800E+02  0.7818608E-02  0.1130116E+00
         25   -1    0    0    0    0  0.00000000000E+00  0.00000000000E+00  0.99999998245E-14  0.12500000000E+03  0.12500000000E+03 0.  0.
        -11    1    3    3    0    0 -0.30287148008E+02  0.40047288137E+02  0.92436796936E+01  0.51054306734E+02  0.51100000000E-03 0. -1.
         23    2    1    0    0    0 -0.77707881362E+01  0.63381643439E+01  0.27659491586E+02  0.95578834994E+02  0.90937938994E+02 0.  0.
         11    1    3    3    0    0  0.22516359872E+02 -0.33709123793E+02  0.18415811893E+02  0.44524528259E+02  0.51100000000E-03 0.  1.
         22    1    1    0    0    0  0.77707881362E+01 -0.63381643439E+01 -0.27659491586E+02  0.29421165006E+02  0.00000000000E+00 0. -1.
</event>
<event>
 5    1  0.1103865E-009  0.9118800E+02  0.7818608E-02  0.1130116E+00
         25   -1    0    0    0    0  0.00000000000E+00  0.00000000000E+00  0.99999998245E-14  0.12500000000E+03  0.12500000000E+03 0.  0.
        -11    1    3    3    0    0  0.35552751892E+02  0.12177136634E+02  0.29030703081E+02  0.47487498832E+02  0.51100000000E-03 0. -1.
         23    2    1    0    0    0 -0.58559232499E+01  0.27119228846E+02  0.91986343704E+01  0.95770575021E+02  0.91201117073E+02 0.  0.
         11    1    3    3    0    0 -0.41408675141E+02  0.14942092212E+02 -0.19832068711E+02  0.48283076189E+02  0.51100000000E-03 0.  1.
         22    1    1    0    0    0  0.58559232499E+01 -0.27119228846E+02 -0.91986343704E+01  0.29229424979E+02  0.00000000000E+00 0.  1.
</event>
<event>
 5    1  0.1103865E-009  0.9118800E+02  0.7818608E-02  0.1130116E+00
         25   -1    0    0    0    0  0.00000000000E+00  0.00000000000E+00  0.99999998245E-14  0.12500000000E+03  0.12500000000E+03 0.  0.
        -11    1    3    3    0    0 -0.11998648830E+02 -0.32170665033E+02  0.54289606386E+01  0.34761945807E+02  0.51100000000E-03 0. -1.
         23    2    1    0    0    0 -0.24708800359E+01  0.28187815572E+02  0.68594551058E+01  0.95884534707E+02  0.91357176383E+02 0.  0.
         11    1    3    3    0    0  0.95277687942E+01  0.60358480605E+02  0.14304944672E+01  0.61122588900E+02  0.51100000000E-03 0.  1.
         22    1    1    0    0    0  0.24708800359E+01 -0.28187815572E+02 -0.68594551058E+01  0.29115465293E+02  0.00000000000E+00 0.  1.
</event>
<event>
 5    1  0.1103865E-009  0.9118800E+02  0.7818608E-02  0.1130116E+00
         25   -1    0    0    0    0  0.00000000000E+00  0.00000000000E+00  0.99999998245E-14  0.12500000000E+03  0.12500000000E+03 0.  0.
        -11    1    3    3    0    0  0.30532538458E+01  0.41872767533E+01 -0.36620410550E+02  0.36985268889E+02  0.51100000000E-03 0. -1.
         23    2    1    0    0    0 -0.16406554740E+02 -0.20972922087E+02  0.12562766598E+02  0.95557486454E+02  0.90908589328E+02 0.  0.
         11    1    3    3    0    0 -0.19459808586E+02 -0.25160198840E+02  0.49183177148E+02  0.58572217565E+02  0.51100000000E-03 0.  1.
         22    1    1    0    0    0  0.16406554740E+02  0.20972922087E+02 -0.12562766598E+02  0.29442513546E+02  0.00000000000E+00 0.  1.
</event>
<event>
 5    1  0.1103865E-009  0.9118800E+02  0.7818608E-02  0.1130116E+00
         25   -1    0    0    0    0  0.00000000000E+00  0.00000000000E+00  0.99999998245E-14  0.12500000000E+03  0.12500000000E+03 0.  0.
        -11    1    3    3    0    0 -0.13559530943E+02  0.54595883406E+02 -0.27134428717E+02  0.62456773743E+02  0.51100000000E-03 0.  1.
         23    2    1    0    0    0 -0.62528640915E+01  0.29359032048E+02 -0.13032019062E+02  0.92275626928E+02  0.86278077934E+02 0.  0.
         11    1    3    3    0    0  0.73066668519E+01 -0.25236851358E+02  0.14102409656E+02  0.29818853186E+02  0.51100000000E-03 0. -1.
         22    1    1    0    0    0  0.62528640915E+01 -0.29359032048E+02  0.13032019062E+02  0.32724373072E+02  0.00000000000E+00 0.  1.
</event>
<event>
 5    1  0.1103865E-009  0.9118800E+02  0.7818608E-02  0.1130116E+00
         25   -1    0    0    0    0  0.00000000000E+00  0.00000000000E+00  0.99999998245E-14  0.12500000000E+03  0.12500000000E+03 0.  0.
        -11    1    3    3    0    0 -0.35904948827E+02  0.15626690679E+02  0.14057489142E+02  0.41604949382E+02  0.51100000000E-03 0.  1.
         23    2    1    0    0    0 -0.62568042499E+01 -0.16157536985E+02 -0.21234124653E+02  0.97593766208E+02  0.93666651227E+02 0.  0.
         11    1    3    3    0    0  0.29648144577E+02 -0.31784227664E+02 -0.35291613795E+02  0.55988816826E+02  0.51100000000E-03 0. -1.
         22    1    1    0    0    0  0.62568042499E+01  0.16157536985E+02  0.21234124653E+02  0.27406233792E+02  0.00000000000E+00 0. -1.
</event>
<event>
 5    1  0.1103865E-009  0.9118800E+02  0.7818608E-02  0.1130116E+00
         25   -1    0    0    0    0  0.00000000000E+00  0.00000000000E+00  0.99999998245E-14  0.12500000000E+03  0.12500000000E+03 0.  0.
        -11    1    3    3    0    0  0.57695994605E+01  0.53690564344E+02  0.21727369549E+02  0.58206903072E+02  0.51100000000E-03 0.  1.
         23    2    1    0    0    0  0.42980762568E+00  0.18112283715E+02 -0.83035990533E+01  0.10507039104E+03  0.10316296700E+03 0.  0.
         11    1    3    3    0    0 -0.53397918349E+01 -0.35578280629E+02 -0.30030968602E+02  0.46863487970E+02  0.51100000000E-03 0. -1.
         22    1    1    0    0    0 -0.42980762568E+00 -0.18112283715E+02  0.83035990533E+01  0.19929608958E+02  0.00000000000E+00 0.  1.
</event>
<event>
 5    1  0.1103865E-009  0.9118800E+02  0.7818608E-02  0.1130116E+00
         25   -1    0    0    0    0  0.00000000000E+00  0.00000000000E+00  0.99999998245E-14  0.12500000000E+03  0.12500000000E+03 0.  0.
        -11    1    3    3    0    0 -0.66614616919E+01 -0.40677323090E+02  0.14790788986E+01  0.41245695052E+02  0.51100000000E-03 0.  1.
         23    2    1    0    0    0 -0.99473516226E+01  0.68498034558E+01  0.27094061627E+02  0.95335917558E+02  0.90603418200E+02 0.  0.
         11    1    3    3    0    0 -0.32858899307E+01  0.47527126546E+02  0.25614982728E+02  0.54090222506E+02  0.51100000000E-03 0. -1.
         22    1    1    0    0    0  0.99473516226E+01 -0.68498034558E+01 -0.27094061627E+02  0.29664082442E+02  0.00000000000E+00 0. -1.
</event>
<event>
 5    1  0.1103865E-009  0.9118800E+02  0.7818608E-02  0.1130116E+00
         25   -1    0    0    0    0  0.00000000000E+00  0.00000000000E+00  0.99999998245E-14  0.12500000000E+03  0.12500000000E+03 0.  0.
        -11    1    3    3    0    0 -0.23475144409E+02 -0.30309336881E+02  0.51406898796E+01  0.38680292138E+02  0.51100000000E-03 0.  1.
         23    2    1    0    0    0 -0.76349240829E+01  0.23914243087E+02  0.14604375133E+02  0.95957430189E+02  0.91456861674E+02 0.  0.
         11    1    3    3    0    0  0.15840220326E+02  0.54223579968E+02  0.94636852533E+01  0.57277138051E+02  0.51100000000E-03 0. -1.
         22    1    1    0    0    0  0.76349240829E+01 -0.23914243087E+02 -0.14604375133E+02  0.29042569811E+02  0.00000000000E+00 0. -1.
</event>
<event>
 5    1  0.1103865E-009  0.9118800E+02  0.7818608E-02  0.1130116E+00
         25   -1    0    0    0    0  0.00000000000E+00  0.00000000000E+00  0.99999998245E-14  0.12500000000E+03  0.12500000000E+03 0.  0.
        -11    1    3    3    0    0  0.44860715292E+02 -0.14682200296E+02 -0.24359529924E+02  0.53117205126E+02  0.51100000000E-03 0.  1.
         23    2    1    0    0    0  0.21768813950E+02 -0.16059352173E+02  0.11349219540E+02  0.95664205531E+02  0.91055210629E+02 0.  0.
         11    1    3    3    0    0 -0.23091901342E+02 -0.13771518763E+01  0.35708749464E+02  0.42547000405E+02  0.51100000000E-03 0. -1.
         22    1    1    0    0    0 -0.21768813950E+02  0.16059352173E+02 -0.11349219540E+02  0.29335794469E+02  0.00000000000E+00 0.  1.
</event>
<event>
 5    1  0.1103865E-009  0.9118800E+02  0.7818608E-02  0.1130116E+00
         25   -1    0    0    0    0  0.00000000000E+00  0.00000000000E+00  0.99999998245E-14  0.12500000000E+03  0.12500000000E+03 0.  0.
        -11    1    3    3    0    0  0.29716288274E+02 -0.83726949245E+01  0.15631397084E+02  0.34604918497E+02  0.51100000000E-03 0.  1.
         23    2    1    0    0    0 -0.85466704134E+01  0.45929075462E+01 -0.28771587301E+02  0.94636459187E+02  0.89633223732E+02 0.  0.
         11    1    3    3    0    0 -0.38262958688E+02  0.12965602471E+02 -0.44402984386E+02  0.60031540690E+02  0.51100000000E-03 0. -1.
         22    1    1    0    0    0  0.85466704134E+01 -0.45929075462E+01  0.28771587301E+02  0.30363540813E+02  0.00000000000E+00 0. -1.
</event>
<event>
 5    1  0.1103865E-009  0.9118800E+02  0.7818608E-02  0.1130116E+00
         25   -1    0    0    0    0  0.00000000000E+00  0.00000000000E+00  0.99999998245E-14  0.12500000000E+03  0.12500000000E+03 0.  0.
        -11    1    3    3    0    0 -0.19281138316E+02 -0.35716530865E+02  0.29220297484E+02  0.50012584988E+02  0.51100000000E-03 0.  1.
         23    2    1    0    0    0 -0.35042330757E+01  0.75685920247E+01  0.27660161997E+02  0.96109728343E+02  0.91664781055E+02 0.  0.
         11    1    3    3    0    0  0.15776905240E+02  0.43285122890E+02 -0.15601354870E+01  0.46097143356E+02  0.51100000000E-03 0. -1.
         22    1    1    0    0    0  0.35042330757E+01 -0.75685920247E+01 -0.27660161997E+02  0.28890271657E+02  0.00000000000E+00 0.  1.
</event>
<event>
 5    1  0.1103865E-009  0.9118800E+02  0.7818608E-02  0.1130116E+00
         25   -1    0    0    0    0  0.00000000000E+00  0.00000000000E+00  0.99999998245E-14  0.12500000000E+03  0.12500000000E+03 0.  0.
        -11    1    3    3    0    0 -0.56016265418E+02  0.19584343540E+01 -0.25236524053E+02  0.61469826769E+02  0.51100000000E-03 0.  1.
         23    2    1    0    0    0 -0.25976532706E+02 -0.67324451505E+01 -0.90649400456E+01  0.96675466338E+02  0.92433038382E+02 0.  0.
         11    1    3    3    0    0  0.30039732712E+02 -0.86908795045E+01  0.16171584007E+02  0.35205639570E+02  0.51100000000E-03 0. -1.
         22    1    1    0    0    0  0.25976532706E+02  0.67324451505E+01  0.90649400456E+01  0.28324533662E+02  0.00000000000E+00 0.  1.
</event>
<event>
 5    1  0.1103865E-009  0.9118800E+02  0.7818608E-02  0.1130116E+00
         25   -1    0    0    0    0  0.00000000000E+00  0.00000000000E+00  0.99999998245E-14  0.12500000000E+03  0.12500000000E+03 0.  0.
        -11    1    3    3    0    0 -0.17234163067E+02  0.44832304651E+02 -0.14424967749E+02  0.50150090844E+02  0.51100000000E-03 0. -1.
         23    2    1    0    0    0  0.17512303236E+02  0.15941220594E+02 -0.17666719906E+02  0.95454843529E+02  0.90767344801E+02 0.  0.
         11    1    3    3    0    0  0.34746466303E+02 -0.28891084057E+02 -0.32417521574E+01  0.45304752685E+02  0.51100000000E-03 0.  1.
         22    1    1    0    0    0 -0.17512303236E+02 -0.15941220594E+02  0.17666719906E+02  0.29545156471E+02  0.00000000000E+00 0.  1.
</event>
<event>
 5    1  0.1103865E-009  0.9118800E+02  0.7818608E-02  0.1130116E+00
         25   -1    0    0    0    0  0.00000000000E+00  0.00000000000E+00  0.99999998245E-14  0.12500000000E+03  0.12500000000E+03 0.  0.
        -11    1    3    3    0    0 -0.94673813023E+01 -0.37277295824E+02  0.33611043663E+02  0.51077689347E+02  0.51100000000E-03 0. -1.
         23    2    1    0    0    0 -0.12942346154E+02  0.69910752811E+01  0.24524292590E+02  0.96402440933E+02  0.92063077470E+02 0.  0.
         11    1    3    3    0    0 -0.34749648516E+01  0.44268371105E+02 -0.90867510732E+01  0.45324751586E+02  0.51100000000E-03 0.  1.
         22    1    1    0    0    0  0.12942346154E+02 -0.69910752811E+01 -0.24524292590E+02  0.28597559067E+02  0.00000000000E+00 0.  1.
</event>
<event>
 5    1  0.1103865E-009  0.9118800E+02  0.7818608E-02  0.1130116E+00
         25   -1    0    0    0    0  0.00000000000E+00  0.00000000000E+00  0.99999998245E-14  0.12500000000E+03  0.12500000000E+03 0.  0.
        -11    1    3    3    0    0 -0.14651874671E+02  0.58526597462E+02 -0.11662205386E+02  0.61449549034E+02  0.51100000000E-03 0. -1.
         23    2    1    0    0    0 -0.77796054404E+01  0.27493269562E+02  0.26426230572E+01  0.96305303824E+02  0.91931093521E+02 0.  0.
         11    1    3    3    0    0  0.68722692305E+01 -0.31033327900E+02  0.14304828443E+02  0.34855754789E+02  0.51100000000E-03 0.  1.
         22    1    1    0    0    0  0.77796054404E+01 -0.27493269562E+02 -0.26426230572E+01  0.28694696176E+02  0.00000000000E+00 0. -1.
</event>
<event>
 5    1  0.1103865E-009  0.9118800E+02  0.7818608E-02  0.1130116E+00
         25   -1    0    0    0    0  0.00000000000E+00  0.00000000000E+00  0.99999998245E-14  0.12500000000E+03  0.12500000000E+03 0.  0.
        -11    1    3    3    0    0  0.64589335605E+01 -0.45658211432E+02  0.35319471069E+01  0.46247862053E+02  0.51100000000E-03 0.  1.
         23    2    1    0    0    0  0.26566611859E+02 -0.24467143358E+01  0.13741635803E+02  0.94989937833E+02  0.90124827092E+02 0.  0.
         11    1    3    3    0    0  0.20107678299E+02  0.43211497096E+02  0.10209688696E+02  0.48742075780E+02  0.51100000000E-03 0. -1.
         22    1    1    0    0    0 -0.26566611859E+02  0.24467143358E+01 -0.13741635803E+02  0.30010062167E+02  0.00000000000E+00 0.  1.
</event>
<event>
 5    1  0.1103865E-009  0.9118800E+02  0.7818608E-02  0.1130116E+00
         25   -1    0    0    0    0  0.00000000000E+00  0.00000000000E+00  0.99999998245E-14  0.12500000000E+03  0.12500000000E+03 0.  0.
        -11    1    3    3    0    0  0.14015304357E+02  0.43588862412E+02 -0.78389378316E+01  0.46452843069E+02  0.51100000000E-03 0.  1.
         23    2    1    0    0    0  0.18122855535E+02 -0.35408456682E+01 -0.22417546561E+02  0.95956551951E+02  0.91455661321E+02 0.  0.
         11    1    3    3    0    0  0.41075511775E+01 -0.47129708080E+02 -0.14578608729E+02  0.49503708882E+02  0.51100000000E-03 0. -1.
         22    1    1    0    0    0 -0.18122855535E+02  0.35408456682E+01  0.22417546561E+02  0.29043448049E+02  0.00000000000E+00 0.  1.
</event>
<event>
 5    1  0.1103865E-009  0.9118800E+02  0.7818608E-02  0.1130116E+00
         25   -1    0    0    0    0  0.00000000000E+00  0.00000000000E+00  0.99999998245E-14  0.12500000000E+03  0.12500000000E+03 0.  0.
        -11    1    3    3    0    0 -0.70258330458E+01 -0.34800042969E+02  0.37016887542E+01  0.35694646945E+02  0.51100000000E-03 0.  1.
         23    2    1    0    0    0  0.24371288374E+02  0.15989614319E+02  0.50335621860E+01  0.95420206029E+02  0.90719631322E+02 0.  0.
         11    1    3    3    0    0  0.31397121420E+02  0.50789657288E+02  0.13318734318E+01  0.59725559084E+02  0.51100000000E-03 0. -1.
         22    1    1    0    0    0 -0.24371288374E+02 -0.15989614319E+02 -0.50335621860E+01  0.29579793971E+02  0.00000000000E+00 0. -1.
</event>
<event>
 5    1  0.1103865E-009  0.9118800E+02  0.7818608E-02  0.1130116E+00
         25   -1    0    0    0    0  0.00000000000E+00  0.00000000000E+00  0.99999998245E-14  0.12500000000E+03  0.12500000000E+03 0.  0.
        -11    1    3    3    0    0 -0.69176137057E+01  0.10882452631E+02  0.34987328176E+02  0.37287991201E+02  0.51100000000E-03 0.  1.
         23    2    1    0    0    0  0.24663674731E+02  0.23598910490E+02 -0.57557444842E+01  0.90383038520E+02  0.83491075152E+02 0.  0.
         11    1    3    3    0    0  0.31581288436E+02  0.12716457859E+02 -0.40743072660E+02  0.53095047319E+02  0.51100000000E-03 0. -1.
         22    1    1    0    0    0 -0.24663674731E+02 -0.23598910490E+02  0.57557444842E+01  0.34616961480E+02  0.00000000000E+00 0. -1.
</event>
<event>
 5    1  0.1103865E-009  0.9118800E+02  0.7818608E-02  0.1130116E+00
         25   -1    0    0    0    0  0.00000000000E+00  0.00000000000E+00  0.99999998245E-14  0.12500000000E+03  0.12500000000E+03 0.  0.
        -11    1    3    3    0    0 -0.16382069681E+02  0.24559754825E+02  0.25682207751E+02  0.39129650641E+02  0.51100000000E-03 0. -1.
         23    2    1    0    0    0  0.21883902933E+02  0.30336365251E+01 -0.14440237728E+02  0.98606276811E+02  0.95008258603E+02 0.  0.
         11    1    3    3    0    0  0.38265972614E+02 -0.21526118300E+02 -0.40122445479E+02  0.59476626170E+02  0.51100000000E-03 0.  1.
         22    1    1    0    0    0 -0.21883902933E+02 -0.30336365251E+01  0.14440237728E+02  0.26393723189E+02  0.00000000000E+00 0.  1.
</event>
<event>
 5    1  0.1103865E-009  0.9118800E+02  0.7818608E-02  0.1130116E+00
         25   -1    0    0    0    0  0.00000000000E+00  0.00000000000E+00  0.99999998245E-14  0.12500000000E+03  0.12500000000E+03 0.  0.
        -11    1    3    3    0    0 -0.15543280489E+02 -0.47391073242E+02  0.24660359082E+02  0.55638482201E+02  0.51100000000E-03 0. -1.
         23    2    1    0    0    0 -0.14746906757E+02 -0.29307843473E+02 -0.63853448668E+01  0.91575554200E+02  0.85257777065E+02 0.  0.
         11    1    3    3    0    0  0.79637373171E+00  0.18083229768E+02 -0.31045703948E+02  0.35937071999E+02  0.51100000000E-03 0.  1.
         22    1    1    0    0    0  0.14746906757E+02  0.29307843473E+02  0.63853448668E+01  0.33424445800E+02  0.00000000000E+00 0. -1.
</event>
<event>
 5    1  0.1103865E-009  0.9118800E+02  0.7818608E-02  0.1130116E+00
         25   -1    0    0    0    0  0.00000000000E+00  0.00000000000E+00  0.99999998245E-14  0.12500000000E+03  0.12500000000E+03 0.  0.
        -11    1    3    3    0    0  0.33494342509E+01  0.30937840121E+02  0.32697415845E+02  0.45138560726E+02  0.51100000000E-03 0.  1.
         23    2    1    0    0    0 -0.13685644805E+02  0.21292823077E+02 -0.14213807691E+02  0.95970471630E+02  0.91474684517E+02 0.  0.
         11    1    3    3    0    0 -0.17035079055E+02 -0.96450170435E+01 -0.46911223536E+02  0.50831910904E+02  0.51100000000E-03 0. -1.
         22    1    1    0    0    0  0.13685644805E+02 -0.21292823077E+02  0.14213807691E+02  0.29029528370E+02  0.00000000000E+00 0.  1.
</event>
<event>
 5    1  0.1103865E-009  0.9118800E+02  0.7818608E-02  0.1130116E+00
         25   -1    0    0    0    0  0.00000000000E+00  0.00000000000E+00  0.99999998245E-14  0.12500000000E+03  0.12500000000E+03 0.  0.
        -11    1    3    3    0    0  0.47395311276E+02 -0.31546244709E+02  0.96479941236E+01  0.57745691415E+02  0.51100000000E-03 0.  1.
         23    2    1    0    0    0  0.24453366473E+02 -0.12814171407E+02 -0.12466021300E+02  0.94708552234E+02  0.89733706367E+02 0.  0.
         11    1    3    3    0    0 -0.22941944802E+02  0.18732073301E+02 -0.22114015423E+02  0.36962860818E+02  0.51100000000E-03 0. -1.
         22    1    1    0    0    0 -0.24453366473E+02  0.12814171407E+02  0.12466021300E+02  0.30291447766E+02  0.00000000000E+00 0.  1.
</event>
<event>
 5    1  0.1103865E-009  0.9118800E+02  0.7818608E-02  0.1130116E+00
         25   -1    0    0    0    0  0.00000000000E+00  0.00000000000E+00  0.99999998245E-14  0.12500000000E+03  0.12500000000E+03 0.  0.
        -11    1    3    3    0    0  0.47171730564E+02  0.28358694588E+02  0.14646933033E+02  0.56955424419E+02  0.51100000000E-03 0.  1.
         23    2    1    0    0    0  0.11251300786E+02  0.15631824525E+02  0.21993423823E+02  0.95765493012E+02  0.91194151419E+02 0.  0.
         11    1    3    3    0    0 -0.35920429778E+02 -0.12726870063E+02  0.73464907895E+01  0.38810068593E+02  0.51100000000E-03 0. -1.
         22    1    1    0    0    0 -0.11251300786E+02 -0.15631824525E+02 -0.21993423823E+02  0.29234506988E+02  0.00000000000E+00 0.  1.
</event>
<event>
 5    1  0.1103865E-009  0.9118800E+02  0.7818608E-02  0.1130116E+00
         25   -1    0    0    0    0  0.00000000000E+00  0.00000000000E+00  0.99999998245E-14  0.12500000000E+03  0.12500000000E+03 0.  0.
        -11    1    3    3    0    0  0.33415615866E+01 -0.10813762865E+02  0.20121235029E+02  0.23086091062E+02  0.51100000000E-03 0.  1.
         23    2    1    0    0    0  0.48679819355E+02 -0.48850591772E+01 -0.59408545583E+01  0.75716307276E+02  0.57481099669E+02 0.  0.
         11    1    3    3    0    0  0.45338257768E+02  0.59287036876E+01 -0.26062089588E+02  0.52630216215E+02  0.51100000000E-03 0. -1.
         22    1    1    0    0    0 -0.48679819355E+02  0.48850591772E+01  0.59408545583E+01  0.49283692724E+02  0.00000000000E+00 0. -1.
</event>
<event>
 5    1  0.1103865E-009  0.9118800E+02  0.7818608E-02  0.1130116E+00
         25   -1    0    0    0    0  0.00000000000E+00  0.00000000000E+00  0.99999998245E-14  0.12500000000E+03  0.12500000000E+03 0.  0.
        -11    1    3    3    0    0  0.12534415432E+02 -0.17118997984E+01 -0.32303240603E+02  0.34692096000E+02  0.51100000000E-03 0. -1.
         23    2    1    0    0    0 -0.53090183550E+01 -0.16475901906E+02  0.23905664015E+02  0.95485227571E+02  0.90809178461E+02 0.  0.
         11    1    3    3    0    0 -0.17843433787E+02 -0.14764002108E+02  0.56208904618E+02  0.60793131571E+02  0.51100000000E-03 0.  1.
         22    1    1    0    0    0  0.53090183550E+01  0.16475901906E+02 -0.23905664015E+02  0.29514772429E+02  0.00000000000E+00 0.  1.
</event>
<event>
 5    1  0.1103865E-009  0.9118800E+02  0.7818608E-02  0.1130116E+00
         25   -1    0    0    0    0  0.00000000000E+00  0.00000000000E+00  0.99999998245E-14  0.12500000000E+03  0.12500000000E+03 0.  0.
        -11    1    3    3    0    0 -0.24688397917E+02  0.15163746115E+02  0.14381817771E+02  0.32346450665E+02  0.51100000000E-03 0.  1.
         23    2    1    0    0    0  0.23289982953E+02 -0.89316643830E+01 -0.17260762324E+02  0.94666324809E+02  0.89674863826E+02 0.  0.
         11    1    3    3    0    0  0.47978380870E+02 -0.24095410498E+02 -0.31642580095E+02  0.62319874144E+02  0.51100000000E-03 0. -1.
         22    1    1    0    0    0 -0.23289982953E+02  0.89316643830E+01  0.17260762324E+02  0.30333675191E+02  0.00000000000E+00 0. -1.
</event>
<event>
 5    1  0.1103865E-009  0.9118800E+02  0.7818608E-02  0.1130116E+00
         25   -1    0    0    0    0  0.00000000000E+00  0.00000000000E+00  0.99999998245E-14  0.12500000000E+03  0.12500000000E+03 0.  0.
        -11    1    3    3    0    0 -0.15822956407E+02  0.40498716970E+02 -0.32151881337E+02  0.54076385784E+02  0.51100000000E-03 0. -1.
         23    2    1    0    0    0  0.34559461855E+01  0.46437345813E+01 -0.29571259408E+02  0.94867505614E+02  0.89954857588E+02 0.  0.
         11    1    3    3    0    0  0.19278902592E+02 -0.35854982389E+02  0.25806219284E+01  0.40791119831E+02  0.51100000000E-03 0.  1.
         22    1    1    0    0    0 -0.34559461855E+01 -0.46437345813E+01  0.29571259408E+02  0.30132494386E+02  0.00000000000E+00 0. -1.
</event>
<event>
 5    1  0.1103865E-009  0.9118800E+02  0.7818608E-02  0.1130116E+00
         25   -1    0    0    0    0  0.00000000000E+00  0.00000000000E+00  0.99999998245E-14  0.12500000000E+03  0.12500000000E+03 0.  0.
        -11    1    3    3    0    0  0.29040751769E+02 -0.53377847330E+01 -0.45857621114E+02  0.54541531182E+02  0.51100000000E-03 0. -1.
         23    2    1    0    0    0 -0.15836589143E+01  0.13940073042E+02 -0.25062244565E+02  0.96278062137E+02  0.91894045151E+02 0.  0.
         11    1    3    3    0    0 -0.30624410683E+02  0.19277857775E+02  0.20795376549E+02  0.41736530955E+02  0.51100000000E-03 0.  1.
         22    1    1    0    0    0  0.15836589143E+01 -0.13940073042E+02  0.25062244565E+02  0.28721937863E+02  0.00000000000E+00 0. -1.
</event>
<event>
 5    1  0.1103865E-009  0.9118800E+02  0.7818608E-02  0.1130116E+00
         25   -1    0    0    0    0  0.00000000000E+00  0.00000000000E+00  0.99999998245E-14  0.12500000000E+03  0.12500000000E+03 0.  0.
        -11    1    3    3    0    0 -0.40244000042E+02 -0.39005102708E+02 -0.45626257577E+00  0.56046282235E+02  0.51100000000E-03 0. -1.
         23    2    1    0    0    0 -0.19140570109E+02 -0.19818089343E+02 -0.20287119682E+02  0.90784721041E+02  0.84090310144E+02 0.  0.
         11    1    3    3    0    0  0.21103429933E+02  0.19187013365E+02 -0.19830857106E+02  0.34738438805E+02  0.51100000000E-03 0.  1.
         22    1    1    0    0    0  0.19140570109E+02  0.19818089343E+02  0.20287119682E+02  0.34215278959E+02  0.00000000000E+00 0. -1.
</event>
<event>
 5    1  0.1103865E-009  0.9118800E+02  0.7818608E-02  0.1130116E+00
         25   -1    0    0    0    0  0.00000000000E+00  0.00000000000E+00  0.99999998245E-14  0.12500000000E+03  0.12500000000E+03 0.  0.
        -11    1    3    3    0    0 -0.18919194359E+02 -0.11548405500E+02  0.21986857251E+02  0.31220561763E+02  0.51100000000E-03 0. -1.
         23    2    1    0    0    0  0.21249200461E+02  0.88314656935E+01 -0.21265361318E+02  0.93667287087E+02  0.88271296420E+02 0.  0.
         11    1    3    3    0    0  0.40168394820E+02  0.20379871193E+02 -0.43252218569E+02  0.62446725324E+02  0.51100000000E-03 0.  1.
         22    1    1    0    0    0 -0.21249200461E+02 -0.88314656935E+01  0.21265361318E+02  0.31332712913E+02  0.00000000000E+00 0.  1.
</event>
<event>
 5    1  0.1103865E-009  0.9118800E+02  0.7818608E-02  0.1130116E+00
         25   -1    0    0    0    0  0.00000000000E+00  0.00000000000E+00  0.99999998245E-14  0.12500000000E+03  0.12500000000E+03 0.  0.
        -11    1    3    3    0    0  0.81995705298E+01 -0.31930928622E+02 -0.22155656676E+02  0.39720149578E+02  0.51100000000E-03 0. -1.
         23    2    1    0    0    0  0.18138284559E+02  0.21415972873E+02 -0.84845104876E+01  0.95680583583E+02  0.91077691537E+02 0.  0.
         11    1    3    3    0    0  0.99387140291E+01  0.53346901495E+02  0.13671146188E+02  0.55960434005E+02  0.51100000000E-03 0.  1.
         22    1    1    0    0    0 -0.18138284559E+02 -0.21415972873E+02  0.84845104876E+01  0.29319416417E+02  0.00000000000E+00 0.  1.
</event>
<event>
 5    1  0.1103865E-009  0.9118800E+02  0.7818608E-02  0.1130116E+00
         25   -1    0    0    0    0  0.00000000000E+00  0.00000000000E+00  0.99999998245E-14  0.12500000000E+03  0.12500000000E+03 0.  0.
        -11    1    3    3    0    0 -0.21467737596E+02  0.28607107871E+02  0.90893126570E+01  0.36903197464E+02  0.51100000000E-03 0. -1.
         23    2    1    0    0    0 -0.15622398337E+01 -0.11993087993E+02 -0.27427390550E+02  0.95024401502E+02  0.90172614332E+02 0.  0.
         11    1    3    3    0    0  0.19905497762E+02 -0.40600195865E+02 -0.36516703207E+02  0.58121204038E+02  0.51100000000E-03 0.  1.
         22    1    1    0    0    0  0.15622398337E+01  0.11993087993E+02  0.27427390550E+02  0.29975598498E+02  0.00000000000E+00 0.  1.
</event>
<event>
 5    1  0.1103865E-009  0.9118800E+02  0.7818608E-02  0.1130116E+00
         25   -1    0    0    0    0  0.00000000000E+00  0.00000000000E+00  0.99999998245E-14  0.12500000000E+03  0.12500000000E+03 0.  0.
        -11    1    3    3    0    0  0.34789098496E+02 -0.12296346319E+02  0.50005043813E+02  0.62144878421E+02  0.51100000000E-03 0. -1.
         23    2    1    0    0    0  0.13007852753E+02 -0.38847859190E+01  0.26213595089E+02  0.95479695761E+02  0.90801563534E+02 0.  0.
         11    1    3    3    0    0 -0.21781245742E+02  0.84115604004E+01 -0.23791448724E+02  0.33334817340E+02  0.51100000000E-03 0.  1.
         22    1    1    0    0    0 -0.13007852753E+02  0.38847859190E+01 -0.26213595089E+02  0.29520304239E+02  0.00000000000E+00 0. -1.
</event>
<event>
 5    1  0.1103865E-009  0.9118800E+02  0.7818608E-02  0.1130116E+00
         25   -1    0    0    0    0  0.00000000000E+00  0.00000000000E+00  0.99999998245E-14  0.12500000000E+03  0.12500000000E+03 0.  0.
        -11    1    3    3    0    0  0.13024295930E+02 -0.22565077619E+02  0.36811748693E+02  0.45099000593E+02  0.51100000000E-03 0. -1.
         23    2    1    0    0    0  0.18226604616E+02 -0.16461183661E+02 -0.14128264064E+02  0.96666494590E+02  0.92420904819E+02 0.  0.
         11    1    3    3    0    0  0.52023086867E+01  0.61038939585E+01 -0.50940012757E+02  0.51567493997E+02  0.51100000000E-03 0.  1.
         22    1    1    0    0    0 -0.18226604616E+02  0.16461183661E+02  0.14128264064E+02  0.28333505410E+02  0.00000000000E+00 0.  1.
</event>
<event>
 5    1  0.1103865E-009  0.9118800E+02  0.7818608E-02  0.1130116E+00
         25   -1    0    0    0    0  0.00000000000E+00  0.00000000000E+00  0.99999998245E-14  0.12500000000E+03  0.12500000000E+03 0.  0.
        -11    1    3    3    0    0 -0.16641370819E+02 -0.20378045373E+02  0.18045074190E+02  0.31903364379E+02  0.51100000000E-03 0.  1.
         23    2    1    0    0    0  0.13851439756E+01  0.19941897410E+02 -0.24603030905E+02  0.93299731455E+02  0.87749261329E+02 0.  0.
         11    1    3    3    0    0  0.18026514794E+02  0.40319942783E+02 -0.42648105094E+02  0.61396367075E+02  0.51100000000E-03 0. -1.
         22    1    1    0    0    0 -0.13851439756E+01 -0.19941897410E+02  0.24603030905E+02  0.31700268545E+02  0.00000000000E+00 0. -1.
</event>
<event>
 5    1  0.1103865E-009  0.9118800E+02  0.7818608E-02  0.1130116E+00
         25   -1    0    0    0    0  0.00000000000E+00  0.00000000000E+00  0.99999998245E-14  0.12500000000E+03  0.12500000000E+03 0.  0.
        -11    1    3    3    0    0 -0.12943470769E+02  0.46803240676E+02  0.31278828054E+02  0.57761941259E+02  0.51100000000E-03 0.  1.
         23    2    1    0    0    0 -0.22167382985E+02  0.17052701051E+02  0.10902645954E+02  0.94982418980E+02  0.90114398100E+02 0.  0.
         11    1    3    3    0    0 -0.92239122153E+01 -0.29750539625E+02 -0.20376182100E+02  0.37220477721E+02  0.51100000000E-03 0. -1.
         22    1    1    0    0    0  0.22167382985E+02 -0.17052701051E+02 -0.10902645954E+02  0.30017581020E+02  0.00000000000E+00 0.  1.
</event>
<event>
 5    1  0.1103865E-009  0.9118800E+02  0.7818608E-02  0.1130116E+00
         25   -1    0    0    0    0  0.00000000000E+00  0.00000000000E+00  0.99999998245E-14  0.12500000000E+03  0.12500000000E+03 0.  0.
        -11    1    3    3    0    0  0.21126057771E+02 -0.29482808659E+02  0.12085649934E+02  0.38230998652E+02  0.51100000000E-03 0. -1.
         23    2    1    0    0    0 -0.12779124429E+02 -0.11742464408E+02 -0.26982970791E+02  0.92917727570E+02  0.87203393813E+02 0.  0.
         11    1    3    3    0    0 -0.33905182199E+02  0.17740344251E+02 -0.39068620725E+02  0.54686728918E+02  0.51100000000E-03 0.  1.
         22    1    1    0    0    0  0.12779124429E+02  0.11742464408E+02  0.26982970791E+02  0.32082272430E+02  0.00000000000E+00 0.  1.
</event>
<event>
 5    1  0.1103865E-009  0.9118800E+02  0.7818608E-02  0.1130116E+00
         25   -1    0    0    0    0  0.00000000000E+00  0.00000000000E+00  0.99999998245E-14  0.12500000000E+03  0.12500000000E+03 0.  0.
        -11    1    3    3    0    0 -0.41842394943E+02 -0.36368097131E+02 -0.79408972802E+01  0.56004306561E+02  0.51100000000E-03 0. -1.
         23    2    1    0    0    0 -0.71669825229E+01 -0.29676027152E+02  0.58474009613E+01  0.93915850920E+02  0.88622585892E+02 0.  0.
         11    1    3    3    0    0  0.34675412420E+02  0.66920699787E+01  0.13788298242E+02  0.37911544360E+02  0.51100000000E-03 0.  1.
         22    1    1    0    0    0  0.71669825229E+01  0.29676027152E+02 -0.58474009613E+01  0.31084149080E+02  0.00000000000E+00 0. -1.
</event>
<event>
 5    1  0.1103865E-009  0.9118800E+02  0.7818608E-02  0.1130116E+00
         25   -1    0    0    0    0  0.00000000000E+00  0.00000000000E+00  0.99999998245E-14  0.12500000000E+03  0.12500000000E+03 0.  0.
        -11    1    3    3    0    0  0.48630494293E+02 -0.15862732426E+02 -0.24636463269E+02  0.56775933087E+02  0.51100000000E-03 0.  1.
         23    2    1    0    0    0  0.17860206809E+02 -0.23830289472E+02 -0.33468750210E+01  0.95032162974E+02  0.90183372877E+02 0.  0.
         11    1    3    3    0    0 -0.30770287484E+02 -0.79675570461E+01  0.21289588248E+02  0.38256229887E+02  0.51100000000E-03 0. -1.
         22    1    1    0    0    0 -0.17860206809E+02  0.23830289472E+02  0.33468750210E+01  0.29967837026E+02  0.00000000000E+00 0.  1.
</event>
<event>
 5    1  0.1103865E-009  0.9118800E+02  0.7818608E-02  0.1130116E+00
         25   -1    0    0    0    0  0.00000000000E+00  0.00000000000E+00  0.99999998245E-14  0.12500000000E+03  0.12500000000E+03 0.  0.
        -11    1    3    3    0    0  0.70039143575E+01  0.28702824830E+02 -0.17044410527E+02  0.34108926985E+02  0.51100000000E-03 0.  1.
         23    2    1    0    0    0 -0.18489774159E+02 -0.19116892764E+02  0.12258696103E+02  0.95715140985E+02  0.91125107661E+02 0.  0.
         11    1    3    3    0    0 -0.25493688517E+02 -0.47819717594E+02  0.29303106630E+02  0.61606214000E+02  0.51100000000E-03 0. -1.
         22    1    1    0    0    0  0.18489774159E+02  0.19116892764E+02 -0.12258696103E+02  0.29284859015E+02  0.00000000000E+00 0. -1.
</event>
<event>
 5    1  0.1103865E-009  0.9118800E+02  0.7818608E-02  0.1130116E+00
         25   -1    0    0    0    0  0.00000000000E+00  0.00000000000E+00  0.99999998245E-14  0.12500000000E+03  0.12500000000E+03 0.  0.
        -11    1    3    3    0    0 -0.62448808688E+01  0.32682746195E+02  0.16191547649E+02  0.37004413946E+02  0.51100000000E-03 0.  1.
         23    2    1    0    0    0  0.24909229745E+02 -0.31134303504E+01 -0.16794224857E+02  0.94797199408E+02  0.89857107966E+02 0.  0.
         11    1    3    3    0    0  0.31154110614E+02 -0.35796176546E+02 -0.32985772506E+02  0.57792785462E+02  0.51100000000E-03 0. -1.
         22    1    1    0    0    0 -0.24909229745E+02  0.31134303504E+01  0.16794224857E+02  0.30202800592E+02  0.00000000000E+00 0. -1.
</event>
<event>
 5    1  0.1103865E-009  0.9118800E+02  0.7818608E-02  0.1130116E+00
         25   -1    0    0    0    0  0.00000000000E+00  0.00000000000E+00  0.99999998245E-14  0.12500000000E+03  0.12500000000E+03 0.  0.
        -11    1    3    3    0    0 -0.41839812647E+02 -0.63569390145E+01  0.14780865319E+02  0.44826940291E+02  0.51100000000E-03 0. -1.
         23    2    1    0    0    0  0.68873427071E+01  0.23117854368E+01  0.28015245640E+02  0.96058095610E+02  0.91594344271E+02 0.  0.
         11    1    3    3    0    0  0.48727155354E+02  0.86687244514E+01  0.13234380321E+02  0.51231155319E+02  0.51100000000E-03 0.  1.
         22    1    1    0    0    0 -0.68873427071E+01 -0.23117854368E+01 -0.28015245640E+02  0.28941904390E+02  0.00000000000E+00 0. -1.
</event>
<event>
 5    1  0.1103865E-009  0.9118800E+02  0.7818608E-02  0.1130116E+00
         25   -1    0    0    0    0  0.00000000000E+00  0.00000000000E+00  0.99999998245E-14  0.12500000000E+03  0.12500000000E+03 0.  0.
        -11    1    3    3    0    0  0.14422413621E+02 -0.25528458004E+02 -0.25083766757E+02  0.38586312828E+02  0.51100000000E-03 0.  1.
         23    2    1    0    0    0  0.37622469018E+01  0.27364546181E+02 -0.15303204250E+02  0.93422144630E+02  0.87923467615E+02 0.  0.
         11    1    3    3    0    0 -0.10660166720E+02  0.52893004185E+02  0.97805625066E+01  0.54835831802E+02  0.51100000000E-03 0. -1.
         22    1    1    0    0    0 -0.37622469018E+01 -0.27364546181E+02  0.15303204250E+02  0.31577855370E+02  0.00000000000E+00 0. -1.
</event>
<event>
 5    1  0.1103865E-009  0.9118800E+02  0.7818608E-02  0.1130116E+00
         25   -1    0    0    0    0  0.00000000000E+00  0.00000000000E+00  0.99999998245E-14  0.12500000000E+03  0.12500000000E+03 0.  0.
        -11    1    3    3    0    0  0.15942141796E+01 -0.12262317570E+02  0.48508818865E+02  0.50060078496E+02  0.51100000000E-03 0. -1.
         23    2    1    0    0    0  0.14831912103E+02 -0.24909632674E+02  0.73729480729E+01  0.95086194160E+02  0.90258232532E+02 0.  0.
         11    1    3    3    0    0  0.13237697923E+02 -0.12647315104E+02 -0.41135870792E+02  0.45026115664E+02  0.51100000000E-03 0.  1.
         22    1    1    0    0    0 -0.14831912103E+02  0.24909632674E+02 -0.73729480729E+01  0.29913805840E+02  0.00000000000E+00 0. -1.
</event>
<event>
 5    1  0.1103865E-009  0.9118800E+02  0.7818608E-02  0.1130116E+00
         25   -1    0    0    0    0  0.00000000000E+00  0.00000000000E+00  0.99999998245E-14  0.12500000000E+03  0.12500000000E+03 0.  0.
        -11    1    3    3    0    0  0.44535479451E+01 -0.63111774705E+01 -0.40378053111E+02  0.41110244753E+02  0.51100000000E-03 0.  1.
         23    2    1    0    0    0  0.19603912872E+02  0.25802041543E+02 -0.33327255875E+01  0.92424459981E+02  0.86493439030E+02 0.  0.
         11    1    3    3    0    0  0.15150364927E+02  0.32113219013E+02  0.37045327524E+02  0.51314215228E+02  0.51100000000E-03 0. -1.
         22    1    1    0    0    0 -0.19603912872E+02 -0.25802041543E+02  0.33327255875E+01  0.32575540019E+02  0.00000000000E+00 0.  1.
</event>
<event>
 5    1  0.1103865E-009  0.9118800E+02  0.7818608E-02  0.1130116E+00
         25   -1    0    0    0    0  0.00000000000E+00  0.00000000000E+00  0.99999998245E-14  0.12500000000E+03  0.12500000000E+03 0.  0.
        -11    1    3    3    0    0  0.33757816310E+02  0.50896136874E+02 -0.59185458798E+01  0.61359889964E+02  0.51100000000E-03 0. -1.
         23    2    1    0    0    0  0.19716293856E+02  0.20872332204E+02 -0.96390378567E+01  0.94713079624E+02  0.89740012848E+02 0.  0.
         11    1    3    3    0    0 -0.14041522454E+02 -0.30023804670E+02 -0.37204919769E+01  0.33353189660E+02  0.51100000000E-03 0.  1.
         22    1    1    0    0    0 -0.19716293856E+02 -0.20872332204E+02  0.96390378567E+01  0.30286920376E+02  0.00000000000E+00 0. -1.
</event>
<event>
 5    1  0.1103865E-009  0.9118800E+02  0.7818608E-02  0.1130116E+00
         25   -1    0    0    0    0  0.00000000000E+00  0.00000000000E+00  0.99999998245E-14  0.12500000000E+03  0.12500000000E+03 0.  0.
        -11    1    3    3    0    0 -0.19804976131E+02  0.28796801597E+02  0.17044239506E+01  0.34991397844E+02  0.51100000000E-03 0.  1.
         23    2    1    0    0    0 -0.47384209586E+01 -0.27223622038E+02 -0.12430774267E+02  0.94699795728E+02  0.89721507634E+02 0.  0.
         11    1    3    3    0    0  0.15066555173E+02 -0.56020423635E+02 -0.14135198218E+02  0.59708397884E+02  0.51100000000E-03 0. -1.
         22    1    1    0    0    0  0.47384209586E+01  0.27223622038E+02  0.12430774267E+02  0.30300204272E+02  0.00000000000E+00 0. -1.
</event>
<event>
 5    1  0.1103865E-009  0.9118800E+02  0.7818608E-02  0.1130116E+00
         25   -1    0    0    0    0  0.00000000000E+00  0.00000000000E+00  0.99999998245E-14  0.12500000000E+03  0.12500000000E+03 0.  0.
        -11    1    3    3    0    0 -0.32263279305E+02  0.27874821802E+02 -0.44201064708E+02  0.61413833976E+02  0.51100000000E-03 0. -1.
         23    2    1    0    0    0 -0.18381408594E+02  0.54563793391E+01 -0.21325291031E+02  0.96322198568E+02  0.91954062673E+02 0.  0.
         11    1    3    3    0    0  0.13881870711E+02 -0.22418442463E+02  0.22875773678E+02  0.34908364592E+02  0.51100000000E-03 0.  1.
         22    1    1    0    0    0  0.18381408594E+02 -0.54563793391E+01  0.21325291031E+02  0.28677801432E+02  0.00000000000E+00 0. -1.
</event>
<event>
 5    1  0.1103865E-009  0.9118800E+02  0.7818608E-02  0.1130116E+00
         25   -1    0    0    0    0  0.00000000000E+00  0.00000000000E+00  0.99999998245E-14  0.12500000000E+03  0.12500000000E+03 0.  0.
        -11    1    3    3    0    0 -0.13209591077E+02 -0.32536777013E+02 -0.19670200073E+02  0.40249868645E+02  0.51100000000E-03 0. -1.
         23    2    1    0    0    0 -0.10662963810E+02  0.23481533033E+02 -0.10875368500E+02  0.97011523250E+02  0.92886386583E+02 0.  0.
         11    1    3    3    0    0  0.25466272676E+01  0.56018310046E+02  0.87948315724E+01  0.56761654605E+02  0.51100000000E-03 0.  1.
         22    1    1    0    0    0  0.10662963810E+02 -0.23481533033E+02  0.10875368500E+02  0.27988476750E+02  0.00000000000E+00 0.  1.
</event>
<event>
 5    1  0.1103865E-009  0.9118800E+02  0.7818608E-02  0.1130116E+00
         25   -1    0    0    0    0  0.00000000000E+00  0.00000000000E+00  0.99999998245E-14  0.12500000000E+03  0.12500000000E+03 0.  0.
        -11    1    3    3    0    0  0.35878200677E+02 -0.16085874676E+02 -0.28658581276E+02  0.48655060672E+02  0.51100000000E-03 0.  1.
         23    2    1    0    0    0  0.19103279518E+02 -0.12340110736E+02  0.16453024468E+02  0.96930165027E+02  0.92776835776E+02 0.  0.
         11    1    3    3    0    0 -0.16774921160E+02  0.37457639403E+01  0.45111605744E+02  0.48275104355E+02  0.51100000000E-03 0. -1.
         22    1    1    0    0    0 -0.19103279518E+02  0.12340110736E+02 -0.16453024468E+02  0.28069834973E+02  0.00000000000E+00 0. -1.
</event>
<event>
 5    1  0.1103865E-009  0.9118800E+02  0.7818608E-02  0.1130116E+00
         25   -1    0    0    0    0  0.00000000000E+00  0.00000000000E+00  0.99999998245E-14  0.12500000000E+03  0.12500000000E+03 0.  0.
        -11    1    3    3    0    0  0.35539099234E+02 -0.27908227879E+02  0.15954042724E+02  0.47921062563E+02  0.51100000000E-03 0.  1.
         23    2    1    0    0    0  0.21548269379E+02  0.68199266942E+01 -0.16133916419E+02  0.97230546056E+02  0.93180665988E+02 0.  0.
         11    1    3    3    0    0 -0.13990829855E+02  0.34728154573E+02 -0.32087959143E+02  0.49309483493E+02  0.51100000000E-03 0. -1.
         22    1    1    0    0    0 -0.21548269379E+02 -0.68199266942E+01  0.16133916419E+02  0.27769453944E+02  0.00000000000E+00 0. -1.
</event>
<event>
 5    1  0.1103865E-009  0.9118800E+02  0.7818608E-02  0.1130116E+00
         25   -1    0    0    0    0  0.00000000000E+00  0.00000000000E+00  0.99999998245E-14  0.12500000000E+03  0.12500000000E+03 0.  0.
        -11    1    3    3    0    0 -0.10899472828E+02 -0.57282550869E+02  0.83161297488E+01  0.58900315417E+02  0.51100000000E-03 0.  1.
         23    2    1    0    0    0  0.92326746611E+01 -0.25155220749E+02  0.87337151046E+01  0.96816579486E+02  0.92623673386E+02 0.  0.
         11    1    3    3    0    0  0.20132147489E+02  0.32127330120E+02  0.41758535578E+00  0.37916264069E+02  0.51100000000E-03 0. -1.
         22    1    1    0    0    0 -0.92326746611E+01  0.25155220749E+02 -0.87337151046E+01  0.28183420514E+02  0.00000000000E+00 0.  1.
</event>
<event>
 5    1  0.1103865E-009  0.9118800E+02  0.7818608E-02  0.1130116E+00
         25   -1    0    0    0    0  0.00000000000E+00  0.00000000000E+00  0.99999998245E-14  0.12500000000E+03  0.12500000000E+03 0.  0.
        -11    1    3    3    0    0 -0.91496794190E+01 -0.33422743055E+02 -0.25333104194E+02  0.42925080724E+02  0.51100000000E-03 0. -1.
         23    2    1    0    0    0  0.24072088546E+02  0.16325786278E+01 -0.23595199853E+02  0.91252937667E+02  0.84783456033E+02 0.  0.
         11    1    3    3    0    0  0.33221767965E+02  0.35055321683E+02  0.17379043402E+01  0.48327856944E+02  0.51100000000E-03 0.  1.
         22    1    1    0    0    0 -0.24072088546E+02 -0.16325786278E+01  0.23595199853E+02  0.33747062333E+02  0.00000000000E+00 0.  1.
</event>
<event>
 5    1  0.1103865E-009  0.9118800E+02  0.7818608E-02  0.1130116E+00
         25   -1    0    0    0    0  0.00000000000E+00  0.00000000000E+00  0.99999998245E-14  0.12500000000E+03  0.12500000000E+03 0.  0.
        -11    1    3    3    0    0  0.77384838108E+01  0.27006397960E+02  0.18902168855E+02  0.33860325606E+02  0.51100000000E-03 0. -1.
         23    2    1    0    0    0 -0.10033910721E+02 -0.27083085828E+02 -0.51422323701E+01  0.95663751841E+02  0.91054587804E+02 0.  0.
         11    1    3    3    0    0 -0.17772394532E+02 -0.54089483788E+02 -0.24044401225E+02  0.61803426235E+02  0.51100000000E-03 0.  1.
         22    1    1    0    0    0  0.10033910721E+02  0.27083085828E+02  0.51422323701E+01  0.29336248159E+02  0.00000000000E+00 0.  1.
</event>
<event>
 5    1  0.1103865E-009  0.9118800E+02  0.7818608E-02  0.1130116E+00
         25   -1    0    0    0    0  0.00000000000E+00  0.00000000000E+00  0.99999998245E-14  0.12500000000E+03  0.12500000000E+03 0.  0.
        -11    1    3    3    0    0  0.40939684464E+02  0.30794834017E+02 -0.22979759077E+02  0.56146673042E+02  0.51100000000E-03 0. -1.
         23    2    1    0    0    0  0.16798444324E+02  0.20309826117E+02  0.86178195117E+01  0.97270168018E+02  0.93233802907E+02 0.  0.
         11    1    3    3    0    0 -0.24141240140E+02 -0.10485007900E+02  0.31597578588E+02  0.41123494976E+02  0.51100000000E-03 0.  1.
         22    1    1    0    0    0 -0.16798444324E+02 -0.20309826117E+02 -0.86178195117E+01  0.27729831982E+02  0.00000000000E+00 0. -1.
</event>
<event>
 5    1  0.1103865E-009  0.9118800E+02  0.7818608E-02  0.1130116E+00
         25   -1    0    0    0    0  0.00000000000E+00  0.00000000000E+00  0.99999998245E-14  0.12500000000E+03  0.12500000000E+03 0.  0.
        -11    1    3    3    0    0 -0.13777757971E+02  0.22028769159E+02  0.28171064240E+02  0.38323649957E+02  0.51100000000E-03 0.  1.
         23    2    1    0    0    0  0.17146819520E+02  0.63734431841E+01 -0.20146248478E+02  0.97787768827E+02  0.93925194739E+02 0.  0.
         11    1    3    3    0    0  0.30924577491E+02 -0.15655325975E+02 -0.48317312718E+02  0.59464118870E+02  0.51100000000E-03 0. -1.
         22    1    1    0    0    0 -0.17146819520E+02 -0.63734431841E+01  0.20146248478E+02  0.27212231173E+02  0.00000000000E+00 0. -1.
</event>
<event>
 5    1  0.1103865E-009  0.9118800E+02  0.7818608E-02  0.1130116E+00
         25   -1    0    0    0    0  0.00000000000E+00  0.00000000000E+00  0.99999998245E-14  0.12500000000E+03  0.12500000000E+03 0.  0.
        -11    1    3    3    0    0 -0.11637337809E+02 -0.17590869735E+02 -0.54470801737E+02  0.58411767406E+02  0.51100000000E-03 0. -1.
         23    2    1    0    0    0 -0.13242548696E+01  0.69610219204E+01 -0.28585340529E+02  0.95549513242E+02  0.90897625439E+02 0.  0.
         11    1    3    3    0    0  0.10313082940E+02  0.24551891656E+02  0.25885461208E+02  0.37137745836E+02  0.51100000000E-03 0.  1.
         22    1    1    0    0    0  0.13242548696E+01 -0.69610219204E+01  0.28585340529E+02  0.29450486758E+02  0.00000000000E+00 0. -1.
</event>
<event>
 5    1  0.1103865E-009  0.9118800E+02  0.7818608E-02  0.1130116E+00
         25   -1    0    0    0    0  0.00000000000E+00  0.00000000000E+00  0.99999998245E-14  0.12500000000E+03  0.12500000000E+03 0.  0.
        -11    1    3    3    0    0 -0.36540461174E+02  0.26653274188E+02 -0.96361956890E+01  0.46243470841E+02  0.51100000000E-03 0. -1.
         23    2    1    0    0    0 -0.31890050140E+01  0.11458716966E+02  0.25404515936E+02  0.96948950511E+02  0.92802142367E+02 0.  0.
         11    1    3    3    0    0  0.33351456160E+02 -0.15194557222E+02  0.35040711625E+02  0.50705479671E+02  0.51100000000E-03 0.  1.
         22    1    1    0    0    0  0.31890050140E+01 -0.11458716966E+02 -0.25404515936E+02  0.28051049489E+02  0.00000000000E+00 0.  1.
</event>
<event>
 5    1  0.1103865E-009  0.9118800E+02  0.7818608E-02  0.1130116E+00
         25   -1    0    0    0    0  0.00000000000E+00  0.00000000000E+00  0.99999998245E-14  0.12500000000E+03  0.12500000000E+03 0.  0.
        -11    1    3    3    0    0 -0.58273958256E+01  0.15349160611E+02 -0.31121969729E+02  0.35187103797E+02  0.51100000000E-03 0.  1.
         23    2    1    0    0    0 -0.15068015817E+02 -0.19010356385E+02  0.17249062560E+02  0.95234770121E+02  0.90463763631E+02 0.  0.
         11    1    3    3    0    0 -0.92406199919E+01 -0.34359516996E+02  0.48371032288E+02  0.60047666324E+02  0.51100000000E-03 0. -1.
         22    1    1    0    0    0  0.15068015817E+02  0.19010356385E+02 -0.17249062560E+02  0.29765229879E+02  0.00000000000E+00 0. -1.
</event>
<event>
 5    1  0.1103865E-009  0.9118800E+02  0.7818608E-02  0.1130116E+00
         25   -1    0    0    0    0  0.00000000000E+00  0.00000000000E+00  0.99999998245E-14  0.12500000000E+03  0.12500000000E+03 0.  0.
        -11    1    3    3    0    0  0.46516880084E+02  0.71504426590E+01 -0.17023270590E+02  0.50047384595E+02  0.51100000000E-03 0.  1.
         23    2    1    0    0    0  0.11970448583E+02 -0.16281176182E+02 -0.25317264256E+02  0.92606602424E+02  0.86756271278E+02 0.  0.
         11    1    3    3    0    0 -0.34546431502E+02 -0.23431618841E+02 -0.82939936655E+01  0.42559217829E+02  0.51100000000E-03 0. -1.
         22    1    1    0    0    0 -0.11970448583E+02  0.16281176182E+02  0.25317264256E+02  0.32393397576E+02  0.00000000000E+00 0. -1.
</event>
<event>
 5    1  0.1103865E-009  0.9118800E+02  0.7818608E-02  0.1130116E+00
         25   -1    0    0    0    0  0.00000000000E+00  0.00000000000E+00  0.99999998245E-14  0.12500000000E+03  0.12500000000E+03 0.  0.
        -11    1    3    3    0    0  0.12763294554E+02  0.41744769959E+02  0.18441406880E+02  0.47387899244E+02  0.51100000000E-03 0.  1.
         23    2    1    0    0    0  0.16821945210E+02  0.81864709173E+01 -0.19345762391E+02  0.98088019968E+02  0.94323936475E+02 0.  0.
         11    1    3    3    0    0  0.40586506561E+01 -0.33558299041E+02 -0.37787169271E+02  0.50700120724E+02  0.51100000000E-03 0. -1.
         22    1    1    0    0    0 -0.16821945210E+02 -0.81864709173E+01  0.19345762391E+02  0.26911980032E+02  0.00000000000E+00 0. -1.
</event>
<event>
 5    1  0.1103865E-009  0.9118800E+02  0.7818608E-02  0.1130116E+00
         25   -1    0    0    0    0  0.00000000000E+00  0.00000000000E+00  0.99999998245E-14  0.12500000000E+03  0.12500000000E+03 0.  0.
        -11    1    3    3    0    0 -0.31887235618E+02  0.21945804852E+02 -0.46506940900E+02  0.60508757202E+02  0.51100000000E-03 0. -1.
         23    2    1    0    0    0 -0.86173856741E+01  0.19315104842E+02 -0.19809367675E+02  0.96021669154E+02  0.91544619113E+02 0.  0.
         11    1    3    3    0    0  0.23269849944E+02 -0.26307000101E+01  0.26697573225E+02  0.35512911952E+02  0.51100000000E-03 0.  1.
         22    1    1    0    0    0  0.86173856741E+01 -0.19315104842E+02  0.19809367675E+02  0.28978330846E+02  0.00000000000E+00 0. -1.
</event>
<event>
 5    1  0.1103865E-009  0.9118800E+02  0.7818608E-02  0.1130116E+00
         25   -1    0    0    0    0  0.00000000000E+00  0.00000000000E+00  0.99999998245E-14  0.12500000000E+03  0.12500000000E+03 0.  0.
        -11    1    3    3    0    0 -0.13303293181E+02  0.61794058372E+01  0.36380230408E+02  0.39226060607E+02  0.51100000000E-03 0.  1.
         23    2    1    0    0    0  0.11972623051E+02 -0.25149691213E+02 -0.47126513593E+01  0.96750048608E+02  0.92533843279E+02 0.  0.
         11    1    3    3    0    0  0.25275916232E+02 -0.31329097050E+02 -0.41092881767E+02  0.57523988001E+02  0.51100000000E-03 0. -1.
         22    1    1    0    0    0 -0.11972623051E+02  0.25149691213E+02  0.47126513593E+01  0.28249951392E+02  0.00000000000E+00 0. -1.
</event>
<event>
 5    1  0.1103865E-009  0.9118800E+02  0.7818608E-02  0.1130116E+00
         25   -1    0    0    0    0  0.00000000000E+00  0.00000000000E+00  0.99999998245E-14  0.12500000000E+03  0.12500000000E+03 0.  0.
        -11    1    3    3    0    0 -0.36675988623E+02 -0.50856327629E+00 -0.43689733093E+01  0.36938796761E+02  0.51100000000E-03 0. -1.
         23    2    1    0    0    0  0.17242966448E+02 -0.23305621875E+02 -0.55099141685E+01  0.95490153219E+02  0.90815958425E+02 0.  0.
         11    1    3    3    0    0  0.53918955072E+02 -0.22797058598E+02 -0.11409408593E+01  0.58551356458E+02  0.51100000000E-03 0.  1.
         22    1    1    0    0    0 -0.17242966448E+02  0.23305621875E+02  0.55099141685E+01  0.29509846781E+02  0.00000000000E+00 0.  1.
</event>
<event>
 5    1  0.1103865E-009  0.9118800E+02  0.7818608E-02  0.1130116E+00
         25   -1    0    0    0    0  0.00000000000E+00  0.00000000000E+00  0.99999998245E-14  0.12500000000E+03  0.12500000000E+03 0.  0.
        -11    1    3    3    0    0 -0.27136909187E+01 -0.31594284954E+02 -0.66437940707E+01  0.32399119743E+02  0.51100000000E-03 0.  1.
         23    2    1    0    0    0  0.16601210852E+02  0.25465134804E+02  0.61572959742E+01  0.93984107525E+02  0.88718807934E+02 0.  0.
         11    1    3    3    0    0  0.19314901771E+02  0.57059419758E+02  0.12801090045E+02  0.61584987782E+02  0.51100000000E-03 0. -1.
         22    1    1    0    0    0 -0.16601210852E+02 -0.25465134804E+02 -0.61572959742E+01  0.31015892475E+02  0.00000000000E+00 0. -1.
</event>
<event>
 5    1  0.1103865E-009  0.9118800E+02  0.7818608E-02  0.1130116E+00
         25   -1    0    0    0    0  0.00000000000E+00  0.00000000000E+00  0.99999998245E-14  0.12500000000E+03  0.12500000000E+03 0.  0.
        -11    1    3    3    0    0  0.39778738087E+01 -0.24426109086E+02  0.26838187524E+02  0.36506802037E+02  0.51100000000E-03 0.  1.
         23    2    1    0    0    0 -0.24365747673E+02  0.14016918769E+02 -0.81721653903E+01  0.95726326527E+02  0.91140450030E+02 0.  0.
         11    1    3    3    0    0 -0.28343621482E+02  0.38443027855E+02 -0.35010352914E+02  0.59219524490E+02  0.51100000000E-03 0. -1.
         22    1    1    0    0    0  0.24365747673E+02 -0.14016918769E+02  0.81721653903E+01  0.29273673473E+02  0.00000000000E+00 0. -1.
</event>
<event>
 5    1  0.1103865E-009  0.9118800E+02  0.7818608E-02  0.1130116E+00
         25   -1    0    0    0    0  0.00000000000E+00  0.00000000000E+00  0.99999998245E-14  0.12500000000E+03  0.12500000000E+03 0.  0.
        -11    1    3    3    0    0 -0.72365634834E+01 -0.11123395297E+02 -0.56190366136E+02  0.57736080753E+02  0.51100000000E-03 0.  1.
         23    2    1    0    0    0  0.54511932043E+01 -0.19170344281E+02 -0.20753921518E+02  0.96226003656E+02  0.91823204660E+02 0.  0.
         11    1    3    3    0    0  0.12687756688E+02 -0.80469489846E+01  0.35436444617E+02  0.38489922903E+02  0.51100000000E-03 0. -1.
         22    1    1    0    0    0 -0.54511932043E+01  0.19170344281E+02  0.20753921518E+02  0.28773996344E+02  0.00000000000E+00 0.  1.
</event>
<event>
 5    1  0.1103865E-009  0.9118800E+02  0.7818608E-02  0.1130116E+00
         25   -1    0    0    0    0  0.00000000000E+00  0.00000000000E+00  0.99999998245E-14  0.12500000000E+03  0.12500000000E+03 0.  0.
        -11    1    3    3    0    0  0.13122748775E+02 -0.11233429949E+02 -0.35311350534E+02  0.39310150860E+02  0.51100000000E-03 0. -1.
         23    2    1    0    0    0 -0.20017035606E+02 -0.18820127087E+02  0.98280497737E+01  0.95820050370E+02  0.91268902659E+02 0.  0.
         11    1    3    3    0    0 -0.33139784382E+02 -0.75866971381E+01  0.45139400307E+02  0.56509899511E+02  0.51100000000E-03 0.  1.
         22    1    1    0    0    0  0.20017035606E+02  0.18820127087E+02 -0.98280497737E+01  0.29179949630E+02  0.00000000000E+00 0.  1.
</event>
<event>
 5    1  0.1103865E-009  0.9118800E+02  0.7818608E-02  0.1130116E+00
         25   -1    0    0    0    0  0.00000000000E+00  0.00000000000E+00  0.99999998245E-14  0.12500000000E+03  0.12500000000E+03 0.  0.
        -11    1    3    3    0    0  0.15281767734E+02 -0.47553097362E+02 -0.16938425134E+02  0.52742200751E+02  0.51100000000E-03 0. -1.
         23    2    1    0    0    0 -0.16688132658E+02 -0.18454401521E+02 -0.14854599393E+02  0.96022114808E+02  0.91545227631E+02 0.  0.
         11    1    3    3    0    0 -0.31969900392E+02  0.29098695842E+02  0.20838257418E+01  0.43279914057E+02  0.51100000000E-03 0.  1.
         22    1    1    0    0    0  0.16688132658E+02  0.18454401521E+02  0.14854599393E+02  0.28977885192E+02  0.00000000000E+00 0. -1.
</event>
<event>
 5    1  0.1103865E-009  0.9118800E+02  0.7818608E-02  0.1130116E+00
         25   -1    0    0    0    0  0.00000000000E+00  0.00000000000E+00  0.99999998245E-14  0.12500000000E+03  0.12500000000E+03 0.  0.
        -11    1    3    3    0    0 -0.34693072132E+02 -0.84923601972E+01 -0.21304693027E+02  0.41588692946E+02  0.51100000000E-03 0.  1.
         23    2    1    0    0    0 -0.10421568063E+02 -0.10072396896E+02  0.26256760053E+02  0.95008672777E+02  0.90150808062E+02 0.  0.
         11    1    3    3    0    0  0.24271504069E+02 -0.15800366984E+01  0.47561453080E+02  0.53419979831E+02  0.51100000000E-03 0. -1.
         22    1    1    0    0    0  0.10421568063E+02  0.10072396896E+02 -0.26256760053E+02  0.29991327223E+02  0.00000000000E+00 0.  1.
</event>
<event>
 5    1  0.1103865E-009  0.9118800E+02  0.7818608E-02  0.1130116E+00
         25   -1    0    0    0    0  0.00000000000E+00  0.00000000000E+00  0.99999998245E-14  0.12500000000E+03  0.12500000000E+03 0.  0.
        -11    1    3    3    0    0  0.36266243184E+02  0.26223788774E+02  0.22213817845E+02  0.49963798853E+02  0.51100000000E-03 0.  1.
         23    2    1    0    0    0  0.23974965897E+02 -0.14844833889E+01 -0.14005981756E+02  0.97194061684E+02  0.93131710072E+02 0.  0.
         11    1    3    3    0    0 -0.12291277287E+02 -0.27708272163E+02 -0.36219799602E+02  0.47230262830E+02  0.51100000000E-03 0. -1.
         22    1    1    0    0    0 -0.23974965897E+02  0.14844833889E+01  0.14005981756E+02  0.27805938316E+02  0.00000000000E+00 0. -1.
</event>
<event>
 5    1  0.1103865E-009  0.9118800E+02  0.7818608E-02  0.1130116E+00
         25   -1    0    0    0    0  0.00000000000E+00  0.00000000000E+00  0.99999998245E-14  0.12500000000E+03  0.12500000000E+03 0.  0.
        -11    1    3    3    0    0 -0.12915477965E+02  0.29831208129E+02 -0.32270119293E+02  0.45804706624E+02  0.51100000000E-03 0.  1.
         23    2    1    0    0    0  0.60726861865E+01  0.23326189635E+02  0.14619236435E+02  0.96809386059E+02  0.92613965010E+02 0.  0.
         11    1    3    3    0    0  0.18988164152E+02 -0.65050184936E+01  0.46889355728E+02  0.51004679435E+02  0.51100000000E-03 0. -1.
         22    1    1    0    0    0 -0.60726861865E+01 -0.23326189635E+02 -0.14619236435E+02  0.28190613941E+02  0.00000000000E+00 0.  1.
</event>
<event>
 5    1  0.1103865E-009  0.9118800E+02  0.7818608E-02  0.1130116E+00
         25   -1    0    0    0    0  0.00000000000E+00  0.00000000000E+00  0.99999998245E-14  0.12500000000E+03  0.12500000000E+03 0.  0.
        -11    1    3    3    0    0  0.25607745686E+01  0.33124044877E+02  0.22953610700E+02  0.40381037132E+02  0.51100000000E-03 0. -1.
         23    2    1    0    0    0  0.88977041753E+01  0.35747634895E+01 -0.25651175066E+02  0.97615134547E+02  0.93695163359E+02 0.  0.
         11    1    3    3    0    0  0.63369296067E+01 -0.29549281387E+02 -0.48604785766E+02  0.57234097416E+02  0.51100000000E-03 0.  1.
         22    1    1    0    0    0 -0.88977041753E+01 -0.35747634895E+01  0.25651175066E+02  0.27384865453E+02  0.00000000000E+00 0.  1.
</event>
<event>
 5    1  0.1103865E-009  0.9118800E+02  0.7818608E-02  0.1130116E+00
         25   -1    0    0    0    0  0.00000000000E+00  0.00000000000E+00  0.99999998245E-14  0.12500000000E+03  0.12500000000E+03 0.  0.
        -11    1    3    3    0    0 -0.24335113434E+02 -0.77241624847E+01  0.29096656517E+02  0.38710151804E+02  0.51100000000E-03 0.  1.
         23    2    1    0    0    0 -0.10229981839E+02 -0.86782832581E+01 -0.26081529561E+02  0.95670640768E+02  0.91064044452E+02 0.  0.
         11    1    3    3    0    0  0.14105131595E+02 -0.95412077335E+00 -0.55178186078E+02  0.56960488963E+02  0.51100000000E-03 0. -1.
         22    1    1    0    0    0  0.10229981839E+02  0.86782832581E+01  0.26081529561E+02  0.29329359232E+02  0.00000000000E+00 0. -1.
</event>
<event>
 5    1  0.1103865E-009  0.9118800E+02  0.7818608E-02  0.1130116E+00
         25   -1    0    0    0    0  0.00000000000E+00  0.00000000000E+00  0.99999998245E-14  0.12500000000E+03  0.12500000000E+03 0.  0.
        -11    1    3    3    0    0  0.35482011789E+02  0.12548971895E+01  0.18075392799E+02  0.39840529020E+02  0.51100000000E-03 0.  1.
         23    2    1    0    0    0 -0.70224200478E+01 -0.27847811119E+02 -0.42210814619E+01  0.95971867160E+02  0.91476591487E+02 0.  0.
         11    1    3    3    0    0 -0.42504431836E+02 -0.29102708309E+02 -0.22296474261E+02  0.56131338140E+02  0.51100000000E-03 0. -1.
         22    1    1    0    0    0  0.70224200478E+01  0.27847811119E+02  0.42210814619E+01  0.29028132840E+02  0.00000000000E+00 0. -1.
</event>
<event>
 5    1  0.1103865E-009  0.9118800E+02  0.7818608E-02  0.1130116E+00
         25   -1    0    0    0    0  0.00000000000E+00  0.00000000000E+00  0.99999998245E-14  0.12500000000E+03  0.12500000000E+03 0.  0.
        -11    1    3    3    0    0  0.45995844792E+02  0.25210278699E+02 -0.31758676507E+02  0.61317121785E+02  0.51100000000E-03 0. -1.
         23    2    1    0    0    0  0.18114787237E+02  0.87334655231E+01 -0.22115939830E+02  0.95107965422E+02  0.90288378850E+02 0.  0.
         11    1    3    3    0    0 -0.27881057555E+02 -0.16476813176E+02  0.96427366775E+01  0.33790843637E+02  0.51100000000E-03 0.  1.
         22    1    1    0    0    0 -0.18114787237E+02 -0.87334655231E+01  0.22115939830E+02  0.29892034578E+02  0.00000000000E+00 0. -1.
</event>
<event>
 5    1  0.1103865E-009  0.9118800E+02  0.7818608E-02  0.1130116E+00
         25   -1    0    0    0    0  0.00000000000E+00  0.00000000000E+00  0.99999998245E-14  0.12500000000E+03  0.12500000000E+03 0.  0.
        -11    1    3    3    0    0  0.30860250987E+01 -0.33404760317E+02  0.46065033234E+02  0.56985865351E+02  0.51100000000E-03 0. -1.
         23    2    1    0    0    0  0.12874881159E+02 -0.25448812411E+00  0.23311915000E+02  0.98367825660E+02  0.94694014674E+02 0.  0.
         11    1    3    3    0    0  0.97888560606E+01  0.33150272193E+02 -0.22753118233E+02  0.41381960309E+02  0.51100000000E-03 0.  1.
         22    1    1    0    0    0 -0.12874881159E+02  0.25448812411E+00 -0.23311915000E+02  0.26632174340E+02  0.00000000000E+00 0. -1.
</event>
<event>
 5    1  0.1103865E-009  0.9118800E+02  0.7818608E-02  0.1130116E+00
         25   -1    0    0    0    0  0.00000000000E+00  0.00000000000E+00  0.99999998245E-14  0.12500000000E+03  0.12500000000E+03 0.  0.
        -11    1    3    3    0    0 -0.24068361412E+02  0.11646715868E+02 -0.15077990024E+02  0.30696543698E+02  0.51100000000E-03 0.  1.
         23    2    1    0    0    0  0.21102234823E+02 -0.14606678208E+02  0.18994749783E+02  0.93071018148E+02  0.87422849056E+02 0.  0.
         11    1    3    3    0    0  0.45170596235E+02 -0.26253394075E+02  0.34072739807E+02  0.62374474450E+02  0.51100000000E-03 0. -1.
         22    1    1    0    0    0 -0.21102234823E+02  0.14606678208E+02 -0.18994749783E+02  0.31928981852E+02  0.00000000000E+00 0. -1.
</event>
<event>
 5    1  0.1103865E-009  0.9118800E+02  0.7818608E-02  0.1130116E+00
         25   -1    0    0    0    0  0.00000000000E+00  0.00000000000E+00  0.99999998245E-14  0.12500000000E+03  0.12500000000E+03 0.  0.
        -11    1    3    3    0    0 -0.17700360114E+02  0.50285033152E+02 -0.78047119098E+01  0.53877646900E+02  0.51100000000E-03 0.  1.
         23    2    1    0    0    0  0.15450823211E+02  0.19900168729E+02 -0.69892135584E+01  0.98854373989E+02  0.95334115076E+02 0.  0.
         11    1    3    3    0    0  0.33151183325E+02 -0.30384864422E+02  0.81549835143E+00  0.44976727089E+02  0.51100000000E-03 0. -1.
         22    1    1    0    0    0 -0.15450823211E+02 -0.19900168729E+02  0.69892135584E+01  0.26145626011E+02  0.00000000000E+00 0.  1.
</event>
<event>
 5    1  0.1103865E-009  0.9118800E+02  0.7818608E-02  0.1130116E+00
         25   -1    0    0    0    0  0.00000000000E+00  0.00000000000E+00  0.99999998245E-14  0.12500000000E+03  0.12500000000E+03 0.  0.
        -11    1    3    3    0    0  0.17511522503E+02  0.24093289890E+00  0.58233390003E+02  0.60809860883E+02  0.51100000000E-03 0.  1.
         23    2    1    0    0    0 -0.13633980436E+01  0.19454277317E+01  0.30543444283E+02  0.94364309507E+02  0.89252884418E+02 0.  0.
         11    1    3    3    0    0 -0.18874920547E+02  0.17044948328E+01 -0.27689945720E+02  0.33554448625E+02  0.51100000000E-03 0. -1.
         22    1    1    0    0    0  0.13633980436E+01 -0.19454277317E+01 -0.30543444283E+02  0.30635690493E+02  0.00000000000E+00 0.  1.
</event>
<event>
 5    1  0.1103865E-009  0.9118800E+02  0.7818608E-02  0.1130116E+00
         25   -1    0    0    0    0  0.00000000000E+00  0.00000000000E+00  0.99999998245E-14  0.12500000000E+03  0.12500000000E+03 0.  0.
        -11    1    3    3    0    0 -0.19057603439E+01  0.19189567800E+02 -0.27604561709E+02  0.33673183132E+02  0.51100000000E-03 0.  1.
         23    2    1    0    0    0  0.16179411733E+02 -0.53833693400E+01  0.25149524226E+02  0.94614928036E+02  0.89603191957E+02 0.  0.
         11    1    3    3    0    0  0.18085172077E+02 -0.24572937141E+02  0.52754085935E+02  0.60941744903E+02  0.51100000000E-03 0. -1.
         22    1    1    0    0    0 -0.16179411733E+02  0.53833693400E+01 -0.25149524226E+02  0.30385071964E+02  0.00000000000E+00 0. -1.
</event>
<event>
 5    1  0.1103865E-009  0.9118800E+02  0.7818608E-02  0.1130116E+00
         25   -1    0    0    0    0  0.00000000000E+00  0.00000000000E+00  0.99999998245E-14  0.12500000000E+03  0.12500000000E+03 0.  0.
        -11    1    3    3    0    0  0.49157962577E+02  0.25228687673E+02  0.12188419601E+02  0.56582236957E+02  0.51100000000E-03 0.  1.
         23    2    1    0    0    0  0.23849254376E+02 -0.77778589403E+01  0.91941354944E+01  0.98282699397E+02  0.94581577748E+02 0.  0.
         11    1    3    3    0    0 -0.25308708201E+02 -0.33006546613E+02 -0.29942841070E+01  0.41700462440E+02  0.51100000000E-03 0. -1.
         22    1    1    0    0    0 -0.23849254376E+02  0.77778589403E+01 -0.91941354944E+01  0.26717300603E+02  0.00000000000E+00 0.  1.
</event>
<event>
 5    1  0.1103865E-009  0.9118800E+02  0.7818608E-02  0.1130116E+00
         25   -1    0    0    0    0  0.00000000000E+00  0.00000000000E+00  0.99999998245E-14  0.12500000000E+03  0.12500000000E+03 0.  0.
        -11    1    3    3    0    0 -0.34207748163E+02  0.13493646251E+02  0.43834102005E+02  0.57216055634E+02  0.51100000000E-03 0.  1.
         23    2    1    0    0    0 -0.17380119867E+01  0.79782653022E+00  0.30339688127E+02  0.94600100519E+02  0.89582504596E+02 0.  0.
         11    1    3    3    0    0  0.32469736176E+02 -0.12695819721E+02 -0.13494413878E+02  0.37384044884E+02  0.51100000000E-03 0. -1.
         22    1    1    0    0    0  0.17380119867E+01 -0.79782653022E+00 -0.30339688127E+02  0.30399899481E+02  0.00000000000E+00 0.  1.
</event>
<event>
 5    1  0.1103865E-009  0.9118800E+02  0.7818608E-02  0.1130116E+00
         25   -1    0    0    0    0  0.00000000000E+00  0.00000000000E+00  0.99999998245E-14  0.12500000000E+03  0.12500000000E+03 0.  0.
        -11    1    3    3    0    0  0.49495365321E+02  0.29945333541E+02 -0.34529986917E+01  0.57952026620E+02  0.51100000000E-03 0.  1.
         23    2    1    0    0    0  0.14923741117E+02  0.25770104672E+02  0.71897528598E+01  0.94364907541E+02  0.89253721969E+02 0.  0.
         11    1    3    3    0    0 -0.34571624203E+02 -0.41752288687E+01  0.10642751551E+02  0.36412880922E+02  0.51100000000E-03 0. -1.
         22    1    1    0    0    0 -0.14923741117E+02 -0.25770104672E+02 -0.71897528598E+01  0.30635092459E+02  0.00000000000E+00 0.  1.
</event>
<event>
 5    1  0.1103865E-009  0.9118800E+02  0.7818608E-02  0.1130116E+00
         25   -1    0    0    0    0  0.00000000000E+00  0.00000000000E+00  0.99999998245E-14  0.12500000000E+03  0.12500000000E+03 0.  0.
        -11    1    3    3    0    0  0.32533237290E+02 -0.22492728449E+02 -0.27364910696E+02  0.48095454040E+02  0.51100000000E-03 0.  1.
         23    2    1    0    0    0 -0.73983208721E+01 -0.30065520713E+00 -0.30237065718E+02  0.93869537611E+02  0.88557238003E+02 0.  0.
         11    1    3    3    0    0 -0.39931558163E+02  0.22192073242E+02 -0.28721550227E+01  0.45774083571E+02  0.51100000000E-03 0. -1.
         22    1    1    0    0    0  0.73983208721E+01  0.30065520713E+00  0.30237065718E+02  0.31130462389E+02  0.00000000000E+00 0.  1.
</event>
<event>
 5    1  0.1103865E-009  0.9118800E+02  0.7818608E-02  0.1130116E+00
         25   -1    0    0    0    0  0.00000000000E+00  0.00000000000E+00  0.99999998245E-14  0.12500000000E+03  0.12500000000E+03 0.  0.
        -11    1    3    3    0    0 -0.17279711570E+02  0.36058017689E+02 -0.14392707183E+02  0.42496106785E+02  0.51100000000E-03 0. -1.
         23    2    1    0    0    0  0.27114073259E+02  0.84828165500E+01 -0.97527732270E+01  0.94962561179E+02  0.90086848622E+02 0.  0.
         11    1    3    3    0    0  0.44393784829E+02 -0.27575201139E+02  0.46399339560E+01  0.52466454394E+02  0.51100000000E-03 0.  1.
         22    1    1    0    0    0 -0.27114073259E+02 -0.84828165500E+01  0.97527732270E+01  0.30037438821E+02  0.00000000000E+00 0.  1.
</event>
<event>
 5    1  0.1103865E-009  0.9118800E+02  0.7818608E-02  0.1130116E+00
         25   -1    0    0    0    0  0.00000000000E+00  0.00000000000E+00  0.99999998245E-14  0.12500000000E+03  0.12500000000E+03 0.  0.
        -11    1    3    3    0    0  0.28983822822E+02 -0.21398792976E+02  0.12825808059E+02  0.38242276067E+02  0.51100000000E-03 0. -1.
         23    2    1    0    0    0  0.40509893387E+01  0.70711299013E+01 -0.29134286998E+02  0.94747428678E+02  0.89787845333E+02 0.  0.
         11    1    3    3    0    0 -0.24932833483E+02  0.28469922877E+02 -0.41960095057E+02  0.56505152611E+02  0.51100000000E-03 0.  1.
         22    1    1    0    0    0 -0.40509893387E+01 -0.70711299013E+01  0.29134286998E+02  0.30252571322E+02  0.00000000000E+00 0.  1.
</event>
<event>
 5    1  0.1103865E-009  0.9118800E+02  0.7818608E-02  0.1130116E+00
         25   -1    0    0    0    0  0.00000000000E+00  0.00000000000E+00  0.99999998245E-14  0.12500000000E+03  0.12500000000E+03 0.  0.
        -11    1    3    3    0    0 -0.64694605569E+01 -0.38610574884E+02  0.36057880981E+02  0.53224065928E+02  0.51100000000E-03 0.  1.
         23    2    1    0    0    0  0.20876903082E+02 -0.14866725135E+02  0.12016035093E+02  0.96693645627E+02  0.92457619517E+02 0.  0.
         11    1    3    3    0    0  0.27346363639E+02  0.23743849750E+02 -0.24041845888E+02  0.43469579699E+02  0.51100000000E-03 0. -1.
         22    1    1    0    0    0 -0.20876903082E+02  0.14866725135E+02 -0.12016035093E+02  0.28306354373E+02  0.00000000000E+00 0.  1.
</event>
<event>
 5    1  0.1103865E-009  0.9118800E+02  0.7818608E-02  0.1130116E+00
         25   -1    0    0    0    0  0.00000000000E+00  0.00000000000E+00  0.99999998245E-14  0.12500000000E+03  0.12500000000E+03 0.  0.
        -11    1    3    3    0    0  0.25962675427E+02 -0.36696566083E+02 -0.25597387436E+02  0.51729341011E+02  0.51100000000E-03 0.  1.
         23    2    1    0    0    0  0.17570214627E+02  0.63362370854E+01 -0.22607828836E+02  0.95674682148E+02  0.91069591725E+02 0.  0.
         11    1    3    3    0    0 -0.83924608003E+01  0.43032803168E+02  0.29895585998E+01  0.43945341137E+02  0.51100000000E-03 0. -1.
         22    1    1    0    0    0 -0.17570214627E+02 -0.63362370854E+01  0.22607828836E+02  0.29325317852E+02  0.00000000000E+00 0. -1.
</event>
<event>
 5    1  0.1103865E-009  0.9118800E+02  0.7818608E-02  0.1130116E+00
         25   -1    0    0    0    0  0.00000000000E+00  0.00000000000E+00  0.99999998245E-14  0.12500000000E+03  0.12500000000E+03 0.  0.
        -11    1    3    3    0    0 -0.16211157240E+02  0.28300270533E+02  0.26922737700E+02  0.42291142534E+02  0.51100000000E-03 0. -1.
         23    2    1    0    0    0  0.53344897395E+00  0.17109218793E+02 -0.23119032744E+02  0.96233707042E+02  0.91833690771E+02 0.  0.
         11    1    3    3    0    0  0.16744606214E+02 -0.11191051740E+02 -0.50041770444E+02  0.53942564508E+02  0.51100000000E-03 0.  1.
         22    1    1    0    0    0 -0.53344897395E+00 -0.17109218793E+02  0.23119032744E+02  0.28766292958E+02  0.00000000000E+00 0.  1.
</event>
<event>
 5    1  0.1103865E-009  0.9118800E+02  0.7818608E-02  0.1130116E+00
         25   -1    0    0    0    0  0.00000000000E+00  0.00000000000E+00  0.99999998245E-14  0.12500000000E+03  0.12500000000E+03 0.  0.
        -11    1    3    3    0    0  0.18866110327E+02 -0.76058615946E+01 -0.50906162445E+02  0.54819856116E+02  0.51100000000E-03 0. -1.
         23    2    1    0    0    0  0.23997725218E+02  0.92879873372E+01 -0.14062114869E+02  0.95675938224E+02  0.91071315770E+02 0.  0.
         11    1    3    3    0    0  0.51316148919E+01  0.16893848932E+02  0.36844047576E+02  0.40856082108E+02  0.51100000000E-03 0.  1.
         22    1    1    0    0    0 -0.23997725218E+02 -0.92879873372E+01  0.14062114869E+02  0.29324061776E+02  0.00000000000E+00 0. -1.
</event>
<event>
 5    1  0.1103865E-009  0.9118800E+02  0.7818608E-02  0.1130116E+00
         25   -1    0    0    0    0  0.00000000000E+00  0.00000000000E+00  0.99999998245E-14  0.12500000000E+03  0.12500000000E+03 0.  0.
        -11    1    3    3    0    0  0.31479352001E+02 -0.13712714100E+02  0.17295661901E+02  0.38446430930E+02  0.51100000000E-03 0.  1.
         23    2    1    0    0    0 -0.14472144715E+02 -0.15310937201E+02 -0.18692245053E+02  0.96834989868E+02  0.92648515730E+02 0.  0.
         11    1    3    3    0    0 -0.45951496717E+02 -0.15982231008E+01 -0.35987906954E+02  0.58388558937E+02  0.51100000000E-03 0. -1.
         22    1    1    0    0    0  0.14472144715E+02  0.15310937201E+02  0.18692245053E+02  0.28165010132E+02  0.00000000000E+00 0. -1.
</event>
<event>
 5    1  0.1103865E-009  0.9118800E+02  0.7818608E-02  0.1130116E+00
         25   -1    0    0    0    0  0.00000000000E+00  0.00000000000E+00  0.99999998245E-14  0.12500000000E+03  0.12500000000E+03 0.  0.
        -11    1    3    3    0    0  0.91740844579E+01 -0.15464815416E+02 -0.13967379616E+02  0.22768663445E+02  0.51100000000E-03 0.  1.
         23    2    1    0    0    0 -0.40319909583E+02  0.10750023418E+02 -0.19289758294E+02  0.79028781968E+02  0.64282155316E+02 0.  0.
         11    1    3    3    0    0 -0.49493994041E+02  0.26214838833E+02 -0.53223786782E+01  0.56260118523E+02  0.51100000000E-03 0. -1.
         22    1    1    0    0    0  0.40319909583E+02 -0.10750023418E+02  0.19289758294E+02  0.45971218032E+02  0.00000000000E+00 0.  1.
</event>
<event>
 5    1  0.1103865E-009  0.9118800E+02  0.7818608E-02  0.1130116E+00
         25   -1    0    0    0    0  0.00000000000E+00  0.00000000000E+00  0.99999998245E-14  0.12500000000E+03  0.12500000000E+03 0.  0.
        -11    1    3    3    0    0  0.82007299614E+01  0.33275275278E+02  0.84881832812E+01  0.35306446612E+02  0.51100000000E-03 0.  1.
         23    2    1    0    0    0  0.86182438935E+01 -0.23030107408E+02 -0.14867335683E+02  0.96265044887E+02  0.91876336571E+02 0.  0.
         11    1    3    3    0    0  0.41751393212E+00 -0.56305382686E+02 -0.23355518964E+02  0.60958598275E+02  0.51100000000E-03 0. -1.
         22    1    1    0    0    0 -0.86182438935E+01  0.23030107408E+02  0.14867335683E+02  0.28734955113E+02  0.00000000000E+00 0. -1.
</event>
<event>
 5    1  0.1103865E-009  0.9118800E+02  0.7818608E-02  0.1130116E+00
         25   -1    0    0    0    0  0.00000000000E+00  0.00000000000E+00  0.99999998245E-14  0.12500000000E+03  0.12500000000E+03 0.  0.
        -11    1    3    3    0    0  0.15807712242E+02 -0.23902036618E+02  0.19250875323E+02  0.34522272836E+02  0.51100000000E-03 0.  1.
         23    2    1    0    0    0 -0.14442257433E+02  0.32193982818E+01 -0.25844095154E+02  0.95219795511E+02  0.90443069816E+02 0.  0.
         11    1    3    3    0    0 -0.30249969675E+02  0.27121434899E+02 -0.45094970477E+02  0.60697522675E+02  0.51100000000E-03 0. -1.
         22    1    1    0    0    0  0.14442257433E+02 -0.32193982818E+01  0.25844095154E+02  0.29780204489E+02  0.00000000000E+00 0. -1.
</event>
<event>
 5    1  0.1103865E-009  0.9118800E+02  0.7818608E-02  0.1130116E+00
         25   -1    0    0    0    0  0.00000000000E+00  0.00000000000E+00  0.99999998245E-14  0.12500000000E+03  0.12500000000E+03 0.  0.
        -11    1    3    3    0    0 -0.30441685155E+02 -0.48782439307E+02  0.20764396765E+02  0.61135773105E+02  0.51100000000E-03 0. -1.
         23    2    1    0    0    0 -0.25126633674E+02 -0.27525960498E+02  0.68089847059E+01  0.87113478731E+02  0.78443417078E+02 0.  0.
         11    1    3    3    0    0  0.53150514814E+01  0.21256478809E+02 -0.13955412060E+02  0.25977705627E+02  0.51100000000E-03 0.  1.
         22    1    1    0    0    0  0.25126633674E+02  0.27525960498E+02 -0.68089847059E+01  0.37886521269E+02  0.00000000000E+00 0. -1.
</event>
<event>
 5    1  0.1103865E-009  0.9118800E+02  0.7818608E-02  0.1130116E+00
         25   -1    0    0    0    0  0.00000000000E+00  0.00000000000E+00  0.99999998245E-14  0.12500000000E+03  0.12500000000E+03 0.  0.
        -11    1    3    3    0    0 -0.17268617501E+02 -0.42612412056E+02 -0.40197708284E+02  0.61072731748E+02  0.51100000000E-03 0. -1.
         23    2    1    0    0    0  0.10481567231E+01 -0.21805364316E+02 -0.20239618559E+02  0.95230641511E+02  0.90458058666E+02 0.  0.
         11    1    3    3    0    0  0.18316774224E+02  0.20807047740E+02  0.19958089725E+02  0.34157909763E+02  0.51100000000E-03 0.  1.
         22    1    1    0    0    0 -0.10481567231E+01  0.21805364316E+02  0.20239618559E+02  0.29769358489E+02  0.00000000000E+00 0. -1.
</event>
<event>
 5    1  0.1103865E-009  0.9118800E+02  0.7818608E-02  0.1130116E+00
         25   -1    0    0    0    0  0.00000000000E+00  0.00000000000E+00  0.99999998245E-14  0.12500000000E+03  0.12500000000E+03 0.  0.
        -11    1    3    3    0    0  0.17834389949E+02  0.68499779370E+01 -0.28515695737E+02  0.34323935762E+02  0.51100000000E-03 0. -1.
         23    2    1    0    0    0 -0.48556537894E+01 -0.19495154641E+02  0.21716485149E+02  0.95415474392E+02  0.90713111500E+02 0.  0.
         11    1    3    3    0    0 -0.22690043738E+02 -0.26345132578E+02  0.50232180886E+02  0.61091538630E+02  0.51100000000E-03 0.  1.
         22    1    1    0    0    0  0.48556537894E+01  0.19495154641E+02 -0.21716485149E+02  0.29584525608E+02  0.00000000000E+00 0.  1.
</event>
<event>
 5    1  0.1103865E-009  0.9118800E+02  0.7818608E-02  0.1130116E+00
         25   -1    0    0    0    0  0.00000000000E+00  0.00000000000E+00  0.99999998245E-14  0.12500000000E+03  0.12500000000E+03 0.  0.
        -11    1    3    3    0    0  0.85252556952E+00  0.34892702021E+02 -0.21583206976E+01  0.34969784138E+02  0.51100000000E-03 0.  1.
         23    2    1    0    0    0  0.11589745078E+02 -0.25737572960E+02  0.21332087322E+01  0.96692837791E+02  0.92456527339E+02 0.  0.
         11    1    3    3    0    0  0.10737219508E+02 -0.60630274981E+02  0.42915294297E+01  0.61723053652E+02  0.51100000000E-03 0. -1.
         22    1    1    0    0    0 -0.11589745078E+02  0.25737572960E+02 -0.21332087322E+01  0.28307162209E+02  0.00000000000E+00 0. -1.
</event>
<event>
 5    1  0.1103865E-009  0.9118800E+02  0.7818608E-02  0.1130116E+00
         25   -1    0    0    0    0  0.00000000000E+00  0.00000000000E+00  0.99999998245E-14  0.12500000000E+03  0.12500000000E+03 0.  0.
        -11    1    3    3    0    0 -0.25796679174E+02 -0.52150748793E+01 -0.56488836108E+02  0.62318971971E+02  0.51100000000E-03 0.  1.
         23    2    1    0    0    0 -0.14153313037E+02  0.45300732916E+00 -0.27519382547E+02  0.94051043615E+02  0.88813067190E+02 0.  0.
         11    1    3    3    0    0  0.11643366137E+02  0.56680822085E+01  0.28969453561E+02  0.31732071644E+02  0.51100000000E-03 0. -1.
         22    1    1    0    0    0  0.14153313037E+02 -0.45300732916E+00  0.27519382547E+02  0.30948956385E+02  0.00000000000E+00 0.  1.
</event>
<event>
 5    1  0.1103865E-009  0.9118800E+02  0.7818608E-02  0.1130116E+00
         25   -1    0    0    0    0  0.00000000000E+00  0.00000000000E+00  0.99999998245E-14  0.12500000000E+03  0.12500000000E+03 0.  0.
        -11    1    3    3    0    0 -0.44398062749E+02 -0.11873140426E+02 -0.26450368741E+02  0.53026233567E+02  0.51100000000E-03 0. -1.
         23    2    1    0    0    0 -0.26361852666E+01 -0.21898759587E+02 -0.17371534078E+02  0.96923758435E+02  0.92768203651E+02 0.  0.
         11    1    3    3    0    0  0.41761877483E+02 -0.10025619161E+02  0.90788346632E+01  0.43897524868E+02  0.51100000000E-03 0.  1.
         22    1    1    0    0    0  0.26361852666E+01  0.21898759587E+02  0.17371534078E+02  0.28076241565E+02  0.00000000000E+00 0. -1.
</event>
<event>
 5    1  0.1103865E-009  0.9118800E+02  0.7818608E-02  0.1130116E+00
         25   -1    0    0    0    0  0.00000000000E+00  0.00000000000E+00  0.99999998245E-14  0.12500000000E+03  0.12500000000E+03 0.  0.
        -11    1    3    3    0    0 -0.14061426951E+02 -0.72107979855E+01 -0.36431350629E+02  0.39710988963E+02  0.51100000000E-03 0.  1.
         23    2    1    0    0    0 -0.10679895687E+02 -0.21349123348E+02  0.17393208910E+02  0.95464107330E+02  0.90780101523E+02 0.  0.
         11    1    3    3    0    0  0.33815312640E+01 -0.14138325362E+02  0.53824559540E+02  0.55753118367E+02  0.51100000000E-03 0. -1.
         22    1    1    0    0    0  0.10679895687E+02  0.21349123348E+02 -0.17393208910E+02  0.29535892670E+02  0.00000000000E+00 0.  1.
</event>
<event>
 5    1  0.1103865E-009  0.9118800E+02  0.7818608E-02  0.1130116E+00
         25   -1    0    0    0    0  0.00000000000E+00  0.00000000000E+00  0.99999998245E-14  0.12500000000E+03  0.12500000000E+03 0.  0.
        -11    1    3    3    0    0  0.54809914179E+02 -0.95994956737E+00  0.12880955355E+02  0.56311341723E+02  0.51100000000E-03 0.  1.
         23    2    1    0    0    0  0.21917263233E+02 -0.19713535609E+02  0.35415947611E+01  0.95309381831E+02  0.90566801079E+02 0.  0.
         11    1    3    3    0    0 -0.32892650946E+02 -0.18753586042E+02 -0.93393605944E+01  0.38998040108E+02  0.51100000000E-03 0. -1.
         22    1    1    0    0    0 -0.21917263233E+02  0.19713535609E+02 -0.35415947611E+01  0.29690618169E+02  0.00000000000E+00 0.  1.
</event>
<event>
 5    1  0.1103865E-009  0.9118800E+02  0.7818608E-02  0.1130116E+00
         25   -1    0    0    0    0  0.00000000000E+00  0.00000000000E+00  0.99999998245E-14  0.12500000000E+03  0.12500000000E+03 0.  0.
        -11    1    3    3    0    0 -0.28892132344E+02 -0.31816657649E+02  0.12726403976E+02  0.44822052315E+02  0.51100000000E-03 0. -1.
         23    2    1    0    0    0 -0.16430277693E+02  0.17451862160E+02 -0.80357127276E+01  0.99719687562E+02  0.96462023048E+02 0.  0.
         11    1    3    3    0    0  0.12461854651E+02  0.49268519808E+02 -0.20762116704E+02  0.54897635247E+02  0.51100000000E-03 0.  1.
         22    1    1    0    0    0  0.16430277693E+02 -0.17451862160E+02  0.80357127276E+01  0.25280312438E+02  0.00000000000E+00 0.  1.
</event>
<event>
 5    1  0.1103865E-009  0.9118800E+02  0.7818608E-02  0.1130116E+00
         25   -1    0    0    0    0  0.00000000000E+00  0.00000000000E+00  0.99999998245E-14  0.12500000000E+03  0.12500000000E+03 0.  0.
        -11    1    3    3    0    0  0.36949264836E+02  0.10479149026E+02  0.11670464686E+02  0.40140509246E+02  0.51100000000E-03 0. -1.
         23    2    1    0    0    0 -0.18466799305E+02  0.20657204299E+02  0.41220582474E+01  0.96986893599E+02  0.92853235807E+02 0.  0.
         11    1    3    3    0    0 -0.55416064141E+02  0.10178055274E+02 -0.75484064386E+01  0.56846384354E+02  0.51100000000E-03 0.  1.
         22    1    1    0    0    0  0.18466799305E+02 -0.20657204299E+02 -0.41220582474E+01  0.28013106401E+02  0.00000000000E+00 0.  1.
</event>
<event>
 5    1  0.1103865E-009  0.9118800E+02  0.7818608E-02  0.1130116E+00
         25   -1    0    0    0    0  0.00000000000E+00  0.00000000000E+00  0.99999998245E-14  0.12500000000E+03  0.12500000000E+03 0.  0.
        -11    1    3    3    0    0  0.22926327185E+01 -0.22556076364E+02  0.21764873768E+02  0.31428370561E+02  0.51100000000E-03 0. -1.
         23    2    1    0    0    0  0.13578324472E+02  0.14120614472E+02 -0.25839867965E+02  0.92573754072E+02  0.86708929863E+02 0.  0.
         11    1    3    3    0    0  0.11285691754E+02  0.36676690835E+02 -0.47604741733E+02  0.61145383511E+02  0.51100000000E-03 0.  1.
         22    1    1    0    0    0 -0.13578324472E+02 -0.14120614472E+02  0.25839867965E+02  0.32426245928E+02  0.00000000000E+00 0.  1.
</event>
<event>
 5    1  0.1103865E-009  0.9118800E+02  0.7818608E-02  0.1130116E+00
         25   -1    0    0    0    0  0.00000000000E+00  0.00000000000E+00  0.99999998245E-14  0.12500000000E+03  0.12500000000E+03 0.  0.
        -11    1    3    3    0    0 -0.99837990911E+01 -0.22964841697E+02  0.56753479981E+02  0.62032392254E+02  0.51100000000E-03 0. -1.
         23    2    1    0    0    0  0.15842215795E+00 -0.97684568265E+01  0.29052018013E+02  0.94349264332E+02  0.89231810936E+02 0.  0.
         11    1    3    3    0    0  0.10142221249E+02  0.13196384870E+02 -0.27701461968E+02  0.32316872078E+02  0.51100000000E-03 0.  1.
         22    1    1    0    0    0 -0.15842215795E+00  0.97684568265E+01 -0.29052018013E+02  0.30650735668E+02  0.00000000000E+00 0. -1.
</event>
<event>
 5    1  0.1103865E-009  0.9118800E+02  0.7818608E-02  0.1130116E+00
         25   -1    0    0    0    0  0.00000000000E+00  0.00000000000E+00  0.99999998245E-14  0.12500000000E+03  0.12500000000E+03 0.  0.
        -11    1    3    3    0    0 -0.12532489440E+02  0.46994263262E+02 -0.29162041072E+02  0.56709335306E+02  0.51100000000E-03 0.  1.
         23    2    1    0    0    0  0.13151664082E+02  0.22142044384E+02 -0.15311112206E+02  0.95038915998E+02  0.90192732520E+02 0.  0.
         11    1    3    3    0    0  0.25684153522E+02 -0.24852218878E+02  0.13850928867E+02  0.38329580692E+02  0.51100000000E-03 0. -1.
         22    1    1    0    0    0 -0.13151664082E+02 -0.22142044384E+02  0.15311112206E+02  0.29961084002E+02  0.00000000000E+00 0.  1.
</event>
<event>
 5    1  0.1103865E-009  0.9118800E+02  0.7818608E-02  0.1130116E+00
         25   -1    0    0    0    0  0.00000000000E+00  0.00000000000E+00  0.99999998245E-14  0.12500000000E+03  0.12500000000E+03 0.  0.
        -11    1    3    3    0    0  0.46200824147E+02  0.48875085526E+00  0.35486041767E+02  0.58258168438E+02  0.51100000000E-03 0. -1.
         23    2    1    0    0    0  0.23298383100E+02  0.13915588111E+02  0.74741345629E+01  0.96851804054E+02  0.92671198403E+02 0.  0.
         11    1    3    3    0    0 -0.22902441046E+02  0.13426837256E+02 -0.28011907204E+02  0.38593635616E+02  0.51100000000E-03 0.  1.
         22    1    1    0    0    0 -0.23298383100E+02 -0.13915588111E+02 -0.74741345629E+01  0.28148195946E+02  0.00000000000E+00 0. -1.
</event>
<event>
 5    1  0.1103865E-009  0.9118800E+02  0.7818608E-02  0.1130116E+00
         25   -1    0    0    0    0  0.00000000000E+00  0.00000000000E+00  0.99999998245E-14  0.12500000000E+03  0.12500000000E+03 0.  0.
        -11    1    3    3    0    0  0.46487654921E+02 -0.10397159591E+02  0.26288513863E+02  0.54408537465E+02  0.51100000000E-03 0. -1.
         23    2    1    0    0    0  0.28912778212E+02 -0.30489869534E+01 -0.90471114883E+01  0.94551760450E+02  0.89515027300E+02 0.  0.
         11    1    3    3    0    0 -0.17574876709E+02  0.73481726376E+01 -0.35335625351E+02  0.40143222986E+02  0.51100000000E-03 0.  1.
         22    1    1    0    0    0 -0.28912778212E+02  0.30489869534E+01  0.90471114883E+01  0.30448239550E+02  0.00000000000E+00 0. -1.
</event>
<event>
 5    1  0.1103865E-009  0.9118800E+02  0.7818608E-02  0.1130116E+00
         25   -1    0    0    0    0  0.00000000000E+00  0.00000000000E+00  0.99999998245E-14  0.12500000000E+03  0.12500000000E+03 0.  0.
        -11    1    3    3    0    0 -0.19531164183E+02 -0.35347645792E+02  0.10219122398E+02  0.41657567142E+02  0.51100000000E-03 0.  1.
         23    2    1    0    0    0 -0.24587369194E+02  0.16776507345E+02  0.84582987368E+01  0.94055974080E+02  0.88820006305E+02 0.  0.
         11    1    3    3    0    0 -0.50562050112E+01  0.52124153137E+02 -0.17608236614E+01  0.52398406938E+02  0.51100000000E-03 0. -1.
         22    1    1    0    0    0  0.24587369194E+02 -0.16776507345E+02 -0.84582987368E+01  0.30944025920E+02  0.00000000000E+00 0. -1.
</event>
<event>
 5    1  0.1103865E-009  0.9118800E+02  0.7818608E-02  0.1130116E+00
         25   -1    0    0    0    0  0.00000000000E+00  0.00000000000E+00  0.99999998245E-14  0.12500000000E+03  0.12500000000E+03 0.  0.
        -11    1    3    3    0    0 -0.29817846037E+02 -0.15274333877E+01 -0.38942905774E+02  0.49071243162E+02  0.51100000000E-03 0.  1.
         23    2    1    0    0    0 -0.10109462439E+02  0.24392097668E+02 -0.16999312628E+01  0.98541250488E+02  0.94922666535E+02 0.  0.
         11    1    3    3    0    0  0.19708383598E+02  0.25919531055E+02  0.37242974511E+02  0.49470007327E+02  0.51100000000E-03 0. -1.
         22    1    1    0    0    0  0.10109462439E+02 -0.24392097668E+02  0.16999312628E+01  0.26458749512E+02  0.00000000000E+00 0. -1.
</event>
<event>
 5    1  0.1103865E-009  0.9118800E+02  0.7818608E-02  0.1130116E+00
         25   -1    0    0    0    0  0.00000000000E+00  0.00000000000E+00  0.99999998245E-14  0.12500000000E+03  0.12500000000E+03 0.  0.
        -11    1    3    3    0    0 -0.18846480678E+02  0.54554630203E+02 -0.63151642999E+01  0.58062714464E+02  0.51100000000E-03 0. -1.
         23    2    1    0    0    0  0.61015014539E+01  0.29221337787E+02  0.34897894445E+01  0.94945157920E+02  0.90062697495E+02 0.  0.
         11    1    3    3    0    0  0.24947982132E+02 -0.25333292416E+02  0.98049537444E+01  0.36882443456E+02  0.51100000000E-03 0.  1.
         22    1    1    0    0    0 -0.61015014539E+01 -0.29221337787E+02 -0.34897894445E+01  0.30054842080E+02  0.00000000000E+00 0. -1.
</event>
<event>
 5    1  0.1103865E-009  0.9118800E+02  0.7818608E-02  0.1130116E+00
         25   -1    0    0    0    0  0.00000000000E+00  0.00000000000E+00  0.99999998245E-14  0.12500000000E+03  0.12500000000E+03 0.  0.
        -11    1    3    3    0    0  0.21465463476E+01  0.45001405937E+02  0.85608041172E+01  0.45858713076E+02  0.51100000000E-03 0.  1.
         23    2    1    0    0    0  0.29001716584E+02  0.34568136506E+01  0.29674980552E+01  0.95642630054E+02  0.91025587136E+02 0.  0.
         11    1    3    3    0    0  0.26855170237E+02 -0.41544592287E+02 -0.55933060620E+01  0.49783916978E+02  0.51100000000E-03 0. -1.
         22    1    1    0    0    0 -0.29001716584E+02 -0.34568136506E+01 -0.29674980552E+01  0.29357369946E+02  0.00000000000E+00 0. -1.
</event>
<event>
 5    1  0.1103865E-009  0.9118800E+02  0.7818608E-02  0.1130116E+00
         25   -1    0    0    0    0  0.00000000000E+00  0.00000000000E+00  0.99999998245E-14  0.12500000000E+03  0.12500000000E+03 0.  0.
        -11    1    3    3    0    0 -0.41755970869E+02  0.38039190367E+02  0.53083172600E+01  0.56733758375E+02  0.51100000000E-03 0. -1.
         23    2    1    0    0    0 -0.18469202607E+02  0.16004801408E+02 -0.16504562033E+02  0.95509905376E+02  0.90843141425E+02 0.  0.
         11    1    3    3    0    0  0.23286768262E+02 -0.22034388959E+02 -0.21812879293E+02  0.38776147001E+02  0.51100000000E-03 0.  1.
         22    1    1    0    0    0  0.18469202607E+02 -0.16004801408E+02  0.16504562033E+02  0.29490094624E+02  0.00000000000E+00 0. -1.
</event>
<event>
 5    1  0.1103865E-009  0.9118800E+02  0.7818608E-02  0.1130116E+00
         25   -1    0    0    0    0  0.00000000000E+00  0.00000000000E+00  0.99999998245E-14  0.12500000000E+03  0.12500000000E+03 0.  0.
        -11    1    3    3    0    0  0.62047284468E+01  0.24502963681E+02 -0.24534818717E+02  0.35225718076E+02  0.51100000000E-03 0. -1.
         23    2    1    0    0    0 -0.24087742284E+02 -0.19461073550E+02 -0.18430643602E+02  0.88963333455E+02  0.81337773291E+02 0.  0.
         11    1    3    3    0    0 -0.30292470731E+02 -0.43964037231E+02  0.61041751150E+01  0.53737615380E+02  0.51100000000E-03 0.  1.
         22    1    1    0    0    0  0.24087742284E+02  0.19461073550E+02  0.18430643602E+02  0.36036666545E+02  0.00000000000E+00 0.  1.
</event>
<event>
 5    1  0.1103865E-009  0.9118800E+02  0.7818608E-02  0.1130116E+00
         25   -1    0    0    0    0  0.00000000000E+00  0.00000000000E+00  0.99999998245E-14  0.12500000000E+03  0.12500000000E+03 0.  0.
        -11    1    3    3    0    0 -0.31702956458E+02 -0.37594041751E+02 -0.53671866464E+00  0.49180051754E+02  0.51100000000E-03 0.  1.
         23    2    1    0    0    0  0.69215706999E+01 -0.22240601327E+02 -0.19268706130E+02  0.94770287394E+02  0.89819662928E+02 0.  0.
         11    1    3    3    0    0  0.38624527158E+02  0.15353440424E+02 -0.18731987465E+02  0.45590235640E+02  0.51100000000E-03 0. -1.
         22    1    1    0    0    0 -0.69215706999E+01  0.22240601327E+02  0.19268706130E+02  0.30229712606E+02  0.00000000000E+00 0.  1.
</event>
<event>
 5    1  0.1103865E-009  0.9118800E+02  0.7818608E-02  0.1130116E+00
         25   -1    0    0    0    0  0.00000000000E+00  0.00000000000E+00  0.99999998245E-14  0.12500000000E+03  0.12500000000E+03 0.  0.
        -11    1    3    3    0    0  0.17561547173E+02  0.31714184288E+01  0.50008701041E+02  0.53097420032E+02  0.51100000000E-03 0. -1.
         23    2    1    0    0    0  0.18273375994E+02  0.20148118756E+02  0.10975307159E+02  0.95668782384E+02  0.91061493486E+02 0.  0.
         11    1    3    3    0    0  0.71182882030E+00  0.16976700327E+02 -0.39033393882E+02  0.42571362352E+02  0.51100000000E-03 0.  1.
         22    1    1    0    0    0 -0.18273375994E+02 -0.20148118756E+02 -0.10975307159E+02  0.29331217616E+02  0.00000000000E+00 0. -1.
</event>
<event>
 5    1  0.1103865E-009  0.9118800E+02  0.7818608E-02  0.1130116E+00
         25   -1    0    0    0    0  0.00000000000E+00  0.00000000000E+00  0.99999998245E-14  0.12500000000E+03  0.12500000000E+03 0.  0.
        -11    1    3    3    0    0 -0.98031796447E+01 -0.84042983182E+01 -0.36927315565E+02  0.39119831243E+02  0.51100000000E-03 0. -1.
         23    2    1    0    0    0 -0.24674735368E+02  0.23297265058E+01  0.16244767855E+02  0.95366190361E+02  0.90645174115E+02 0.  0.
         11    1    3    3    0    0 -0.14871555723E+02  0.10734024824E+02  0.53172083420E+02  0.56246359118E+02  0.51100000000E-03 0.  1.
         22    1    1    0    0    0  0.24674735368E+02 -0.23297265058E+01 -0.16244767855E+02  0.29633809639E+02  0.00000000000E+00 0.  1.
</event>
<event>
 5    1  0.1103865E-009  0.9118800E+02  0.7818608E-02  0.1130116E+00
         25   -1    0    0    0    0  0.00000000000E+00  0.00000000000E+00  0.99999998245E-14  0.12500000000E+03  0.12500000000E+03 0.  0.
        -11    1    3    3    0    0 -0.39697342871E+02 -0.21863106852E+02  0.37139611770E+02  0.58593730338E+02  0.51100000000E-03 0.  1.
         23    2    1    0    0    0 -0.24235229846E+02  0.42313094376E+01  0.14496756126E+02  0.96444680296E+02  0.92120410735E+02 0.  0.
         11    1    3    3    0    0  0.15462113025E+02  0.26094416290E+02 -0.22642855645E+02  0.37850949958E+02  0.51100000000E-03 0. -1.
         22    1    1    0    0    0  0.24235229846E+02 -0.42313094376E+01 -0.14496756126E+02  0.28555319704E+02  0.00000000000E+00 0.  1.
</event>
<event>
 5    1  0.1103865E-009  0.9118800E+02  0.7818608E-02  0.1130116E+00
         25   -1    0    0    0    0  0.00000000000E+00  0.00000000000E+00  0.99999998245E-14  0.12500000000E+03  0.12500000000E+03 0.  0.
        -11    1    3    3    0    0 -0.25300441264E+02 -0.13491235002E+02 -0.31105225809E+02  0.42304383023E+02  0.51100000000E-03 0.  1.
         23    2    1    0    0    0  0.40277695553E+01 -0.25277871547E+02  0.12782138494E+02  0.96389219129E+02  0.92045123620E+02 0.  0.
         11    1    3    3    0    0  0.29328210819E+02 -0.11786636546E+02  0.43887364303E+02  0.54084836107E+02  0.51100000000E-03 0. -1.
         22    1    1    0    0    0 -0.40277695553E+01  0.25277871547E+02 -0.12782138494E+02  0.28610780871E+02  0.00000000000E+00 0. -1.
</event>
<event>
 5    1  0.1103865E-009  0.9118800E+02  0.7818608E-02  0.1130116E+00
         25   -1    0    0    0    0  0.00000000000E+00  0.00000000000E+00  0.99999998245E-14  0.12500000000E+03  0.12500000000E+03 0.  0.
        -11    1    3    3    0    0 -0.59798464285E+01  0.58697637159E+02  0.16937693758E+02  0.61384498381E+02  0.51100000000E-03 0.  1.
         23    2    1    0    0    0 -0.35809157656E+01  0.23170390949E+02  0.15247199157E+02  0.97032750286E+02  0.92914948052E+02 0.  0.
         11    1    3    3    0    0  0.23989306629E+01 -0.35527246210E+02 -0.16904946014E+01  0.35648251905E+02  0.51100000000E-03 0. -1.
         22    1    1    0    0    0  0.35809157656E+01 -0.23170390949E+02 -0.15247199157E+02  0.27967249714E+02  0.00000000000E+00 0.  1.
</event>
<event>
 5    1  0.1103865E-009  0.9118800E+02  0.7818608E-02  0.1130116E+00
         25   -1    0    0    0    0  0.00000000000E+00  0.00000000000E+00  0.99999998245E-14  0.12500000000E+03  0.12500000000E+03 0.  0.
        -11    1    3    3    0    0 -0.13403530354E+02  0.19171552688E+02  0.23073208496E+02  0.32856901999E+02  0.51100000000E-03 0. -1.
         23    2    1    0    0    0  0.52531453698E+01 -0.32754892285E+02  0.25419972352E+01  0.91729288333E+02  0.85482875965E+02 0.  0.
         11    1    3    3    0    0  0.18656675723E+02 -0.51926444973E+02 -0.20531211261E+02  0.58872386334E+02  0.51100000000E-03 0.  1.
         22    1    1    0    0    0 -0.52531453698E+01  0.32754892285E+02 -0.25419972352E+01  0.33270711667E+02  0.00000000000E+00 0.  1.
</event>
<event>
 5    1  0.1103865E-009  0.9118800E+02  0.7818608E-02  0.1130116E+00
         25   -1    0    0    0    0  0.00000000000E+00  0.00000000000E+00  0.99999998245E-14  0.12500000000E+03  0.12500000000E+03 0.  0.
        -11    1    3    3    0    0  0.26276515726E+02  0.51675533339E+02  0.15865688080E+02  0.60104376571E+02  0.51100000000E-03 0.  1.
         23    2    1    0    0    0  0.10941266630E+01  0.28408807364E+02  0.98404946845E+01  0.94915239994E+02  0.90021164170E+02 0.  0.
         11    1    3    3    0    0 -0.25182389063E+02 -0.23266725975E+02 -0.60251933950E+01  0.34810863423E+02  0.51100000000E-03 0. -1.
         22    1    1    0    0    0 -0.10941266630E+01 -0.28408807364E+02 -0.98404946845E+01  0.30084760006E+02  0.00000000000E+00 0.  1.
</event>
<event>
 5    1  0.1103865E-009  0.9118800E+02  0.7818608E-02  0.1130116E+00
         25   -1    0    0    0    0  0.00000000000E+00  0.00000000000E+00  0.99999998245E-14  0.12500000000E+03  0.12500000000E+03 0.  0.
        -11    1    3    3    0    0  0.10682429043E+01 -0.43347850024E+02  0.51182575838E+01  0.43662040786E+02  0.51100000000E-03 0.  1.
         23    2    1    0    0    0 -0.27284703933E+02 -0.44857163605E+01 -0.12182653106E+02  0.94784213453E+02  0.89839041419E+02 0.  0.
         11    1    3    3    0    0 -0.28352946837E+02  0.38862133664E+02 -0.17300910689E+02  0.51122172667E+02  0.51100000000E-03 0. -1.
         22    1    1    0    0    0  0.27284703933E+02  0.44857163605E+01  0.12182653106E+02  0.30215786547E+02  0.00000000000E+00 0. -1.
</event>
<event>
 5    1  0.1103865E-009  0.9118800E+02  0.7818608E-02  0.1130116E+00
         25   -1    0    0    0    0  0.00000000000E+00  0.00000000000E+00  0.99999998245E-14  0.12500000000E+03  0.12500000000E+03 0.  0.
        -11    1    3    3    0    0  0.14745143169E+02 -0.57936810315E+02 -0.72959920060E+01  0.60227275682E+02  0.51100000000E-03 0.  1.
         23    2    1    0    0    0 -0.38902014644E+01 -0.29023178241E+02  0.13160853227E+01  0.95687705255E+02  0.91087465184E+02 0.  0.
         11    1    3    3    0    0 -0.18635344634E+02  0.28913632073E+02  0.86120773287E+01  0.35460429573E+02  0.51100000000E-03 0. -1.
         22    1    1    0    0    0  0.38902014644E+01  0.29023178241E+02 -0.13160853227E+01  0.29312294745E+02  0.00000000000E+00 0.  1.
</event>
<event>
 5    1  0.1103865E-009  0.9118800E+02  0.7818608E-02  0.1130116E+00
         25   -1    0    0    0    0  0.00000000000E+00  0.00000000000E+00  0.99999998245E-14  0.12500000000E+03  0.12500000000E+03 0.  0.
        -11    1    3    3    0    0  0.25796442087E+02 -0.28121277326E+02 -0.13664682636E+02  0.40533766351E+02  0.51100000000E-03 0. -1.
         23    2    1    0    0    0  0.14160444117E+02  0.11138311708E+02  0.23196638089E+02  0.95628854569E+02  0.91006668120E+02 0.  0.
         11    1    3    3    0    0 -0.11635997970E+02  0.39259589033E+02  0.36861320726E+02  0.55095088218E+02  0.51100000000E-03 0.  1.
         22    1    1    0    0    0 -0.14160444117E+02 -0.11138311708E+02 -0.23196638089E+02  0.29371145431E+02  0.00000000000E+00 0.  1.
</event>
<event>
 5    1  0.1103865E-009  0.9118800E+02  0.7818608E-02  0.1130116E+00
         25   -1    0    0    0    0  0.00000000000E+00  0.00000000000E+00  0.99999998245E-14  0.12500000000E+03  0.12500000000E+03 0.  0.
        -11    1    3    3    0    0 -0.30384285498E+01 -0.33469774035E+02 -0.16343706222E+02  0.37370771404E+02  0.51100000000E-03 0. -1.
         23    2    1    0    0    0 -0.24995901427E+02  0.16987540655E+02  0.12147333577E-01  0.94777958818E+02  0.89830338441E+02 0.  0.
         11    1    3    3    0    0 -0.21957472877E+02  0.50457314691E+02  0.16355853555E+02  0.57407187413E+02  0.51100000000E-03 0.  1.
         22    1    1    0    0    0  0.24995901427E+02 -0.16987540655E+02 -0.12147333577E-01  0.30222041182E+02  0.00000000000E+00 0.  1.
</event>
<event>
 5    1  0.1103865E-009  0.9118800E+02  0.7818608E-02  0.1130116E+00
         25   -1    0    0    0    0  0.00000000000E+00  0.00000000000E+00  0.99999998245E-14  0.12500000000E+03  0.12500000000E+03 0.  0.
        -11    1    3    3    0    0  0.14522303538E+02 -0.46677171521E+00  0.49610405555E+02  0.51694366380E+02  0.51100000000E-03 0.  1.
         23    2    1    0    0    0 -0.19167819321E+02  0.39497186102E+01  0.22626817331E+02  0.95083809782E+02  0.90254930312E+02 0.  0.
         11    1    3    3    0    0 -0.33690122859E+02  0.44164903254E+01 -0.26983588224E+02  0.43389443402E+02  0.51100000000E-03 0. -1.
         22    1    1    0    0    0  0.19167819321E+02 -0.39497186102E+01 -0.22626817331E+02  0.29916190218E+02  0.00000000000E+00 0.  1.
</event>
<event>
 5    1  0.1103865E-009  0.9118800E+02  0.7818608E-02  0.1130116E+00
         25   -1    0    0    0    0  0.00000000000E+00  0.00000000000E+00  0.99999998245E-14  0.12500000000E+03  0.12500000000E+03 0.  0.
        -11    1    3    3    0    0  0.25556006868E+02 -0.71767807575E+01 -0.23847356748E+02  0.35683498892E+02  0.51100000000E-03 0.  1.
         23    2    1    0    0    0 -0.19510134507E+02 -0.18548653965E+02  0.13102978481E+02  0.95060294633E+02  0.90222356754E+02 0.  0.
         11    1    3    3    0    0 -0.45066141375E+02 -0.11371873208E+02  0.36950335229E+02  0.59376795741E+02  0.51100000000E-03 0. -1.
         22    1    1    0    0    0  0.19510134507E+02  0.18548653965E+02 -0.13102978481E+02  0.29939705367E+02  0.00000000000E+00 0. -1.
</event>
<event>
 5    1  0.1103865E-009  0.9118800E+02  0.7818608E-02  0.1130116E+00
         25   -1    0    0    0    0  0.00000000000E+00  0.00000000000E+00  0.99999998245E-14  0.12500000000E+03  0.12500000000E+03 0.  0.
        -11    1    3    3    0    0  0.27108988038E+02  0.27480976777E+02  0.29382629628E+02  0.48512268975E+02  0.51100000000E-03 0.  1.
         23    2    1    0    0    0 -0.16680594131E+02  0.13567926445E+02  0.20463999181E+02  0.95316568408E+02  0.90576719426E+02 0.  0.
         11    1    3    3    0    0 -0.43789582169E+02 -0.13913050332E+02 -0.89186304465E+01  0.46804299432E+02  0.51100000000E-03 0. -1.
         22    1    1    0    0    0  0.16680594131E+02 -0.13567926445E+02 -0.20463999181E+02  0.29683431592E+02  0.00000000000E+00 0.  1.
</event>
<event>
 5    1  0.1103865E-009  0.9118800E+02  0.7818608E-02  0.1130116E+00
         25   -1    0    0    0    0  0.00000000000E+00  0.00000000000E+00  0.99999998245E-14  0.12500000000E+03  0.12500000000E+03 0.  0.
        -11    1    3    3    0    0 -0.41879671988E+02  0.11098226568E+02  0.78733038889E+01  0.44034832498E+02  0.51100000000E-03 0.  1.
         23    2    1    0    0    0  0.28678029773E+01 -0.87120254203E+01  0.26930015137E+02  0.96550933300E+02  0.92264474881E+02 0.  0.
         11    1    3    3    0    0  0.44747474965E+02 -0.19810251988E+02  0.19056711248E+02  0.52516100802E+02  0.51100000000E-03 0. -1.
         22    1    1    0    0    0 -0.28678029773E+01  0.87120254203E+01 -0.26930015137E+02  0.28449066700E+02  0.00000000000E+00 0. -1.
</event>
<event>
 5    1  0.1103865E-009  0.9118800E+02  0.7818608E-02  0.1130116E+00
         25   -1    0    0    0    0  0.00000000000E+00  0.00000000000E+00  0.99999998245E-14  0.12500000000E+03  0.12500000000E+03 0.  0.
        -11    1    3    3    0    0 -0.11828622691E+02  0.97988853616E+01  0.96586872924E+01  0.18144550410E+02  0.51100000000E-03 0.  1.
         23    2    1    0    0    0  0.32476436872E+02 -0.23971618237E+02  0.26938761532E+02  0.76471098244E+02  0.59099700176E+02 0.  0.
         11    1    3    3    0    0  0.44305059564E+02 -0.33770503599E+02  0.17280074239E+02  0.58326547834E+02  0.51100000000E-03 0. -1.
         22    1    1    0    0    0 -0.32476436872E+02  0.23971618237E+02 -0.26938761532E+02  0.48528901756E+02  0.00000000000E+00 0. -1.
</event>
<event>
 5    1  0.1103865E-009  0.9118800E+02  0.7818608E-02  0.1130116E+00
         25   -1    0    0    0    0  0.00000000000E+00  0.00000000000E+00  0.99999998245E-14  0.12500000000E+03  0.12500000000E+03 0.  0.
        -11    1    3    3    0    0  0.10584235863E+02 -0.14299944060E+02 -0.51881761493E+02  0.54847348385E+02  0.51100000000E-03 0. -1.
         23    2    1    0    0    0  0.78684874239E+01  0.15303044175E+02 -0.22812764200E+02  0.96425212760E+02  0.92093991063E+02 0.  0.
         11    1    3    3    0    0 -0.27157484392E+01  0.29602988236E+02  0.29068997293E+02  0.41577864375E+02  0.51100000000E-03 0.  1.
         22    1    1    0    0    0 -0.78684874239E+01 -0.15303044175E+02  0.22812764200E+02  0.28574787240E+02  0.00000000000E+00 0.  1.
</event>
<event>
 5    1  0.1103865E-009  0.9118800E+02  0.7818608E-02  0.1130116E+00
         25   -1    0    0    0    0  0.00000000000E+00  0.00000000000E+00  0.99999998245E-14  0.12500000000E+03  0.12500000000E+03 0.  0.
        -11    1    3    3    0    0 -0.28514395196E+01  0.45018326739E+02  0.33743645733E+02  0.56333063802E+02  0.51100000000E-03 0.  1.
         23    2    1    0    0    0  0.15676674112E+02  0.25356890829E+02  0.69364385430E+01  0.94392089202E+02  0.89291781820E+02 0.  0.
         11    1    3    3    0    0  0.18528113631E+02 -0.19661435910E+02 -0.26807207190E+02  0.38059025400E+02  0.51100000000E-03 0. -1.
         22    1    1    0    0    0 -0.15676674112E+02 -0.25356890829E+02 -0.69364385430E+01  0.30607910798E+02  0.00000000000E+00 0.  1.
</event>
<event>
 5    1  0.1103865E-009  0.9118800E+02  0.7818608E-02  0.1130116E+00
         25   -1    0    0    0    0  0.00000000000E+00  0.00000000000E+00  0.99999998245E-14  0.12500000000E+03  0.12500000000E+03 0.  0.
        -11    1    3    3    0    0 -0.29123171161E+02 -0.30340507918E+02 -0.20685931119E+02  0.46868040984E+02  0.51100000000E-03 0. -1.
         23    2    1    0    0    0  0.25886639058E+01  0.55806283202E+01 -0.28873179712E+02  0.95478734784E+02  0.90800240617E+02 0.  0.
         11    1    3    3    0    0  0.31711835067E+02  0.35921136238E+02 -0.81872485930E+01  0.48610693800E+02  0.51100000000E-03 0.  1.
         22    1    1    0    0    0 -0.25886639058E+01 -0.55806283202E+01  0.28873179712E+02  0.29521265216E+02  0.00000000000E+00 0. -1.
</event>
<event>
 5    1  0.1103865E-009  0.9118800E+02  0.7818608E-02  0.1130116E+00
         25   -1    0    0    0    0  0.00000000000E+00  0.00000000000E+00  0.99999998245E-14  0.12500000000E+03  0.12500000000E+03 0.  0.
        -11    1    3    3    0    0  0.24043492738E+02 -0.19811223323E+01 -0.27854799364E+02  0.36849752192E+02  0.51100000000E-03 0. -1.
         23    2    1    0    0    0  0.15031502742E+02 -0.10833282463E+02  0.26506564940E+02  0.92659559859E+02  0.86832539781E+02 0.  0.
         11    1    3    3    0    0 -0.90119899957E+01 -0.88521601303E+01  0.54361364303E+02  0.55809807667E+02  0.51100000000E-03 0.  1.
         22    1    1    0    0    0 -0.15031502742E+02  0.10833282463E+02 -0.26506564940E+02  0.32340440141E+02  0.00000000000E+00 0.  1.
</event>
<event>
 5    1  0.1103865E-009  0.9118800E+02  0.7818608E-02  0.1130116E+00
         25   -1    0    0    0    0  0.00000000000E+00  0.00000000000E+00  0.99999998245E-14  0.12500000000E+03  0.12500000000E+03 0.  0.
        -11    1    3    3    0    0 -0.28270174315E+02  0.79618495059E+01 -0.24733424577E+02  0.38397084459E+02  0.51100000000E-03 0. -1.
         23    2    1    0    0    0  0.19904643809E+02  0.21461631147E+02  0.29579183752E+01  0.95579841303E+02  0.90939322220E+02 0.  0.
         11    1    3    3    0    0  0.48174818123E+02  0.13499781641E+02  0.27691342953E+02  0.57182756845E+02  0.51100000000E-03 0.  1.
         22    1    1    0    0    0 -0.19904643809E+02 -0.21461631147E+02 -0.29579183752E+01  0.29420158697E+02  0.00000000000E+00 0.  1.
</event>
<event>
 5    1  0.1103865E-009  0.9118800E+02  0.7818608E-02  0.1130116E+00
         25   -1    0    0    0    0  0.00000000000E+00  0.00000000000E+00  0.99999998245E-14  0.12500000000E+03  0.12500000000E+03 0.  0.
        -11    1    3    3    0    0  0.57841567881E+02  0.11459888512E+02 -0.45715849571E+01  0.59142839034E+02  0.51100000000E-03 0.  1.
         23    2    1    0    0    0  0.26870259970E+02  0.51454050396E+01  0.12335728533E+02  0.94989064288E+02  0.90123615506E+02 0.  0.
         11    1    3    3    0    0 -0.30971307911E+02 -0.63144834721E+01  0.16907313490E+02  0.35846225254E+02  0.51100000000E-03 0. -1.
         22    1    1    0    0    0 -0.26870259970E+02 -0.51454050396E+01 -0.12335728533E+02  0.30010935712E+02  0.00000000000E+00 0.  1.
</event>
<event>
 5    1  0.1103865E-009  0.9118800E+02  0.7818608E-02  0.1130116E+00
         25   -1    0    0    0    0  0.00000000000E+00  0.00000000000E+00  0.99999998245E-14  0.12500000000E+03  0.12500000000E+03 0.  0.
        -11    1    3    3    0    0 -0.14933887037E+02 -0.47561498674E+02 -0.16337677603E+02  0.52459859396E+02  0.51100000000E-03 0.  1.
         23    2    1    0    0    0  0.14136523768E+02 -0.15311493976E+02 -0.20107445201E+02  0.96041538292E+02  0.91571745495E+02 0.  0.
         11    1    3    3    0    0  0.29070410805E+02  0.32250004698E+02 -0.37697675980E+01  0.43581678896E+02  0.51100000000E-03 0. -1.
         22    1    1    0    0    0 -0.14136523768E+02  0.15311493976E+02  0.20107445201E+02  0.28958461708E+02  0.00000000000E+00 0.  1.
</event>
<event>
 5    1  0.1103865E-009  0.9118800E+02  0.7818608E-02  0.1130116E+00
         25   -1    0    0    0    0  0.00000000000E+00  0.00000000000E+00  0.99999998245E-14  0.12500000000E+03  0.12500000000E+03 0.  0.
        -11    1    3    3    0    0 -0.19297201823E+02  0.12077550310E+02 -0.33036092915E+02  0.40120227504E+02  0.51100000000E-03 0.  1.
         23    2    1    0    0    0 -0.10535067512E+02 -0.29532388888E+02 -0.53648153317E+00  0.93640193666E+02  0.88232921387E+02 0.  0.
         11    1    3    3    0    0  0.87621343115E+01 -0.41609939197E+02  0.32499611381E+02  0.53519966161E+02  0.51100000000E-03 0. -1.
         22    1    1    0    0    0  0.10535067512E+02  0.29532388888E+02  0.53648153317E+00  0.31359806334E+02  0.00000000000E+00 0. -1.
</event>
<event>
 5    1  0.1103865E-009  0.9118800E+02  0.7818608E-02  0.1130116E+00
         25   -1    0    0    0    0  0.00000000000E+00  0.00000000000E+00  0.99999998245E-14  0.12500000000E+03  0.12500000000E+03 0.  0.
        -11    1    3    3    0    0 -0.81733497241E+00 -0.17708235267E+02 -0.28262080489E+02  0.33361577100E+02  0.51100000000E-03 0.  1.
         23    2    1    0    0    0  0.30656622666E+02 -0.13136168290E+02  0.16114803448E+02  0.87958478423E+02  0.79778566079E+02 0.  0.
         11    1    3    3    0    0  0.31473957638E+02  0.45720669773E+01  0.44376883937E+02  0.54596901323E+02  0.51100000000E-03 0. -1.
         22    1    1    0    0    0 -0.30656622666E+02  0.13136168290E+02 -0.16114803448E+02  0.37041521577E+02  0.00000000000E+00 0. -1.
</event>
<event>
 5    1  0.1103865E-009  0.9118800E+02  0.7818608E-02  0.1130116E+00
         25   -1    0    0    0    0  0.00000000000E+00  0.00000000000E+00  0.99999998245E-14  0.12500000000E+03  0.12500000000E+03 0.  0.
        -11    1    3    3    0    0  0.50759177712E+02  0.10250246820E+02  0.24053491309E+02  0.57097566728E+02  0.51100000000E-03 0.  1.
         23    2    1    0    0    0  0.20237549626E+02  0.18203012696E+02 -0.15705757195E+01  0.97735099594E+02  0.93855073909E+02 0.  0.
         11    1    3    3    0    0 -0.30521628086E+02  0.79527658763E+01 -0.25624067028E+02  0.40637532866E+02  0.51100000000E-03 0. -1.
         22    1    1    0    0    0 -0.20237549626E+02 -0.18203012696E+02  0.15705757195E+01  0.27264900406E+02  0.00000000000E+00 0.  1.
</event>
<event>
 5    1  0.1103865E-009  0.9118800E+02  0.7818608E-02  0.1130116E+00
         25   -1    0    0    0    0  0.00000000000E+00  0.00000000000E+00  0.99999998245E-14  0.12500000000E+03  0.12500000000E+03 0.  0.
        -11    1    3    3    0    0 -0.57092926211E+02 -0.31193447648E+01  0.19347518223E+02  0.60362728540E+02  0.51100000000E-03 0.  1.
         23    2    1    0    0    0 -0.23752582952E+02  0.40452790520E+01  0.18750095693E+02  0.94469432236E+02  0.89399989144E+02 0.  0.
         11    1    3    3    0    0  0.33340343259E+02  0.71646238167E+01 -0.59742253019E+00  0.34106703696E+02  0.51100000000E-03 0. -1.
         22    1    1    0    0    0  0.23752582952E+02 -0.40452790520E+01 -0.18750095693E+02  0.30530567764E+02  0.00000000000E+00 0.  1.
</event>
<event>
 5    1  0.1103865E-009  0.9118800E+02  0.7818608E-02  0.1130116E+00
         25   -1    0    0    0    0  0.00000000000E+00  0.00000000000E+00  0.99999998245E-14  0.12500000000E+03  0.12500000000E+03 0.  0.
        -11    1    3    3    0    0  0.27672835799E+02  0.66052850506E+01 -0.26488731110E+02  0.38872464649E+02  0.51100000000E-03 0. -1.
         23    2    1    0    0    0 -0.26104476222E+02  0.92548901794E+01 -0.13137340987E+02  0.94345695257E+02  0.89226811073E+02 0.  0.
         11    1    3    3    0    0 -0.53777312022E+02  0.26496051288E+01  0.13351390123E+02  0.55473230608E+02  0.51100000000E-03 0.  1.
         22    1    1    0    0    0  0.26104476222E+02 -0.92548901794E+01  0.13137340987E+02  0.30654304743E+02  0.00000000000E+00 0.  1.
</event>
<event>
 5    1  0.1103865E-009  0.9118800E+02  0.7818608E-02  0.1130116E+00
         25   -1    0    0    0    0  0.00000000000E+00  0.00000000000E+00  0.99999998245E-14  0.12500000000E+03  0.12500000000E+03 0.  0.
        -11    1    3    3    0    0 -0.60074715717E+00  0.32752825853E+02 -0.25276144139E+02  0.41376224589E+02  0.51100000000E-03 0.  1.
         23    2    1    0    0    0  0.16218865846E+02 -0.17533510590E+02 -0.18410188539E+02  0.94843563788E+02  0.89921582210E+02 0.  0.
         11    1    3    3    0    0  0.16819613003E+02 -0.50286336443E+02  0.68659555995E+01  0.53467339199E+02  0.51100000000E-03 0. -1.
         22    1    1    0    0    0 -0.16218865846E+02  0.17533510590E+02  0.18410188539E+02  0.30156436212E+02  0.00000000000E+00 0. -1.
</event>
<event>
 5    1  0.1103865E-009  0.9118800E+02  0.7818608E-02  0.1130116E+00
         25   -1    0    0    0    0  0.00000000000E+00  0.00000000000E+00  0.99999998245E-14  0.12500000000E+03  0.12500000000E+03 0.  0.
        -11    1    3    3    0    0  0.32194871301E+02  0.20922348520E+01  0.70044864646E+01  0.33014391039E+02  0.51100000000E-03 0. -1.
         23    2    1    0    0    0 -0.25155416840E+02  0.75398476684E+01 -0.15087331693E+02  0.94713503391E+02  0.89740603116E+02 0.  0.
         11    1    3    3    0    0 -0.57350288141E+02  0.54476128165E+01 -0.22091818157E+02  0.61699112352E+02  0.51100000000E-03 0.  1.
         22    1    1    0    0    0  0.25155416840E+02 -0.75398476684E+01  0.15087331693E+02  0.30286496609E+02  0.00000000000E+00 0.  1.
</event>
<event>
 5    1  0.1103865E-009  0.9118800E+02  0.7818608E-02  0.1130116E+00
         25   -1    0    0    0    0  0.00000000000E+00  0.00000000000E+00  0.99999998245E-14  0.12500000000E+03  0.12500000000E+03 0.  0.
        -11    1    3    3    0    0 -0.30372517663E+02  0.38852200467E+02  0.18628825381E+02  0.52716377395E+02  0.51100000000E-03 0. -1.
         23    2    1    0    0    0  0.59149525911E+01  0.28748690863E+02 -0.18495513725E+01  0.95590907345E+02  0.90954531697E+02 0.  0.
         11    1    3    3    0    0  0.36287470254E+02 -0.10103509604E+02 -0.20478376753E+02  0.42874529950E+02  0.51100000000E-03 0.  1.
         22    1    1    0    0    0 -0.59149525911E+01 -0.28748690863E+02  0.18495513725E+01  0.29409092655E+02  0.00000000000E+00 0. -1.
</event>
<event>
 5    1  0.1103865E-009  0.9118800E+02  0.7818608E-02  0.1130116E+00
         25   -1    0    0    0    0  0.00000000000E+00  0.00000000000E+00  0.99999998245E-14  0.12500000000E+03  0.12500000000E+03 0.  0.
        -11    1    3    3    0    0 -0.38836361171E+02 -0.20695922496E+02 -0.43390770759E+02  0.61800834495E+02  0.51100000000E-03 0.  1.
         23    2    1    0    0    0 -0.13342198820E+02 -0.88040251902E+01 -0.24711746463E+02  0.95568799852E+02  0.90924144005E+02 0.  0.
         11    1    3    3    0    0  0.25494162351E+02  0.11891897306E+02  0.18679024296E+02  0.33767965358E+02  0.51100000000E-03 0. -1.
         22    1    1    0    0    0  0.13342198820E+02  0.88040251902E+01  0.24711746463E+02  0.29431200148E+02  0.00000000000E+00 0.  1.
</event>
<event>
 5    1  0.1103865E-009  0.9118800E+02  0.7818608E-02  0.1130116E+00
         25   -1    0    0    0    0  0.00000000000E+00  0.00000000000E+00  0.99999998245E-14  0.12500000000E+03  0.12500000000E+03 0.  0.
        -11    1    3    3    0    0  0.97035953387E+01 -0.15655563552E+02  0.42992581553E+02  0.46771984152E+02  0.51100000000E-03 0. -1.
         23    2    1    0    0    0 -0.26504950937E+02 -0.52328920435E+01  0.12556255596E+02  0.95208136381E+02  0.90426954473E+02 0.  0.
         11    1    3    3    0    0 -0.36208546275E+02  0.10422671509E+02 -0.30436325957E+02  0.48436152229E+02  0.51100000000E-03 0.  1.
         22    1    1    0    0    0  0.26504950937E+02  0.52328920435E+01 -0.12556255596E+02  0.29791863619E+02  0.00000000000E+00 0. -1.
</event>
<event>
 5    1  0.1103865E-009  0.9118800E+02  0.7818608E-02  0.1130116E+00
         25   -1    0    0    0    0  0.00000000000E+00  0.00000000000E+00  0.99999998245E-14  0.12500000000E+03  0.12500000000E+03 0.  0.
        -11    1    3    3    0    0 -0.79205761518E+01  0.32323112432E+02  0.11043581857E+02  0.35063939088E+02  0.51100000000E-03 0.  1.
         23    2    1    0    0    0 -0.15162284253E+01 -0.27394437450E+02  0.11812365468E+02  0.95128841171E+02  0.90317275715E+02 0.  0.
         11    1    3    3    0    0  0.64043477266E+01 -0.59717549882E+02  0.76878361106E+00  0.60064902083E+02  0.51100000000E-03 0. -1.
         22    1    1    0    0    0  0.15162284253E+01  0.27394437450E+02 -0.11812365468E+02  0.29871158829E+02  0.00000000000E+00 0. -1.
</event>
<event>
 5    1  0.1103865E-009  0.9118800E+02  0.7818608E-02  0.1130116E+00
         25   -1    0    0    0    0  0.00000000000E+00  0.00000000000E+00  0.99999998245E-14  0.12500000000E+03  0.12500000000E+03 0.  0.
        -11    1    3    3    0    0  0.29718906669E+02  0.17376530229E+02 -0.16471874104E+02  0.38163855324E+02  0.51100000000E-03 0.  1.
         23    2    1    0    0    0 -0.21387217080E+02  0.20759438374E+02  0.68121111417E+01  0.94425955546E+02  0.89339178900E+02 0.  0.
         11    1    3    3    0    0 -0.51106123750E+02  0.33829081448E+01  0.23283985246E+02  0.56262100222E+02  0.51100000000E-03 0. -1.
         22    1    1    0    0    0  0.21387217080E+02 -0.20759438374E+02 -0.68121111417E+01  0.30574044454E+02  0.00000000000E+00 0. -1.
</event>
<event>
 5    1  0.1103865E-009  0.9118800E+02  0.7818608E-02  0.1130116E+00
         25   -1    0    0    0    0  0.00000000000E+00  0.00000000000E+00  0.99999998245E-14  0.12500000000E+03  0.12500000000E+03 0.  0.
        -11    1    3    3    0    0  0.24373440346E+02  0.19294783375E+01  0.24306519709E+02  0.34475997180E+02  0.51100000000E-03 0.  1.
         23    2    1    0    0    0 -0.45209402026E+00 -0.68402522406E+01 -0.29678927577E+02  0.94539662152E+02  0.89498131477E+02 0.  0.
         11    1    3    3    0    0 -0.24825534366E+02 -0.87697305782E+01 -0.53985447286E+02  0.60063664972E+02  0.51100000000E-03 0. -1.
         22    1    1    0    0    0  0.45209402026E+00  0.68402522406E+01  0.29678927577E+02  0.30460337848E+02  0.00000000000E+00 0. -1.
</event>
<event>
 5    1  0.1103865E-009  0.9118800E+02  0.7818608E-02  0.1130116E+00
         25   -1    0    0    0    0  0.00000000000E+00  0.00000000000E+00  0.99999998245E-14  0.12500000000E+03  0.12500000000E+03 0.  0.
        -11    1    3    3    0    0 -0.33921092859E+02  0.26125352621E+02 -0.11742443120E+02  0.44396616549E+02  0.51100000000E-03 0. -1.
         23    2    1    0    0    0  0.91175932674E+00  0.11897519057E+02  0.25194150808E+02  0.97122993351E+02  0.93036274311E+02 0.  0.
         11    1    3    3    0    0  0.34832852186E+02 -0.14227833564E+02  0.36936593928E+02  0.52726376801E+02  0.51100000000E-03 0.  1.
         22    1    1    0    0    0 -0.91175932674E+00 -0.11897519057E+02 -0.25194150808E+02  0.27877006649E+02  0.00000000000E+00 0.  1.
</event>
<event>
 5    1  0.1103865E-009  0.9118800E+02  0.7818608E-02  0.1130116E+00
         25   -1    0    0    0    0  0.00000000000E+00  0.00000000000E+00  0.99999998245E-14  0.12500000000E+03  0.12500000000E+03 0.  0.
        -11    1    3    3    0    0 -0.33834817514E+02  0.20170958569E+01  0.19903867949E+02  0.39306837973E+02  0.51100000000E-03 0.  1.
         23    2    1    0    0    0  0.22079742787E+02 -0.27578676751E+01  0.19479995353E+02  0.95426513655E+02  0.90728322004E+02 0.  0.
         11    1    3    3    0    0  0.55914560301E+02 -0.47749635319E+01 -0.42387259554E+00  0.56119675681E+02  0.51100000000E-03 0. -1.
         22    1    1    0    0    0 -0.22079742787E+02  0.27578676751E+01 -0.19479995353E+02  0.29573486345E+02  0.00000000000E+00 0. -1.
</event>
<event>
 5    1  0.1103865E-009  0.9118800E+02  0.7818608E-02  0.1130116E+00
         25   -1    0    0    0    0  0.00000000000E+00  0.00000000000E+00  0.99999998245E-14  0.12500000000E+03  0.12500000000E+03 0.  0.
        -11    1    3    3    0    0  0.42261530261E+02  0.23429392993E+01 -0.43645908466E+02  0.60798779845E+02  0.51100000000E-03 0.  1.
         23    2    1    0    0    0  0.13786794233E+02 -0.50732872792E+01 -0.26077702126E+02  0.95069071394E+02  0.90234515837E+02 0.  0.
         11    1    3    3    0    0 -0.28474736028E+02 -0.74162265785E+01  0.17568206340E+02  0.34270291548E+02  0.51100000000E-03 0. -1.
         22    1    1    0    0    0 -0.13786794233E+02  0.50732872792E+01  0.26077702126E+02  0.29930928606E+02  0.00000000000E+00 0.  1.
</event>
<event>
 5    1  0.1103865E-009  0.9118800E+02  0.7818608E-02  0.1130116E+00
         25   -1    0    0    0    0  0.00000000000E+00  0.00000000000E+00  0.99999998245E-14  0.12500000000E+03  0.12500000000E+03 0.  0.
        -11    1    3    3    0    0  0.34842086618E+02 -0.41072267875E+02  0.27555665151E+02  0.60499726202E+02  0.51100000000E-03 0.  1.
         23    2    1    0    0    0  0.19003072090E+02 -0.10707762493E+02  0.19637134559E+02  0.95650554006E+02  0.91036467975E+02 0.  0.
         11    1    3    3    0    0 -0.15839014528E+02  0.30364505382E+02 -0.79185305919E+01  0.35150827804E+02  0.51100000000E-03 0. -1.
         22    1    1    0    0    0 -0.19003072090E+02  0.10707762493E+02 -0.19637134559E+02  0.29349445994E+02  0.00000000000E+00 0.  1.
</event>
<event>
 5    1  0.1103865E-009  0.9118800E+02  0.7818608E-02  0.1130116E+00
         25   -1    0    0    0    0  0.00000000000E+00  0.00000000000E+00  0.99999998245E-14  0.12500000000E+03  0.12500000000E+03 0.  0.
        -11    1    3    3    0    0 -0.71563612239E+01 -0.13253976626E+02  0.39933961775E+02  0.42680237882E+02  0.51100000000E-03 0. -1.
         23    2    1    0    0    0 -0.20897877093E+02 -0.18403055510E+02 -0.10526273896E+02  0.95230952967E+02  0.90458489053E+02 0.  0.
         11    1    3    3    0    0 -0.13741515869E+02 -0.51490788846E+01 -0.50460235671E+02  0.52550715085E+02  0.51100000000E-03 0.  1.
         22    1    1    0    0    0  0.20897877093E+02  0.18403055510E+02  0.10526273896E+02  0.29769047033E+02  0.00000000000E+00 0. -1.
</event>
<event>
 5    1  0.1103865E-009  0.9118800E+02  0.7818608E-02  0.1130116E+00
         25   -1    0    0    0    0  0.00000000000E+00  0.00000000000E+00  0.99999998245E-14  0.12500000000E+03  0.12500000000E+03 0.  0.
        -11    1    3    3    0    0 -0.55682809529E+02  0.30597446469E+01  0.66859180255E+01  0.56166171442E+02  0.51100000000E-03 0.  1.
         23    2    1    0    0    0 -0.23259281168E+02 -0.17732251623E+02  0.79049498478E+01  0.94702885613E+02  0.89725812358E+02 0.  0.
         11    1    3    3    0    0  0.32423528361E+02 -0.20791996270E+02  0.12190318224E+01  0.38536714172E+02  0.51100000000E-03 0. -1.
         22    1    1    0    0    0  0.23259281168E+02  0.17732251623E+02 -0.79049498478E+01  0.30297114387E+02  0.00000000000E+00 0.  1.
</event>
<event>
 5    1  0.1103865E-009  0.9118800E+02  0.7818608E-02  0.1130116E+00
         25   -1    0    0    0    0  0.00000000000E+00  0.00000000000E+00  0.99999998245E-14  0.12500000000E+03  0.12500000000E+03 0.  0.
        -11    1    3    3    0    0  0.32093487079E+02  0.40803246665E+02  0.32521566520E+02  0.61258053678E+02  0.51100000000E-03 0. -1.
         23    2    1    0    0    0  0.75565529199E+01  0.18876452670E+02  0.20037359613E+02  0.96453235951E+02  0.92132019340E+02 0.  0.
         11    1    3    3    0    0 -0.24536934159E+02 -0.21926793995E+02 -0.12484206907E+02  0.35195182273E+02  0.51100000000E-03 0.  1.
         22    1    1    0    0    0 -0.75565529199E+01 -0.18876452670E+02 -0.20037359613E+02  0.28546764049E+02  0.00000000000E+00 0. -1.
</event>
<event>
 5    1  0.1103865E-009  0.9118800E+02  0.7818608E-02  0.1130116E+00
         25   -1    0    0    0    0  0.00000000000E+00  0.00000000000E+00  0.99999998245E-14  0.12500000000E+03  0.12500000000E+03 0.  0.
        -11    1    3    3    0    0 -0.27325959692E+02 -0.13338934096E+02  0.16762666502E+02  0.34722071142E+02  0.51100000000E-03 0. -1.
         23    2    1    0    0    0  0.28889930109E+02 -0.24510732910E+01 -0.42092267542E+01  0.95702330948E+02  0.91107533921E+02 0.  0.
         11    1    3    3    0    0  0.56215889801E+02  0.10887860805E+02 -0.20971893256E+02  0.60980259806E+02  0.51100000000E-03 0.  1.
         22    1    1    0    0    0 -0.28889930109E+02  0.24510732910E+01  0.42092267542E+01  0.29297669052E+02  0.00000000000E+00 0.  1.
</event>
<event>
 5    1  0.1103865E-009  0.9118800E+02  0.7818608E-02  0.1130116E+00
         25   -1    0    0    0    0  0.00000000000E+00  0.00000000000E+00  0.99999998245E-14  0.12500000000E+03  0.12500000000E+03 0.  0.
        -11    1    3    3    0    0 -0.28278732579E+02 -0.20762384139E+02 -0.16409715250E+02  0.38730376532E+02  0.51100000000E-03 0.  1.
         23    2    1    0    0    0  0.21039543423E+02 -0.19422110192E+02  0.99746958452E+01  0.94678797700E+02  0.89692248410E+02 0.  0.
         11    1    3    3    0    0  0.49318276002E+02  0.13402739475E+01  0.26384411095E+02  0.55948421168E+02  0.51100000000E-03 0. -1.
         22    1    1    0    0    0 -0.21039543423E+02  0.19422110192E+02 -0.99746958452E+01  0.30321202300E+02  0.00000000000E+00 0.  1.
</event>
<event>
 5    1  0.1103865E-009  0.9118800E+02  0.7818608E-02  0.1130116E+00
         25   -1    0    0    0    0  0.00000000000E+00  0.00000000000E+00  0.99999998245E-14  0.12500000000E+03  0.12500000000E+03 0.  0.
        -11    1    3    3    0    0  0.51838082993E+01  0.59578074136E+02 -0.16922552426E+02  0.62151360139E+02  0.51100000000E-03 0. -1.
         23    2    1    0    0    0 -0.13100825546E+01  0.28262635778E+02 -0.50837761138E+01  0.96253910231E+02  0.91861186351E+02 0.  0.
         11    1    3    3    0    0 -0.64938908539E+01 -0.31315438358E+02  0.11838776312E+02  0.34102550092E+02  0.51100000000E-03 0.  1.
         22    1    1    0    0    0  0.13100825546E+01 -0.28262635778E+02  0.50837761138E+01  0.28746089769E+02  0.00000000000E+00 0. -1.
</event>
<event>
 5    1  0.1103865E-009  0.9118800E+02  0.7818608E-02  0.1130116E+00
         25   -1    0    0    0    0  0.00000000000E+00  0.00000000000E+00  0.99999998245E-14  0.12500000000E+03  0.12500000000E+03 0.  0.
        -11    1    3    3    0    0 -0.33353909196E+02  0.41630127609E+02  0.25964172959E+02  0.59326967402E+02  0.51100000000E-03 0.  1.
         23    2    1    0    0    0 -0.15754758195E+02  0.33070778491E+02  0.49622799429E+01  0.88033623143E+02  0.79896218844E+02 0.  0.
         11    1    3    3    0    0  0.17599151001E+02 -0.85593491184E+01 -0.21001893016E+02  0.28706655741E+02  0.51100000000E-03 0. -1.
         22    1    1    0    0    0  0.15754758195E+02 -0.33070778491E+02 -0.49622799429E+01  0.36966376857E+02  0.00000000000E+00 0.  1.
</event>
<event>
 5    1  0.1103865E-009  0.9118800E+02  0.7818608E-02  0.1130116E+00
         25   -1    0    0    0    0  0.00000000000E+00  0.00000000000E+00  0.99999998245E-14  0.12500000000E+03  0.12500000000E+03 0.  0.
        -11    1    3    3    0    0  0.21288249096E+02  0.44625491068E+02 -0.36701911503E+02  0.61576410344E+02  0.51100000000E-03 0.  1.
         23    2    1    0    0    0  0.15325219502E+02  0.16157364665E+02 -0.19703993830E+02  0.95265001117E+02  0.90505526236E+02 0.  0.
         11    1    3    3    0    0 -0.59630295941E+01 -0.28468126403E+02  0.16997917673E+02  0.33688590773E+02  0.51100000000E-03 0. -1.
         22    1    1    0    0    0 -0.15325219502E+02 -0.16157364665E+02  0.19703993830E+02  0.29734998883E+02  0.00000000000E+00 0.  1.
</event>
<event>
 5    1  0.1103865E-009  0.9118800E+02  0.7818608E-02  0.1130116E+00
         25   -1    0    0    0    0  0.00000000000E+00  0.00000000000E+00  0.99999998245E-14  0.12500000000E+03  0.12500000000E+03 0.  0.
        -11    1    3    3    0    0 -0.36988391261E+02  0.31687337976E+02 -0.36069737931E+02  0.60607379672E+02  0.51100000000E-03 0. -1.
         23    2    1    0    0    0 -0.24035285759E+02  0.12465558419E+02 -0.85097798672E+01  0.96618642358E+02  0.92356161622E+02 0.  0.
         11    1    3    3    0    0  0.12953105502E+02 -0.19221779558E+02  0.27559958063E+02  0.36011262686E+02  0.51100000000E-03 0.  1.
         22    1    1    0    0    0  0.24035285759E+02 -0.12465558419E+02  0.85097798672E+01  0.28381357642E+02  0.00000000000E+00 0. -1.
</event>
<event>
 5    1  0.1103865E-009  0.9118800E+02  0.7818608E-02  0.1130116E+00
         25   -1    0    0    0    0  0.00000000000E+00  0.00000000000E+00  0.99999998245E-14  0.12500000000E+03  0.12500000000E+03 0.  0.
        -11    1    3    3    0    0 -0.55001426884E+02 -0.36542841756E+01  0.28299869597E+02  0.61962838634E+02  0.51100000000E-03 0. -1.
         23    2    1    0    0    0 -0.24834461301E+02 -0.70417060473E+01  0.15360164028E+02  0.94962178322E+02  0.90086317388E+02 0.  0.
         11    1    3    3    0    0  0.30166965582E+02 -0.33874218718E+01 -0.12939705569E+02  0.32999339688E+02  0.51100000000E-03 0.  1.
         22    1    1    0    0    0  0.24834461301E+02  0.70417060473E+01 -0.15360164028E+02  0.30037821678E+02  0.00000000000E+00 0. -1.
</event>
<event>
 5    1  0.1103865E-009  0.9118800E+02  0.7818608E-02  0.1130116E+00
         25   -1    0    0    0    0  0.00000000000E+00  0.00000000000E+00  0.99999998245E-14  0.12500000000E+03  0.12500000000E+03 0.  0.
        -11    1    3    3    0    0 -0.99052405482E+01 -0.30229659039E+02  0.51256213463E+02  0.60325330457E+02  0.51100000000E-03 0.  1.
         23    2    1    0    0    0  0.21435507891E+01 -0.22287849503E+02  0.19106183175E+02  0.95565508651E+02  0.90919619240E+02 0.  0.
         11    1    3    3    0    0  0.12048791337E+02  0.79418095359E+01 -0.32150030288E+02  0.35240178194E+02  0.51100000000E-03 0. -1.
         22    1    1    0    0    0 -0.21435507891E+01  0.22287849503E+02 -0.19106183175E+02  0.29434491349E+02  0.00000000000E+00 0.  1.
</event>
<event>
 5    1  0.1103865E-009  0.9118800E+02  0.7818608E-02  0.1130116E+00
         25   -1    0    0    0    0  0.00000000000E+00  0.00000000000E+00  0.99999998245E-14  0.12500000000E+03  0.12500000000E+03 0.  0.
        -11    1    3    3    0    0  0.36797341945E+02  0.11925758274E+01 -0.75953855887E+00  0.36824496065E+02  0.51100000000E-03 0. -1.
         23    2    1    0    0    0 -0.24118159893E+02 -0.31447530404E+01  0.97579588282E+01  0.98793266728E+02  0.95253958878E+02 0.  0.
         11    1    3    3    0    0 -0.60915501838E+02 -0.43373288678E+01  0.10517497387E+02  0.61968770663E+02  0.51100000000E-03 0.  1.
         22    1    1    0    0    0  0.24118159893E+02  0.31447530404E+01 -0.97579588282E+01  0.26206733272E+02  0.00000000000E+00 0.  1.
</event>
<event>
 5    1  0.1103865E-009  0.9118800E+02  0.7818608E-02  0.1130116E+00
         25   -1    0    0    0    0  0.00000000000E+00  0.00000000000E+00  0.99999998245E-14  0.12500000000E+03  0.12500000000E+03 0.  0.
        -11    1    3    3    0    0 -0.48757160900E+02  0.23867935745E+02  0.11272294298E+02  0.55443698603E+02  0.51100000000E-03 0.  1.
         23    2    1    0    0    0 -0.11710837352E+02  0.15546440278E+02  0.22702398203E+02  0.95096247711E+02  0.90272154775E+02 0.  0.
         11    1    3    3    0    0  0.37046323548E+02 -0.83214954675E+01  0.11430103905E+02  0.39652549108E+02  0.51100000000E-03 0. -1.
         22    1    1    0    0    0  0.11710837352E+02 -0.15546440278E+02 -0.22702398203E+02  0.29903752289E+02  0.00000000000E+00 0.  1.
</event>
<event>
 5    1  0.1103865E-009  0.9118800E+02  0.7818608E-02  0.1130116E+00
         25   -1    0    0    0    0  0.00000000000E+00  0.00000000000E+00  0.99999998245E-14  0.12500000000E+03  0.12500000000E+03 0.  0.
        -11    1    3    3    0    0 -0.13357390667E+02  0.37317008697E+02  0.43423099207E+02  0.58792385294E+02  0.51100000000E-03 0. -1.
         23    2    1    0    0    0 -0.14045936095E+01  0.26833236889E+02  0.90797428308E+01  0.96637397598E+02  0.92381542526E+02 0.  0.
         11    1    3    3    0    0  0.11952797057E+02 -0.10483771808E+02 -0.34343356376E+02  0.37845012304E+02  0.51100000000E-03 0.  1.
         22    1    1    0    0    0  0.14045936095E+01 -0.26833236889E+02 -0.90797428308E+01  0.28362602402E+02  0.00000000000E+00 0. -1.
</event>
<event>
 5    1  0.1103865E-009  0.9118800E+02  0.7818608E-02  0.1130116E+00
         25   -1    0    0    0    0  0.00000000000E+00  0.00000000000E+00  0.99999998245E-14  0.12500000000E+03  0.12500000000E+03 0.  0.
        -11    1    3    3    0    0 -0.57780673230E+02  0.41699836619E+01 -0.13795005317E+02  0.59550794576E+02  0.51100000000E-03 0. -1.
         23    2    1    0    0    0 -0.22807562176E+02  0.14970204513E+02 -0.76520125742E+01  0.96665476676E+02  0.92419528072E+02 0.  0.
         11    1    3    3    0    0  0.34973111055E+02  0.10800220852E+02  0.61429927428E+01  0.37114682100E+02  0.51100000000E-03 0.  1.
         22    1    1    0    0    0  0.22807562176E+02 -0.14970204513E+02  0.76520125742E+01  0.28334523324E+02  0.00000000000E+00 0. -1.
</event>
<event>
 5    1  0.1103865E-009  0.9118800E+02  0.7818608E-02  0.1130116E+00
         25   -1    0    0    0    0  0.00000000000E+00  0.00000000000E+00  0.99999998245E-14  0.12500000000E+03  0.12500000000E+03 0.  0.
        -11    1    3    3    0    0  0.54061142166E+02  0.11949080298E+02  0.25436255920E+02  0.60929391329E+02  0.51100000000E-03 0. -1.
         23    2    1    0    0    0  0.24122310890E+02 -0.14579532598E+01  0.18762765049E+02  0.94405018996E+02  0.89309880466E+02 0.  0.
         11    1    3    3    0    0 -0.29938831276E+02 -0.13407033558E+02 -0.66734908708E+01  0.33475627667E+02  0.51100000000E-03 0.  1.
         22    1    1    0    0    0 -0.24122310890E+02  0.14579532598E+01 -0.18762765049E+02  0.30594981004E+02  0.00000000000E+00 0. -1.
</event>
<event>
 5    1  0.1103865E-009  0.9118800E+02  0.7818608E-02  0.1130116E+00
         25   -1    0    0    0    0  0.00000000000E+00  0.00000000000E+00  0.99999998245E-14  0.12500000000E+03  0.12500000000E+03 0.  0.
        -11    1    3    3    0    0  0.34389054613E+02  0.18442071110E+02  0.41670172052E+02  0.57088705565E+02  0.51100000000E-03 0. -1.
         23    2    1    0    0    0 -0.13456113715E+01  0.12993459740E+02  0.24779944646E+02  0.96987746919E+02  0.92854384548E+02 0.  0.
         11    1    3    3    0    0 -0.35734665985E+02 -0.54486113707E+01 -0.16890227406E+02  0.39899041354E+02  0.51100000000E-03 0.  1.
         22    1    1    0    0    0  0.13456113715E+01 -0.12993459740E+02 -0.24779944646E+02  0.28012253081E+02  0.00000000000E+00 0. -1.
</event>
<event>
 5    1  0.1103865E-009  0.9118800E+02  0.7818608E-02  0.1130116E+00
         25   -1    0    0    0    0  0.00000000000E+00  0.00000000000E+00  0.99999998245E-14  0.12500000000E+03  0.12500000000E+03 0.  0.
        -11    1    3    3    0    0  0.65542276220E+01 -0.30610843020E+02  0.18745958331E+02  0.36488252412E+02  0.51100000000E-03 0. -1.
         23    2    1    0    0    0 -0.26856672043E+02  0.71147465529E+01 -0.11128004781E+02  0.95071202127E+02  0.90237467450E+02 0.  0.
         11    1    3    3    0    0 -0.33410899665E+02  0.37725589572E+02 -0.29873963112E+02  0.58582949715E+02  0.51100000000E-03 0.  1.
         22    1    1    0    0    0  0.26856672043E+02 -0.71147465529E+01  0.11128004781E+02  0.29928797873E+02  0.00000000000E+00 0.  1.
</event>
<event>
 5    1  0.1103865E-009  0.9118800E+02  0.7818608E-02  0.1130116E+00
         25   -1    0    0    0    0  0.00000000000E+00  0.00000000000E+00  0.99999998245E-14  0.12500000000E+03  0.12500000000E+03 0.  0.
        -11    1    3    3    0    0 -0.12827375840E+02  0.16528746140E+02  0.47273479421E+02  0.51696449363E+02  0.51100000000E-03 0.  1.
         23    2    1    0    0    0  0.17401193822E+02  0.18495631592E+02  0.17588209815E+02  0.94109304655E+02  0.88895028903E+02 0.  0.
         11    1    3    3    0    0  0.30228569662E+02  0.19668854516E+01 -0.29685269606E+02  0.42412855292E+02  0.51100000000E-03 0. -1.
         22    1    1    0    0    0 -0.17401193822E+02 -0.18495631592E+02 -0.17588209815E+02  0.30890695345E+02  0.00000000000E+00 0.  1.
</event>
<event>
 5    1  0.1103865E-009  0.9118800E+02  0.7818608E-02  0.1130116E+00
         25   -1    0    0    0    0  0.00000000000E+00  0.00000000000E+00  0.99999998245E-14  0.12500000000E+03  0.12500000000E+03 0.  0.
        -11    1    3    3    0    0  0.21752516150E+01  0.20603055907E+02  0.33084139897E+02  0.39035598436E+02  0.51100000000E-03 0.  1.
         23    2    1    0    0    0 -0.60235046399E+01 -0.17626891449E+02 -0.15052451895E+02  0.10105075746E+03  0.98171734040E+02 0.  0.
         11    1    3    3    0    0 -0.81987562549E+01 -0.38229947356E+02 -0.48136591792E+02  0.62015159022E+02  0.51100000000E-03 0. -1.
         22    1    1    0    0    0  0.60235046399E+01  0.17626891449E+02  0.15052451895E+02  0.23949242542E+02  0.00000000000E+00 0. -1.
</event>
<event>
 5    1  0.1103865E-009  0.9118800E+02  0.7818608E-02  0.1130116E+00
         25   -1    0    0    0    0  0.00000000000E+00  0.00000000000E+00  0.99999998245E-14  0.12500000000E+03  0.12500000000E+03 0.  0.
        -11    1    3    3    0    0 -0.14447188944E+02  0.11300082333E+02  0.41225036882E+02  0.45121134685E+02  0.51100000000E-03 0.  1.
         23    2    1    0    0    0  0.16611913534E+02 -0.18805503047E+02  0.13384077829E+02  0.96561713211E+02  0.92279078359E+02 0.  0.
         11    1    3    3    0    0  0.31059102479E+02 -0.30105585380E+02 -0.27840959053E+02  0.51440578526E+02  0.51100000000E-03 0. -1.
         22    1    1    0    0    0 -0.16611913534E+02  0.18805503047E+02 -0.13384077829E+02  0.28438286789E+02  0.00000000000E+00 0. -1.
</event>
<event>
 5    1  0.1103865E-009  0.9118800E+02  0.7818608E-02  0.1130116E+00
         25   -1    0    0    0    0  0.00000000000E+00  0.00000000000E+00  0.99999998245E-14  0.12500000000E+03  0.12500000000E+03 0.  0.
        -11    1    3    3    0    0  0.16456588132E+01  0.18363175647E+02  0.36326327593E+02  0.40737163493E+02  0.51100000000E-03 0.  1.
         23    2    1    0    0    0  0.16365954720E+02 -0.23526771313E+02  0.31413374640E+01  0.96169088753E+02  0.91745693022E+02 0.  0.
         11    1    3    3    0    0  0.14720295907E+02 -0.41889946960E+02 -0.33184990129E+02  0.55431925260E+02  0.51100000000E-03 0. -1.
         22    1    1    0    0    0 -0.16365954720E+02  0.23526771313E+02 -0.31413374640E+01  0.28830911247E+02  0.00000000000E+00 0. -1.
</event>
<event>
 5    1  0.1103865E-009  0.9118800E+02  0.7818608E-02  0.1130116E+00
         25   -1    0    0    0    0  0.00000000000E+00  0.00000000000E+00  0.99999998245E-14  0.12500000000E+03  0.12500000000E+03 0.  0.
        -11    1    3    3    0    0 -0.27902293286E+01  0.35079269779E+02 -0.13853153487E+02  0.37818651612E+02  0.51100000000E-03 0. -1.
         23    2    1    0    0    0  0.57436475970E+01 -0.92088018951E+01  0.25252616880E+02  0.97513891156E+02  0.93559995666E+02 0.  0.
         11    1    3    3    0    0  0.85338769256E+01 -0.44288071674E+02  0.39105770367E+02  0.59695239544E+02  0.51100000000E-03 0.  1.
         22    1    1    0    0    0 -0.57436475970E+01  0.92088018951E+01 -0.25252616880E+02  0.27486108844E+02  0.00000000000E+00 0.  1.
</event>
<event>
 5    1  0.1103865E-009  0.9118800E+02  0.7818608E-02  0.1130116E+00
         25   -1    0    0    0    0  0.00000000000E+00  0.00000000000E+00  0.99999998245E-14  0.12500000000E+03  0.12500000000E+03 0.  0.
        -11    1    3    3    0    0  0.30347380316E+02  0.97725278943E+01 -0.33377030294E+02  0.46157252355E+02  0.51100000000E-03 0.  1.
         23    2    1    0    0    0 -0.13358236057E+02  0.21550651150E+02 -0.17773399709E+02  0.94036040744E+02  0.88791948881E+02 0.  0.
         11    1    3    3    0    0 -0.43705616373E+02  0.11778123256E+02  0.15603630584E+02  0.47878788389E+02  0.51100000000E-03 0. -1.
         22    1    1    0    0    0  0.13358236057E+02 -0.21550651150E+02  0.17773399709E+02  0.30963959256E+02  0.00000000000E+00 0. -1.
</event>
<event>
 5    1  0.1103865E-009  0.9118800E+02  0.7818608E-02  0.1130116E+00
         25   -1    0    0    0    0  0.00000000000E+00  0.00000000000E+00  0.99999998245E-14  0.12500000000E+03  0.12500000000E+03 0.  0.
        -11    1    3    3    0    0  0.18210357615E+02 -0.21863308597E+02  0.29443986687E+02  0.40945936789E+02  0.51100000000E-03 0.  1.
         23    2    1    0    0    0  0.19085628895E+02 -0.41167324977E+01 -0.22126088755E+02  0.95491145052E+02  0.90817323584E+02 0.  0.
         11    1    3    3    0    0  0.87527127981E+00  0.17746576100E+02 -0.51570075442E+02  0.54545208262E+02  0.51100000000E-03 0. -1.
         22    1    1    0    0    0 -0.19085628895E+02  0.41167324977E+01  0.22126088755E+02  0.29508854948E+02  0.00000000000E+00 0.  1.
</event>
<event>
 5    1  0.1103865E-009  0.9118800E+02  0.7818608E-02  0.1130116E+00
         25   -1    0    0    0    0  0.00000000000E+00  0.00000000000E+00  0.99999998245E-14  0.12500000000E+03  0.12500000000E+03 0.  0.
        -11    1    3    3    0    0  0.24706700834E+02  0.22054082753E+02 -0.47392719485E+02  0.57817588091E+02  0.51100000000E-03 0.  1.
         23    2    1    0    0    0  0.22974076437E+02  0.14908680043E+02 -0.10129490044E+02  0.95799255193E+02  0.91240417569E+02 0.  0.
         11    1    3    3    0    0 -0.17326243975E+01 -0.71454027105E+01  0.37263229441E+02  0.37981667102E+02  0.51100000000E-03 0. -1.
         22    1    1    0    0    0 -0.22974076437E+02 -0.14908680043E+02  0.10129490044E+02  0.29200744807E+02  0.00000000000E+00 0.  1.
</event>
<event>
 5    1  0.1103865E-009  0.9118800E+02  0.7818608E-02  0.1130116E+00
         25   -1    0    0    0    0  0.00000000000E+00  0.00000000000E+00  0.99999998245E-14  0.12500000000E+03  0.12500000000E+03 0.  0.
        -11    1    3    3    0    0  0.10719569549E+02 -0.14020781593E+02  0.33134672248E+02  0.37541949776E+02  0.51100000000E-03 0. -1.
         23    2    1    0    0    0 -0.23520816352E+02 -0.15693042708E+02 -0.12053957493E+02  0.94262428811E+02  0.89110084743E+02 0.  0.
         11    1    3    3    0    0 -0.34240385901E+02 -0.16722611158E+01 -0.45188629740E+02  0.56720479035E+02  0.51100000000E-03 0.  1.
         22    1    1    0    0    0  0.23520816352E+02  0.15693042708E+02  0.12053957493E+02  0.30737571189E+02  0.00000000000E+00 0.  1.
</event>
<event>
 5    1  0.1103865E-009  0.9118800E+02  0.7818608E-02  0.1130116E+00
         25   -1    0    0    0    0  0.00000000000E+00  0.00000000000E+00  0.99999998245E-14  0.12500000000E+03  0.12500000000E+03 0.  0.
        -11    1    3    3    0    0  0.67488956888E+01  0.79140344945E+01 -0.22809361251E+02  0.25068835154E+02  0.51100000000E-03 0.  1.
         23    2    1    0    0    0 -0.28362556507E+02  0.11998937387E+02  0.25560398020E+02  0.84978217718E+02  0.74963687406E+02 0.  0.
         11    1    3    3    0    0 -0.35111452196E+02  0.40849028925E+01  0.48369759272E+02  0.59909382564E+02  0.51100000000E-03 0. -1.
         22    1    1    0    0    0  0.28362556507E+02 -0.11998937387E+02 -0.25560398020E+02  0.40021782282E+02  0.00000000000E+00 0. -1.
</event>
<event>
 5    1  0.1103865E-009  0.9118800E+02  0.7818608E-02  0.1130116E+00
         25   -1    0    0    0    0  0.00000000000E+00  0.00000000000E+00  0.99999998245E-14  0.12500000000E+03  0.12500000000E+03 0.  0.
        -11    1    3    3    0    0 -0.35519329478E+02 -0.27173652335E+02 -0.18748870405E+02  0.48492785953E+02  0.51100000000E-03 0. -1.
         23    2    1    0    0    0 -0.17152464491E+02 -0.10314289981E+02  0.21365888130E+02  0.95723852858E+02  0.91137057306E+02 0.  0.
         11    1    3    3    0    0  0.18366864987E+02  0.16859362354E+02  0.40114758534E+02  0.47231066905E+02  0.51100000000E-03 0.  1.
         22    1    1    0    0    0  0.17152464491E+02  0.10314289981E+02 -0.21365888130E+02  0.29276147142E+02  0.00000000000E+00 0. -1.
</event>
<event>
 5    1  0.1103865E-009  0.9118800E+02  0.7818608E-02  0.1130116E+00
         25   -1    0    0    0    0  0.00000000000E+00  0.00000000000E+00  0.99999998245E-14  0.12500000000E+03  0.12500000000E+03 0.  0.
        -11    1    3    3    0    0  0.11174998123E+02 -0.14500040603E+02 -0.34824237708E+02  0.39342842967E+02  0.51100000000E-03 0.  1.
         23    2    1    0    0    0 -0.29943523135E+02 -0.18387127077E+01  0.47818970025E+00  0.94996265106E+02  0.90133602372E+02 0.  0.
         11    1    3    3    0    0 -0.41118521259E+02  0.12661327895E+02  0.35302427408E+02  0.55653422139E+02  0.51100000000E-03 0. -1.
         22    1    1    0    0    0  0.29943523135E+02  0.18387127077E+01 -0.47818970025E+00  0.30003734894E+02  0.00000000000E+00 0. -1.
</event>
<event>
 5    1  0.1103865E-009  0.9118800E+02  0.7818608E-02  0.1130116E+00
         25   -1    0    0    0    0  0.00000000000E+00  0.00000000000E+00  0.99999998245E-14  0.12500000000E+03  0.12500000000E+03 0.  0.
        -11    1    3    3    0    0  0.87033379716E+00 -0.24573682998E+02 -0.28375251273E+02  0.37547014023E+02  0.51100000000E-03 0.  1.
         23    2    1    0    0    0 -0.23501661102E+02  0.17806285797E+02  0.25647518274E+01  0.95403212330E+02  0.90696213165E+02 0.  0.
         11    1    3    3    0    0 -0.24371994899E+02  0.42379968795E+02  0.30940003101E+02  0.57856198307E+02  0.51100000000E-03 0. -1.
         22    1    1    0    0    0  0.23501661102E+02 -0.17806285797E+02 -0.25647518274E+01  0.29596787670E+02  0.00000000000E+00 0. -1.
</event>
<event>
 5    1  0.1103865E-009  0.9118800E+02  0.7818608E-02  0.1130116E+00
         25   -1    0    0    0    0  0.00000000000E+00  0.00000000000E+00  0.99999998245E-14  0.12500000000E+03  0.12500000000E+03 0.  0.
        -11    1    3    3    0    0  0.34832731668E+02 -0.11515481391E+02 -0.50715151779E+01  0.37035736439E+02  0.51100000000E-03 0.  1.
         23    2    1    0    0    0 -0.21501898820E+02 -0.19111924253E+02  0.75355169512E+01  0.95261450653E+02  0.90500622447E+02 0.  0.
         11    1    3    3    0    0 -0.56334630488E+02 -0.75964428620E+01  0.12607032129E+02  0.58225714214E+02  0.51100000000E-03 0. -1.
         22    1    1    0    0    0  0.21501898820E+02  0.19111924253E+02 -0.75355169512E+01  0.29738549347E+02  0.00000000000E+00 0. -1.
</event>
<event>
 5    1  0.1103865E-009  0.9118800E+02  0.7818608E-02  0.1130116E+00
         25   -1    0    0    0    0  0.00000000000E+00  0.00000000000E+00  0.99999998245E-14  0.12500000000E+03  0.12500000000E+03 0.  0.
        -11    1    3    3    0    0 -0.58587096878E+00 -0.79448745799E+01 -0.39244305547E+02  0.40044722436E+02  0.51100000000E-03 0.  1.
         23    2    1    0    0    0  0.26573764634E+02  0.10355463595E+02  0.59580947607E+01  0.95864120294E+02  0.91329239970E+02 0.  0.
         11    1    3    3    0    0  0.27159635603E+02  0.18300338175E+02  0.45202400307E+02  0.55819397858E+02  0.51100000000E-03 0. -1.
         22    1    1    0    0    0 -0.26573764634E+02 -0.10355463595E+02 -0.59580947607E+01  0.29135879706E+02  0.00000000000E+00 0. -1.
</event>
<event>
 5    1  0.1103865E-009  0.9118800E+02  0.7818608E-02  0.1130116E+00
         25   -1    0    0    0    0  0.00000000000E+00  0.00000000000E+00  0.99999998245E-14  0.12500000000E+03  0.12500000000E+03 0.  0.
        -11    1    3    3    0    0  0.43847570331E+02 -0.14735281425E+02  0.14243651278E+02  0.48400615127E+02  0.51100000000E-03 0. -1.
         23    2    1    0    0    0  0.62425809264E+01  0.12372149233E+02  0.25386206167E+02  0.96077701391E+02  0.91621096631E+02 0.  0.
         11    1    3    3    0    0 -0.37604989405E+02  0.27107430658E+02  0.11142554889E+02  0.47677086265E+02  0.51100000000E-03 0.  1.
         22    1    1    0    0    0 -0.62425809264E+01 -0.12372149233E+02 -0.25386206167E+02  0.28922298609E+02  0.00000000000E+00 0.  1.
</event>
<event>
 5    1  0.1103865E-009  0.9118800E+02  0.7818608E-02  0.1130116E+00
         25   -1    0    0    0    0  0.00000000000E+00  0.00000000000E+00  0.99999998245E-14  0.12500000000E+03  0.12500000000E+03 0.  0.
        -11    1    3    3    0    0 -0.23637519665E+02 -0.21695957142E+01 -0.23846390348E+02  0.33646542383E+02  0.51100000000E-03 0. -1.
         23    2    1    0    0    0  0.74474748886E+01  0.55815814851E+01  0.28500265557E+02  0.95018604587E+02  0.90164578115E+02 0.  0.
         11    1    3    3    0    0  0.31084994554E+02  0.77511771993E+01  0.52346655905E+02  0.61372062203E+02  0.51100000000E-03 0.  1.
         22    1    1    0    0    0 -0.74474748886E+01 -0.55815814851E+01 -0.28500265557E+02  0.29981395413E+02  0.00000000000E+00 0.  1.
</event>
<event>
 5    1  0.1103865E-009  0.9118800E+02  0.7818608E-02  0.1130116E+00
         25   -1    0    0    0    0  0.00000000000E+00  0.00000000000E+00  0.99999998245E-14  0.12500000000E+03  0.12500000000E+03 0.  0.
        -11    1    3    3    0    0  0.45018748909E+02  0.12167600290E+02 -0.35625308892E+02  0.58684758533E+02  0.51100000000E-03 0.  1.
         23    2    1    0    0    0  0.25905647496E+02  0.11597759471E+02 -0.30556440171E+01  0.96452713661E+02  0.92131310722E+02 0.  0.
         11    1    3    3    0    0 -0.19113101413E+02 -0.56984081884E+00  0.32569664875E+02  0.37767955128E+02  0.51100000000E-03 0. -1.
         22    1    1    0    0    0 -0.25905647496E+02 -0.11597759471E+02  0.30556440171E+01  0.28547286339E+02  0.00000000000E+00 0.  1.
</event>
<event>
 5    1  0.1103865E-009  0.9118800E+02  0.7818608E-02  0.1130116E+00
         25   -1    0    0    0    0  0.00000000000E+00  0.00000000000E+00  0.99999998245E-14  0.12500000000E+03  0.12500000000E+03 0.  0.
        -11    1    3    3    0    0 -0.42056095913E+02  0.36582374966E+02 -0.26148217709E-01  0.55740344864E+02  0.51100000000E-03 0.  1.
         23    2    1    0    0    0 -0.91370671137E+01  0.16085998196E+02 -0.18625293972E+02  0.98748392260E+02  0.95195052734E+02 0.  0.
         11    1    3    3    0    0  0.32919028799E+02 -0.20496376770E+02 -0.18599145754E+02  0.43008047396E+02  0.51100000000E-03 0. -1.
         22    1    1    0    0    0  0.91370671137E+01 -0.16085998196E+02  0.18625293972E+02  0.26251607740E+02  0.00000000000E+00 0. -1.
</event>
<event>
 5    1  0.1103865E-009  0.9118800E+02  0.7818608E-02  0.1130116E+00
         25   -1    0    0    0    0  0.00000000000E+00  0.00000000000E+00  0.99999998245E-14  0.12500000000E+03  0.12500000000E+03 0.  0.
        -11    1    3    3    0    0  0.21699701215E+02 -0.10421462999E+02 -0.29023630389E+02  0.37707493222E+02  0.51100000000E-03 0.  1.
         23    2    1    0    0    0  0.17997807532E+02  0.71817722914E+00  0.25666866909E+02  0.93643582612E+02  0.88237722392E+02 0.  0.
         11    1    3    3    0    0 -0.37018936827E+01  0.11139640228E+02  0.54690497298E+02  0.55936089390E+02  0.51100000000E-03 0. -1.
         22    1    1    0    0    0 -0.17997807532E+02 -0.71817722914E+00 -0.25666866909E+02  0.31356417388E+02  0.00000000000E+00 0. -1.
</event>
<event>
 5    1  0.1103865E-009  0.9118800E+02  0.7818608E-02  0.1130116E+00
         25   -1    0    0    0    0  0.00000000000E+00  0.00000000000E+00  0.99999998245E-14  0.12500000000E+03  0.12500000000E+03 0.  0.
        -11    1    3    3    0    0 -0.34087585471E+02  0.88975836884E+01  0.18171783641E+02  0.39640184153E+02  0.51100000000E-03 0.  1.
         23    2    1    0    0    0  0.22717858098E+02  0.31149377164E+01  0.16475618580E+02  0.96764385590E+02  0.92553208466E+02 0.  0.
         11    1    3    3    0    0  0.56805443569E+02 -0.57826459719E+01 -0.16961650609E+01  0.57124201436E+02  0.51100000000E-03 0. -1.
         22    1    1    0    0    0 -0.22717858098E+02 -0.31149377164E+01 -0.16475618580E+02  0.28235614410E+02  0.00000000000E+00 0. -1.
</event>
<event>
 5    1  0.1103865E-009  0.9118800E+02  0.7818608E-02  0.1130116E+00
         25   -1    0    0    0    0  0.00000000000E+00  0.00000000000E+00  0.99999998245E-14  0.12500000000E+03  0.12500000000E+03 0.  0.
        -11    1    3    3    0    0  0.33521792603E+02 -0.89052451283E+01 -0.12213015501E+02  0.36771887604E+02  0.51100000000E-03 0. -1.
         23    2    1    0    0    0 -0.12437706296E+02 -0.66572143251E+01  0.25228776277E+02  0.96094876010E+02  0.91644525218E+02 0.  0.
         11    1    3    3    0    0 -0.45959498899E+02  0.22480308031E+01  0.37441791778E+02  0.59322988405E+02  0.51100000000E-03 0.  1.
         22    1    1    0    0    0  0.12437706296E+02  0.66572143251E+01 -0.25228776277E+02  0.28905123990E+02  0.00000000000E+00 0.  1.
</event>
<event>
 5    1  0.1103865E-009  0.9118800E+02  0.7818608E-02  0.1130116E+00
         25   -1    0    0    0    0  0.00000000000E+00  0.00000000000E+00  0.99999998245E-14  0.12500000000E+03  0.12500000000E+03 0.  0.
        -11    1    3    3    0    0  0.40387320928E+02 -0.23819145440E+02  0.70766004562E+01  0.47419043174E+02  0.51100000000E-03 0. -1.
         23    2    1    0    0    0  0.21338871543E+02  0.92808042894E+01 -0.20067369072E+02  0.94272486783E+02  0.89124192540E+02 0.  0.
         11    1    3    3    0    0 -0.19048449385E+02  0.33099949729E+02 -0.27143969528E+02  0.46853443610E+02  0.51100000000E-03 0.  1.
         22    1    1    0    0    0 -0.21338871543E+02 -0.92808042894E+01  0.20067369072E+02  0.30727513217E+02  0.00000000000E+00 0.  1.
</event>
<event>
 5    1  0.1103865E-009  0.9118800E+02  0.7818608E-02  0.1130116E+00
         25   -1    0    0    0    0  0.00000000000E+00  0.00000000000E+00  0.99999998245E-14  0.12500000000E+03  0.12500000000E+03 0.  0.
        -11    1    3    3    0    0  0.10685445138E+02 -0.31287906158E+02  0.55455689728E+01  0.33524097975E+02  0.51100000000E-03 0.  1.
         23    2    1    0    0    0 -0.12111461784E+02  0.25050687156E+02 -0.85071013578E+01  0.95903690835E+02  0.91383383111E+02 0.  0.
         11    1    3    3    0    0 -0.22796906921E+02  0.56338593313E+02 -0.14052670331E+02  0.62379592860E+02  0.51100000000E-03 0. -1.
         22    1    1    0    0    0  0.12111461784E+02 -0.25050687156E+02  0.85071013578E+01  0.29096309165E+02  0.00000000000E+00 0. -1.
</event>
<event>
 5    1  0.1103865E-009  0.9118800E+02  0.7818608E-02  0.1130116E+00
         25   -1    0    0    0    0  0.00000000000E+00  0.00000000000E+00  0.99999998245E-14  0.12500000000E+03  0.12500000000E+03 0.  0.
        -11    1    3    3    0    0  0.39070689729E+02 -0.25425461985E+02 -0.26492653124E+02  0.53617474603E+02  0.51100000000E-03 0.  1.
         23    2    1    0    0    0  0.10279548190E+02 -0.24191803639E+02  0.69974171721E+01  0.97799332336E+02  0.93940582732E+02 0.  0.
         11    1    3    3    0    0 -0.28791141538E+02  0.12336583465E+01  0.33490070296E+02  0.44181857733E+02  0.51100000000E-03 0. -1.
         22    1    1    0    0    0 -0.10279548190E+02  0.24191803639E+02 -0.69974171721E+01  0.27200667664E+02  0.00000000000E+00 0.  1.
</event>
<event>
 5    1  0.1103865E-009  0.9118800E+02  0.7818608E-02  0.1130116E+00
         25   -1    0    0    0    0  0.00000000000E+00  0.00000000000E+00  0.99999998245E-14  0.12500000000E+03  0.12500000000E+03 0.  0.
        -11    1    3    3    0    0  0.37464883380E+02  0.37738012115E+02  0.13329656896E+02  0.54822028404E+02  0.51100000000E-03 0.  1.
         23    2    1    0    0    0 -0.12051935548E+01  0.26123983198E+02  0.14267603397E+02  0.95209405909E+02  0.90428709364E+02 0.  0.
         11    1    3    3    0    0 -0.38670076935E+02 -0.11614028917E+02  0.93794650083E+00  0.40387377505E+02  0.51100000000E-03 0. -1.
         22    1    1    0    0    0  0.12051935548E+01 -0.26123983198E+02 -0.14267603397E+02  0.29790594091E+02  0.00000000000E+00 0.  1.
</event>
<event>
 5    1  0.1103865E-009  0.9118800E+02  0.7818608E-02  0.1130116E+00
         25   -1    0    0    0    0  0.00000000000E+00  0.00000000000E+00  0.99999998245E-14  0.12500000000E+03  0.12500000000E+03 0.  0.
        -11    1    3    3    0    0  0.28134723091E+02  0.94587541371E+01 -0.48484974597E+02  0.56849128710E+02  0.51100000000E-03 0. -1.
         23    2    1    0    0    0  0.13198332827E+02 -0.14525490524E+02 -0.20627262184E+02  0.96527736135E+02  0.92233041985E+02 0.  0.
         11    1    3    3    0    0 -0.14936390264E+02 -0.23984244661E+02  0.27857712412E+02  0.39678607425E+02  0.51100000000E-03 0.  1.
         22    1    1    0    0    0 -0.13198332827E+02  0.14525490524E+02  0.20627262184E+02  0.28472263865E+02  0.00000000000E+00 0. -1.
</event>
<event>
 5    1  0.1103865E-009  0.9118800E+02  0.7818608E-02  0.1130116E+00
         25   -1    0    0    0    0  0.00000000000E+00  0.00000000000E+00  0.99999998245E-14  0.12500000000E+03  0.12500000000E+03 0.  0.
        -11    1    3    3    0    0  0.51806214624E+02  0.21759727197E+02  0.23856863476E+02  0.61045225338E+02  0.51100000000E-03 0. -1.
         23    2    1    0    0    0  0.18448136701E+02  0.15797507014E+02  0.16256556135E+02  0.95773802968E+02  0.91205541181E+02 0.  0.
         11    1    3    3    0    0 -0.33358077924E+02 -0.59622201833E+01 -0.76003073409E+01  0.34728577630E+02  0.51100000000E-03 0.  1.
         22    1    1    0    0    0 -0.18448136701E+02 -0.15797507014E+02 -0.16256556135E+02  0.29226197032E+02  0.00000000000E+00 0. -1.
</event>
<event>
 5    1  0.1103865E-009  0.9118800E+02  0.7818608E-02  0.1130116E+00
         25   -1    0    0    0    0  0.00000000000E+00  0.00000000000E+00  0.99999998245E-14  0.12500000000E+03  0.12500000000E+03 0.  0.
        -11    1    3    3    0    0 -0.22089498180E+02 -0.28223645092E+02  0.18685402747E+02  0.40418613883E+02  0.51100000000E-03 0. -1.
         23    2    1    0    0    0 -0.90766737611E+01 -0.22227551407E+01 -0.28035599252E+02  0.95447987000E+02  0.90757901859E+02 0.  0.
         11    1    3    3    0    0  0.13012824418E+02  0.26000889951E+02 -0.46721001999E+02  0.55029373117E+02  0.51100000000E-03 0.  1.
         22    1    1    0    0    0  0.90766737611E+01  0.22227551407E+01  0.28035599252E+02  0.29552013000E+02  0.00000000000E+00 0. -1.
</event>
<event>
 5    1  0.1103865E-009  0.9118800E+02  0.7818608E-02  0.1130116E+00
         25   -1    0    0    0    0  0.00000000000E+00  0.00000000000E+00  0.99999998245E-14  0.12500000000E+03  0.12500000000E+03 0.  0.
        -11    1    3    3    0    0  0.31006490329E+02 -0.52366496466E+02 -0.59574906579E+01  0.61148541191E+02  0.51100000000E-03 0. -1.
         23    2    1    0    0    0  0.19298017341E+02 -0.20611824324E+02  0.41286453019E+01  0.96463944083E+02  0.92146546440E+02 0.  0.
         11    1    3    3    0    0 -0.11708472988E+02  0.31754672142E+02  0.10086135960E+02  0.35315402892E+02  0.51100000000E-03 0.  1.
         22    1    1    0    0    0 -0.19298017341E+02  0.20611824324E+02 -0.41286453019E+01  0.28536055917E+02  0.00000000000E+00 0. -1.
</event>
<event>
 5    1  0.1103865E-009  0.9118800E+02  0.7818608E-02  0.1130116E+00
         25   -1    0    0    0    0  0.00000000000E+00  0.00000000000E+00  0.99999998245E-14  0.12500000000E+03  0.12500000000E+03 0.  0.
        -11    1    3    3    0    0 -0.30262557062E+01  0.37542866601E+02 -0.19533382856E+02  0.42428505775E+02  0.51100000000E-03 0.  1.
         23    2    1    0    0    0  0.13163650899E+02 -0.32033151100E+01 -0.33840347305E+02  0.88548497447E+02  0.80697734551E+02 0.  0.
         11    1    3    3    0    0  0.16189906605E+02 -0.40746181711E+02 -0.14306964448E+02  0.46119991672E+02  0.51100000000E-03 0. -1.
         22    1    1    0    0    0 -0.13163650899E+02  0.32033151100E+01  0.33840347305E+02  0.36451502553E+02  0.00000000000E+00 0.  1.
</event>
<event>
 5    1  0.1103865E-009  0.9118800E+02  0.7818608E-02  0.1130116E+00
         25   -1    0    0    0    0  0.00000000000E+00  0.00000000000E+00  0.99999998245E-14  0.12500000000E+03  0.12500000000E+03 0.  0.
        -11    1    3    3    0    0 -0.84765136274E+01 -0.42623848887E+00 -0.28457136208E+02  0.29695817280E+02  0.51100000000E-03 0. -1.
         23    2    1    0    0    0  0.11486980173E+02 -0.13673601076E+02  0.28432251546E+02  0.91424547541E+02  0.85036091662E+02 0.  0.
         11    1    3    3    0    0  0.19963493800E+02 -0.13247362587E+02  0.56889387754E+02  0.61728730260E+02  0.51100000000E-03 0.  1.
         22    1    1    0    0    0 -0.11486980173E+02  0.13673601076E+02 -0.28432251546E+02  0.33575452459E+02  0.00000000000E+00 0.  1.
</event>
<event>
 5    1  0.1103865E-009  0.9118800E+02  0.7818608E-02  0.1130116E+00
         25   -1    0    0    0    0  0.00000000000E+00  0.00000000000E+00  0.99999998245E-14  0.12500000000E+03  0.12500000000E+03 0.  0.
        -11    1    3    3    0    0 -0.47156205051E+01 -0.31463789537E+02 -0.39446130245E+02  0.50677453767E+02  0.51100000000E-03 0.  1.
         23    2    1    0    0    0 -0.17972660425E+02 -0.24351346929E+02  0.18992357480E+01  0.94674899564E+02  0.89686815592E+02 0.  0.
         11    1    3    3    0    0 -0.13257039920E+02  0.71124426079E+01  0.41345365993E+02  0.43997445797E+02  0.51100000000E-03 0. -1.
         22    1    1    0    0    0  0.17972660425E+02  0.24351346929E+02 -0.18992357480E+01  0.30325100436E+02  0.00000000000E+00 0. -1.
</event>
<event>
 5    1  0.1103865E-009  0.9118800E+02  0.7818608E-02  0.1130116E+00
         25   -1    0    0    0    0  0.00000000000E+00  0.00000000000E+00  0.99999998245E-14  0.12500000000E+03  0.12500000000E+03 0.  0.
        -11    1    3    3    0    0 -0.19373474925E+02  0.15444322033E+01  0.45173200208E+02  0.49176567782E+02  0.51100000000E-03 0. -1.
         23    2    1    0    0    0 -0.18456193916E+01 -0.26443129168E+02  0.12281143470E+02  0.95785759019E+02  0.91221925845E+02 0.  0.
         11    1    3    3    0    0  0.17527855533E+02 -0.27987561371E+02 -0.32892056738E+02  0.46609191237E+02  0.51100000000E-03 0.  1.
         22    1    1    0    0    0  0.18456193916E+01  0.26443129168E+02 -0.12281143470E+02  0.29214240981E+02  0.00000000000E+00 0. -1.
</event>
<event>
 5    1  0.1103865E-009  0.9118800E+02  0.7818608E-02  0.1130116E+00
         25   -1    0    0    0    0  0.00000000000E+00  0.00000000000E+00  0.99999998245E-14  0.12500000000E+03  0.12500000000E+03 0.  0.
        -11    1    3    3    0    0 -0.81072257114E+01 -0.15348542115E+02  0.59489815780E+02  0.61970501334E+02  0.51100000000E-03 0. -1.
         23    2    1    0    0    0 -0.14351390348E+01 -0.12334738018E+02  0.26907150950E+02  0.95365557905E+02  0.90644301951E+02 0.  0.
         11    1    3    3    0    0  0.66720866766E+01  0.30138040971E+01 -0.32582664829E+02  0.33395056571E+02  0.51100000000E-03 0.  1.
         22    1    1    0    0    0  0.14351390348E+01  0.12334738018E+02 -0.26907150950E+02  0.29634442095E+02  0.00000000000E+00 0. -1.
</event>
<event>
 5    1  0.1103865E-009  0.9118800E+02  0.7818608E-02  0.1130116E+00
         25   -1    0    0    0    0  0.00000000000E+00  0.00000000000E+00  0.99999998245E-14  0.12500000000E+03  0.12500000000E+03 0.  0.
        -11    1    3    3    0    0 -0.25227991551E+02 -0.18407119255E+02  0.25027832741E+02  0.40020819693E+02  0.51100000000E-03 0.  1.
         23    2    1    0    0    0  0.24298933304E+02 -0.16955645662E+02  0.36471784955E+00  0.95367836754E+02  0.90647444468E+02 0.  0.
         11    1    3    3    0    0  0.49526924854E+02  0.14514735928E+01 -0.24663114891E+02  0.55347017061E+02  0.51100000000E-03 0. -1.
         22    1    1    0    0    0 -0.24298933304E+02  0.16955645662E+02 -0.36471784955E+00  0.29632163246E+02  0.00000000000E+00 0. -1.
</event>
<event>
 5    1  0.1103865E-009  0.9118800E+02  0.7818608E-02  0.1130116E+00
         25   -1    0    0    0    0  0.00000000000E+00  0.00000000000E+00  0.99999998245E-14  0.12500000000E+03  0.12500000000E+03 0.  0.
        -11    1    3    3    0    0  0.19983124911E+01  0.89346116369E+01  0.42224121506E+02  0.43205288740E+02  0.51100000000E-03 0. -1.
         23    2    1    0    0    0  0.11056217579E+02 -0.26003331442E+02  0.28792291450E+01  0.96597479801E+02  0.92327514589E+02 0.  0.
         11    1    3    3    0    0  0.90579050874E+01 -0.34937943079E+02 -0.39344892361E+02  0.53392191061E+02  0.51100000000E-03 0.  1.
         22    1    1    0    0    0 -0.11056217579E+02  0.26003331442E+02 -0.28792291450E+01  0.28402520199E+02  0.00000000000E+00 0.  1.
</event>
<event>
 5    1  0.1103865E-009  0.9118800E+02  0.7818608E-02  0.1130116E+00
         25   -1    0    0    0    0  0.00000000000E+00  0.00000000000E+00  0.99999998245E-14  0.12500000000E+03  0.12500000000E+03 0.  0.
        -11    1    3    3    0    0  0.26178309983E+02  0.11075663177E+02  0.39200430875E+02  0.48421565541E+02  0.51100000000E-03 0. -1.
         23    2    1    0    0    0 -0.79235393582E+01 -0.17652461805E+02  0.20607258776E+02  0.96732509874E+02  0.92510147922E+02 0.  0.
         11    1    3    3    0    0 -0.34101849341E+02 -0.28728124982E+02 -0.18593172099E+02  0.48310944334E+02  0.51100000000E-03 0.  1.
         22    1    1    0    0    0  0.79235393582E+01  0.17652461805E+02 -0.20607258776E+02  0.28267490126E+02  0.00000000000E+00 0. -1.
</event>
<event>
 5    1  0.1103865E-009  0.9118800E+02  0.7818608E-02  0.1130116E+00
         25   -1    0    0    0    0  0.00000000000E+00  0.00000000000E+00  0.99999998245E-14  0.12500000000E+03  0.12500000000E+03 0.  0.
        -11    1    3    3    0    0  0.20683217745E+02 -0.36798019612E+02  0.88727675676E+00  0.42221759840E+02  0.51100000000E-03 0. -1.
         23    2    1    0    0    0 -0.14020361972E+02 -0.30053788921E+01 -0.24275436019E+02  0.96806035291E+02  0.92609442406E+02 0.  0.
         11    1    3    3    0    0 -0.34703579717E+02  0.33792640720E+02 -0.25162712776E+02  0.54584275451E+02  0.51100000000E-03 0.  1.
         22    1    1    0    0    0  0.14020361972E+02  0.30053788921E+01  0.24275436019E+02  0.28193964709E+02  0.00000000000E+00 0.  1.
</event>
<event>
 5    1  0.1103865E-009  0.9118800E+02  0.7818608E-02  0.1130116E+00
         25   -1    0    0    0    0  0.00000000000E+00  0.00000000000E+00  0.99999998245E-14  0.12500000000E+03  0.12500000000E+03 0.  0.
        -11    1    3    3    0    0 -0.27420535196E+02 -0.20812044207E+02  0.82248434201E+01  0.35393148829E+02  0.51100000000E-03 0. -1.
         23    2    1    0    0    0  0.16081308844E+02  0.93490120457E+01 -0.21873471362E+02  0.96286566388E+02  0.91905612435E+02 0.  0.
         11    1    3    3    0    0  0.43501844040E+02  0.30161056252E+02 -0.30098314782E+02  0.60893417559E+02  0.51100000000E-03 0.  1.
         22    1    1    0    0    0 -0.16081308844E+02 -0.93490120457E+01  0.21873471362E+02  0.28713433612E+02  0.00000000000E+00 0.  1.
</event>
<event>
 5    1  0.1103865E-009  0.9118800E+02  0.7818608E-02  0.1130116E+00
         25   -1    0    0    0    0  0.00000000000E+00  0.00000000000E+00  0.99999998245E-14  0.12500000000E+03  0.12500000000E+03 0.  0.
        -11    1    3    3    0    0 -0.43549413152E+02  0.30645791393E+02 -0.22282637253E+02  0.57725486912E+02  0.51100000000E-03 0. -1.
         23    2    1    0    0    0 -0.16119001999E+02  0.22132720522E+02  0.48005776516E+01  0.97202066823E+02  0.93142453831E+02 0.  0.
         11    1    3    3    0    0  0.27430411153E+02 -0.85130708717E+01  0.27083214904E+02  0.39476579911E+02  0.51100000000E-03 0.  1.
         22    1    1    0    0    0  0.16119001999E+02 -0.22132720522E+02 -0.48005776516E+01  0.27797933177E+02  0.00000000000E+00 0. -1.
</event>
<event>
 5    1  0.1103865E-009  0.9118800E+02  0.7818608E-02  0.1130116E+00
         25   -1    0    0    0    0  0.00000000000E+00  0.00000000000E+00  0.99999998245E-14  0.12500000000E+03  0.12500000000E+03 0.  0.
        -11    1    3    3    0    0 -0.16837755564E+02 -0.52724107851E+02  0.20359205578E+02  0.58973204196E+02  0.51100000000E-03 0.  1.
         23    2    1    0    0    0  0.37448474801E+01 -0.22067461131E+02  0.18527349282E+02  0.95943857881E+02  0.91438309643E+02 0.  0.
         11    1    3    3    0    0  0.20582603044E+02  0.30656646720E+02 -0.18318562962E+01  0.36970653686E+02  0.51100000000E-03 0. -1.
         22    1    1    0    0    0 -0.37448474801E+01  0.22067461131E+02 -0.18527349282E+02  0.29056142119E+02  0.00000000000E+00 0.  1.
</event>
<event>
 5    1  0.1103865E-009  0.9118800E+02  0.7818608E-02  0.1130116E+00
         25   -1    0    0    0    0  0.00000000000E+00  0.00000000000E+00  0.99999998245E-14  0.12500000000E+03  0.12500000000E+03 0.  0.
        -11    1    3    3    0    0  0.32282226570E+02 -0.20977475141E+02  0.25317709130E+02  0.46078010064E+02  0.51100000000E-03 0.  1.
         23    2    1    0    0    0 -0.20410566655E+00  0.18103509768E+02  0.21283209513E+02  0.97058029199E+02  0.92948949966E+02 0.  0.
         11    1    3    3    0    0 -0.32486332237E+02  0.39080984909E+02 -0.40344996166E+01  0.50980019136E+02  0.51100000000E-03 0. -1.
         22    1    1    0    0    0  0.20410566655E+00 -0.18103509768E+02 -0.21283209513E+02  0.27941970801E+02  0.00000000000E+00 0. -1.
</event>
<event>
 5    1  0.1103865E-009  0.9118800E+02  0.7818608E-02  0.1130116E+00
         25   -1    0    0    0    0  0.00000000000E+00  0.00000000000E+00  0.99999998245E-14  0.12500000000E+03  0.12500000000E+03 0.  0.
        -11    1    3    3    0    0 -0.81002997988E+01 -0.15871643221E+02  0.45619953369E+02  0.48976566448E+02  0.51100000000E-03 0.  1.
         23    2    1    0    0    0 -0.28381762582E+02  0.12035437288E+01  0.71339117330E+01  0.95710656180E+02  0.91118955465E+02 0.  0.
         11    1    3    3    0    0 -0.20281462784E+02  0.17075186950E+02 -0.38486041636E+02  0.46734089732E+02  0.51100000000E-03 0. -1.
         22    1    1    0    0    0  0.28381762582E+02 -0.12035437288E+01 -0.71339117330E+01  0.29289343820E+02  0.00000000000E+00 0.  1.
</event>
<event>
 5    1  0.1103865E-009  0.9118800E+02  0.7818608E-02  0.1130116E+00
         25   -1    0    0    0    0  0.00000000000E+00  0.00000000000E+00  0.99999998245E-14  0.12500000000E+03  0.12500000000E+03 0.  0.
        -11    1    3    3    0    0  0.31285526437E+02  0.16315341297E+02 -0.41054074792E+02  0.54133276119E+02  0.51100000000E-03 0.  1.
         23    2    1    0    0    0  0.28674376529E+02 -0.55762200248E+01 -0.65762029575E+01  0.95057379132E+02  0.90218317336E+02 0.  0.
         11    1    3    3    0    0 -0.26111499081E+01 -0.21891561322E+02  0.34477871834E+02  0.40924103013E+02  0.51100000000E-03 0. -1.
         22    1    1    0    0    0 -0.28674376529E+02  0.55762200248E+01  0.65762029575E+01  0.29942620868E+02  0.00000000000E+00 0.  1.
</event>
<event>
 5    1  0.1103865E-009  0.9118800E+02  0.7818608E-02  0.1130116E+00
         25   -1    0    0    0    0  0.00000000000E+00  0.00000000000E+00  0.99999998245E-14  0.12500000000E+03  0.12500000000E+03 0.  0.
        -11    1    3    3    0    0  0.26462486346E+02 -0.29989387091E+02 -0.39612865557E+02  0.56292145452E+02  0.51100000000E-03 0.  1.
         23    2    1    0    0    0 -0.61870493464E+01 -0.16220651361E+02 -0.24868237042E+02  0.94671493216E+02  0.89682067906E+02 0.  0.
         11    1    3    3    0    0 -0.32649535692E+02  0.13768735730E+02  0.14744628515E+02  0.38379347764E+02  0.51100000000E-03 0. -1.
         22    1    1    0    0    0  0.61870493464E+01  0.16220651361E+02  0.24868237042E+02  0.30328506784E+02  0.00000000000E+00 0.  1.
</event>
<event>
 5    1  0.1103865E-009  0.9118800E+02  0.7818608E-02  0.1130116E+00
         25   -1    0    0    0    0  0.00000000000E+00  0.00000000000E+00  0.99999998245E-14  0.12500000000E+03  0.12500000000E+03 0.  0.
        -11    1    3    3    0    0 -0.29294021000E+01 -0.18497290186E+02 -0.29295657292E+02  0.34770198121E+02  0.51100000000E-03 0.  1.
         23    2    1    0    0    0  0.14450208740E+02  0.25445782369E+02  0.76503228723E+01  0.94753945496E+02  0.89796917397E+02 0.  0.
         11    1    3    3    0    0  0.17379610840E+02  0.43943072556E+02  0.36945980165E+02  0.59983747375E+02  0.51100000000E-03 0. -1.
         22    1    1    0    0    0 -0.14450208740E+02 -0.25445782369E+02 -0.76503228723E+01  0.30246054504E+02  0.00000000000E+00 0. -1.
</event>
<event>
 5    1  0.1103865E-009  0.9118800E+02  0.7818608E-02  0.1130116E+00
         25   -1    0    0    0    0  0.00000000000E+00  0.00000000000E+00  0.99999998245E-14  0.12500000000E+03  0.12500000000E+03 0.  0.
        -11    1    3    3    0    0  0.34956782008E+02  0.17792675994E+01  0.76505849920E+01  0.35828394501E+02  0.51100000000E-03 0.  1.
         23    2    1    0    0    0 -0.15886324879E+02 -0.25662069017E+02 -0.33198894722E+01  0.94636555358E+02  0.89633357850E+02 0.  0.
         11    1    3    3    0    0 -0.50843106887E+02 -0.27441336617E+02 -0.10970474464E+02  0.58808160857E+02  0.51100000000E-03 0. -1.
         22    1    1    0    0    0  0.15886324879E+02  0.25662069017E+02  0.33198894722E+01  0.30363444642E+02  0.00000000000E+00 0. -1.
</event>
<event>
 5    1  0.1103865E-009  0.9118800E+02  0.7818608E-02  0.1130116E+00
         25   -1    0    0    0    0  0.00000000000E+00  0.00000000000E+00  0.99999998245E-14  0.12500000000E+03  0.12500000000E+03 0.  0.
        -11    1    3    3    0    0  0.46538765888E+02 -0.24274526791E+01 -0.37367245428E+02  0.59733242738E+02  0.51100000000E-03 0.  1.
         23    2    1    0    0    0  0.25677807862E+02 -0.93540963166E+01 -0.77919530282E+01  0.96582338828E+02  0.92307013314E+02 0.  0.
         11    1    3    3    0    0 -0.20860958026E+02 -0.69266436375E+01  0.29575292399E+02  0.36849096090E+02  0.51100000000E-03 0. -1.
         22    1    1    0    0    0 -0.25677807862E+02  0.93540963166E+01  0.77919530282E+01  0.28417661172E+02  0.00000000000E+00 0.  1.
</event>
<event>
 5    1  0.1103865E-009  0.9118800E+02  0.7818608E-02  0.1130116E+00
         25   -1    0    0    0    0  0.00000000000E+00  0.00000000000E+00  0.99999998245E-14  0.12500000000E+03  0.12500000000E+03 0.  0.
        -11    1    3    3    0    0  0.26759577189E+02  0.10476508657E+02  0.40867375080E+02  0.49959729294E+02  0.51100000000E-03 0.  1.
         23    2    1    0    0    0  0.30087909379E+01  0.27951467248E+02  0.49098442749E+01  0.96461536218E+02  0.92143280029E+02 0.  0.
         11    1    3    3    0    0 -0.23750786251E+02  0.17474958592E+02 -0.35957530805E+02  0.46501806924E+02  0.51100000000E-03 0. -1.
         22    1    1    0    0    0 -0.30087909379E+01 -0.27951467248E+02 -0.49098442749E+01  0.28538463782E+02  0.00000000000E+00 0. -1.
</event>
<event>
 5    1  0.1103865E-009  0.9118800E+02  0.7818608E-02  0.1130116E+00
         25   -1    0    0    0    0  0.00000000000E+00  0.00000000000E+00  0.99999998245E-14  0.12500000000E+03  0.12500000000E+03 0.  0.
        -11    1    3    3    0    0  0.39847351158E+02  0.48147401104E+01  0.43646428029E+02  0.59295900335E+02  0.51100000000E-03 0. -1.
         23    2    1    0    0    0  0.21434001630E+02 -0.10716980231E+02  0.14982614465E+02  0.96737855224E+02  0.92517370293E+02 0.  0.
         11    1    3    3    0    0 -0.18413349528E+02 -0.15531720341E+02 -0.28663813563E+02  0.37441954888E+02  0.51100000000E-03 0.  1.
         22    1    1    0    0    0 -0.21434001630E+02  0.10716980231E+02 -0.14982614465E+02  0.28262144776E+02  0.00000000000E+00 0. -1.
</event>
<event>
 5    1  0.1103865E-009  0.9118800E+02  0.7818608E-02  0.1130116E+00
         25   -1    0    0    0    0  0.00000000000E+00  0.00000000000E+00  0.99999998245E-14  0.12500000000E+03  0.12500000000E+03 0.  0.
        -11    1    3    3    0    0 -0.11804649117E+02 -0.21088091206E+02 -0.35443289774E+02  0.42898532862E+02  0.51100000000E-03 0.  1.
         23    2    1    0    0    0  0.80876816955E+01 -0.24255093193E+02  0.13687988206E+02  0.95998600687E+02  0.91513114752E+02 0.  0.
         11    1    3    3    0    0  0.19892330812E+02 -0.31670019866E+01  0.49131277980E+02  0.53100067824E+02  0.51100000000E-03 0. -1.
         22    1    1    0    0    0 -0.80876816955E+01  0.24255093193E+02 -0.13687988206E+02  0.29001399313E+02  0.00000000000E+00 0. -1.
</event>
<event>
 5    1  0.1103865E-009  0.9118800E+02  0.7818608E-02  0.1130116E+00
         25   -1    0    0    0    0  0.00000000000E+00  0.00000000000E+00  0.99999998245E-14  0.12500000000E+03  0.12500000000E+03 0.  0.
        -11    1    3    3    0    0 -0.91918343012E+01  0.13365978190E+01 -0.57691113751E+02  0.58434073259E+02  0.51100000000E-03 0. -1.
         23    2    1    0    0    0 -0.13900453327E+02 -0.11362342078E+02 -0.22027558480E+02  0.96582773662E+02  0.92307602154E+02 0.  0.
         11    1    3    3    0    0 -0.47086190254E+01 -0.12698939897E+02  0.35663555271E+02  0.38148700403E+02  0.51100000000E-03 0.  1.
         22    1    1    0    0    0  0.13900453327E+02  0.11362342078E+02  0.22027558480E+02  0.28417226338E+02  0.00000000000E+00 0. -1.
</event>
<event>
 5    1  0.1103865E-009  0.9118800E+02  0.7818608E-02  0.1130116E+00
         25   -1    0    0    0    0  0.00000000000E+00  0.00000000000E+00  0.99999998245E-14  0.12500000000E+03  0.12500000000E+03 0.  0.
        -11    1    3    3    0    0 -0.19000494683E+02 -0.27968221411E+02 -0.32651414406E+02  0.47003777189E+02  0.51100000000E-03 0.  1.
         23    2    1    0    0    0 -0.39268230666E+01  0.17248479988E+02 -0.23579524792E+02  0.95522483302E+02  0.90860446980E+02 0.  0.
         11    1    3    3    0    0  0.15073671616E+02  0.45216701399E+02  0.90718896137E+01  0.48518706112E+02  0.51100000000E-03 0. -1.
         22    1    1    0    0    0  0.39268230666E+01 -0.17248479988E+02  0.23579524792E+02  0.29477516698E+02  0.00000000000E+00 0. -1.
</event>
<event>
 5    1  0.1103865E-009  0.9118800E+02  0.7818608E-02  0.1130116E+00
         25   -1    0    0    0    0  0.00000000000E+00  0.00000000000E+00  0.99999998245E-14  0.12500000000E+03  0.12500000000E+03 0.  0.
        -11    1    3    3    0    0 -0.23104365479E+02 -0.30703254400E+02 -0.36700233716E+02  0.53135757169E+02  0.51100000000E-03 0.  1.
         23    2    1    0    0    0 -0.12003716016E+02  0.10246831858E+02 -0.21763583835E+02  0.98116169494E+02  0.94361233425E+02 0.  0.
         11    1    3    3    0    0  0.11100649462E+02  0.40950086257E+02  0.14936649881E+02  0.44980412325E+02  0.51100000000E-03 0. -1.
         22    1    1    0    0    0  0.12003716016E+02 -0.10246831858E+02  0.21763583835E+02  0.26883830506E+02  0.00000000000E+00 0.  1.
</event>
<event>
 5    1  0.1103865E-009  0.9118800E+02  0.7818608E-02  0.1130116E+00
         25   -1    0    0    0    0  0.00000000000E+00  0.00000000000E+00  0.99999998245E-14  0.12500000000E+03  0.12500000000E+03 0.  0.
        -11    1    3    3    0    0 -0.19889132632E+01 -0.33399856015E+02  0.83827431894E+01  0.34493137599E+02  0.51100000000E-03 0. -1.
         23    2    1    0    0    0 -0.10265767793E+02  0.26358599384E+02 -0.49635329821E+01  0.96280696221E+02  0.91897628126E+02 0.  0.
         11    1    3    3    0    0 -0.82768545301E+01  0.59758455399E+02 -0.13346276171E+02  0.61787558622E+02  0.51100000000E-03 0.  1.
         22    1    1    0    0    0  0.10265767793E+02 -0.26358599384E+02  0.49635329821E+01  0.28719303779E+02  0.00000000000E+00 0.  1.
</event>
<event>
 5    1  0.1103865E-009  0.9118800E+02  0.7818608E-02  0.1130116E+00
         25   -1    0    0    0    0  0.00000000000E+00  0.00000000000E+00  0.99999998245E-14  0.12500000000E+03  0.12500000000E+03 0.  0.
        -11    1    3    3    0    0  0.30806206509E+02 -0.31106828843E+02 -0.30392987615E+02  0.53295317398E+02  0.51100000000E-03 0.  1.
         23    2    1    0    0    0  0.61978717283E+01 -0.30603219884E+02  0.16871362966E+01  0.93729932681E+02  0.88359963616E+02 0.  0.
         11    1    3    3    0    0 -0.24608334781E+02  0.50360895858E+00  0.32080123911E+02  0.40434615283E+02  0.51100000000E-03 0. -1.
         22    1    1    0    0    0 -0.61978717283E+01  0.30603219884E+02 -0.16871362966E+01  0.31270067319E+02  0.00000000000E+00 0.  1.
</event>
<event>
 5    1  0.1103865E-009  0.9118800E+02  0.7818608E-02  0.1130116E+00
         25   -1    0    0    0    0  0.00000000000E+00  0.00000000000E+00  0.99999998245E-14  0.12500000000E+03  0.12500000000E+03 0.  0.
        -11    1    3    3    0    0  0.33562726635E+02 -0.34361667585E+02  0.15723660812E+02  0.50541214152E+02  0.51100000000E-03 0.  1.
         23    2    1    0    0    0 -0.59373632357E+01 -0.25818587223E+02  0.20861355307E+02  0.91279859526E+02  0.84823138833E+02 0.  0.
         11    1    3    3    0    0 -0.39500089871E+02  0.85430803624E+01  0.51376944951E+01  0.40738645373E+02  0.51100000000E-03 0. -1.
         22    1    1    0    0    0  0.59373632357E+01  0.25818587223E+02 -0.20861355307E+02  0.33720140474E+02  0.00000000000E+00 0.  1.
</event>
<event>
 5    1  0.1103865E-009  0.9118800E+02  0.7818608E-02  0.1130116E+00
         25   -1    0    0    0    0  0.00000000000E+00  0.00000000000E+00  0.99999998245E-14  0.12500000000E+03  0.12500000000E+03 0.  0.
        -11    1    3    3    0    0 -0.25130753065E+02 -0.34427933591E+02  0.58843031187E+01  0.43028622850E+02  0.51100000000E-03 0. -1.
         23    2    1    0    0    0  0.14175043457E+02 -0.19450539367E+01  0.23930151550E+02  0.97118693628E+02  0.93030497187E+02 0.  0.
         11    1    3    3    0    0  0.39305796521E+02  0.32482879655E+02  0.18045848431E+02  0.54090070777E+02  0.51100000000E-03 0.  1.
         22    1    1    0    0    0 -0.14175043457E+02  0.19450539367E+01 -0.23930151550E+02  0.27881306372E+02  0.00000000000E+00 0. -1.
</event>
<event>
 5    1  0.1103865E-009  0.9118800E+02  0.7818608E-02  0.1130116E+00
         25   -1    0    0    0    0  0.00000000000E+00  0.00000000000E+00  0.99999998245E-14  0.12500000000E+03  0.12500000000E+03 0.  0.
        -11    1    3    3    0    0  0.20797956882E+02 -0.51927821065E+02 -0.11408571036E+02  0.57089483308E+02  0.51100000000E-03 0.  1.
         23    2    1    0    0    0  0.14818121738E+02 -0.22404467476E+02  0.12331901370E+02  0.95443060271E+02  0.90751116069E+02 0.  0.
         11    1    3    3    0    0 -0.59798351443E+01  0.29523353589E+02  0.23740472407E+02  0.38353576963E+02  0.51100000000E-03 0. -1.
         22    1    1    0    0    0 -0.14818121738E+02  0.22404467476E+02 -0.12331901370E+02  0.29556939729E+02  0.00000000000E+00 0.  1.
</event>
<event>
 5    1  0.1103865E-009  0.9118800E+02  0.7818608E-02  0.1130116E+00
         25   -1    0    0    0    0  0.00000000000E+00  0.00000000000E+00  0.99999998245E-14  0.12500000000E+03  0.12500000000E+03 0.  0.
        -11    1    3    3    0    0 -0.53836071012E+02  0.13329514404E+02 -0.19002467174E+02  0.58626719636E+02  0.51100000000E-03 0.  1.
         23    2    1    0    0    0 -0.19134938144E+02  0.20464519700E+01 -0.22627608354E+02  0.95295749744E+02  0.90547984163E+02 0.  0.
         11    1    3    3    0    0  0.34701132868E+02 -0.11283062434E+02 -0.36251411805E+01  0.36669030108E+02  0.51100000000E-03 0. -1.
         22    1    1    0    0    0  0.19134938144E+02 -0.20464519700E+01  0.22627608354E+02  0.29704250256E+02  0.00000000000E+00 0.  1.
</event>
<event>
 5    1  0.1103865E-009  0.9118800E+02  0.7818608E-02  0.1130116E+00
         25   -1    0    0    0    0  0.00000000000E+00  0.00000000000E+00  0.99999998245E-14  0.12500000000E+03  0.12500000000E+03 0.  0.
        -11    1    3    3    0    0  0.28425395364E+02 -0.24905535580E+02  0.91995037479E+01  0.38896268119E+02  0.51100000000E-03 0.  1.
         23    2    1    0    0    0 -0.97313701052E+01  0.18328573459E+02  0.18370818740E+02  0.97284965265E+02  0.93253639695E+02 0.  0.
         11    1    3    3    0    0 -0.38156765469E+02  0.43234109039E+02  0.91713149923E+01  0.58388697146E+02  0.51100000000E-03 0. -1.
         22    1    1    0    0    0  0.97313701052E+01 -0.18328573459E+02 -0.18370818740E+02  0.27715034735E+02  0.00000000000E+00 0. -1.
</event>
<event>
 5    1  0.1103865E-009  0.9118800E+02  0.7818608E-02  0.1130116E+00
         25   -1    0    0    0    0  0.00000000000E+00  0.00000000000E+00  0.99999998245E-14  0.12500000000E+03  0.12500000000E+03 0.  0.
        -11    1    3    3    0    0  0.54415301606E+02  0.75942884232E+01 -0.20038434513E+02  0.58482793397E+02  0.51100000000E-03 0.  1.
         23    2    1    0    0    0  0.28242369352E+02  0.52942116005E+01  0.61889447681E+01  0.95606750087E+02  0.90976301979E+02 0.  0.
         11    1    3    3    0    0 -0.26172932253E+02 -0.23000768227E+01  0.26227379281E+02  0.37123956690E+02  0.51100000000E-03 0. -1.
         22    1    1    0    0    0 -0.28242369352E+02 -0.52942116005E+01 -0.61889447681E+01  0.29393249913E+02  0.00000000000E+00 0.  1.
</event>
<event>
 5    1  0.1103865E-009  0.9118800E+02  0.7818608E-02  0.1130116E+00
         25   -1    0    0    0    0  0.00000000000E+00  0.00000000000E+00  0.99999998245E-14  0.12500000000E+03  0.12500000000E+03 0.  0.
        -11    1    3    3    0    0 -0.34657152594E+01  0.56445610246E+02  0.18751009915E+02  0.59579513856E+02  0.51100000000E-03 0. -1.
         23    2    1    0    0    0 -0.15257603649E+02  0.28205506363E+02  0.99955607755E+01  0.91410473455E+02  0.85015400745E+02 0.  0.
         11    1    3    3    0    0 -0.11791888390E+02 -0.28240103883E+02 -0.87554491390E+01  0.31830959599E+02  0.51100000000E-03 0.  1.
         22    1    1    0    0    0  0.15257603649E+02 -0.28205506363E+02 -0.99955607755E+01  0.33589526545E+02  0.00000000000E+00 0. -1.
</event>
<event>
 5    1  0.1103865E-009  0.9118800E+02  0.7818608E-02  0.1130116E+00
         25   -1    0    0    0    0  0.00000000000E+00  0.00000000000E+00  0.99999998245E-14  0.12500000000E+03  0.12500000000E+03 0.  0.
        -11    1    3    3    0    0 -0.32610262956E+02  0.49390536098E+02  0.17581379639E+02  0.61741065883E+02  0.51100000000E-03 0. -1.
         23    2    1    0    0    0 -0.18819709542E+02  0.31412885160E+02  0.39860457845E+01  0.88164699237E+02  0.80101028765E+02 0.  0.
         11    1    3    3    0    0  0.13790553414E+02 -0.17977650938E+02 -0.13595333854E+02  0.26423633353E+02  0.51100000000E-03 0.  1.
         22    1    1    0    0    0  0.18819709542E+02 -0.31412885160E+02 -0.39860457845E+01  0.36835300763E+02  0.00000000000E+00 0. -1.
</event>
<event>
 5    1  0.1103865E-009  0.9118800E+02  0.7818608E-02  0.1130116E+00
         25   -1    0    0    0    0  0.00000000000E+00  0.00000000000E+00  0.99999998245E-14  0.12500000000E+03  0.12500000000E+03 0.  0.
        -11    1    3    3    0    0 -0.80935428569E+00  0.35802746030E+02  0.14292515864E+01  0.35840402314E+02  0.51100000000E-03 0.  1.
         23    2    1    0    0    0  0.25481741375E+02 -0.15517934343E+02  0.86065245961E+01  0.93948467100E+02  0.88668578285E+02 0.  0.
         11    1    3    3    0    0  0.26291095661E+02 -0.51320680374E+02  0.71772730097E+01  0.58108064786E+02  0.51100000000E-03 0. -1.
         22    1    1    0    0    0 -0.25481741375E+02  0.15517934343E+02 -0.86065245961E+01  0.31051532900E+02  0.00000000000E+00 0. -1.
</event>
<event>
 5    1  0.1103865E-009  0.9118800E+02  0.7818608E-02  0.1130116E+00
         25   -1    0    0    0    0  0.00000000000E+00  0.00000000000E+00  0.99999998245E-14  0.12500000000E+03  0.12500000000E+03 0.  0.
        -11    1    3    3    0    0  0.33149118573E+02 -0.23572421677E+02 -0.18906078776E+02  0.44854909885E+02  0.51100000000E-03 0. -1.
         23    2    1    0    0    0  0.72520892724E-01 -0.23316975387E+02  0.18825018797E+02  0.95032218414E+02  0.90183449721E+02 0.  0.
         11    1    3    3    0    0 -0.33076597681E+02  0.25544628984E+00  0.37731097572E+02  0.50177308529E+02  0.51100000000E-03 0.  1.
         22    1    1    0    0    0 -0.72520892724E-01  0.23316975387E+02 -0.18825018797E+02  0.29967781586E+02  0.00000000000E+00 0. -1.
</event>
<event>
 5    1  0.1103865E-009  0.9118800E+02  0.7818608E-02  0.1130116E+00
         25   -1    0    0    0    0  0.00000000000E+00  0.00000000000E+00  0.99999998245E-14  0.12500000000E+03  0.12500000000E+03 0.  0.
        -11    1    3    3    0    0  0.10953341789E+02  0.18557622009E+02 -0.33849874959E+02  0.40126986754E+02  0.51100000000E-03 0.  1.
         23    2    1    0    0    0  0.64074193469E+01  0.10662025222E+01  0.23688621301E+02  0.10043696701E+03  0.97387071794E+02 0.  0.
         11    1    3    3    0    0 -0.45459224418E+01 -0.17491419487E+02  0.57538496260E+02  0.60309980257E+02  0.51100000000E-03 0. -1.
         22    1    1    0    0    0 -0.64074193469E+01 -0.10662025222E+01 -0.23688621301E+02  0.24563032989E+02  0.00000000000E+00 0. -1.
</event>
<event>
 5    1  0.1103865E-009  0.9118800E+02  0.7818608E-02  0.1130116E+00
         25   -1    0    0    0    0  0.00000000000E+00  0.00000000000E+00  0.99999998245E-14  0.12500000000E+03  0.12500000000E+03 0.  0.
        -11    1    3    3    0    0  0.38288961323E+02 -0.39729499369E+01 -0.48204683235E+02  0.61688899945E+02  0.51100000000E-03 0. -1.
         23    2    1    0    0    0  0.21194236147E+02  0.39168930129E+01 -0.20022002737E+02  0.95582007371E+02  0.90942299524E+02 0.  0.
         11    1    3    3    0    0 -0.17094725176E+02  0.78898429499E+01  0.28182680498E+02  0.33893107425E+02  0.51100000000E-03 0.  1.
         22    1    1    0    0    0 -0.21194236147E+02 -0.39168930129E+01  0.20022002737E+02  0.29417992629E+02  0.00000000000E+00 0. -1.
</event>
<event>
 5    1  0.1103865E-009  0.9118800E+02  0.7818608E-02  0.1130116E+00
         25   -1    0    0    0    0  0.00000000000E+00  0.00000000000E+00  0.99999998245E-14  0.12500000000E+03  0.12500000000E+03 0.  0.
        -11    1    3    3    0    0  0.65412335806E+01  0.12512685914E+01  0.61136940748E+02  0.61498609205E+02  0.51100000000E-03 0.  1.
         23    2    1    0    0    0 -0.42628781369E+01 -0.28294129937E+01  0.26511133967E+02  0.97999667926E+02  0.94206777790E+02 0.  0.
         11    1    3    3    0    0 -0.10804111718E+02 -0.40806815851E+01 -0.34625806782E+02  0.36501058721E+02  0.51100000000E-03 0. -1.
         22    1    1    0    0    0  0.42628781369E+01  0.28294129937E+01 -0.26511133967E+02  0.27000332074E+02  0.00000000000E+00 0.  1.
</event>
<event>
 5    1  0.1103865E-009  0.9118800E+02  0.7818608E-02  0.1130116E+00
         25   -1    0    0    0    0  0.00000000000E+00  0.00000000000E+00  0.99999998245E-14  0.12500000000E+03  0.12500000000E+03 0.  0.
        -11    1    3    3    0    0  0.24207883230E+01 -0.13779261803E+02  0.39617452377E+02  0.42015125908E+02  0.51100000000E-03 0. -1.
         23    2    1    0    0    0 -0.31243789446E+01 -0.24219063160E+02 -0.13953514675E+02  0.96874827362E+02  0.92702248303E+02 0.  0.
         11    1    3    3    0    0 -0.55451672677E+01 -0.10439801356E+02 -0.53570967052E+02  0.54859701454E+02  0.51100000000E-03 0.  1.
         22    1    1    0    0    0  0.31243789446E+01  0.24219063160E+02  0.13953514675E+02  0.28125172638E+02  0.00000000000E+00 0.  1.
</event>
<event>
 5    1  0.1103865E-009  0.9118800E+02  0.7818608E-02  0.1130116E+00
         25   -1    0    0    0    0  0.00000000000E+00  0.00000000000E+00  0.99999998245E-14  0.12500000000E+03  0.12500000000E+03 0.  0.
        -11    1    3    3    0    0  0.58723404932E+02 -0.73075265255E+01  0.14553726437E+02  0.60939717625E+02  0.51100000000E-03 0.  1.
         23    2    1    0    0    0  0.24609144769E+02 -0.57821438412E+01 -0.33547591672E+01  0.99499066630E+02  0.96175707211E+02 0.  0.
         11    1    3    3    0    0 -0.34114260163E+02  0.15253826844E+01 -0.17908485604E+02  0.38559349005E+02  0.51100000000E-03 0. -1.
         22    1    1    0    0    0 -0.24609144769E+02  0.57821438412E+01  0.33547591672E+01  0.25500933370E+02  0.00000000000E+00 0.  1.
</event>
<event>
 5    1  0.1103865E-009  0.9118800E+02  0.7818608E-02  0.1130116E+00
         25   -1    0    0    0    0  0.00000000000E+00  0.00000000000E+00  0.99999998245E-14  0.12500000000E+03  0.12500000000E+03 0.  0.
        -11    1    3    3    0    0  0.19824587647E+02  0.25955476811E+01 -0.45021156903E+02  0.49261097352E+02  0.51100000000E-03 0.  1.
         23    2    1    0    0    0 -0.23366087773E+00  0.26939936476E+02 -0.10336053746E+02  0.96144345757E+02  0.91711975441E+02 0.  0.
         11    1    3    3    0    0 -0.20058248525E+02  0.24344388795E+02  0.34685103157E+02  0.46883248405E+02  0.51100000000E-03 0. -1.
         22    1    1    0    0    0  0.23366087773E+00 -0.26939936476E+02  0.10336053746E+02  0.28855654243E+02  0.00000000000E+00 0.  1.
</event>
<event>
 5    1  0.1103865E-009  0.9118800E+02  0.7818608E-02  0.1130116E+00
         25   -1    0    0    0    0  0.00000000000E+00  0.00000000000E+00  0.99999998245E-14  0.12500000000E+03  0.12500000000E+03 0.  0.
        -11    1    3    3    0    0 -0.38354330805E+02 -0.17654685912E+02  0.34893624573E+01  0.42366475860E+02  0.51100000000E-03 0.  1.
         23    2    1    0    0    0  0.77517658156E+01 -0.17195602253E+02 -0.22773277051E+02  0.95429731862E+02  0.90732755748E+02 0.  0.
         11    1    3    3    0    0  0.46106096620E+02  0.45908365960E+00 -0.26262639508E+02  0.53063256003E+02  0.51100000000E-03 0. -1.
         22    1    1    0    0    0 -0.77517658156E+01  0.17195602253E+02  0.22773277051E+02  0.29570268138E+02  0.00000000000E+00 0. -1.
</event>
<event>
 5    1  0.1103865E-009  0.9118800E+02  0.7818608E-02  0.1130116E+00
         25   -1    0    0    0    0  0.00000000000E+00  0.00000000000E+00  0.99999998245E-14  0.12500000000E+03  0.12500000000E+03 0.  0.
        -11    1    3    3    0    0  0.10687584977E+02  0.31928981990E+02  0.18608534673E+02  0.38470273284E+02  0.51100000000E-03 0.  1.
         23    2    1    0    0    0  0.95618271038E+01 -0.25211955606E+02  0.98679145514E+01  0.96286815212E+02  0.91905950858E+02 0.  0.
         11    1    3    3    0    0 -0.11257578731E+01 -0.57140937597E+02 -0.87406201218E+01  0.57816541929E+02  0.51100000000E-03 0. -1.
         22    1    1    0    0    0 -0.95618271038E+01  0.25211955606E+02 -0.98679145514E+01  0.28713184788E+02  0.00000000000E+00 0. -1.
</event>
<event>
 5    1  0.1103865E-009  0.9118800E+02  0.7818608E-02  0.1130116E+00
         25   -1    0    0    0    0  0.00000000000E+00  0.00000000000E+00  0.99999998245E-14  0.12500000000E+03  0.12500000000E+03 0.  0.
        -11    1    3    3    0    0  0.34188530888E+02 -0.17396935885E+01  0.54740045538E+01  0.34667663667E+02  0.51100000000E-03 0.  1.
         23    2    1    0    0    0  0.15867491520E+02  0.40837943639E+02  0.29585467472E+01  0.81087952374E+02  0.68168820538E+02 0.  0.
         11    1    3    3    0    0 -0.18321039367E+02  0.42577637228E+02 -0.25154578065E+01  0.46420288707E+02  0.51100000000E-03 0. -1.
         22    1    1    0    0    0 -0.15867491520E+02 -0.40837943639E+02 -0.29585467472E+01  0.43912047626E+02  0.00000000000E+00 0. -1.
</event>
<event>
 5    1  0.1103865E-009  0.9118800E+02  0.7818608E-02  0.1130116E+00
         25   -1    0    0    0    0  0.00000000000E+00  0.00000000000E+00  0.99999998245E-14  0.12500000000E+03  0.12500000000E+03 0.  0.
        -11    1    3    3    0    0 -0.37668913182E+02 -0.55050848486E+01 -0.20471293509E+02  0.43224146466E+02  0.51100000000E-03 0.  1.
         23    2    1    0    0    0 -0.77697997255E+01 -0.18726774802E+02  0.20852424700E+02  0.95915889250E+02  0.91400067355E+02 0.  0.
         11    1    3    3    0    0  0.29899113457E+02 -0.13221689953E+02  0.41323718209E+02  0.52691742784E+02  0.51100000000E-03 0. -1.
         22    1    1    0    0    0  0.77697997255E+01  0.18726774802E+02 -0.20852424700E+02  0.29084110750E+02  0.00000000000E+00 0. -1.
</event>
<event>
 5    1  0.1103865E-009  0.9118800E+02  0.7818608E-02  0.1130116E+00
         25   -1    0    0    0    0  0.00000000000E+00  0.00000000000E+00  0.99999998245E-14  0.12500000000E+03  0.12500000000E+03 0.  0.
        -11    1    3    3    0    0 -0.37980037228E+02 -0.16788149449E+02 -0.28780722311E+02  0.50523807920E+02  0.51100000000E-03 0. -1.
         23    2    1    0    0    0 -0.52925621868E+01 -0.28001916232E+02  0.14885941736E+01  0.96463454312E+02  0.92145882046E+02 0.  0.
         11    1    3    3    0    0  0.32687475041E+02 -0.11213766783E+02  0.30269316484E+02  0.45939646393E+02  0.51100000000E-03 0.  1.
         22    1    1    0    0    0  0.52925621868E+01  0.28001916232E+02 -0.14885941736E+01  0.28536545688E+02  0.00000000000E+00 0. -1.
</event>
<event>
 5    1  0.1103865E-009  0.9118800E+02  0.7818608E-02  0.1130116E+00
         25   -1    0    0    0    0  0.00000000000E+00  0.00000000000E+00  0.99999998245E-14  0.12500000000E+03  0.12500000000E+03 0.  0.
        -11    1    3    3    0    0  0.35918413082E+02  0.27443681268E+02  0.40066457593E+02  0.60403717304E+02  0.51100000000E-03 0. -1.
         23    2    1    0    0    0  0.14366167606E+02  0.55653688761E+01  0.27280101002E+02  0.93670077991E+02  0.88275248500E+02 0.  0.
         11    1    3    3    0    0 -0.21552245476E+02 -0.21878312392E+02 -0.12786356591E+02  0.33266360686E+02  0.51100000000E-03 0.  1.
         22    1    1    0    0    0 -0.14366167606E+02 -0.55653688761E+01 -0.27280101002E+02  0.31329922009E+02  0.00000000000E+00 0. -1.
</event>
<event>
 5    1  0.1103865E-009  0.9118800E+02  0.7818608E-02  0.1130116E+00
         25   -1    0    0    0    0  0.00000000000E+00  0.00000000000E+00  0.99999998245E-14  0.12500000000E+03  0.12500000000E+03 0.  0.
        -11    1    3    3    0    0 -0.44383982798E+02 -0.10150355369E+02 -0.37274602109E+01  0.45682180366E+02  0.51100000000E-03 0. -1.
         23    2    1    0    0    0  0.13154550671E+01 -0.29201536803E+02 -0.56362106686E+01  0.95230434259E+02  0.90457772274E+02 0.  0.
         11    1    3    3    0    0  0.45699437865E+02 -0.19051181434E+02 -0.19087504577E+01  0.49548253893E+02  0.51100000000E-03 0.  1.
         22    1    1    0    0    0 -0.13154550671E+01  0.29201536803E+02  0.56362106686E+01  0.29769565741E+02  0.00000000000E+00 0.  1.
</event>
<event>
 5    1  0.1103865E-009  0.9118800E+02  0.7818608E-02  0.1130116E+00
         25   -1    0    0    0    0  0.00000000000E+00  0.00000000000E+00  0.99999998245E-14  0.12500000000E+03  0.12500000000E+03 0.  0.
        -11    1    3    3    0    0  0.40478535069E+02  0.14799580939E+02 -0.24275347968E+02  0.49465461855E+02  0.51100000000E-03 0. -1.
         23    2    1    0    0    0  0.45112294724E+02  0.44876573817E+01  0.35764012688E+01  0.79524194893E+02  0.65238399147E+02 0.  0.
         11    1    3    3    0    0  0.46337596553E+01 -0.10311923557E+02  0.27851749237E+02  0.30058733038E+02  0.51100000000E-03 0.  1.
         22    1    1    0    0    0 -0.45112294724E+02 -0.44876573817E+01 -0.35764012688E+01  0.45475805107E+02  0.00000000000E+00 0. -1.
</event>
<event>
 5    1  0.1103865E-009  0.9118800E+02  0.7818608E-02  0.1130116E+00
         25   -1    0    0    0    0  0.00000000000E+00  0.00000000000E+00  0.99999998245E-14  0.12500000000E+03  0.12500000000E+03 0.  0.
        -11    1    3    3    0    0 -0.38496920560E+00 -0.21409204964E+02  0.23243785429E+02  0.31603414686E+02  0.51100000000E-03 0.  1.
         23    2    1    0    0    0  0.30642743852E+02 -0.28883605701E+02 -0.13974569350E+02  0.80631891887E+02  0.67327356786E+02 0.  0.
         11    1    3    3    0    0  0.31027713057E+02 -0.74744007367E+01 -0.37218354779E+02  0.49028477201E+02  0.51100000000E-03 0. -1.
         22    1    1    0    0    0 -0.30642743852E+02  0.28883605701E+02  0.13974569350E+02  0.44368108113E+02  0.00000000000E+00 0. -1.
</event>
<event>
 5    1  0.1103865E-009  0.9118800E+02  0.7818608E-02  0.1130116E+00
         25   -1    0    0    0    0  0.00000000000E+00  0.00000000000E+00  0.99999998245E-14  0.12500000000E+03  0.12500000000E+03 0.  0.
        -11    1    3    3    0    0 -0.31572701375E+02 -0.24937519199E+02 -0.36762409841E+02  0.54499450580E+02  0.51100000000E-03 0.  1.
         23    2    1    0    0    0 -0.24938471921E+01  0.78229808562E+01 -0.23253217605E+02  0.10033969927E+03  0.97262144828E+02 0.  0.
         11    1    3    3    0    0  0.29078854183E+02  0.32760500056E+02  0.13509192236E+02  0.45840248686E+02  0.51100000000E-03 0. -1.
         22    1    1    0    0    0  0.24938471921E+01 -0.78229808562E+01  0.23253217605E+02  0.24660300734E+02  0.00000000000E+00 0.  1.
</event>
<event>
 5    1  0.1103865E-009  0.9118800E+02  0.7818608E-02  0.1130116E+00
         25   -1    0    0    0    0  0.00000000000E+00  0.00000000000E+00  0.99999998245E-14  0.12500000000E+03  0.12500000000E+03 0.  0.
        -11    1    3    3    0    0  0.17500614514E+02  0.54364421191E+02  0.23963704283E+02  0.61935619178E+02  0.51100000000E-03 0.  1.
         23    2    1    0    0    0  0.12060177861E+02  0.23226450461E+02  0.65609770805E+01  0.98019223300E+02  0.94232721626E+02 0.  0.
         11    1    3    3    0    0 -0.54404366531E+01 -0.31137970729E+02 -0.17402727202E+02  0.36083604122E+02  0.51100000000E-03 0. -1.
         22    1    1    0    0    0 -0.12060177861E+02 -0.23226450461E+02 -0.65609770805E+01  0.26980776700E+02  0.00000000000E+00 0.  1.
</event>
<event>
 5    1  0.1103865E-009  0.9118800E+02  0.7818608E-02  0.1130116E+00
         25   -1    0    0    0    0  0.00000000000E+00  0.00000000000E+00  0.99999998245E-14  0.12500000000E+03  0.12500000000E+03 0.  0.
        -11    1    3    3    0    0  0.32030928364E+02  0.45098404292E+02  0.18821110954E+02  0.58430134857E+02  0.51100000000E-03 0. -1.
         23    2    1    0    0    0 -0.63661478399E+00  0.26009952672E+02  0.77894680923E+01  0.97841231075E+02  0.93996317847E+02 0.  0.
         11    1    3    3    0    0 -0.32667543148E+02 -0.19088451621E+02 -0.11031642862E+02  0.39411096218E+02  0.51100000000E-03 0.  1.
         22    1    1    0    0    0  0.63661478399E+00 -0.26009952672E+02 -0.77894680923E+01  0.27158768925E+02  0.00000000000E+00 0. -1.
</event>
<event>
 5    1  0.1103865E-009  0.9118800E+02  0.7818608E-02  0.1130116E+00
         25   -1    0    0    0    0  0.00000000000E+00  0.00000000000E+00  0.99999998245E-14  0.12500000000E+03  0.12500000000E+03 0.  0.
        -11    1    3    3    0    0  0.27502221937E+02 -0.22200443454E+02 -0.32039710449E+02  0.47705083030E+02  0.51100000000E-03 0.  1.
         23    2    1    0    0    0  0.16269718620E+02 -0.25679290101E+02  0.11266913330E+02  0.92579743677E+02  0.86717564076E+02 0.  0.
         11    1    3    3    0    0 -0.11232503317E+02 -0.34788466464E+01  0.43306623779E+02  0.44874660647E+02  0.51100000000E-03 0. -1.
         22    1    1    0    0    0 -0.16269718620E+02  0.25679290101E+02 -0.11266913330E+02  0.32420256323E+02  0.00000000000E+00 0.  1.
</event>
<event>
 5    1  0.1103865E-009  0.9118800E+02  0.7818608E-02  0.1130116E+00
         25   -1    0    0    0    0  0.00000000000E+00  0.00000000000E+00  0.99999998245E-14  0.12500000000E+03  0.12500000000E+03 0.  0.
        -11    1    3    3    0    0 -0.69142055706E+01 -0.33442522437E+02 -0.34686566813E+02  0.48676138540E+02  0.51100000000E-03 0.  1.
         23    2    1    0    0    0 -0.28178154984E+02 -0.24807055452E+01 -0.56437498490E+01  0.96155343118E+02  0.91726963209E+02 0.  0.
         11    1    3    3    0    0 -0.21263949413E+02  0.30961816892E+02  0.29042816964E+02  0.47479204578E+02  0.51100000000E-03 0. -1.
         22    1    1    0    0    0  0.28178154984E+02  0.24807055452E+01  0.56437498490E+01  0.28844656882E+02  0.00000000000E+00 0.  1.
</event>
<event>
 5    1  0.1103865E-009  0.9118800E+02  0.7818608E-02  0.1130116E+00
         25   -1    0    0    0    0  0.00000000000E+00  0.00000000000E+00  0.99999998245E-14  0.12500000000E+03  0.12500000000E+03 0.  0.
        -11    1    3    3    0    0  0.30140000319E+02 -0.26217816769E+02 -0.38710619806E+02  0.55626483093E+02  0.51100000000E-03 0. -1.
         23    2    1    0    0    0  0.17725897931E+02  0.78185488827E+01 -0.22474416874E+02  0.95327848444E+02  0.90592285053E+02 0.  0.
         11    1    3    3    0    0 -0.12414102387E+02  0.34036365652E+02  0.16236202931E+02  0.39701365351E+02  0.51100000000E-03 0.  1.
         22    1    1    0    0    0 -0.17725897931E+02 -0.78185488827E+01  0.22474416874E+02  0.29672151556E+02  0.00000000000E+00 0. -1.
</event>
<event>
 5    1  0.1103865E-009  0.9118800E+02  0.7818608E-02  0.1130116E+00
         25   -1    0    0    0    0  0.00000000000E+00  0.00000000000E+00  0.99999998245E-14  0.12500000000E+03  0.12500000000E+03 0.  0.
        -11    1    3    3    0    0 -0.37599066124E+02 -0.32903416263E+02 -0.24387596697E+02  0.55597476994E+02  0.51100000000E-03 0.  1.
         23    2    1    0    0    0 -0.17927869533E+02 -0.11163957886E+01 -0.26440356076E+02  0.93035218209E+02  0.87371646157E+02 0.  0.
         11    1    3    3    0    0  0.19671196591E+02  0.31787020474E+02 -0.20527593788E+01  0.37437741215E+02  0.51100000000E-03 0. -1.
         22    1    1    0    0    0  0.17927869533E+02  0.11163957886E+01  0.26440356076E+02  0.31964781791E+02  0.00000000000E+00 0. -1.
</event>
<event>
 5    1  0.1103865E-009  0.9118800E+02  0.7818608E-02  0.1130116E+00
         25   -1    0    0    0    0  0.00000000000E+00  0.00000000000E+00  0.99999998245E-14  0.12500000000E+03  0.12500000000E+03 0.  0.
        -11    1    3    3    0    0  0.28146454502E+02  0.40151170120E+00  0.20835811668E+02  0.35021638466E+02  0.51100000000E-03 0. -1.
         23    2    1    0    0    0 -0.28859944154E+02  0.19492607078E+01 -0.92425232928E+00  0.96059539806E+02  0.91596315164E+02 0.  0.
         11    1    3    3    0    0 -0.57006398655E+02  0.15477490066E+01 -0.21760063998E+02  0.61037901341E+02  0.51100000000E-03 0.  1.
         22    1    1    0    0    0  0.28859944154E+02 -0.19492607078E+01  0.92425232928E+00  0.28940460194E+02  0.00000000000E+00 0.  1.
</event>
<event>
 5    1  0.1103865E-009  0.9118800E+02  0.7818608E-02  0.1130116E+00
         25   -1    0    0    0    0  0.00000000000E+00  0.00000000000E+00  0.99999998245E-14  0.12500000000E+03  0.12500000000E+03 0.  0.
        -11    1    3    3    0    0 -0.37764318617E+02 -0.18460556939E+01  0.53560072120E+01  0.38186889056E+02  0.51100000000E-03 0.  1.
         23    2    1    0    0    0  0.17850135637E+02  0.18405055590E+01  0.22238735456E+02  0.96424203289E+02  0.92092620890E+02 0.  0.
         11    1    3    3    0    0  0.55614454255E+02  0.36865612529E+01  0.16882728244E+02  0.58237314233E+02  0.51100000000E-03 0. -1.
         22    1    1    0    0    0 -0.17850135637E+02 -0.18405055590E+01 -0.22238735456E+02  0.28575796711E+02  0.00000000000E+00 0. -1.
</event>
<event>
 5    1  0.1103865E-009  0.9118800E+02  0.7818608E-02  0.1130116E+00
         25   -1    0    0    0    0  0.00000000000E+00  0.00000000000E+00  0.99999998245E-14  0.12500000000E+03  0.12500000000E+03 0.  0.
        -11    1    3    3    0    0 -0.46489926460E+01  0.38564165280E+02  0.30121136977E+02  0.49153747257E+02  0.51100000000E-03 0.  1.
         23    2    1    0    0    0  0.12106373841E+01 -0.67735050351E+01  0.29328251469E+02  0.94875386350E+02  0.89965807880E+02 0.  0.
         11    1    3    3    0    0  0.58596300300E+01 -0.45337670315E+02 -0.79288550759E+00  0.45721639093E+02  0.51100000000E-03 0. -1.
         22    1    1    0    0    0 -0.12106373841E+01  0.67735050351E+01 -0.29328251469E+02  0.30124613650E+02  0.00000000000E+00 0.  1.
</event>
<event>
 5    1  0.1103865E-009  0.9118800E+02  0.7818608E-02  0.1130116E+00
         25   -1    0    0    0    0  0.00000000000E+00  0.00000000000E+00  0.99999998245E-14  0.12500000000E+03  0.12500000000E+03 0.  0.
        -11    1    3    3    0    0  0.20959955539E+02  0.47540579784E+02  0.46385731305E-01  0.51956025775E+02  0.51100000000E-03 0.  1.
         23    2    1    0    0    0  0.28524261223E+02  0.43722286594E+01 -0.35285407991E+01  0.95927668447E+02  0.91416175329E+02 0.  0.
         11    1    3    3    0    0  0.75643056837E+01 -0.43168351125E+02 -0.35749265304E+01  0.43971642672E+02  0.51100000000E-03 0. -1.
         22    1    1    0    0    0 -0.28524261223E+02 -0.43722286594E+01  0.35285407991E+01  0.29072331553E+02  0.00000000000E+00 0.  1.
</event>
<event>
 5    1  0.1103865E-009  0.9118800E+02  0.7818608E-02  0.1130116E+00
         25   -1    0    0    0    0  0.00000000000E+00  0.00000000000E+00  0.99999998245E-14  0.12500000000E+03  0.12500000000E+03 0.  0.
        -11    1    3    3    0    0  0.44711087898E+01 -0.42868434546E+02  0.20877959439E+02  0.47891363363E+02  0.51100000000E-03 0. -1.
         23    2    1    0    0    0  0.28181491956E+02 -0.46027210075E+01  0.31520864387E+01  0.96271665929E+02  0.91885344219E+02 0.  0.
         11    1    3    3    0    0  0.23710383167E+02  0.38265713538E+02 -0.17725873000E+02  0.48380302566E+02  0.51100000000E-03 0.  1.
         22    1    1    0    0    0 -0.28181491956E+02  0.46027210075E+01 -0.31520864387E+01  0.28728334071E+02  0.00000000000E+00 0. -1.
</event>
<event>
 5    1  0.1103865E-009  0.9118800E+02  0.7818608E-02  0.1130116E+00
         25   -1    0    0    0    0  0.00000000000E+00  0.00000000000E+00  0.99999998245E-14  0.12500000000E+03  0.12500000000E+03 0.  0.
        -11    1    3    3    0    0  0.41921176563E+02  0.25721998971E+02 -0.26780874888E+02  0.56001977961E+02  0.51100000000E-03 0.  1.
         23    2    1    0    0    0  0.60957661971E+01  0.23703968136E+02 -0.21791675724E+02  0.92229378984E+02  0.86211047702E+02 0.  0.
         11    1    3    3    0    0 -0.35825410366E+02 -0.20180308348E+01  0.49891991635E+01  0.36227401023E+02  0.51100000000E-03 0. -1.
         22    1    1    0    0    0 -0.60957661971E+01 -0.23703968136E+02  0.21791675724E+02  0.32770621016E+02  0.00000000000E+00 0.  1.
</event>
<event>
 5    1  0.1103865E-009  0.9118800E+02  0.7818608E-02  0.1130116E+00
         25   -1    0    0    0    0  0.00000000000E+00  0.00000000000E+00  0.99999998245E-14  0.12500000000E+03  0.12500000000E+03 0.  0.
        -11    1    3    3    0    0  0.35145503340E+02  0.41440541690E+01 -0.17033366762E+01  0.35429944201E+02  0.51100000000E-03 0.  1.
         23    2    1    0    0    0 -0.10351745194E+02  0.51416535577E+01 -0.32584206763E+02  0.90426516515E+02  0.83556143573E+02 0.  0.
         11    1    3    3    0    0 -0.45497248534E+02  0.99759938862E+00 -0.30880870087E+02  0.54996572314E+02  0.51100000000E-03 0. -1.
         22    1    1    0    0    0  0.10351745194E+02 -0.51416535577E+01  0.32584206763E+02  0.34573483485E+02  0.00000000000E+00 0. -1.
</event>
<event>
 5    1  0.1103865E-009  0.9118800E+02  0.7818608E-02  0.1130116E+00
         25   -1    0    0    0    0  0.00000000000E+00  0.00000000000E+00  0.99999998245E-14  0.12500000000E+03  0.12500000000E+03 0.  0.
        -11    1    3    3    0    0 -0.44173853389E+02 -0.33403370428E+02 -0.17579104879E+02  0.58104555826E+02  0.51100000000E-03 0. -1.
         23    2    1    0    0    0 -0.76543213906E+01 -0.25038927344E+02 -0.12744110661E+02  0.95880438275E+02  0.91351571244E+02 0.  0.
         11    1    3    3    0    0  0.36519531998E+02  0.83644430832E+01  0.48349942183E+01  0.37775882449E+02  0.51100000000E-03 0.  1.
         22    1    1    0    0    0  0.76543213906E+01  0.25038927344E+02  0.12744110661E+02  0.29119561725E+02  0.00000000000E+00 0. -1.
</event>
<event>
 5    1  0.1103865E-009  0.9118800E+02  0.7818608E-02  0.1130116E+00
         25   -1    0    0    0    0  0.00000000000E+00  0.00000000000E+00  0.99999998245E-14  0.12500000000E+03  0.12500000000E+03 0.  0.
        -11    1    3    3    0    0  0.32070245086E+01 -0.28178696112E+02 -0.23243884488E+02  0.36668816277E+02  0.51100000000E-03 0.  1.
         23    2    1    0    0    0 -0.18212595631E+02  0.10268373689E+02  0.18317934014E+02  0.97202790709E+02  0.93143425304E+02 0.  0.
         11    1    3    3    0    0 -0.21419620140E+02  0.38447069801E+02  0.41561818501E+02  0.60533974433E+02  0.51100000000E-03 0. -1.
         22    1    1    0    0    0  0.18212595631E+02 -0.10268373689E+02 -0.18317934014E+02  0.27797209291E+02  0.00000000000E+00 0. -1.
</event>
<event>
 5    1  0.1103865E-009  0.9118800E+02  0.7818608E-02  0.1130116E+00
         25   -1    0    0    0    0  0.00000000000E+00  0.00000000000E+00  0.99999998245E-14  0.12500000000E+03  0.12500000000E+03 0.  0.
        -11    1    3    3    0    0  0.49066544941E+01  0.14544558324E+02 -0.57273316974E+02  0.59294622628E+02  0.51100000000E-03 0. -1.
         23    2    1    0    0    0 -0.63667122919E+01  0.16541536110E+02 -0.20050022008E+02  0.98238818695E+02  0.94523566764E+02 0.  0.
         11    1    3    3    0    0 -0.11273366786E+02  0.19969777858E+01  0.37223294966E+02  0.38944196067E+02  0.51100000000E-03 0.  1.
         22    1    1    0    0    0  0.63667122919E+01 -0.16541536110E+02  0.20050022008E+02  0.26761181305E+02  0.00000000000E+00 0. -1.
</event>
<event>
 5    1  0.1103865E-009  0.9118800E+02  0.7818608E-02  0.1130116E+00
         25   -1    0    0    0    0  0.00000000000E+00  0.00000000000E+00  0.99999998245E-14  0.12500000000E+03  0.12500000000E+03 0.  0.
        -11    1    3    3    0    0  0.53675625977E+02  0.21938567043E+02 -0.10054443069E+02  0.58851213867E+02  0.51100000000E-03 0.  1.
         23    2    1    0    0    0  0.24036200498E+02  0.81379348174E+01  0.10572755008E+02  0.97509127589E+02  0.93553631128E+02 0.  0.
         11    1    3    3    0    0 -0.29639425479E+02 -0.13800632225E+02  0.20627198077E+02  0.38657913722E+02  0.51100000000E-03 0. -1.
         22    1    1    0    0    0 -0.24036200498E+02 -0.81379348174E+01 -0.10572755008E+02  0.27490872411E+02  0.00000000000E+00 0.  1.
</event>
<event>
 5    1  0.1103865E-009  0.9118800E+02  0.7818608E-02  0.1130116E+00
         25   -1    0    0    0    0  0.00000000000E+00  0.00000000000E+00  0.99999998245E-14  0.12500000000E+03  0.12500000000E+03 0.  0.
        -11    1    3    3    0    0 -0.33119332756E+02  0.44361853180E+01 -0.25139645129E+02  0.41815926390E+02  0.51100000000E-03 0.  1.
         23    2    1    0    0    0  0.15819671844E+02 -0.16246055448E+02 -0.19219943202E+02  0.95274547076E+02  0.90518709496E+02 0.  0.
         11    1    3    3    0    0  0.48939004601E+02 -0.20682240766E+02  0.59197019272E+01  0.53458620685E+02  0.51100000000E-03 0. -1.
         22    1    1    0    0    0 -0.15819671844E+02  0.16246055448E+02  0.19219943202E+02  0.29725452924E+02  0.00000000000E+00 0. -1.
</event>
<event>
 5    1  0.1103865E-009  0.9118800E+02  0.7818608E-02  0.1130116E+00
         25   -1    0    0    0    0  0.00000000000E+00  0.00000000000E+00  0.99999998245E-14  0.12500000000E+03  0.12500000000E+03 0.  0.
        -11    1    3    3    0    0 -0.15761482132E+02 -0.33162797389E+02 -0.45727447781E+02  0.58644649632E+02  0.51100000000E-03 0. -1.
         23    2    1    0    0    0  0.52801818905E+01 -0.62682590318E+01 -0.25230586975E+02  0.98471639493E+02  0.94830954194E+02 0.  0.
         11    1    3    3    0    0  0.21041664023E+02  0.26894538357E+02  0.20496860806E+02  0.39826989862E+02  0.51100000000E-03 0.  1.
         22    1    1    0    0    0 -0.52801818905E+01  0.62682590318E+01  0.25230586975E+02  0.26528360507E+02  0.00000000000E+00 0. -1.
</event>
<event>
 5    1  0.1103865E-009  0.9118800E+02  0.7818608E-02  0.1130116E+00
         25   -1    0    0    0    0  0.00000000000E+00  0.00000000000E+00  0.99999998245E-14  0.12500000000E+03  0.12500000000E+03 0.  0.
        -11    1    3    3    0    0  0.47420629025E+02 -0.88961092441E+00 -0.34747016450E+02  0.58795090077E+02  0.51100000000E-03 0.  1.
         23    2    1    0    0    0  0.13387776110E+02 -0.10589797028E+02 -0.23553518864E+02  0.95911435217E+02  0.91393975755E+02 0.  0.
         11    1    3    3    0    0 -0.34032852916E+02 -0.97001861039E+01  0.11193497586E+02  0.37116345140E+02  0.51100000000E-03 0. -1.
         22    1    1    0    0    0 -0.13387776110E+02  0.10589797028E+02  0.23553518864E+02  0.29088564783E+02  0.00000000000E+00 0.  1.
</event>
<event>
 5    1  0.1103865E-009  0.9118800E+02  0.7818608E-02  0.1130116E+00
         25   -1    0    0    0    0  0.00000000000E+00  0.00000000000E+00  0.99999998245E-14  0.12500000000E+03  0.12500000000E+03 0.  0.
        -11    1    3    3    0    0 -0.26741262041E+02 -0.17849346184E+02 -0.50487238757E+02  0.59855288257E+02  0.51100000000E-03 0.  1.
         23    2    1    0    0    0 -0.11027907885E+02  0.44373221705E+01 -0.25603902879E+02  0.96771212867E+02  0.92562428753E+02 0.  0.
         11    1    3    3    0    0  0.15713354156E+02  0.22286668355E+02  0.24883335877E+02  0.36915924610E+02  0.51100000000E-03 0. -1.
         22    1    1    0    0    0  0.11027907885E+02 -0.44373221705E+01  0.25603902879E+02  0.28228787133E+02  0.00000000000E+00 0.  1.
</event>
<event>
 5    1  0.1103865E-009  0.9118800E+02  0.7818608E-02  0.1130116E+00
         25   -1    0    0    0    0  0.00000000000E+00  0.00000000000E+00  0.99999998245E-14  0.12500000000E+03  0.12500000000E+03 0.  0.
        -11    1    3    3    0    0 -0.31424864831E+02 -0.11174724209E+02  0.14562131104E+02  0.36393024789E+02  0.51100000000E-03 0.  1.
         23    2    1    0    0    0  0.23725061424E+02  0.10023785949E+02  0.14431097713E+02  0.95476934348E+02  0.90797762015E+02 0.  0.
         11    1    3    3    0    0  0.55149926254E+02  0.21198510157E+02 -0.13103339116E+00  0.59083909559E+02  0.51100000000E-03 0. -1.
         22    1    1    0    0    0 -0.23725061424E+02 -0.10023785949E+02 -0.14431097713E+02  0.29523065652E+02  0.00000000000E+00 0. -1.
</event>
<event>
 5    1  0.1103865E-009  0.9118800E+02  0.7818608E-02  0.1130116E+00
         25   -1    0    0    0    0  0.00000000000E+00  0.00000000000E+00  0.99999998245E-14  0.12500000000E+03  0.12500000000E+03 0.  0.
        -11    1    3    3    0    0  0.35468478452E+02  0.29499534268E+02 -0.13731680781E+02  0.48133091975E+02  0.51100000000E-03 0. -1.
         23    2    1    0    0    0  0.22730266531E+02 -0.14034496038E+02  0.60359090148E+01  0.97612698321E+02  0.93691913100E+02 0.  0.
         11    1    3    3    0    0 -0.12738211921E+02 -0.43534030306E+02  0.19767589796E+02  0.49479606347E+02  0.51100000000E-03 0.  1.
         22    1    1    0    0    0 -0.22730266531E+02  0.14034496038E+02 -0.60359090148E+01  0.27387301679E+02  0.00000000000E+00 0.  1.
</event>
